<LesHouchesEvents version="3.0">
<header>
<!--
#*********************************************************************
#                                                                    *
#                        MadGraph5_aMC@NLO                           *
#                                                                    *
#                           Going Beyond                             *
#                                                                    *
#                   http://madgraph.hep.uiuc.edu                     *
#                   http://madgraph.phys.ucl.ac.be                   *
#                   http://amcatnlo.cern.ch                          *
#                                                                    *
#                     The MadGraph5_aMC@NLO team                     *
#                                                                    *
#....................................................................*
#                                                                    *
# This file contains all the information necessary to reproduce      *
# the events generated:                                              *
#                                                                    *
# 1. software version                                                *
# 2. proc_card          : code generation info including model       *
# 3. param_card         : model primary parameters in the LH format  *
# 4. run_card           : running parameters (collider and cuts)     *
# 5. pythia_card        : present only if pythia has been run        *
# 6. pgs_card           : present only if pgs has been run           *
# 7. delphes_cards      : present only if delphes has been run       *
#                                                                    *
#                                                                    *
#*********************************************************************
-->
<MGVersion>
#5.2.2.3
</MGVersion>
<MG5ProcCard>
#************************************************************
#*                     MadGraph5_aMC@NLO                    *
#*                                                          *
#*                *                       *                 *
#*                  *        * *        *                   *
#*                    * * * * 5 * * * *                     *
#*                  *        * *        *                   *
#*                *                       *                 *
#*                                                          *
#*                                                          *
#*         VERSION 2.2.3                 2015-02-10         *
#*                                                          *
#*    The MadGraph5_aMC@NLO Development Team - Find us at   *
#*    https://server06.fynu.ucl.ac.be/projects/madgraph     *
#*                                                          *
#************************************************************
#*                                                          *
#*               Command File for MadGraph5_aMC@NLO         *
#*                                                          *
#*     run as ./bin/mg5_aMC  filename                       *
#*                                                          *
#************************************************************
set group_subprocesses Auto
set ignore_six_quark_processes False
set loop_optimized_output True
set gauge unitary
set complex_mass_scheme False
import model sm
define p = g u c d s u~ c~ d~ s~
define j = g u c d s u~ c~ d~ s~
define l+ = e+ mu+
define l- = e- mu-
define vl = ve vm vt
define vl~ = ve~ vm~ vt~
import model Zprime_UFO
generate p p > zph, zph > j j
add process p p > zph, zph > b b~
output Dijet_signal
</MG5ProcCard>
<MGProcCard>
#*********************************************************************
#                        MadGraph/MadEvent                           *
#                   http://madgraph.hep.uiuc.edu                     *
#                                                                    *
#                          proc_card.dat                             *
#*********************************************************************
#                                                                    *
#            This Files is generated by MADGRAPH 5                   *
#                                                                    *
# WARNING: This Files is generated for MADEVENT (compatibility issue)*
#          This files is NOT a valid MG4 proc_card.dat               *
#          Running this in MG4 will NEVER reproduce the result of MG5*
#                                                                    *
#*********************************************************************
#*********************************************************************
# Process(es) requested : mg2 input                                  *
#*********************************************************************
# Begin PROCESS # This is TAG. Do not modify this line
p p > zph , zph > j j           #Process
# Be carefull the coupling are here in MG5 convention
          
end_coup           # End the couplings input

done               # this tells MG there are no more procs
# End PROCESS  # This is TAG. Do not modify this line
#*********************************************************************
# Model information                                                  *
#*********************************************************************
# Begin MODEL  # This is TAG. Do not modify this line
Zprime_UFO
# End   MODEL  # This is TAG. Do not modify this line
#*********************************************************************
# Start multiparticle definitions                                    *
#*********************************************************************
# Begin MULTIPARTICLES # This is TAG. Do not modify this line

# End  MULTIPARTICLES # This is TAG. Do not modify this line
</MGProcCard>
<MGRunCard>
#*********************************************************************
#                       MadGraph5_aMC@NLO                            *
#                                                                    *
#                     run_card.dat MadEvent                          *
#                                                                    *
#  This file is used to set the parameters of the run.               *
#                                                                    *
#  Some notation/conventions:                                        *
#                                                                    *
#   Lines starting with a '# ' are info or comments                  *
#                                                                    *
#   mind the format:   value    = variable     ! comment             *
#*********************************************************************
#
#*******************                                                 
# Running parameters
#*******************                                                 
#                                                                    
#*********************************************************************
# Tag name for the run (one word)                                    *
#*********************************************************************
  tag_1     = run_tag ! name of the run 
#*********************************************************************
# Run to generate the grid pack                                      *
#*********************************************************************
  .false.     = gridpack  !True = setting up the grid pack
#*********************************************************************
# Number of events and rnd seed                                      *
# Warning: Do not generate more than 1M events in a single run       *
# If you want to run Pythia, avoid more than 50k events in a run.    *
#*********************************************************************
  2000 = nevents ! Number of unweighted events requested 
 1974 = iseed   ! rnd seed (0=assigned automatically=default))
#*********************************************************************
# Collider type and energy                                           *
# lpp: 0=No PDF, 1=proton, -1=antiproton, 2=photon from proton,      *
#                                         3=photon from electron     *
#*********************************************************************
        1     = lpp1    ! beam 1 type 
        1     = lpp2    ! beam 2 type
     4000     = ebeam1  ! beam 1 total energy in GeV
     4000     = ebeam2  ! beam 2 total energy in GeV
#*********************************************************************
# Beam polarization from -100 (left-handed) to 100 (right-handed)    *
#*********************************************************************
        0     = polbeam1 ! beam polarization for beam 1
        0     = polbeam2 ! beam polarization for beam 2
#*********************************************************************
# PDF CHOICE: this automatically fixes also alpha_s and its evol.    *
#*********************************************************************
 'nn23lo1'    = pdlabel     ! PDF set                                     
 230000    = lhaid     ! if pdlabel=lhapdf, this is the lhapdf number
#*********************************************************************
# Renormalization and factorization scales                           *
#*********************************************************************
 F        = fixed_ren_scale  ! if .true. use fixed ren scale
 F        = fixed_fac_scale  ! if .true. use fixed fac scale
 91.1880  = scale            ! fixed ren scale
 91.1880  = dsqrt_q2fact1    ! fixed fact scale for pdf1
 91.1880  = dsqrt_q2fact2    ! fixed fact scale for pdf2
 1        = scalefact        ! scale factor for event-by-event scales
#*********************************************************************
# Matching - Warning! ickkw > 1 is still beta
#*********************************************************************
 0        = ickkw            ! 0 no matching, 1 MLM, 2 CKKW matching
 1        = highestmult      ! for ickkw=2, highest mult group
 1        = ktscheme         ! for ickkw=1, 1 Durham kT, 2 Pythia pTE
 1        = alpsfact         ! scale factor for QCD emission vx
 F        = chcluster        ! cluster only according to channel diag
 T        = pdfwgt           ! for ickkw=1, perform pdf reweighting
 5        = asrwgtflavor     ! highest quark flavor for a_s reweight
 T        = clusinfo         ! include clustering tag in output
 3.0      = lhe_version       ! Change the way clustering information pass to shower.        
#*********************************************************************
#**********************************************************
#
#**********************************************************
# Automatic ptj and mjj cuts if xqcut > 0
# (turn off for VBF and single top processes)
#**********************************************************
   T  = auto_ptj_mjj  ! Automatic setting of ptj and mjj
#**********************************************************
#                                                                    
#**********************************
# BW cutoff (M+/-bwcutoff*Gamma)
#**********************************
  15  = bwcutoff      ! (M+/-bwcutoff*Gamma)
#**********************************************************
# Apply pt/E/eta/dr/mij cuts on decay products or not
# (note that etmiss/ptll/ptheavy/ht/sorted cuts always apply)
#**********************************************************
   T  = cut_decays    ! Cut decay products 
#*************************************************************
# Number of helicities to sum per event (0 = all helicities)
# 0 gives more stable result, but longer run time (needed for
# long decay chains e.g.).
# Use >=2 if most helicities contribute, e.g. pure QCD.
#*************************************************************
   0  = nhel          ! Number of helicities used per event
#*******************                                                 
# Standard Cuts
#*******************                                                 
#                                                                    
#*********************************************************************
# Minimum and maximum pt's (for max, -1 means no cut)                *
#*********************************************************************
 20  = ptj       ! minimum pt for the jets 
  0  = ptb       ! minimum pt for the b 
 10  = pta       ! minimum pt for the photons 
 10  = ptl       ! minimum pt for the charged leptons 
  0  = misset    ! minimum missing Et (sum of neutrino's momenta)
  0  = ptheavy   ! minimum pt for one heavy final state
 1.0 = ptonium   ! minimum pt for the quarkonium states
 -1  = ptjmax    ! maximum pt for the jets
 -1  = ptbmax    ! maximum pt for the b
 -1  = ptamax    ! maximum pt for the photons
 -1  = ptlmax    ! maximum pt for the charged leptons
 -1  = missetmax ! maximum missing Et (sum of neutrino's momenta)
#*********************************************************************
# Minimum and maximum E's (in the center of mass frame)              *
#*********************************************************************
  0  = ej     ! minimum E for the jets 
  0  = eb     ! minimum E for the b 
  0  = ea     ! minimum E for the photons 
  0  = el     ! minimum E for the charged leptons 
 -1   = ejmax ! maximum E for the jets
 -1   = ebmax ! maximum E for the b
 -1   = eamax ! maximum E for the photons
 -1   = elmax ! maximum E for the charged leptons
#*********************************************************************
# Maximum and minimum absolute rapidity (for max, -1 means no cut)   *
#*********************************************************************
   5  = etaj    ! max rap for the jets 
  -1  = etab    ! max rap for the b
 2.5  = etaa    ! max rap for the photons 
 2.5  = etal    ! max rap for the charged leptons 
 0.6  = etaonium ! max rap for the quarkonium states
   0  = etajmin ! min rap for the jets
   0  = etabmin ! min rap for the b
   0  = etaamin ! min rap for the photons
   0  = etalmin ! main rap for the charged leptons
#*********************************************************************
# Minimum and maximum DeltaR distance                                *
#*********************************************************************
 0.4 = drjj    ! min distance between jets 
 0   = drbb    ! min distance between b's 
 0.4 = drll    ! min distance between leptons 
 0.4 = draa    ! min distance between gammas 
 0   = drbj    ! min distance between b and jet 
 0.4 = draj    ! min distance between gamma and jet 
 0.4 = drjl    ! min distance between jet and lepton 
 0   = drab    ! min distance between gamma and b 
 0   = drbl    ! min distance between b and lepton 
 0.4 = dral    ! min distance between gamma and lepton 
 -1  = drjjmax ! max distance between jets
 -1  = drbbmax ! max distance between b's
 -1  = drllmax ! max distance between leptons
 -1  = draamax ! max distance between gammas
 -1  = drbjmax ! max distance between b and jet
 -1  = drajmax ! max distance between gamma and jet
 -1  = drjlmax ! max distance between jet and lepton
 -1  = drabmax ! max distance between gamma and b
 -1  = drblmax ! max distance between b and lepton
 -1  = dralmax ! maxdistance between gamma and lepton
#*********************************************************************
# Minimum and maximum invariant mass for pairs                       *
# WARNING: for four lepton final state mmll cut require to have      *
#          different lepton masses for each flavor!                  *           
#*********************************************************************
 0   = mmjj    ! min invariant mass of a jet pair 
 0   = mmbb    ! min invariant mass of a b pair 
 0   = mmaa    ! min invariant mass of gamma gamma pair
 0   = mmll    ! min invariant mass of l+l- (same flavour) lepton pair
 -1  = mmjjmax ! max invariant mass of a jet pair
 -1  = mmbbmax ! max invariant mass of a b pair
 -1  = mmaamax ! max invariant mass of gamma gamma pair
 -1  = mmllmax ! max invariant mass of l+l- (same flavour) lepton pair
#*********************************************************************
# Minimum and maximum invariant mass for all letpons                 *
#*********************************************************************
 0   = mmnl    ! min invariant mass for all letpons (l+- and vl) 
 -1  = mmnlmax ! max invariant mass for all letpons (l+- and vl) 
#*********************************************************************
# Minimum and maximum pt for 4-momenta sum of leptons                *
#*********************************************************************
 0   = ptllmin  ! Minimum pt for 4-momenta sum of leptons(l and vl)
 -1  = ptllmax  ! Maximum pt for 4-momenta sum of leptons(l and vl)
#*********************************************************************
# Inclusive cuts                                                     *
#*********************************************************************
 0  = xptj ! minimum pt for at least one jet  
 0  = xptb ! minimum pt for at least one b 
 0  = xpta ! minimum pt for at least one photon 
 0  = xptl ! minimum pt for at least one charged lepton 
#*********************************************************************
# Control the pt's of the jets sorted by pt                          *
#*********************************************************************
 0   = ptj1min ! minimum pt for the leading jet in pt
 0   = ptj2min ! minimum pt for the second jet in pt
 0   = ptj3min ! minimum pt for the third jet in pt
 0   = ptj4min ! minimum pt for the fourth jet in pt
 -1  = ptj1max ! maximum pt for the leading jet in pt 
 -1  = ptj2max ! maximum pt for the second jet in pt
 -1  = ptj3max ! maximum pt for the third jet in pt
 -1  = ptj4max ! maximum pt for the fourth jet in pt
 0   = cutuse  ! reject event if fails any (0) / all (1) jet pt cuts
#*********************************************************************
# Control the pt's of leptons sorted by pt                           *
#*********************************************************************
 0   = ptl1min ! minimum pt for the leading lepton in pt
 0   = ptl2min ! minimum pt for the second lepton in pt
 0   = ptl3min ! minimum pt for the third lepton in pt
 0   = ptl4min ! minimum pt for the fourth lepton in pt
 -1  = ptl1max ! maximum pt for the leading lepton in pt 
 -1  = ptl2max ! maximum pt for the second lepton in pt
 -1  = ptl3max ! maximum pt for the third lepton in pt
 -1  = ptl4max ! maximum pt for the fourth lepton in pt
#*********************************************************************
# Control the Ht(k)=Sum of k leading jets                            *
#*********************************************************************
 0   = htjmin ! minimum jet HT=Sum(jet pt)
 -1  = htjmax ! maximum jet HT=Sum(jet pt)
 0   = ihtmin  !inclusive Ht for all partons (including b)
 -1  = ihtmax  !inclusive Ht for all partons (including b)
 0   = ht2min ! minimum Ht for the two leading jets
 0   = ht3min ! minimum Ht for the three leading jets
 0   = ht4min ! minimum Ht for the four leading jets
 -1  = ht2max ! maximum Ht for the two leading jets
 -1  = ht3max ! maximum Ht for the three leading jets
 -1  = ht4max ! maximum Ht for the four leading jets
#***********************************************************************
# Photon-isolation cuts, according to hep-ph/9801442                   *
# When ptgmin=0, all the other parameters are ignored                  *
# When ptgmin>0, pta and draj are not going to be used                 *
#***********************************************************************
   0 = ptgmin ! Min photon transverse momentum
 0.4 = R0gamma ! Radius of isolation code
 1.0 = xn ! n parameter of eq.(3.4) in hep-ph/9801442
 1.0 = epsgamma ! epsilon_gamma parameter of eq.(3.4) in hep-ph/9801442
 .true. = isoEM ! isolate photons from EM energy (photons and leptons)
#*********************************************************************
# WBF cuts                                                           *
#*********************************************************************
 0   = xetamin ! minimum rapidity for two jets in the WBF case  
 0   = deltaeta ! minimum rapidity for two jets in the WBF case 
#*********************************************************************
# KT DURHAM CUT                                                      *
#*********************************************************************
 -1    =  ktdurham        
 0.4  =  dparameter 
#*********************************************************************
# maximal pdg code for quark to be considered as a light jet         *
# (otherwise b cuts are applied)                                     *
#*********************************************************************
 4 = maxjetflavor    ! Maximum jet pdg code
#*********************************************************************
# Jet measure cuts                                                   *
#*********************************************************************
 0   = xqcut   ! minimum kt jet measure between partons
#*********************************************************************
#
#*********************************************************************
# Store info for systematics studies                                 *
# WARNING: If use_syst is T, matched Pythia output is                *
#          meaningful ONLY if plotted taking matchscale              *
#          reweighting into account!                                 *
#*********************************************************************
   F  = use_syst      ! Enable systematics studies
#
#**************************************
# Parameter of the systematics study
#  will be used by SysCalc (if installed)
#**************************************                                  
#
0.5 1 2 = sys_scalefact  # factorization/renormalization scale factor
0.5 1 2 = sys_alpsfact  # \alpha_s emission scale factors
30 50 = sys_matchscale # variation of merging scale
# PDF sets and number of members (0 or none for all members).
CT10nlo.LHgrid = sys_pdf # matching scales
# MSTW2008nlo68cl.LHgrid 1  = sys_pdf
</MGRunCard>
<slha>
######################################################################
## PARAM_CARD AUTOMATICALY GENERATED BY MG5 FOLLOWING UFO MODEL   ####
######################################################################
##                                                                  ##
##  Width set on Auto will be computed following the information    ##
##        present in the decay.py files of the model.               ##
##        See  arXiv:1402.1178 for more details.                    ##
##                                                                  ##
######################################################################

###################################
## INFORMATION FOR CKMBLOCK
###################################
Block ckmblock 
    1 2.277360e-01 # cabi 

###################################
## INFORMATION FOR FRBLOCK
###################################
Block frblock 
    1 1.000000e+00 # gz 

###################################
## INFORMATION FOR MASS
###################################
Block mass 
    1 5.040000e-03 # MD 
    2 2.550000e-03 # MU 
    3 1.010000e-01 # MS 
    4 1.270000e+00 # MC 
    5 4.700000e+00 # MB 
    6 1.720000e+02 # MT 
   11 5.110000e-04 # Me 
   13 1.056600e-01 # MM 
   15 1.777000e+00 # MTA 
   23 9.118760e+01 # MZ 
   25 1.200000e+02 # MH 
  10030 2.500000e+03 # MZph 
  10031 3.000000e+02 # MZpl 
## Dependent parameters, given by model restrictions.
## Those values should be edited following the 
## analytical expression. MG5 ignores those values 
## but they are important for interfacing the output of MG5
## to external program such as Pythia.
  12 0.000000 # ve : 0.0 
  14 0.000000 # vm : 0.0 
  16 0.000000 # vt : 0.0 
  21 0.000000 # g : 0.0 
  22 0.000000 # a : 0.0 
  24 79.824360 # w+ : cmath.sqrt(MZ__exp__2/2. + cmath.sqrt(MZ__exp__4/4. - (aEW*cmath.pi*MZ__exp__2)/(Gf*sqrt__2))) 

###################################
## INFORMATION FOR SMINPUTS
###################################
Block sminputs 
    1 1.279000e+02 # aEWM1 
    2 1.166370e-05 # Gf 
    3 1.184000e-01 # aS 

###################################
## INFORMATION FOR YUKAWA
###################################
Block yukawa 
    1 5.040000e-03 # ymdo 
    2 2.550000e-03 # ymup 
    3 1.010000e-01 # yms 
    4 1.270000e+00 # ymc 
    5 4.700000e+00 # ymb 
    6 1.720000e+02 # ymt 
   11 5.110000e-04 # yme 
   13 1.056600e-01 # ymm 
   15 1.777000e+00 # ymtau 

###################################
## INFORMATION FOR DECAY
###################################
DECAY   6 1.508336e+00 # WT 
DECAY  23 2.495200e+00 # WZ 
DECAY  24 2.085000e+00 # WW 
DECAY  25 5.753088e-03 # WH 
## Dependent parameters, given by model restrictions.
## Those values should be edited following the 
## analytical expression. MG5 ignores those values 
## but they are important for interfacing the output of MG5
## to external program such as Pythia.
DECAY  1 0.000000 # d : 0.0 
DECAY  2 0.000000 # u : 0.0 
DECAY  3 0.000000 # s : 0.0 
DECAY  4 0.000000 # c : 0.0 
DECAY  5 0.000000 # b : 0.0 
DECAY  11 0.000000 # e- : 0.0 
DECAY  12 0.000000 # ve : 0.0 
DECAY  13 0.000000 # mu- : 0.0 
DECAY  14 0.000000 # vm : 0.0 
DECAY  15 0.000000 # ta- : 0.0 
DECAY  16 0.000000 # vt : 0.0 
DECAY  21 0.000000 # g : 0.0 
DECAY  22 0.000000 # a : 0.0 
DECAY  10030 0.308725 # zph : (gz__exp__2*MZph*(5 + cmath.sqrt(1 - (4*MT__exp__2)/MZph__exp__2)))/(144.*cmath.pi) 
DECAY  10031 0.132629 # zpl : (5*gz__exp__2*MZpl)/(144.*cmath.pi) 
#===========================================================
# QUANTUM NUMBERS OF NEW STATE(S) (NON SM PDG CODE)
#===========================================================

Block QNUMBERS 10030  # zph 
        1 0  # 3 times electric charge
        2 3  # number of spin states (2S+1)
        3 1  # colour rep (1: singlet, 3: triplet, 8: octet)
        4 0  # Particle/Antiparticle distinction (0=own anti)
Block QNUMBERS 10031  # zpl 
        1 0  # 3 times electric charge
        2 3  # number of spin states (2S+1)
        3 1  # colour rep (1: singlet, 3: triplet, 8: octet)
        4 0  # Particle/Antiparticle distinction (0=own anti)
</slha>
## END BANNER##
<MGGenerationInfo>
#  Number of Events        :         3874
#  Integrated weight (pb)  :  0.65332E-02
#  Max wgt                 :  0.24525E-05
#  Average wgt             :  0.16864E-05
</MGGenerationInfo>
</header>
<init>
     2212     2212  0.40000000000E+04  0.40000000000E+04 0 0  247000  247000 2   1
  0.65396982180E-02  0.14361270179E-04  0.24524570000E-05   0
</init>
<event>
 5   0  0.2452457E-05  0.2441358E+04  0.7818609E-02  0.8424180E-01
       -2   -1    0    0    0  501  0.00000000000E+00  0.00000000000E+00  0.93722648645E+03  0.93722648645E+03  0.25500000920E-02 0. -1.
        2   -1    0    0  501    0  0.00000000000E+00  0.00000000000E+00 -0.15898577400E+04  0.15898577400E+04  0.25500000920E-02 0.  1.
    10030    2    1    2    0    0  0.00000000000E+00  0.00000000000E+00 -0.65263125355E+03  0.25270842264E+04  0.24413576417E+04 0.  0.
        1    1    3    3  502    0 -0.10801901513E+04  0.37276514189E+03  0.11805132582E+03  0.11487822812E+04  0.50400001928E-02 0. -1.
       -1    1    3    3    0  502  0.10801901513E+04 -0.37276514189E+03 -0.77068257937E+03  0.13783019452E+04  0.50400001928E-02 0.  1.
</event>
<event>
 5   0  0.2452457E-05  0.2435719E+04  0.7818609E-02  0.8426251E-01
        2   -1    0    0  501    0  0.00000000000E+00  0.00000000000E+00  0.16455855221E+04  0.16455855221E+04  0.25500000920E-02 0.  1.
       -2   -1    0    0    0  501  0.00000000000E+00  0.00000000000E+00 -0.90130918117E+03  0.90130918117E+03  0.25500000920E-02 0. -1.
    10030    2    1    2    0    0  0.00000000000E+00  0.00000000000E+00  0.74427634089E+03  0.25468947032E+04  0.24357186532E+04 0.  0.
        1    1    3    3  502    0  0.10718178469E+04  0.17928133456E+03  0.94700093874E+03  0.14414388894E+04  0.50400001928E-02 0.  1.
       -1    1    3    3    0  502 -0.10718178469E+04 -0.17928133456E+03 -0.20272459784E+03  0.11054558139E+04  0.50400001928E-02 0. -1.
</event>
<event>
 5   0  0.2441340E-05  0.2433169E+04  0.7818609E-02  0.8427189E-01
        2   -1    0    0  501    0  0.00000000000E+00  0.00000000000E+00  0.15076590612E+04  0.15076590612E+04  0.25500000920E-02 0. -1.
       -2   -1    0    0    0  501  0.00000000000E+00  0.00000000000E+00 -0.98170565268E+03  0.98170565269E+03  0.25500000920E-02 0.  1.
    10030    2    1    2    0    0  0.00000000000E+00  0.00000000000E+00  0.52595340851E+03  0.24893647139E+04  0.24331686524E+04 0.  0.
        3    1    3    3  502    0 -0.60540611797E+03  0.10543199232E+04  0.21756295163E+03  0.12350873314E+04  0.10100000352E+00 0.  1.
       -3    1    3    3    0  502  0.60540611797E+03 -0.10543199232E+04  0.30839045688E+03  0.12542773825E+04  0.10100000352E+00 0. -1.
</event>
<event>
 5   0  0.2452457E-05  0.2474353E+04  0.7818609E-02  0.8412180E-01
       -2   -1    0    0    0  501  0.00000000000E+00  0.00000000000E+00  0.12041172981E+04  0.12041172981E+04  0.25500000920E-02 0.  1.
        2   -1    0    0  501    0  0.00000000000E+00  0.00000000000E+00 -0.12711433063E+04  0.12711433063E+04  0.25500000920E-02 0. -1.
    10030    2    1    2    0    0  0.00000000000E+00  0.00000000000E+00 -0.67026008200E+02  0.24752606045E+04  0.24743529607E+04 0.  0.
        1    1    3    3  502    0  0.64976920378E+03  0.29566692097E+03  0.97729650939E+03  0.12102592341E+04  0.50400001928E-02 0.  1.
       -1    1    3    3    0  502 -0.64976920378E+03 -0.29566692097E+03 -0.10443225176E+04  0.12650013704E+04  0.50400001928E-02 0. -1.
</event>
<event>
 5   0  0.2441340E-05  0.2503028E+04  0.7818609E-02  0.8401908E-01
       -2   -1    0    0    0  501  0.00000000000E+00  0.00000000000E+00  0.13134334267E+04  0.13134334267E+04  0.25500000920E-02 0. -1.
        2   -1    0    0  501    0  0.00000000000E+00  0.00000000000E+00 -0.11925138175E+04  0.11925138175E+04  0.25500000920E-02 0.  1.
    10030    2    1    2    0    0  0.00000000000E+00  0.00000000000E+00  0.12091960928E+03  0.25059472442E+04  0.25030281738E+04 0.  0.
        3    1    3    3  502    0  0.10140796352E+04 -0.72596226579E+03 -0.44107113990E+02  0.12479279489E+04  0.10100000352E+00 0.  1.
       -3    1    3    3    0  502 -0.10140796352E+04  0.72596226579E+03  0.16502672327E+03  0.12580192953E+04  0.10100000352E+00 0. -1.
</event>
<event>
 5   0  0.1008073E-05  0.2519625E+04  0.7818609E-02  0.8396027E-01
       -1   -1    0    0    0  501  0.00000000000E+00  0.00000000000E+00  0.95499020611E+03  0.95499020612E+03  0.50400001928E-02 0. -1.
        1   -1    0    0  501    0  0.00000000000E+00  0.00000000000E+00 -0.16619302801E+04  0.16619302801E+04  0.50400001928E-02 0.  1.
    10030    2    1    2    0    0  0.00000000000E+00  0.00000000000E+00 -0.70694007400E+03  0.26169204862E+04  0.25196246869E+04 0.  0.
        1    1    3    3  502    0 -0.43135285958E+03  0.10674379487E+04 -0.88472762526E+03  0.14519752183E+04  0.50400001928E-02 0.  1.
       -1    1    3    3    0  502  0.43135285958E+03 -0.10674379487E+04  0.17778755126E+03  0.11649452679E+04  0.50400001928E-02 0. -1.
</event>
<event>
 5   0  0.1039688E-05  0.2478936E+04  0.7818609E-02  0.8410528E-01
       -1   -1    0    0    0  501  0.00000000000E+00  0.00000000000E+00  0.11273033800E+04  0.11273033800E+04  0.50400001928E-02 0. -1.
        1   -1    0    0  501    0  0.00000000000E+00  0.00000000000E+00 -0.13627922539E+04  0.13627922539E+04  0.50400001928E-02 0.  1.
    10030    2    1    2    0    0  0.00000000000E+00  0.00000000000E+00 -0.23548887387E+03  0.24900956339E+04  0.24789355087E+04 0.  0.
        3    1    3    3  502    0  0.56694959602E+03  0.52790682343E+03  0.85416656588E+03  0.11531339866E+04  0.10100000352E+00 0. -1.
       -3    1    3    3    0  502 -0.56694959602E+03 -0.52790682343E+03 -0.10896554397E+04  0.13369616473E+04  0.10100000352E+00 0.  1.
</event>
<event>
 5   0  0.2452457E-05  0.2506839E+04  0.7818609E-02  0.8400553E-01
       -2   -1    0    0    0  501  0.00000000000E+00  0.00000000000E+00  0.16406043131E+04  0.16406043131E+04  0.25500000920E-02 0. -1.
        2   -1    0    0  501    0  0.00000000000E+00  0.00000000000E+00 -0.95761098645E+03  0.95761098646E+03  0.25500000920E-02 0.  1.
    10030    2    1    2    0    0  0.00000000000E+00  0.00000000000E+00  0.68299332665E+03  0.25982152996E+04  0.25068392168E+04 0.  0.
        1    1    3    3  502    0  0.89375943431E+03  0.23365285135E+03 -0.53653134334E+03  0.10683002686E+04  0.50400001928E-02 0.  1.
       -1    1    3    3    0  502 -0.89375943431E+03 -0.23365285135E+03  0.12195246700E+04  0.15299150310E+04  0.50400001928E-02 0. -1.
</event>
<event>
 5   0  0.1010338E-05  0.2461394E+04  0.7818609E-02  0.8416870E-01
        1   -1    0    0  501    0  0.00000000000E+00  0.00000000000E+00  0.77018350709E+03  0.77018350710E+03  0.50400001928E-02 0.  1.
       -1   -1    0    0    0  501  0.00000000000E+00  0.00000000000E+00 -0.19665636457E+04  0.19665636457E+04  0.50400001928E-02 0. -1.
    10030    2    1    2    0    0  0.00000000000E+00  0.00000000000E+00 -0.11963801386E+04  0.27367471528E+04  0.24613938211E+04 0.  0.
        2    1    3    3  502    0 -0.28629381714E+03 -0.11418385491E+04 -0.99731144505E+03  0.15428511076E+04  0.25500000920E-02 0.  1.
       -2    1    3    3    0  502  0.28629381714E+03  0.11418385491E+04 -0.19906869356E+03  0.11938960452E+04  0.25500000920E-02 0. -1.
</event>
<event>
 5   0  0.2452457E-05  0.2520519E+04  0.7818609E-02  0.8395712E-01
       -2   -1    0    0    0  501  0.00000000000E+00  0.00000000000E+00  0.13415460035E+04  0.13415460035E+04  0.25500000920E-02 0.  1.
        2   -1    0    0  501    0  0.00000000000E+00  0.00000000000E+00 -0.11838985826E+04  0.11838985826E+04  0.25500000920E-02 0. -1.
    10030    2    1    2    0    0  0.00000000000E+00  0.00000000000E+00  0.15764742087E+03  0.25254445861E+04  0.25205193211E+04 0.  0.
        1    1    3    3  502    0 -0.33385979972E+02  0.10527246629E+04  0.77220964081E+03  0.13060059605E+04  0.50400001928E-02 0.  1.
       -1    1    3    3    0  502  0.33385979972E+02 -0.10527246629E+04 -0.61456221994E+03  0.12194386256E+04  0.50400001928E-02 0. -1.
</event>
<event>
 5   0  0.1010338E-05  0.2513465E+04  0.7818609E-02  0.8398204E-01
       -1   -1    0    0    0  501  0.00000000000E+00  0.00000000000E+00  0.11553408213E+04  0.11553408213E+04  0.50400001928E-02 0. -1.
        1   -1    0    0  501    0  0.00000000000E+00  0.00000000000E+00 -0.13670217984E+04  0.13670217984E+04  0.50400001928E-02 0.  1.
    10030    2    1    2    0    0  0.00000000000E+00  0.00000000000E+00 -0.21168097708E+03  0.25223626197E+04  0.25134646107E+04 0.  0.
        2    1    3    3  502    0 -0.11037248391E+04  0.57195644881E+03  0.79294002384E+02  0.12456445073E+04  0.25500000920E-02 0.  1.
       -2    1    3    3    0  502  0.11037248391E+04 -0.57195644881E+03 -0.29097497947E+03  0.12767181124E+04  0.25500000920E-02 0. -1.
</event>
<event>
 5   0  0.2345143E-05  0.2554436E+04  0.7818609E-02  0.8383845E-01
        2   -1    0    0  501    0  0.00000000000E+00  0.00000000000E+00  0.16015468397E+04  0.16015468397E+04  0.25500000920E-02 0.  1.
       -2   -1    0    0    0  501  0.00000000000E+00  0.00000000000E+00 -0.10185685463E+04  0.10185685463E+04  0.25500000920E-02 0. -1.
    10030    2    1    2    0    0  0.00000000000E+00  0.00000000000E+00  0.58297829342E+03  0.26201153860E+04  0.25544355434E+04 0.  0.
        5    1    3    3  502    0  0.73896367138E+03 -0.48298627387E+03  0.12382164472E+04  0.15207054641E+04  0.46999998093E+01 0.  1.
       -5    1    3    3    0  502 -0.73896367138E+03  0.48298627387E+03 -0.65523815375E+03  0.10994099220E+04  0.46999998093E+01 0. -1.
</event>
<event>
 5   0  0.1002753E-05  0.2513995E+04  0.7818609E-02  0.8398017E-01
       -1   -1    0    0    0  501  0.00000000000E+00  0.00000000000E+00  0.88246120172E+03  0.88246120174E+03  0.50400001928E-02 0. -1.
        1   -1    0    0  501    0  0.00000000000E+00  0.00000000000E+00 -0.17904947338E+04  0.17904947338E+04  0.50400001928E-02 0.  1.
    10030    2    1    2    0    0  0.00000000000E+00  0.00000000000E+00 -0.90803353203E+03  0.26729559355E+04  0.25139945381E+04 0.  0.
        5    1    3    3  502    0  0.89707751120E+03 -0.87935599329E+03 -0.40640800606E+03  0.13203047305E+04  0.46999998093E+01 0.  1.
       -5    1    3    3    0  502 -0.89707751120E+03  0.87935599329E+03 -0.50162552597E+03  0.13526512050E+04  0.46999998093E+01 0. -1.
</event>
<event>
 5   0  0.1008073E-05  0.2497707E+04  0.7818609E-02  0.8403803E-01
       -1   -1    0    0    0  501  0.00000000000E+00  0.00000000000E+00  0.10177676041E+04  0.10177676041E+04  0.50400001928E-02 0.  1.
        1   -1    0    0  501    0  0.00000000000E+00  0.00000000000E+00 -0.15324075251E+04  0.15324075251E+04  0.50400001928E-02 0. -1.
    10030    2    1    2    0    0  0.00000000000E+00  0.00000000000E+00 -0.51463992099E+03  0.25501751291E+04  0.24977067364E+04 0.  0.
        1    1    3    3  502    0 -0.72252017507E+03  0.32858017112E+03 -0.12417495395E+04  0.14737510818E+04  0.50400001928E-02 0. -1.
       -1    1    3    3    0  502  0.72252017507E+03 -0.32858017112E+03  0.72710961853E+03  0.10764240473E+04  0.50400001928E-02 0.  1.
</event>
<event>
 5   0  0.1039688E-05  0.2497545E+04  0.7818609E-02  0.8403861E-01
        1   -1    0    0  501    0  0.00000000000E+00  0.00000000000E+00  0.22513504377E+04  0.22513504377E+04  0.50400001928E-02 0. -1.
       -1   -1    0    0    0  501  0.00000000000E+00  0.00000000000E+00 -0.69266549750E+03  0.69266549751E+03  0.50400001928E-02 0.  1.
    10030    2    1    2    0    0  0.00000000000E+00  0.00000000000E+00  0.15586849402E+04  0.29440159352E+04  0.24975450114E+04 0.  0.
        3    1    3    3  502    0  0.47038462409E+03 -0.14251828995E+03 -0.57385571074E+03  0.75556835859E+03  0.10100000352E+00 0.  1.
       -3    1    3    3    0  502 -0.47038462409E+03  0.14251828995E+03  0.21325406510E+04  0.21884475767E+04  0.10100000352E+00 0. -1.
</event>
<event>
 5   0  0.1039688E-05  0.2497498E+04  0.7818609E-02  0.8403877E-01
       -1   -1    0    0    0  501  0.00000000000E+00  0.00000000000E+00  0.87733797561E+03  0.87733797563E+03  0.50400001928E-02 0. -1.
        1   -1    0    0  501    0  0.00000000000E+00  0.00000000000E+00 -0.17773933116E+04  0.17773933116E+04  0.50400001928E-02 0.  1.
    10030    2    1    2    0    0  0.00000000000E+00  0.00000000000E+00 -0.90005533597E+03  0.26547312872E+04  0.24974984684E+04 0.  0.
        3    1    3    3  502    0  0.28661587019E+02 -0.12287434574E+04 -0.21535095819E+03  0.12478012727E+04  0.10100000352E+00 0. -1.
       -3    1    3    3    0  502 -0.28661587019E+02  0.12287434574E+04 -0.68470437778E+03  0.14069300145E+04  0.10100000352E+00 0.  1.
</event>
<event>
 5   0  0.2452457E-05  0.2525125E+04  0.7818609E-02  0.8394089E-01
        2   -1    0    0  501    0  0.00000000000E+00  0.00000000000E+00  0.19846060580E+04  0.19846060580E+04  0.25500000920E-02 0.  1.
       -2   -1    0    0    0  501  0.00000000000E+00  0.00000000000E+00 -0.80321442400E+03  0.80321442401E+03  0.25500000920E-02 0. -1.
    10030    2    1    2    0    0  0.00000000000E+00  0.00000000000E+00  0.11813916340E+04  0.27878204820E+04  0.25251251151E+04 0.  0.
        1    1    3    3  502    0  0.47736568274E+03  0.69731769579E+03 -0.44493988491E+03  0.95504003326E+03  0.50400001928E-02 0. -1.
       -1    1    3    3    0  502 -0.47736568274E+03 -0.69731769579E+03  0.16263315189E+04  0.18327804488E+04  0.50400001928E-02 0.  1.
</event>
<event>
 5   0  0.1015327E-05  0.2509705E+04  0.7818609E-02  0.8399536E-01
       -1   -1    0    0    0  501  0.00000000000E+00  0.00000000000E+00  0.97808706513E+03  0.97808706514E+03  0.50400001928E-02 0. -1.
        1   -1    0    0  501    0  0.00000000000E+00  0.00000000000E+00 -0.16099329690E+04  0.16099329690E+04  0.50400001928E-02 0.  1.
    10030    2    1    2    0    0  0.00000000000E+00  0.00000000000E+00 -0.63184590384E+03  0.25880200341E+04  0.25097048533E+04 0.  0.
        4    1    3    3  502    0 -0.66982572604E+02 -0.10107945047E+04  0.44776823958E+03  0.11075604746E+04  0.12699999809E+01 0. -1.
       -4    1    3    3    0  502  0.66982572604E+02  0.10107945047E+04 -0.10796141434E+04  0.14804595595E+04  0.12699999809E+01 0.  1.
</event>
<event>
 5   0  0.1008073E-05  0.2525355E+04  0.7818609E-02  0.8394008E-01
       -1   -1    0    0    0  501  0.00000000000E+00  0.00000000000E+00  0.13059619276E+04  0.13059619276E+04  0.50400001928E-02 0. -1.
        1   -1    0    0  501    0  0.00000000000E+00  0.00000000000E+00 -0.12208279898E+04  0.12208279899E+04  0.50400001928E-02 0.  1.
    10030    2    1    2    0    0  0.00000000000E+00  0.00000000000E+00  0.85133937779E+02  0.25267899175E+04  0.25253553215E+04 0.  0.
        1    1    3    3  502    0  0.61514405303E+02 -0.73488332782E+02  0.13023176691E+04  0.13058391434E+04  0.50400001928E-02 0. -1.
       -1    1    3    3    0  502 -0.61514405303E+02  0.73488332782E+02 -0.12171837313E+04  0.12209507741E+04  0.50400001928E-02 0.  1.
</event>
<event>
 5   0  0.2388326E-05  0.2533781E+04  0.7818609E-02  0.8391049E-01
        2   -1    0    0  501    0  0.00000000000E+00  0.00000000000E+00  0.29298965300E+04  0.29298965300E+04  0.25500000920E-02 0. -1.
       -2   -1    0    0    0  501  0.00000000000E+00  0.00000000000E+00 -0.54780489918E+03  0.54780489919E+03  0.25500000920E-02 0.  1.
    10030    2    1    2    0    0  0.00000000000E+00  0.00000000000E+00  0.23820916308E+04  0.34777014292E+04  0.25337811060E+04 0.  0.
        2    1    3    3  502    0  0.27368395139E+03 -0.11400221090E+04  0.53214592836E+03  0.12875296514E+04  0.25500000920E-02 0. -1.
       -2    1    3    3    0  502 -0.27368395139E+03  0.11400221090E+04  0.18499457024E+04  0.21901717778E+04  0.25500000920E-02 0.  1.
</event>
<event>
 5   0  0.1039688E-05  0.2487595E+04  0.7818609E-02  0.8407418E-01
       -1   -1    0    0    0  501  0.00000000000E+00  0.00000000000E+00  0.73524269058E+03  0.73524269060E+03  0.50400001928E-02 0.  1.
        1   -1    0    0  501    0  0.00000000000E+00  0.00000000000E+00 -0.21041103832E+04  0.21041103832E+04  0.50400001928E-02 0. -1.
    10030    2    1    2    0    0  0.00000000000E+00  0.00000000000E+00 -0.13688676926E+04  0.28393530738E+04  0.24875946450E+04 0.  0.
        3    1    3    3  502    0  0.69830330446E+03  0.53255349528E+03 -0.16897720041E+04  0.19043555777E+04  0.10100000352E+00 0. -1.
       -3    1    3    3    0  502 -0.69830330446E+03 -0.53255349528E+03  0.32090431147E+03  0.93499749608E+03  0.10100000352E+00 0.  1.
</event>
<event>
 5   0  0.2441340E-05  0.2506935E+04  0.7818609E-02  0.8400519E-01
        2   -1    0    0  501    0  0.00000000000E+00  0.00000000000E+00  0.12723863565E+04  0.12723863565E+04  0.25500000920E-02 0.  1.
       -2   -1    0    0    0  501  0.00000000000E+00  0.00000000000E+00 -0.12348298357E+04  0.12348298357E+04  0.25500000920E-02 0. -1.
    10030    2    1    2    0    0  0.00000000000E+00  0.00000000000E+00  0.37556520796E+02  0.25072161921E+04  0.25069348898E+04 0.  0.
        3    1    3    3  502    0  0.27328788368E+03 -0.94193976473E+03 -0.76185005784E+03  0.12419147751E+04  0.10100000352E+00 0. -1.
       -3    1    3    3    0  502 -0.27328788368E+03  0.94193976473E+03  0.79940657864E+03  0.12653014170E+04  0.10100000352E+00 0.  1.
</event>
<event>
 5   0  0.1008073E-05  0.2521567E+04  0.7818609E-02  0.8395342E-01
       -1   -1    0    0    0  501  0.00000000000E+00  0.00000000000E+00  0.85409581493E+03  0.85409581495E+03  0.50400001928E-02 0. -1.
        1   -1    0    0  501    0  0.00000000000E+00  0.00000000000E+00 -0.18611203557E+04  0.18611203557E+04  0.50400001928E-02 0.  1.
    10030    2    1    2    0    0  0.00000000000E+00  0.00000000000E+00 -0.10070245408E+04  0.27152161706E+04  0.25215670579E+04 0.  0.
        1    1    3    3  502    0 -0.61975458358E+03  0.10921214362E+04 -0.62510041299E+03  0.14027029271E+04  0.50400001928E-02 0. -1.
       -1    1    3    3    0  502  0.61975458358E+03 -0.10921214362E+04 -0.38192412777E+03  0.13125132436E+04  0.50400001928E-02 0.  1.
</event>
<event>
 5   0  0.2388326E-05  0.2534836E+04  0.7818609E-02  0.8390679E-01
        2   -1    0    0  501    0  0.00000000000E+00  0.00000000000E+00  0.10452106982E+04  0.10452106982E+04  0.25500000920E-02 0. -1.
       -2   -1    0    0    0  501  0.00000000000E+00  0.00000000000E+00 -0.15368650189E+04  0.15368650189E+04  0.25500000920E-02 0.  1.
    10030    2    1    2    0    0  0.00000000000E+00  0.00000000000E+00 -0.49165432068E+03  0.25820757171E+04  0.25348355050E+04 0.  0.
        2    1    3    3  502    0  0.88710539757E+03  0.90435821734E+03 -0.28564513131E+03  0.12986196182E+04  0.25500000920E-02 0. -1.
       -2    1    3    3    0  502 -0.88710539757E+03 -0.90435821734E+03 -0.20600918936E+03  0.12834560989E+04  0.25500000920E-02 0.  1.
</event>
<event>
 5   0  0.1010338E-05  0.2518450E+04  0.7818609E-02  0.8396442E-01
        1   -1    0    0  501    0  0.00000000000E+00  0.00000000000E+00  0.97014939355E+03  0.97014939357E+03  0.50400001928E-02 0. -1.
       -1   -1    0    0    0  501  0.00000000000E+00  0.00000000000E+00 -0.16344360866E+04  0.16344360866E+04  0.50400001928E-02 0.  1.
    10030    2    1    2    0    0  0.00000000000E+00  0.00000000000E+00 -0.66428669306E+03  0.26045854802E+04  0.25184496646E+04 0.  0.
        2    1    3    3  502    0 -0.19399283762E+03 -0.19621605133E+03 -0.16027870835E+04  0.16263641643E+04  0.25500000920E-02 0.  1.
       -2    1    3    3    0  502  0.19399283762E+03  0.19621605133E+03  0.93850039048E+03  0.97822131585E+03  0.25500000920E-02 0. -1.
</event>
<event>
 5   0  0.2441340E-05  0.2525349E+04  0.7818609E-02  0.8394010E-01
       -2   -1    0    0    0  501  0.00000000000E+00  0.00000000000E+00  0.98061285094E+03  0.98061285094E+03  0.25500000920E-02 0. -1.
        2   -1    0    0  501    0  0.00000000000E+00  0.00000000000E+00 -0.16258675302E+04  0.16258675302E+04  0.25500000920E-02 0.  1.
    10030    2    1    2    0    0  0.00000000000E+00  0.00000000000E+00 -0.64525467926E+03  0.26064803811E+04  0.25253487633E+04 0.  0.
        3    1    3    3  502    0 -0.37199008212E+03  0.77310245847E+03  0.63357155495E+03  0.10665256480E+04  0.10100000352E+00 0. -1.
       -3    1    3    3    0  502  0.37199008212E+03 -0.77310245847E+03 -0.12788262342E+04  0.15399547331E+04  0.10100000352E+00 0.  1.
</event>
<event>
 5   0  0.2345143E-05  0.2475476E+04  0.7818609E-02  0.8411775E-01
        2   -1    0    0  501    0  0.00000000000E+00  0.00000000000E+00  0.10554986539E+04  0.10554986539E+04  0.25500000920E-02 0.  1.
       -2   -1    0    0    0  501  0.00000000000E+00  0.00000000000E+00 -0.14514426396E+04  0.14514426396E+04  0.25500000920E-02 0. -1.
    10030    2    1    2    0    0  0.00000000000E+00  0.00000000000E+00 -0.39594398573E+03  0.25069412935E+04  0.24754763197E+04 0.  0.
        5    1    3    3  502    0 -0.68218515077E+02  0.32255319191E+03 -0.14061487028E+04  0.14442889572E+04  0.46999998093E+01 0. -1.
       -5    1    3    3    0  502  0.68218515077E+02 -0.32255319191E+03  0.10102047171E+04  0.10626523363E+04  0.46999998093E+01 0.  1.
</event>
<event>
 5   0  0.1010338E-05  0.2509305E+04  0.7818609E-02  0.8399678E-01
        1   -1    0    0  501    0  0.00000000000E+00  0.00000000000E+00  0.15170575417E+04  0.15170575417E+04  0.50400001928E-02 0. -1.
       -1   -1    0    0    0  501  0.00000000000E+00  0.00000000000E+00 -0.10376359316E+04  0.10376359316E+04  0.50400001928E-02 0.  1.
    10030    2    1    2    0    0  0.00000000000E+00  0.00000000000E+00  0.47942161013E+03  0.25546934734E+04  0.25093054144E+04 0.  0.
        2    1    3    3  502    0 -0.97789115283E+03 -0.71479233780E+03 -0.93243199459E+02  0.12148635673E+04  0.25500000920E-02 0.  1.
       -2    1    3    3    0  502  0.97789115283E+03  0.71479233780E+03  0.57266480959E+03  0.13398299060E+04  0.25500000920E-02 0. -1.
</event>
<event>
 5   0  0.2441340E-05  0.2502380E+04  0.7818609E-02  0.8402138E-01
        2   -1    0    0  501    0  0.00000000000E+00  0.00000000000E+00  0.10809105659E+04  0.10809105659E+04  0.25500000920E-02 0. -1.
       -2   -1    0    0    0  501  0.00000000000E+00  0.00000000000E+00 -0.14482935789E+04  0.14482935789E+04  0.25500000920E-02 0.  1.
    10030    2    1    2    0    0  0.00000000000E+00  0.00000000000E+00 -0.36738301303E+03  0.25292041447E+04  0.25023795331E+04 0.  0.
        3    1    3    3  502    0  0.41260082252E+03 -0.91516701634E+03 -0.93849387286E+03  0.13742419242E+04  0.10100000352E+00 0.  1.
       -3    1    3    3    0  502 -0.41260082252E+03  0.91516701634E+03  0.57111085983E+03  0.11549622206E+04  0.10100000352E+00 0. -1.
</event>
<event>
 5   0  0.2452457E-05  0.2512233E+04  0.7818609E-02  0.8398641E-01
       -2   -1    0    0    0  501  0.00000000000E+00  0.00000000000E+00  0.10212769187E+04  0.10212769187E+04  0.25500000920E-02 0. -1.
        2   -1    0    0  501    0  0.00000000000E+00  0.00000000000E+00 -0.15449563318E+04  0.15449563318E+04  0.25500000920E-02 0.  1.
    10030    2    1    2    0    0  0.00000000000E+00  0.00000000000E+00 -0.52367941305E+03  0.25662332505E+04  0.25122326661E+04 0.  0.
        1    1    3    3  502    0  0.11651324859E+04 -0.46504540796E+03 -0.32666482333E+03  0.12963451886E+04  0.50400001928E-02 0. -1.
       -1    1    3    3    0  502 -0.11651324859E+04  0.46504540796E+03 -0.19701458972E+03  0.12698880619E+04  0.50400001928E-02 0.  1.
</event>
<event>
 5   0  0.1002753E-05  0.2495087E+04  0.7818609E-02  0.8404738E-01
       -1   -1    0    0    0  501  0.00000000000E+00  0.00000000000E+00  0.80551272371E+03  0.80551272372E+03  0.50400001928E-02 0.  1.
        1   -1    0    0  501    0  0.00000000000E+00  0.00000000000E+00 -0.19321417472E+04  0.19321417472E+04  0.50400001928E-02 0. -1.
    10030    2    1    2    0    0  0.00000000000E+00  0.00000000000E+00 -0.11266290235E+04  0.27376544710E+04  0.24950869816E+04 0.  0.
        5    1    3    3  502    0 -0.86255184381E+03 -0.23379076862E+03 -0.15183915315E+04  0.17618708067E+04  0.46999998093E+01 0. -1.
       -5    1    3    3    0  502  0.86255184381E+03  0.23379076862E+03  0.39176250794E+03  0.97578366423E+03  0.46999998093E+01 0.  1.
</event>
<event>
 5   0  0.2441340E-05  0.2515641E+04  0.7818609E-02  0.8397435E-01
       -2   -1    0    0    0  501  0.00000000000E+00  0.00000000000E+00  0.82860222181E+03  0.82860222181E+03  0.25500000920E-02 0.  1.
        2   -1    0    0  501    0  0.00000000000E+00  0.00000000000E+00 -0.19093747194E+04  0.19093747194E+04  0.25500000920E-02 0. -1.
    10030    2    1    2    0    0  0.00000000000E+00  0.00000000000E+00 -0.10807724976E+04  0.27379769412E+04  0.25156407810E+04 0.  0.
        3    1    3    3  502    0  0.41543827294E+03  0.11854647756E+04 -0.46988103331E+03  0.13411576673E+04  0.10100000352E+00 0. -1.
       -3    1    3    3    0  502 -0.41543827294E+03 -0.11854647756E+04 -0.61089146432E+03  0.13968192740E+04  0.10100000352E+00 0.  1.
</event>
<event>
 5   0  0.1015327E-05  0.2521870E+04  0.7818609E-02  0.8395235E-01
       -1   -1    0    0    0  501  0.00000000000E+00  0.00000000000E+00  0.12520291140E+04  0.12520291140E+04  0.50400001928E-02 0. -1.
        1   -1    0    0  501    0  0.00000000000E+00  0.00000000000E+00 -0.12699042224E+04  0.12699042225E+04  0.50400001928E-02 0.  1.
    10030    2    1    2    0    0  0.00000000000E+00  0.00000000000E+00 -0.17875108460E+02  0.25219333364E+04  0.25218699875E+04 0.  0.
        4    1    3    3  502    0  0.50439980695E+03 -0.17412701643E+03 -0.11514267826E+04  0.12690644710E+04  0.12699999809E+01 0.  1.
       -4    1    3    3    0  502 -0.50439980695E+03  0.17412701643E+03  0.11335516741E+04  0.12528688654E+04  0.12699999809E+01 0. -1.
</event>
<event>
 5   0  0.1008073E-05  0.2474639E+04  0.7818609E-02  0.8412076E-01
       -1   -1    0    0    0  501  0.00000000000E+00  0.00000000000E+00  0.60723841464E+03  0.60723841466E+03  0.50400001928E-02 0. -1.
        1   -1    0    0  501    0  0.00000000000E+00  0.00000000000E+00 -0.25211845886E+04  0.25211845886E+04  0.50400001928E-02 0.  1.
    10030    2    1    2    0    0  0.00000000000E+00  0.00000000000E+00 -0.19139461739E+04  0.31284230032E+04  0.24746394748E+04 0.  0.
        1    1    3    3  502    0  0.13955459179E+03 -0.10921768339E+04 -0.16705813542E+04  0.20007917887E+04  0.50400001928E-02 0.  1.
       -1    1    3    3    0  502 -0.13955459179E+03  0.10921768339E+04 -0.24336481972E+03  0.11276312146E+04  0.50400001928E-02 0. -1.
</event>
<event>
 5   0  0.1002753E-05  0.2508549E+04  0.7818609E-02  0.8399946E-01
       -1   -1    0    0    0  501  0.00000000000E+00  0.00000000000E+00  0.75945202904E+03  0.75945202906E+03  0.50400001928E-02 0.  1.
        1   -1    0    0  501    0  0.00000000000E+00  0.00000000000E+00 -0.20714993703E+04  0.20714993703E+04  0.50400001928E-02 0. -1.
    10030    2    1    2    0    0  0.00000000000E+00  0.00000000000E+00 -0.13120473413E+04  0.28309513994E+04  0.25085489032E+04 0.  0.
        5    1    3    3  502    0 -0.50140644923E+03 -0.10116810979E+04 -0.39686382939E+02  0.11298248405E+04  0.46999998093E+01 0.  1.
       -5    1    3    3    0  502  0.50140644923E+03  0.10116810979E+04 -0.12723609584E+04  0.17011265589E+04  0.46999998093E+01 0. -1.
</event>
<event>
 5   0  0.2432309E-05  0.2469865E+04  0.7818609E-02  0.8413801E-01
        2   -1    0    0  501    0  0.00000000000E+00  0.00000000000E+00  0.13000520847E+04  0.13000520847E+04  0.25500000920E-02 0. -1.
       -2   -1    0    0    0  501  0.00000000000E+00  0.00000000000E+00 -0.11730746231E+04  0.11730746231E+04  0.25500000920E-02 0.  1.
    10030    2    1    2    0    0  0.00000000000E+00  0.00000000000E+00  0.12697746169E+03  0.24731267078E+04  0.24698648621E+04 0.  0.
        4    1    3    3  502    0  0.94482985064E+03 -0.47673628673E+03 -0.57380727678E+03  0.12038427379E+04  0.12699999809E+01 0.  1.
       -4    1    3    3    0  502 -0.94482985064E+03  0.47673628673E+03  0.70078473847E+03  0.12692839699E+04  0.12699999809E+01 0. -1.
</event>
<event>
 5   0  0.2432309E-05  0.2524906E+04  0.7818609E-02  0.8394166E-01
        2   -1    0    0  501    0  0.00000000000E+00  0.00000000000E+00  0.16724218072E+04  0.16724218072E+04  0.25500000920E-02 0.  1.
       -2   -1    0    0    0  501  0.00000000000E+00  0.00000000000E+00 -0.95298201408E+03  0.95298201408E+03  0.25500000920E-02 0. -1.
    10030    2    1    2    0    0  0.00000000000E+00  0.00000000000E+00  0.71943979316E+03  0.26254038213E+04  0.25249062575E+04 0.  0.
        4    1    3    3  502    0 -0.66402245806E+03  0.66751039734E+03 -0.51475977029E+03  0.10730681196E+04  0.12699999809E+01 0.  1.
       -4    1    3    3    0  502  0.66402245806E+03 -0.66751039734E+03  0.12341995635E+04  0.15523357017E+04  0.12699999809E+01 0. -1.
</event>
<event>
 5   0  0.1010338E-05  0.2495078E+04  0.7818609E-02  0.8404741E-01
        1   -1    0    0  501    0  0.00000000000E+00  0.00000000000E+00  0.21880886967E+04  0.21880886967E+04  0.50400001928E-02 0.  1.
       -1   -1    0    0    0  501  0.00000000000E+00  0.00000000000E+00 -0.71128427432E+03  0.71128427434E+03  0.50400001928E-02 0. -1.
    10030    2    1    2    0    0  0.00000000000E+00  0.00000000000E+00  0.14768044223E+04  0.28993729710E+04  0.24950776187E+04 0.  0.
        2    1    3    3  502    0 -0.19346812049E+03 -0.89282893489E+03 -0.24883688362E+03  0.94683325632E+03  0.25500000920E-02 0. -1.
       -2    1    3    3    0  502  0.19346812049E+03  0.89282893489E+03  0.17256413060E+04  0.19525397147E+04  0.25500000920E-02 0.  1.
</event>
<event>
 5   0  0.1002753E-05  0.2258217E+04  0.7818609E-02  0.8494580E-01
       -1   -1    0    0    0  501  0.00000000000E+00  0.00000000000E+00  0.10524269321E+04  0.10524269321E+04  0.50400001928E-02 0. -1.
        1   -1    0    0  501    0  0.00000000000E+00  0.00000000000E+00 -0.12113771596E+04  0.12113771596E+04  0.50400001928E-02 0.  1.
    10030    2    1    2    0    0  0.00000000000E+00  0.00000000000E+00 -0.15895022746E+03  0.22638040917E+04  0.22582169494E+04 0.  0.
        5    1    3    3  502    0  0.57971269757E+03 -0.94611234696E+03 -0.28896216322E+03  0.11466109220E+04  0.46999998093E+01 0.  1.
       -5    1    3    3    0  502 -0.57971269757E+03  0.94611234696E+03  0.13001193576E+03  0.11171931696E+04  0.46999998093E+01 0. -1.
</event>
<event>
 5   0  0.1002753E-05  0.2497185E+04  0.7818609E-02  0.8403989E-01
       -1   -1    0    0    0  501  0.00000000000E+00  0.00000000000E+00  0.11286997139E+04  0.11286997139E+04  0.50400001928E-02 0.  1.
        1   -1    0    0  501    0  0.00000000000E+00  0.00000000000E+00 -0.13812208761E+04  0.13812208761E+04  0.50400001928E-02 0. -1.
    10030    2    1    2    0    0  0.00000000000E+00  0.00000000000E+00 -0.25252116228E+03  0.25099205900E+04  0.24971853016E+04 0.  0.
        5    1    3    3  502    0  0.98516548667E+03 -0.56149425521E+03 -0.65154877109E+03  0.13078091320E+04  0.46999998093E+01 0.  1.
       -5    1    3    3    0  502 -0.98516548667E+03  0.56149425521E+03  0.39902760881E+03  0.12021114580E+04  0.46999998093E+01 0. -1.
</event>
<event>
 5   0  0.2388326E-05  0.2503956E+04  0.7818609E-02  0.8401578E-01
       -2   -1    0    0    0  501  0.00000000000E+00  0.00000000000E+00  0.10449653867E+04  0.10449653867E+04  0.25500000920E-02 0.  1.
        2   -1    0    0  501    0  0.00000000000E+00  0.00000000000E+00 -0.15000002610E+04  0.15000002610E+04  0.25500000920E-02 0. -1.
    10030    2    1    2    0    0  0.00000000000E+00  0.00000000000E+00 -0.45503487429E+03  0.25449656476E+04  0.25039555529E+04 0.  0.
        2    1    3    3  502    0 -0.40719179588E+03 -0.11142468768E+04 -0.63419202018E+03  0.13451954429E+04  0.25500000920E-02 0. -1.
       -2    1    3    3    0  502  0.40719179588E+03  0.11142468768E+04  0.17915714589E+03  0.11997702047E+04  0.25500000920E-02 0.  1.
</event>
<event>
 5   0  0.2441340E-05  0.2656207E+04  0.7818609E-02  0.8349356E-01
       -2   -1    0    0    0  501  0.00000000000E+00  0.00000000000E+00  0.10055133754E+04  0.10055133754E+04  0.25500000920E-02 0.  1.
        2   -1    0    0  501    0  0.00000000000E+00  0.00000000000E+00 -0.17541870814E+04  0.17541870814E+04  0.25500000920E-02 0. -1.
    10030    2    1    2    0    0  0.00000000000E+00  0.00000000000E+00 -0.74867370594E+03  0.27597004568E+04  0.26562067490E+04 0.  0.
        3    1    3    3  502    0  0.10242971056E+04 -0.84209839990E+03 -0.29697569855E+03  0.13588630731E+04  0.10100000352E+00 0.  1.
       -3    1    3    3    0  502 -0.10242971056E+04  0.84209839990E+03 -0.45169800739E+03  0.14008373838E+04  0.10100000352E+00 0. -1.
</event>
<event>
 5   0  0.2452457E-05  0.2486443E+04  0.7818609E-02  0.8407831E-01
       -2   -1    0    0    0  501  0.00000000000E+00  0.00000000000E+00  0.12556746301E+04  0.12556746301E+04  0.25500000920E-02 0. -1.
        2   -1    0    0  501    0  0.00000000000E+00  0.00000000000E+00 -0.12308920204E+04  0.12308920204E+04  0.25500000920E-02 0.  1.
    10030    2    1    2    0    0  0.00000000000E+00  0.00000000000E+00  0.24782609689E+02  0.24865666506E+04  0.24864431484E+04 0.  0.
        1    1    3    3  502    0  0.76915860318E+02 -0.13957329309E+03 -0.12206351143E+04  0.12309942469E+04  0.50400001928E-02 0.  1.
       -1    1    3    3    0  502 -0.76915860318E+02  0.13957329309E+03  0.12454177239E+04  0.12555724037E+04  0.50400001928E-02 0. -1.
</event>
<event>
 5   0  0.2388326E-05  0.2563347E+04  0.7818609E-02  0.8380759E-01
       -2   -1    0    0    0  501  0.00000000000E+00  0.00000000000E+00  0.47112352101E+03  0.47112352102E+03  0.25500000920E-02 0. -1.
        2   -1    0    0  501    0  0.00000000000E+00  0.00000000000E+00 -0.34867440195E+04  0.34867440195E+04  0.25500000920E-02 0.  1.
    10030    2    1    2    0    0  0.00000000000E+00  0.00000000000E+00 -0.30156204985E+04  0.39578675405E+04  0.25633471239E+04 0.  0.
        2    1    3    3  502    0 -0.13821191192E+03 -0.39645567472E+03 -0.33775500299E+04  0.34035457745E+04  0.25500000920E-02 0.  1.
       -2    1    3    3    0  502  0.13821191192E+03  0.39645567472E+03  0.36192953139E+03  0.55432176605E+03  0.25500000920E-02 0. -1.
</event>
<event>
 5   0  0.2441340E-05  0.2388871E+04  0.7818609E-02  0.8443682E-01
        2   -1    0    0  501    0  0.00000000000E+00  0.00000000000E+00  0.14284638567E+04  0.14284638567E+04  0.25500000920E-02 0. -1.
       -2   -1    0    0    0  501  0.00000000000E+00  0.00000000000E+00 -0.99874870832E+03  0.99874870832E+03  0.25500000920E-02 0.  1.
    10030    2    1    2    0    0  0.00000000000E+00  0.00000000000E+00  0.42971514842E+03  0.24272125651E+04  0.23888712245E+04 0.  0.
        3    1    3    3  502    0 -0.75849490354E+03 -0.54462811365E+03  0.97162188735E+03  0.13475842842E+04  0.10100000352E+00 0. -1.
       -3    1    3    3    0  502  0.75849490354E+03  0.54462811365E+03 -0.54190673894E+03  0.10796282808E+04  0.10100000352E+00 0.  1.
</event>
<event>
 5   0  0.1002753E-05  0.2503200E+04  0.7818609E-02  0.8401846E-01
       -1   -1    0    0    0  501  0.00000000000E+00  0.00000000000E+00  0.13235489040E+04  0.13235489041E+04  0.50400001928E-02 0. -1.
        1   -1    0    0  501    0  0.00000000000E+00  0.00000000000E+00 -0.11835625730E+04  0.11835625730E+04  0.50400001928E-02 0.  1.
    10030    2    1    2    0    0  0.00000000000E+00  0.00000000000E+00  0.13998633103E+03  0.25071114771E+04  0.25032003087E+04 0.  0.
        5    1    3    3  502    0 -0.92307232621E+03  0.41465452000E+03  0.80767636629E+03  0.12947447984E+04  0.46999998093E+01 0. -1.
       -5    1    3    3    0  502  0.92307232621E+03 -0.41465452000E+03 -0.66769003527E+03  0.12123666787E+04  0.46999998093E+01 0.  1.
</event>
<event>
 5   0  0.2345143E-05  0.2498970E+04  0.7818609E-02  0.8403353E-01
       -2   -1    0    0    0  501  0.00000000000E+00  0.00000000000E+00  0.10473912081E+04  0.10473912082E+04  0.25500000920E-02 0.  1.
        2   -1    0    0  501    0  0.00000000000E+00  0.00000000000E+00 -0.14905722797E+04  0.14905722797E+04  0.25500000920E-02 0. -1.
    10030    2    1    2    0    0  0.00000000000E+00  0.00000000000E+00 -0.44318107151E+03  0.25379634878E+04  0.24989696283E+04 0.  0.
        5    1    3    3  502    0 -0.89951691696E+03 -0.80688837857E+03  0.10115855082E+03  0.12126230584E+04  0.46999998093E+01 0.  1.
       -5    1    3    3    0  502  0.89951691696E+03  0.80688837857E+03 -0.54433962233E+03  0.13253404294E+04  0.46999998093E+01 0. -1.
</event>
<event>
 5   0  0.1002753E-05  0.2488324E+04  0.7818609E-02  0.8407157E-01
       -1   -1    0    0    0  501  0.00000000000E+00  0.00000000000E+00  0.95484384316E+03  0.95484384317E+03  0.50400001928E-02 0.  1.
        1   -1    0    0  501    0  0.00000000000E+00  0.00000000000E+00 -0.16211437806E+04  0.16211437806E+04  0.50400001928E-02 0. -1.
    10030    2    1    2    0    0  0.00000000000E+00  0.00000000000E+00 -0.66629993743E+03  0.25759876238E+04  0.24883240607E+04 0.  0.
        5    1    3    3  502    0  0.10635476135E+04  0.19306452053E+03 -0.97089669054E+03  0.14529521358E+04  0.46999998093E+01 0. -1.
       -5    1    3    3    0  502 -0.10635476135E+04 -0.19306452053E+03  0.30459675311E+03  0.11230354880E+04  0.46999998093E+01 0.  1.
</event>
<event>
 5   0  0.1039688E-05  0.2522015E+04  0.7818609E-02  0.8395184E-01
        1   -1    0    0  501    0  0.00000000000E+00  0.00000000000E+00  0.23046597205E+04  0.23046597205E+04  0.50400001928E-02 0. -1.
       -1   -1    0    0    0  501  0.00000000000E+00  0.00000000000E+00 -0.68996721981E+03  0.68996721983E+03  0.50400001928E-02 0.  1.
    10030    2    1    2    0    0  0.00000000000E+00  0.00000000000E+00  0.16146925007E+04  0.29946269403E+04  0.25220147977E+04 0.  0.
        3    1    3    3  502    0  0.47620940693E+03  0.56497022729E+03 -0.40599036624E+03  0.84308655822E+03  0.10100000352E+00 0.  1.
       -3    1    3    3    0  502 -0.47620940693E+03 -0.56497022729E+03  0.20206828669E+04  0.21515403821E+04  0.10100000352E+00 0. -1.
</event>
<event>
 5   0  0.2441340E-05  0.2369670E+04  0.7818609E-02  0.8450947E-01
       -2   -1    0    0    0  501  0.00000000000E+00  0.00000000000E+00  0.53818070167E+03  0.53818070168E+03  0.25500000920E-02 0.  1.
        2   -1    0    0  501    0  0.00000000000E+00  0.00000000000E+00 -0.26084801382E+04  0.26084801382E+04  0.25500000920E-02 0. -1.
    10030    2    1    2    0    0  0.00000000000E+00  0.00000000000E+00 -0.20702994366E+04  0.31466608399E+04  0.23696697416E+04 0.  0.
        3    1    3    3  502    0  0.10773251302E+04  0.31305984500E+03 -0.15411398744E+04  0.19062392361E+04  0.10100000352E+00 0. -1.
       -3    1    3    3    0  502 -0.10773251302E+04 -0.31305984500E+03 -0.52915956217E+03  0.12404216038E+04  0.10100000352E+00 0.  1.
</event>
<event>
 5   0  0.1008073E-05  0.2470792E+04  0.7818609E-02  0.8413465E-01
        1   -1    0    0  501    0  0.00000000000E+00  0.00000000000E+00  0.72586495555E+03  0.72586495557E+03  0.50400001928E-02 0. -1.
       -1   -1    0    0    0  501  0.00000000000E+00  0.00000000000E+00 -0.21026000018E+04  0.21026000018E+04  0.50400001928E-02 0.  1.
    10030    2    1    2    0    0  0.00000000000E+00  0.00000000000E+00 -0.13767350462E+04  0.28284649573E+04  0.24707923076E+04 0.  0.
        1    1    3    3  502    0  0.32401188721E+03  0.11859309297E+04 -0.82757613626E+03  0.14819912734E+04  0.50400001928E-02 0.  1.
       -1    1    3    3    0  502 -0.32401188721E+03 -0.11859309297E+04 -0.54915890994E+03  0.13464736839E+04  0.50400001928E-02 0. -1.
</event>
<event>
 5   0  0.1002753E-05  0.2516744E+04  0.7818609E-02  0.8397045E-01
        1   -1    0    0  501    0  0.00000000000E+00  0.00000000000E+00  0.16318042036E+04  0.16318042036E+04  0.50400001928E-02 0.  1.
       -1   -1    0    0    0  501  0.00000000000E+00  0.00000000000E+00 -0.97039844639E+03  0.97039844640E+03  0.50400001928E-02 0. -1.
    10030    2    1    2    0    0  0.00000000000E+00  0.00000000000E+00  0.66140575722E+03  0.26022026500E+04  0.25167441380E+04 0.  0.
        5    1    3    3  502    0 -0.55746868769E+03  0.10368767540E+04 -0.12890588697E+03  0.11842818745E+04  0.46999998093E+01 0. -1.
       -5    1    3    3    0  502  0.55746868769E+03 -0.10368767540E+04  0.79031164419E+03  0.14179207755E+04  0.46999998093E+01 0.  1.
</event>
<event>
 5   0  0.1015327E-05  0.2682548E+04  0.7818609E-02  0.8340690E-01
       -1   -1    0    0    0  501  0.00000000000E+00  0.00000000000E+00  0.78723456082E+03  0.78723456083E+03  0.50400001928E-02 0.  1.
        1   -1    0    0  501    0  0.00000000000E+00  0.00000000000E+00 -0.22852355592E+04  0.22852355592E+04  0.50400001928E-02 0. -1.
    10030    2    1    2    0    0  0.00000000000E+00  0.00000000000E+00 -0.14980009984E+04  0.30724701201E+04  0.26825483495E+04 0.  0.
        4    1    3    3  502    0 -0.47942470356E+03  0.12398810133E+04 -0.54455599708E+03  0.14365569326E+04  0.12699999809E+01 0.  1.
       -4    1    3    3    0  502  0.47942470356E+03 -0.12398810133E+04 -0.95344500133E+03  0.16359131875E+04  0.12699999809E+01 0. -1.
</event>
<event>
 5   0  0.1002753E-05  0.2492010E+04  0.7818609E-02  0.8405837E-01
        1   -1    0    0  501    0  0.00000000000E+00  0.00000000000E+00  0.13079611900E+04  0.13079611901E+04  0.50400001928E-02 0.  1.
       -1   -1    0    0    0  501  0.00000000000E+00  0.00000000000E+00 -0.11869840247E+04  0.11869840247E+04  0.50400001928E-02 0. -1.
    10030    2    1    2    0    0  0.00000000000E+00  0.00000000000E+00  0.12097716537E+03  0.24949452147E+04  0.24920104635E+04 0.  0.
        5    1    3    3  502    0 -0.94120921855E+03 -0.47551064529E+03 -0.60401120286E+03  0.12152517394E+04  0.46999998093E+01 0. -1.
       -5    1    3    3    0  502  0.94120921855E+03  0.47551064529E+03  0.72498836823E+03  0.12796934754E+04  0.46999998093E+01 0.  1.
</event>
<event>
 5   0  0.2432309E-05  0.2514633E+04  0.7818609E-02  0.8397791E-01
       -2   -1    0    0    0  501  0.00000000000E+00  0.00000000000E+00  0.17759670040E+04  0.17759670040E+04  0.25500000920E-02 0. -1.
        2   -1    0    0  501    0  0.00000000000E+00  0.00000000000E+00 -0.89013156462E+03  0.89013156462E+03  0.25500000920E-02 0.  1.
    10030    2    1    2    0    0  0.00000000000E+00  0.00000000000E+00  0.88583543938E+03  0.26660985686E+04  0.25146326077E+04 0.  0.
        4    1    3    3  502    0 -0.64265760902E+03  0.10006436012E+04  0.87559998627E+03  0.14768118932E+04  0.12699999809E+01 0.  1.
       -4    1    3    3    0  502  0.64265760902E+03 -0.10006436012E+04  0.10235453105E+02  0.11892866754E+04  0.12699999809E+01 0. -1.
</event>
<event>
 5   0  0.2452457E-05  0.2380644E+04  0.7818609E-02  0.8446786E-01
        2   -1    0    0  501    0  0.00000000000E+00  0.00000000000E+00  0.19068869617E+04  0.19068869617E+04  0.25500000920E-02 0. -1.
       -2   -1    0    0    0  501  0.00000000000E+00  0.00000000000E+00 -0.74302596681E+03  0.74302596681E+03  0.25500000920E-02 0.  1.
    10030    2    1    2    0    0  0.00000000000E+00  0.00000000000E+00  0.11638609949E+04  0.26499129285E+04  0.23806440543E+04 0.  0.
        1    1    3    3  502    0  0.94396322499E+03  0.15537955986E+03  0.13703196523E+04  0.16712227043E+04  0.50400001928E-02 0. -1.
       -1    1    3    3    0  502 -0.94396322499E+03 -0.15537955986E+03 -0.20645865742E+03  0.97869022423E+03  0.50400001928E-02 0.  1.
</event>
<event>
 5   0  0.1015327E-05  0.2467979E+04  0.7818609E-02  0.8414483E-01
        1   -1    0    0  501    0  0.00000000000E+00  0.00000000000E+00  0.10127026093E+04  0.10127026093E+04  0.50400001928E-02 0. -1.
       -1   -1    0    0    0  501  0.00000000000E+00  0.00000000000E+00 -0.15036302221E+04  0.15036302222E+04  0.50400001928E-02 0.  1.
    10030    2    1    2    0    0  0.00000000000E+00  0.00000000000E+00 -0.49092761288E+03  0.25163328314E+04  0.24679791323E+04 0.  0.
        4    1    3    3  502    0  0.97921582013E+02 -0.10623082325E+04 -0.87780942277E+03  0.13815348033E+04  0.12699999809E+01 0.  1.
       -4    1    3    3    0  502 -0.97921582013E+02  0.10623082325E+04  0.38688180988E+03  0.11347980282E+04  0.12699999809E+01 0. -1.
</event>
<event>
 5   0  0.2388326E-05  0.2418613E+04  0.7818609E-02  0.8432568E-01
        2   -1    0    0  501    0  0.00000000000E+00  0.00000000000E+00  0.17989057342E+04  0.17989057342E+04  0.25500000920E-02 0.  1.
       -2   -1    0    0    0  501  0.00000000000E+00  0.00000000000E+00 -0.81295097739E+03  0.81295097739E+03  0.25500000920E-02 0. -1.
    10030    2    1    2    0    0  0.00000000000E+00  0.00000000000E+00  0.98595475683E+03  0.26118567116E+04  0.24186129702E+04 0.  0.
        2    1    3    3  502    0  0.69397888876E+03 -0.97567740247E+03  0.30949284345E+03  0.12366644298E+04  0.25500000920E-02 0. -1.
       -2    1    3    3    0  502 -0.69397888876E+03  0.97567740247E+03  0.67646191338E+03  0.13751922818E+04  0.25500000920E-02 0.  1.
</event>
<event>
 5   0  0.1002753E-05  0.2482837E+04  0.7818609E-02  0.8409126E-01
        1   -1    0    0  501    0  0.00000000000E+00  0.00000000000E+00  0.27046559450E+04  0.27046559450E+04  0.50400001928E-02 0.  1.
       -1   -1    0    0    0  501  0.00000000000E+00  0.00000000000E+00 -0.56980262598E+03  0.56980262600E+03  0.50400001928E-02 0. -1.
    10030    2    1    2    0    0  0.00000000000E+00  0.00000000000E+00  0.21348533191E+04  0.32744585710E+04  0.24828371351E+04 0.  0.
        5    1    3    3  502    0 -0.10581955896E+04 -0.62084902042E+03  0.13171942691E+04  0.18000706221E+04  0.46999998093E+01 0. -1.
       -5    1    3    3    0  502  0.10581955896E+04  0.62084902042E+03  0.81765904993E+03  0.14743879489E+04  0.46999998093E+01 0.  1.
</event>
<event>
 5   0  0.2388326E-05  0.2515110E+04  0.7818609E-02  0.8397622E-01
        2   -1    0    0  501    0  0.00000000000E+00  0.00000000000E+00  0.17096854591E+04  0.17096854591E+04  0.25500000920E-02 0.  1.
       -2   -1    0    0    0  501  0.00000000000E+00  0.00000000000E+00 -0.92499173344E+03  0.92499173344E+03  0.25500000920E-02 0. -1.
    10030    2    1    2    0    0  0.00000000000E+00  0.00000000000E+00  0.78469372563E+03  0.26346771925E+04  0.25151102691E+04 0.  0.
        2    1    3    3  502    0  0.12207326293E+04 -0.23607526371E+02  0.70782749748E+03  0.14112991297E+04  0.25500000920E-02 0.  1.
       -2    1    3    3    0  502 -0.12207326293E+04  0.23607526371E+02  0.76866228147E+02  0.12233780628E+04  0.25500000920E-02 0. -1.
</event>
<event>
 5   0  0.1015327E-05  0.2495847E+04  0.7818609E-02  0.8404467E-01
        1   -1    0    0  501    0  0.00000000000E+00  0.00000000000E+00  0.16646556247E+04  0.16646556247E+04  0.50400001928E-02 0.  1.
       -1   -1    0    0    0  501  0.00000000000E+00  0.00000000000E+00 -0.93551663035E+03  0.93551663037E+03  0.50400001928E-02 0. -1.
    10030    2    1    2    0    0  0.00000000000E+00  0.00000000000E+00  0.72913899433E+03  0.26001722551E+04  0.24958469670E+04 0.  0.
        4    1    3    3  502    0 -0.37018923134E+03 -0.10387716588E+03  0.16014101763E+04  0.16469203679E+04  0.12699999809E+01 0.  1.
       -4    1    3    3    0  502  0.37018923134E+03  0.10387716588E+03 -0.87227118196E+03  0.95325188716E+03  0.12699999809E+01 0. -1.
</event>
<event>
 5   0  0.1015327E-05  0.2516872E+04  0.7818609E-02  0.8396999E-01
       -1   -1    0    0    0  501  0.00000000000E+00  0.00000000000E+00  0.91717572332E+03  0.91717572334E+03  0.50400001928E-02 0. -1.
        1   -1    0    0  501    0  0.00000000000E+00  0.00000000000E+00 -0.17266716314E+04  0.17266716314E+04  0.50400001928E-02 0.  1.
    10030    2    1    2    0    0  0.00000000000E+00  0.00000000000E+00 -0.80949590804E+03  0.26438473547E+04  0.25168721084E+04 0.  0.
        4    1    3    3  502    0 -0.10484266575E+04  0.63955542165E+03 -0.69324911119E+03  0.14102572590E+04  0.12699999809E+01 0.  1.
       -4    1    3    3    0  502  0.10484266575E+04 -0.63955542165E+03 -0.11624679686E+03  0.12335900957E+04  0.12699999809E+01 0. -1.
</event>
<event>
 5   0  0.1015327E-05  0.2471155E+04  0.7818609E-02  0.8413334E-01
       -1   -1    0    0    0  501  0.00000000000E+00  0.00000000000E+00  0.10912055588E+04  0.10912055588E+04  0.50400001928E-02 0. -1.
        1   -1    0    0  501    0  0.00000000000E+00  0.00000000000E+00 -0.13990503626E+04  0.13990503626E+04  0.50400001928E-02 0.  1.
    10030    2    1    2    0    0  0.00000000000E+00  0.00000000000E+00 -0.30784480389E+03  0.24902559214E+04  0.24711548173E+04 0.  0.
        4    1    3    3  502    0  0.43508650581E+02  0.31658059060E+03  0.10488414922E+04  0.10964425939E+04  0.12699999809E+01 0. -1.
       -4    1    3    3    0  502 -0.43508650581E+02 -0.31658059060E+03 -0.13566862961E+04  0.13938133275E+04  0.12699999809E+01 0.  1.
</event>
<event>
 5   0  0.2388326E-05  0.2493701E+04  0.7818609E-02  0.8405233E-01
       -2   -1    0    0    0  501  0.00000000000E+00  0.00000000000E+00  0.86281687707E+03  0.86281687707E+03  0.25500000920E-02 0.  1.
        2   -1    0    0  501    0  0.00000000000E+00  0.00000000000E+00 -0.18018140696E+04  0.18018140696E+04  0.25500000920E-02 0. -1.
    10030    2    1    2    0    0  0.00000000000E+00  0.00000000000E+00 -0.93899719250E+03  0.26646309466E+04  0.24937005342E+04 0.  0.
        2    1    3    3  502    0 -0.40231420545E+03 -0.25975763104E+03  0.76063041618E+03  0.89882666673E+03  0.25500000920E-02 0.  1.
       -2    1    3    3    0  502  0.40231420545E+03  0.25975763104E+03 -0.16996276087E+04  0.17658042799E+04  0.25500000920E-02 0. -1.
</event>
<event>
 5   0  0.8166500E-06  0.2425790E+04  0.7818609E-02  0.8429911E-01
       -3   -1    0    0    0  501  0.00000000000E+00  0.00000000000E+00  0.21820072993E+04  0.21820073016E+04  0.10100000352E+00 0. -1.
        3   -1    0    0  501    0  0.00000000000E+00  0.00000000000E+00 -0.67420244591E+03  0.67420245348E+03  0.10100000352E+00 0.  1.
    10030    2    1    2    0    0  0.00000000000E+00  0.00000000000E+00  0.15078048533E+04  0.28562097551E+04  0.24257903226E+04 0.  0.
        5    1    3    3  502    0  0.86847891614E+03  0.42023919751E+02 -0.24175836400E+03  0.90249145934E+03  0.46999998093E+01 0.  1.
       -5    1    3    3    0  502 -0.86847891614E+03 -0.42023919751E+02  0.17495632173E+04  0.19537182957E+04  0.46999998093E+01 0. -1.
</event>
<event>
 5   0  0.2345143E-05  0.2358423E+04  0.7818609E-02  0.8455236E-01
       -2   -1    0    0    0  501  0.00000000000E+00  0.00000000000E+00  0.95521652890E+03  0.95521652891E+03  0.25500000920E-02 0. -1.
        2   -1    0    0  501    0  0.00000000000E+00  0.00000000000E+00 -0.14557321094E+04  0.14557321094E+04  0.25500000920E-02 0.  1.
    10030    2    1    2    0    0  0.00000000000E+00  0.00000000000E+00 -0.50051558054E+03  0.24109486384E+04  0.23584226700E+04 0.  0.
        5    1    3    3  502    0  0.37853438447E+03 -0.92430677381E+03  0.39050840111E+03  0.10724505554E+04  0.46999998093E+01 0. -1.
       -5    1    3    3    0  502 -0.37853438447E+03  0.92430677381E+03 -0.89102398165E+03  0.13384980830E+04  0.46999998093E+01 0.  1.
</event>
<event>
 5   0  0.2345143E-05  0.2618954E+04  0.7818609E-02  0.8361791E-01
        2   -1    0    0  501    0  0.00000000000E+00  0.00000000000E+00  0.87542698798E+03  0.87542698798E+03  0.25500000920E-02 0.  1.
       -2   -1    0    0    0  501  0.00000000000E+00  0.00000000000E+00 -0.19587362438E+04  0.19587362438E+04  0.25500000920E-02 0. -1.
    10030    2    1    2    0    0  0.00000000000E+00  0.00000000000E+00 -0.10833092558E+04  0.28341632317E+04  0.26189544250E+04 0.  0.
        5    1    3    3  502    0  0.18825206813E+03  0.93161528939E+03  0.43312043153E+03  0.10444909223E+04  0.46999998093E+01 0.  1.
       -5    1    3    3    0  502 -0.18825206813E+03 -0.93161528939E+03 -0.15164296873E+04  0.17896723094E+04  0.46999998093E+01 0. -1.
</event>
<event>
 5   0  0.2432309E-05  0.2492188E+04  0.7818609E-02  0.8405774E-01
       -2   -1    0    0    0  501  0.00000000000E+00  0.00000000000E+00  0.10134580614E+04  0.10134580614E+04  0.25500000920E-02 0.  1.
        2   -1    0    0  501    0  0.00000000000E+00  0.00000000000E+00 -0.15321304028E+04  0.15321304028E+04  0.25500000920E-02 0. -1.
    10030    2    1    2    0    0  0.00000000000E+00  0.00000000000E+00 -0.51867234138E+03  0.25455884642E+04  0.24921877199E+04 0.  0.
        4    1    3    3  502    0 -0.29431948630E+03  0.55353979146E+03  0.84064093943E+03  0.10486701401E+04  0.12699999809E+01 0.  1.
       -4    1    3    3    0  502  0.29431948630E+03 -0.55353979146E+03 -0.13593132808E+04  0.14969183241E+04  0.12699999809E+01 0. -1.
</event>
<event>
 5   0  0.1015327E-05  0.2500080E+04  0.7818609E-02  0.8402957E-01
       -1   -1    0    0    0  501  0.00000000000E+00  0.00000000000E+00  0.15986961318E+04  0.15986961318E+04  0.50400001928E-02 0. -1.
        1   -1    0    0  501    0  0.00000000000E+00  0.00000000000E+00 -0.97742140440E+03  0.97742140441E+03  0.50400001928E-02 0.  1.
    10030    2    1    2    0    0  0.00000000000E+00  0.00000000000E+00  0.62127472738E+03  0.25761175362E+04  0.25000798534E+04 0.  0.
        4    1    3    3  502    0 -0.11625018287E+03 -0.99860266272E+03 -0.45484091410E+03  0.11034506120E+04  0.12699999809E+01 0.  1.
       -4    1    3    3    0  502  0.11625018287E+03  0.99860266272E+03  0.10761156415E+04  0.14726669242E+04  0.12699999809E+01 0. -1.
</event>
<event>
 5   0  0.1010338E-05  0.2510644E+04  0.7818609E-02  0.8399203E-01
       -1   -1    0    0    0  501  0.00000000000E+00  0.00000000000E+00  0.15454885467E+04  0.15454885467E+04  0.50400001928E-02 0.  1.
        1   -1    0    0  501    0  0.00000000000E+00  0.00000000000E+00 -0.10196342178E+04  0.10196342178E+04  0.50400001928E-02 0. -1.
    10030    2    1    2    0    0  0.00000000000E+00  0.00000000000E+00  0.52585432890E+03  0.25651227644E+04  0.25106437464E+04 0.  0.
        2    1    3    3  502    0  0.59740447545E+03 -0.65269665772E+03 -0.64686026543E+03  0.10960534829E+04  0.25500000920E-02 0. -1.
       -2    1    3    3    0  502 -0.59740447545E+03  0.65269665772E+03  0.11727145943E+04  0.14690692816E+04  0.25500000920E-02 0.  1.
</event>
<event>
 5   0  0.2388326E-05  0.2490488E+04  0.7818609E-02  0.8406382E-01
        2   -1    0    0  501    0  0.00000000000E+00  0.00000000000E+00  0.21540844826E+04  0.21540844826E+04  0.25500000920E-02 0. -1.
       -2   -1    0    0    0  501  0.00000000000E+00  0.00000000000E+00 -0.71985701059E+03  0.71985701060E+03  0.25500000920E-02 0.  1.
    10030    2    1    2    0    0  0.00000000000E+00  0.00000000000E+00  0.14342274720E+04  0.28739414931E+04  0.24904881579E+04 0.  0.
        2    1    3    3  502    0 -0.30061358974E+03  0.10858428626E+04  0.13290532325E+04  0.17423563778E+04  0.25500000920E-02 0. -1.
       -2    1    3    3    0  502  0.30061358974E+03 -0.10858428626E+04  0.10517423944E+03  0.11315851153E+04  0.25500000920E-02 0.  1.
</event>
<event>
 5   0  0.1010338E-05  0.2502316E+04  0.7818609E-02  0.8402161E-01
        1   -1    0    0  501    0  0.00000000000E+00  0.00000000000E+00  0.23309210098E+04  0.23309210098E+04  0.50400001928E-02 0.  1.
       -1   -1    0    0    0  501  0.00000000000E+00  0.00000000000E+00 -0.67157830022E+03  0.67157830024E+03  0.50400001928E-02 0. -1.
    10030    2    1    2    0    0  0.00000000000E+00  0.00000000000E+00  0.16593427096E+04  0.30024993101E+04  0.25023157033E+04 0.  0.
        2    1    3    3  502    0 -0.63807872111E+03 -0.10191450940E+04  0.12446224836E+04  0.17305739810E+04  0.25500000920E-02 0.  1.
       -2    1    3    3    0  502  0.63807872111E+03  0.10191450940E+04  0.41472022603E+03  0.12719253291E+04  0.25500000920E-02 0. -1.
</event>
<event>
 5   0  0.2441340E-05  0.2497950E+04  0.7818609E-02  0.8403716E-01
        2   -1    0    0  501    0  0.00000000000E+00  0.00000000000E+00  0.12593653770E+04  0.12593653770E+04  0.25500000920E-02 0.  1.
       -2   -1    0    0    0  501  0.00000000000E+00  0.00000000000E+00 -0.12386707310E+04  0.12386707310E+04  0.25500000920E-02 0. -1.
    10030    2    1    2    0    0  0.00000000000E+00  0.00000000000E+00  0.20694646016E+02  0.24980361080E+04  0.24979503856E+04 0.  0.
        3    1    3    3  502    0  0.30037592946E+03 -0.85341037422E+01 -0.12019815769E+04  0.12389746774E+04  0.10100000352E+00 0. -1.
       -3    1    3    3    0  502 -0.30037592946E+03  0.85341037422E+01  0.12226762229E+04  0.12590614306E+04  0.10100000352E+00 0.  1.
</event>
<event>
 5   0  0.2345143E-05  0.2506166E+04  0.7818609E-02  0.8400792E-01
        2   -1    0    0  501    0  0.00000000000E+00  0.00000000000E+00  0.26040959778E+04  0.26040959778E+04  0.25500000920E-02 0.  1.
       -2   -1    0    0    0  501  0.00000000000E+00  0.00000000000E+00 -0.60297962625E+03  0.60297962625E+03  0.25500000920E-02 0. -1.
    10030    2    1    2    0    0  0.00000000000E+00  0.00000000000E+00  0.20011163516E+04  0.32070756041E+04  0.25061658520E+04 0.  0.
        5    1    3    3  502    0  0.57821639239E+03 -0.68197379487E+03 -0.12291428854E+03  0.90252560387E+03  0.46999998093E+01 0. -1.
       -5    1    3    3    0  502 -0.57821639239E+03  0.68197379487E+03  0.21240306401E+04  0.23045500002E+04  0.46999998093E+01 0.  1.
</event>
<event>
 5   0  0.1002753E-05  0.2393820E+04  0.7818609E-02  0.8441821E-01
        1   -1    0    0  501    0  0.00000000000E+00  0.00000000000E+00  0.33049884126E+04  0.33049884126E+04  0.50400001928E-02 0. -1.
       -1   -1    0    0    0  501  0.00000000000E+00  0.00000000000E+00 -0.43346396981E+03  0.43346396984E+03  0.50400001928E-02 0.  1.
    10030    2    1    2    0    0  0.00000000000E+00  0.00000000000E+00  0.28715244428E+04  0.37384523824E+04  0.23938198742E+04 0.  0.
        5    1    3    3  502    0 -0.10848370069E+03 -0.78407803115E+03  0.33676924300E+02  0.79227728573E+03  0.46999998093E+01 0.  1.
       -5    1    3    3    0  502  0.10848370069E+03  0.78407803115E+03  0.28378475185E+04  0.29461750967E+04  0.46999998093E+01 0. -1.
</event>
<event>
 5   0  0.1039688E-05  0.2490674E+04  0.7818609E-02  0.8406315E-01
       -1   -1    0    0    0  501  0.00000000000E+00  0.00000000000E+00  0.62482300851E+03  0.62482300853E+03  0.50400001928E-02 0.  1.
        1   -1    0    0  501    0  0.00000000000E+00  0.00000000000E+00 -0.24820864625E+04  0.24820864625E+04  0.50400001928E-02 0. -1.
    10030    2    1    2    0    0  0.00000000000E+00  0.00000000000E+00 -0.18572634540E+04  0.31069094710E+04  0.24906743913E+04 0.  0.
        3    1    3    3  502    0  0.25238147480E+01 -0.12182042840E+04 -0.60613964418E+03  0.13606738498E+04  0.10100000352E+00 0.  1.
       -3    1    3    3    0  502 -0.25238147480E+01  0.12182042840E+04 -0.12511238098E+04  0.17462356212E+04  0.10100000352E+00 0. -1.
</event>
<event>
 5   0  0.2441340E-05  0.2487439E+04  0.7818609E-02  0.8407474E-01
        2   -1    0    0  501    0  0.00000000000E+00  0.00000000000E+00  0.16735571937E+04  0.16735571937E+04  0.25500000920E-02 0.  1.
       -2   -1    0    0    0  501  0.00000000000E+00  0.00000000000E+00 -0.92428141091E+03  0.92428141092E+03  0.25500000920E-02 0. -1.
    10030    2    1    2    0    0  0.00000000000E+00  0.00000000000E+00  0.74927578281E+03  0.25978386046E+04  0.24874386861E+04 0.  0.
        3    1    3    3  502    0 -0.22132666351E+03 -0.34065199894E+03  0.16023137463E+04  0.16530089619E+04  0.10100000352E+00 0.  1.
       -3    1    3    3    0  502  0.22132666351E+03  0.34065199894E+03 -0.85303796351E+03  0.94482964271E+03  0.10100000352E+00 0. -1.
</event>
<event>
 5   0  0.2452457E-05  0.2461004E+04  0.7818609E-02  0.8417011E-01
        2   -1    0    0  501    0  0.00000000000E+00  0.00000000000E+00  0.15445395027E+04  0.15445395027E+04  0.25500000920E-02 0. -1.
       -2   -1    0    0    0  501  0.00000000000E+00  0.00000000000E+00 -0.98031528932E+03  0.98031528932E+03  0.25500000920E-02 0.  1.
    10030    2    1    2    0    0  0.00000000000E+00  0.00000000000E+00  0.56422421340E+03  0.25248547920E+04  0.24610044205E+04 0.  0.
        1    1    3    3  502    0  0.61618799973E+03 -0.29507355736E+01  0.13748465947E+04  0.15066185705E+04  0.50400001928E-02 0. -1.
       -1    1    3    3    0  502 -0.61618799973E+03  0.29507355736E+01 -0.81062238130E+03  0.10182362216E+04  0.50400001928E-02 0.  1.
</event>
<event>
 5   0  0.2452457E-05  0.2579650E+04  0.7818609E-02  0.8375147E-01
        2   -1    0    0  501    0  0.00000000000E+00  0.00000000000E+00  0.27470967246E+04  0.27470967246E+04  0.25500000920E-02 0.  1.
       -2   -1    0    0    0  501  0.00000000000E+00  0.00000000000E+00 -0.60560260864E+03  0.60560260865E+03  0.25500000920E-02 0. -1.
    10030    2    1    2    0    0  0.00000000000E+00  0.00000000000E+00  0.21414941160E+04  0.33526993333E+04  0.25796503194E+04 0.  0.
        1    1    3    3  502    0 -0.33499540629E+03  0.10427871272E+04  0.19560727489E+04  0.22418402070E+04  0.50400001928E-02 0.  1.
       -1    1    3    3    0  502  0.33499540629E+03 -0.10427871272E+04  0.18542136707E+03  0.11108591262E+04  0.50400001928E-02 0. -1.
</event>
<event>
 5   0  0.2388326E-05  0.2498762E+04  0.7818609E-02  0.8403427E-01
       -2   -1    0    0    0  501  0.00000000000E+00  0.00000000000E+00  0.78469924755E+03  0.78469924755E+03  0.25500000920E-02 0.  1.
        2   -1    0    0  501    0  0.00000000000E+00  0.00000000000E+00 -0.19892379151E+04  0.19892379151E+04  0.25500000920E-02 0. -1.
    10030    2    1    2    0    0  0.00000000000E+00  0.00000000000E+00 -0.12045386676E+04  0.27739371627E+04  0.24987624899E+04 0.  0.
        2    1    3    3  502    0 -0.18358314918E+03  0.36282025078E+03  0.70918755212E+03  0.81748901591E+03  0.25500000920E-02 0.  1.
       -2    1    3    3    0  502  0.18358314918E+03 -0.36282025078E+03 -0.19137262197E+04  0.19564481468E+04  0.25500000920E-02 0. -1.
</event>
<event>
 5   0  0.1008073E-05  0.2489532E+04  0.7818609E-02  0.8406724E-01
        1   -1    0    0  501    0  0.00000000000E+00  0.00000000000E+00  0.17714640033E+04  0.17714640033E+04  0.50400001928E-02 0.  1.
       -1   -1    0    0    0  501  0.00000000000E+00  0.00000000000E+00 -0.87466800928E+03  0.87466800930E+03  0.50400001928E-02 0. -1.
    10030    2    1    2    0    0  0.00000000000E+00  0.00000000000E+00  0.89679599401E+03  0.26461320126E+04  0.24895324005E+04 0.  0.
        1    1    3    3  502    0  0.13119790946E+03 -0.11227151675E+04 -0.10568016369E+03  0.11352843414E+04  0.50400001928E-02 0. -1.
       -1    1    3    3    0  502 -0.13119790946E+03  0.11227151675E+04  0.10024761577E+04  0.15108476712E+04  0.50400001928E-02 0.  1.
</event>
<event>
 5   0  0.2452457E-05  0.2463146E+04  0.7818609E-02  0.8416234E-01
        2   -1    0    0  501    0  0.00000000000E+00  0.00000000000E+00  0.14459118474E+04  0.14459118474E+04  0.25500000920E-02 0.  1.
       -2   -1    0    0    0  501  0.00000000000E+00  0.00000000000E+00 -0.10490076932E+04  0.10490076932E+04  0.25500000920E-02 0. -1.
    10030    2    1    2    0    0  0.00000000000E+00  0.00000000000E+00  0.39690415417E+03  0.24949195407E+04  0.24631464850E+04 0.  0.
        1    1    3    3  502    0  0.10868960804E+04  0.14567280884E+03 -0.36932206640E+03  0.11571354482E+04  0.50400001928E-02 0. -1.
       -1    1    3    3    0  502 -0.10868960804E+04 -0.14567280884E+03  0.76622622057E+03  0.13377840924E+04  0.50400001928E-02 0.  1.
</event>
<event>
 5   0  0.2432309E-05  0.2536317E+04  0.7818609E-02  0.8390160E-01
        2   -1    0    0  501    0  0.00000000000E+00  0.00000000000E+00  0.16718399163E+04  0.16718399163E+04  0.25500000920E-02 0.  1.
       -2   -1    0    0    0  501  0.00000000000E+00  0.00000000000E+00 -0.96194998194E+03  0.96194998194E+03  0.25500000920E-02 0. -1.
    10030    2    1    2    0    0  0.00000000000E+00  0.00000000000E+00  0.70988993437E+03  0.26337898983E+04  0.25363173124E+04 0.  0.
        4    1    3    3  502    0  0.45436586514E+03  0.10182101951E+04  0.98233628362E+03  0.14859968129E+04  0.12699999809E+01 0. -1.
       -4    1    3    3    0  502 -0.45436586514E+03 -0.10182101951E+04 -0.27244634924E+03  0.11477930854E+04  0.12699999809E+01 0.  1.
</event>
<event>
 5   0  0.2441340E-05  0.2536438E+04  0.7818609E-02  0.8390118E-01
        2   -1    0    0  501    0  0.00000000000E+00  0.00000000000E+00  0.15959858117E+04  0.15959858117E+04  0.25500000920E-02 0.  1.
       -2   -1    0    0    0  501  0.00000000000E+00  0.00000000000E+00 -0.10077653357E+04  0.10077653357E+04  0.25500000920E-02 0. -1.
    10030    2    1    2    0    0  0.00000000000E+00  0.00000000000E+00  0.58822047604E+03  0.26037511474E+04  0.25364377992E+04 0.  0.
        3    1    3    3  502    0  0.22198992348E+03  0.31274460772E+03 -0.94680903838E+03  0.10215361380E+04  0.10100000352E+00 0. -1.
       -3    1    3    3    0  502 -0.22198992348E+03 -0.31274460772E+03  0.15350295144E+04  0.15822150094E+04  0.10100000352E+00 0.  1.
</event>
<event>
 5   0  0.1002753E-05  0.2512040E+04  0.7818609E-02  0.8398709E-01
       -1   -1    0    0    0  501  0.00000000000E+00  0.00000000000E+00  0.84265022182E+03  0.84265022183E+03  0.50400001928E-02 0. -1.
        1   -1    0    0  501    0  0.00000000000E+00  0.00000000000E+00 -0.18721727481E+04  0.18721727481E+04  0.50400001928E-02 0.  1.
    10030    2    1    2    0    0  0.00000000000E+00  0.00000000000E+00 -0.10295225263E+04  0.27148229700E+04  0.25120404308E+04 0.  0.
        5    1    3    3  502    0 -0.32956642790E+03 -0.52768854223E+03 -0.16939376193E+04  0.18045819394E+04  0.46999998093E+01 0.  1.
       -5    1    3    3    0  502  0.32956642790E+03  0.52768854223E+03  0.66441509295E+03  0.91024103058E+03  0.46999998093E+01 0. -1.
</event>
<event>
 5   0  0.1010338E-05  0.2353934E+04  0.7818609E-02  0.8456954E-01
        1   -1    0    0  501    0  0.00000000000E+00  0.00000000000E+00  0.11978214286E+04  0.11978214286E+04  0.50400001928E-02 0.  1.
       -1   -1    0    0    0  501  0.00000000000E+00  0.00000000000E+00 -0.11564760896E+04  0.11564760896E+04  0.50400001928E-02 0. -1.
    10030    2    1    2    0    0  0.00000000000E+00  0.00000000000E+00  0.41345338977E+02  0.23542975182E+04  0.23539344441E+04 0.  0.
        2    1    3    3  502    0 -0.26465887426E+03 -0.45859920842E+03  0.10719743176E+04  0.11956113462E+04  0.25500000920E-02 0.  1.
       -2    1    3    3    0  502  0.26465887426E+03  0.45859920842E+03 -0.10306289786E+04  0.11586861720E+04  0.25500000920E-02 0. -1.
</event>
<event>
 5   0  0.2452457E-05  0.2484948E+04  0.7818609E-02  0.8408368E-01
       -2   -1    0    0    0  501  0.00000000000E+00  0.00000000000E+00  0.75948528446E+03  0.75948528447E+03  0.25500000920E-02 0. -1.
        2   -1    0    0  501    0  0.00000000000E+00  0.00000000000E+00 -0.20326153732E+04  0.20326153732E+04  0.25500000920E-02 0.  1.
    10030    2    1    2    0    0  0.00000000000E+00  0.00000000000E+00 -0.12731300887E+04  0.27921006577E+04  0.24849478585E+04 0.  0.
        1    1    3    3  502    0 -0.37847735089E+03  0.11826361320E+04 -0.58800060360E+03  0.13739061233E+04  0.50400001928E-02 0.  1.
       -1    1    3    3    0  502  0.37847735089E+03 -0.11826361320E+04 -0.68512948513E+03  0.14181945343E+04  0.50400001928E-02 0. -1.
</event>
<event>
 5   0  0.2432309E-05  0.2486250E+04  0.7818609E-02  0.8407900E-01
       -2   -1    0    0    0  501  0.00000000000E+00  0.00000000000E+00  0.12231253117E+04  0.12231253117E+04  0.25500000920E-02 0.  1.
        2   -1    0    0  501    0  0.00000000000E+00  0.00000000000E+00 -0.12634519624E+04  0.12634519624E+04  0.25500000920E-02 0. -1.
    10030    2    1    2    0    0  0.00000000000E+00  0.00000000000E+00 -0.40326650653E+02  0.24865772741E+04  0.24862502492E+04 0.  0.
        4    1    3    3  502    0 -0.59819407839E+03  0.87758012923E+03  0.62596764333E+03  0.12328098564E+04  0.12699999809E+01 0.  1.
       -4    1    3    3    0  502  0.59819407839E+03 -0.87758012923E+03 -0.66629429399E+03  0.12537674177E+04  0.12699999809E+01 0. -1.
</event>
<event>
 5   0  0.2441340E-05  0.2393653E+04  0.7818609E-02  0.8441884E-01
        2   -1    0    0  501    0  0.00000000000E+00  0.00000000000E+00  0.92101338483E+03  0.92101338484E+03  0.25500000920E-02 0.  1.
       -2   -1    0    0    0  501  0.00000000000E+00  0.00000000000E+00 -0.15552367427E+04  0.15552367427E+04  0.25500000920E-02 0. -1.
    10030    2    1    2    0    0  0.00000000000E+00  0.00000000000E+00 -0.63422335783E+03  0.24762501275E+04  0.23936531550E+04 0.  0.
        3    1    3    3  502    0  0.63935841935E+03  0.96524190770E+03 -0.34620932973E+01  0.11577923497E+04  0.10100000352E+00 0.  1.
       -3    1    3    3    0  502 -0.63935841935E+03 -0.96524190770E+03 -0.63076126453E+03  0.13184577778E+04  0.10100000352E+00 0. -1.
</event>
<event>
 5   0  0.1039688E-05  0.2490796E+04  0.7818609E-02  0.8406272E-01
       -1   -1    0    0    0  501  0.00000000000E+00  0.00000000000E+00  0.12232518500E+04  0.12232518500E+04  0.50400001928E-02 0. -1.
        1   -1    0    0  501    0  0.00000000000E+00  0.00000000000E+00 -0.12679447946E+04  0.12679447946E+04  0.50400001928E-02 0.  1.
    10030    2    1    2    0    0  0.00000000000E+00  0.00000000000E+00 -0.44692944594E+02  0.24911966446E+04  0.24907957087E+04 0.  0.
        3    1    3    3  502    0 -0.79850227543E+03 -0.86899574796E+03  0.37553198125E+03  0.12384602428E+04  0.10100000352E+00 0. -1.
       -3    1    3    3    0  502  0.79850227543E+03  0.86899574796E+03 -0.42022492584E+03  0.12527364018E+04  0.10100000352E+00 0.  1.
</event>
<event>
 5   0  0.2388326E-05  0.2503091E+04  0.7818609E-02  0.8401885E-01
       -2   -1    0    0    0  501  0.00000000000E+00  0.00000000000E+00  0.11567068813E+04  0.11567068814E+04  0.25500000920E-02 0.  1.
        2   -1    0    0  501    0  0.00000000000E+00  0.00000000000E+00 -0.13541604817E+04  0.13541604817E+04  0.25500000920E-02 0. -1.
    10030    2    1    2    0    0  0.00000000000E+00  0.00000000000E+00 -0.19745360037E+03  0.25108673631E+04  0.25030914867E+04 0.  0.
        2    1    3    3  502    0 -0.11491991925E+04 -0.49446096862E+03 -0.63742761779E+02  0.12526825508E+04  0.25500000920E-02 0.  1.
       -2    1    3    3    0  502  0.11491991925E+04  0.49446096862E+03 -0.13371083859E+03  0.12581848123E+04  0.25500000920E-02 0. -1.
</event>
<event>
 5   0  0.1008073E-05  0.2467109E+04  0.7818609E-02  0.8414798E-01
        1   -1    0    0  501    0  0.00000000000E+00  0.00000000000E+00  0.85517638815E+03  0.85517638816E+03  0.50400001928E-02 0. -1.
       -1   -1    0    0    0  501  0.00000000000E+00  0.00000000000E+00 -0.17793484334E+04  0.17793484334E+04  0.50400001928E-02 0.  1.
    10030    2    1    2    0    0  0.00000000000E+00  0.00000000000E+00 -0.92417204527E+03  0.26345248216E+04  0.24671090503E+04 0.  0.
        1    1    3    3  502    0 -0.11582422726E+03 -0.11091875825E+04 -0.10250659742E+04  0.15147516616E+04  0.50400001928E-02 0.  1.
       -1    1    3    3    0  502  0.11582422726E+03  0.11091875825E+04  0.10089392895E+03  0.11197731600E+04  0.50400001928E-02 0. -1.
</event>
<event>
 5   0  0.1010338E-05  0.2532092E+04  0.7818609E-02  0.8391641E-01
        1   -1    0    0  501    0  0.00000000000E+00  0.00000000000E+00  0.10450277971E+04  0.10450277971E+04  0.50400001928E-02 0.  1.
       -1   -1    0    0    0  501  0.00000000000E+00  0.00000000000E+00 -0.15338080686E+04  0.15338080686E+04  0.50400001928E-02 0. -1.
    10030    2    1    2    0    0  0.00000000000E+00  0.00000000000E+00 -0.48878027153E+03  0.25788358657E+04  0.25320916785E+04 0.  0.
        2    1    3    3  502    0 -0.12359285428E+04  0.21843570132E+03 -0.41370765305E+03  0.13215095689E+04  0.25500000920E-02 0.  1.
       -2    1    3    3    0  502  0.12359285428E+04 -0.21843570132E+03 -0.75072618484E+02  0.12573262968E+04  0.25500000920E-02 0. -1.
</event>
<event>
 5   0  0.2345143E-05  0.2475791E+04  0.7818609E-02  0.8411661E-01
        2   -1    0    0  501    0  0.00000000000E+00  0.00000000000E+00  0.10593422760E+04  0.10593422760E+04  0.25500000920E-02 0. -1.
       -2   -1    0    0    0  501  0.00000000000E+00  0.00000000000E+00 -0.14465440848E+04  0.14465440848E+04  0.25500000920E-02 0.  1.
    10030    2    1    2    0    0  0.00000000000E+00  0.00000000000E+00 -0.38720180885E+03  0.25058863608E+04  0.24757910277E+04 0.  0.
        5    1    3    3  502    0  0.11749401469E+04 -0.12043117220E+03  0.18154615966E+03  0.11949766165E+04  0.46999998093E+01 0. -1.
       -5    1    3    3    0  502 -0.11749401469E+04  0.12043117220E+03 -0.56874796851E+03  0.13109097443E+04  0.46999998093E+01 0.  1.
</event>
<event>
 5   0  0.1008073E-05  0.2502848E+04  0.7818609E-02  0.8401971E-01
       -1   -1    0    0    0  501  0.00000000000E+00  0.00000000000E+00  0.94405022723E+03  0.94405022724E+03  0.50400001928E-02 0.  1.
        1   -1    0    0  501    0  0.00000000000E+00  0.00000000000E+00 -0.16588764016E+04  0.16588764016E+04  0.50400001928E-02 0. -1.
    10030    2    1    2    0    0  0.00000000000E+00  0.00000000000E+00 -0.71482617441E+03  0.26029266289E+04  0.25028484924E+04 0.  0.
        1    1    3    3  502    0  0.12306088646E+04  0.21543853379E+03 -0.43277226541E+03  0.13221587549E+04  0.50400001928E-02 0.  1.
       -1    1    3    3    0  502 -0.12306088646E+04 -0.21543853379E+03 -0.28205390900E+03  0.12807678740E+04  0.50400001928E-02 0. -1.
</event>
<event>
 5   0  0.2432309E-05  0.2490036E+04  0.7818609E-02  0.8406544E-01
       -2   -1    0    0    0  501  0.00000000000E+00  0.00000000000E+00  0.13768132851E+04  0.13768132851E+04  0.25500000920E-02 0. -1.
        2   -1    0    0  501    0  0.00000000000E+00  0.00000000000E+00 -0.11258389737E+04  0.11258389737E+04  0.25500000920E-02 0.  1.
    10030    2    1    2    0    0  0.00000000000E+00  0.00000000000E+00  0.25097431135E+03  0.25026522588E+04  0.24900361892E+04 0.  0.
        4    1    3    3  502    0 -0.58876384537E+03  0.45331948321E+03  0.11295114965E+04  0.13520130373E+04  0.12699999809E+01 0. -1.
       -4    1    3    3    0  502  0.58876384537E+03 -0.45331948321E+03 -0.87853718511E+03  0.11506392215E+04  0.12699999809E+01 0.  1.
</event>
<event>
 5   0  0.8166500E-06  0.2495517E+04  0.7818609E-02  0.8404584E-01
        3   -1    0    0  501    0  0.00000000000E+00  0.00000000000E+00  0.88242735783E+03  0.88242736361E+03  0.10100000352E+00 0.  1.
       -3   -1    0    0    0  501  0.00000000000E+00  0.00000000000E+00 -0.17643393006E+04  0.17643393035E+04  0.10100000352E+00 0. -1.
    10030    2    1    2    0    0  0.00000000000E+00  0.00000000000E+00 -0.88191194281E+03  0.26467666671E+04  0.24955170036E+04 0.  0.
        5    1    3    3  502    0 -0.11034662658E+04  0.51133428900E+03 -0.73674719148E+03  0.14219420062E+04  0.46999998093E+01 0. -1.
       -5    1    3    3    0  502  0.11034662658E+04 -0.51133428900E+03 -0.14516475133E+03  0.12248246609E+04  0.46999998093E+01 0.  1.
</event>
<event>
 5   0  0.2441340E-05  0.2508418E+04  0.7818609E-02  0.8399993E-01
       -2   -1    0    0    0  501  0.00000000000E+00  0.00000000000E+00  0.55082268503E+03  0.55082268504E+03  0.25500000920E-02 0.  1.
        2   -1    0    0  501    0  0.00000000000E+00  0.00000000000E+00 -0.28558011755E+04  0.28558011755E+04  0.25500000920E-02 0. -1.
    10030    2    1    2    0    0  0.00000000000E+00  0.00000000000E+00 -0.23049784905E+04  0.34066238606E+04  0.25084178850E+04 0.  0.
        3    1    3    3  502    0  0.91824275206E+03 -0.57940226443E+02  0.50775535245E+01  0.92008293827E+03  0.10100000352E+00 0.  1.
       -3    1    3    3    0  502 -0.91824275206E+03  0.57940226443E+02 -0.23100560440E+04  0.24865409223E+04  0.10100000352E+00 0. -1.
</event>
<event>
 5   0  0.2345143E-05  0.2499040E+04  0.7818609E-02  0.8403328E-01
        2   -1    0    0  501    0  0.00000000000E+00  0.00000000000E+00  0.13540025120E+04  0.13540025120E+04  0.25500000920E-02 0. -1.
       -2   -1    0    0    0  501  0.00000000000E+00  0.00000000000E+00 -0.11530996028E+04  0.11530996028E+04  0.25500000920E-02 0.  1.
    10030    2    1    2    0    0  0.00000000000E+00  0.00000000000E+00  0.20090290920E+03  0.25071021149E+04  0.24990396227E+04 0.  0.
        5    1    3    3  502    0 -0.22338737132E+03  0.11594301242E+04  0.51054591903E+03  0.12864133691E+04  0.46999998093E+01 0. -1.
       -5    1    3    3    0  502  0.22338737132E+03 -0.11594301242E+04 -0.30964300983E+03  0.12206887458E+04  0.46999998093E+01 0.  1.
</event>
<event>
 5   0  0.1039688E-05  0.2566563E+04  0.7818609E-02  0.8379648E-01
       -1   -1    0    0    0  501  0.00000000000E+00  0.00000000000E+00  0.66490588407E+03  0.66490588409E+03  0.50400001928E-02 0. -1.
        1   -1    0    0  501    0  0.00000000000E+00  0.00000000000E+00 -0.24767588733E+04  0.24767588733E+04  0.50400001928E-02 0.  1.
    10030    2    1    2    0    0  0.00000000000E+00  0.00000000000E+00 -0.18118529892E+04  0.31416647574E+04  0.25665631092E+04 0.  0.
        3    1    3    3  502    0  0.11422385214E+04 -0.58126186274E+03 -0.82624548642E+03  0.15248789483E+04  0.10100000352E+00 0. -1.
       -3    1    3    3    0  502 -0.11422385214E+04  0.58126186274E+03 -0.98560750281E+03  0.16167858091E+04  0.10100000352E+00 0.  1.
</event>
<event>
 5   0  0.2388326E-05  0.2512320E+04  0.7818609E-02  0.8398610E-01
        2   -1    0    0  501    0  0.00000000000E+00  0.00000000000E+00  0.14122060016E+04  0.14122060016E+04  0.25500000920E-02 0.  1.
       -2   -1    0    0    0  501  0.00000000000E+00  0.00000000000E+00 -0.11173567845E+04  0.11173567845E+04  0.25500000920E-02 0. -1.
    10030    2    1    2    0    0  0.00000000000E+00  0.00000000000E+00  0.29484921710E+03  0.25295627860E+04  0.25123200090E+04 0.  0.
        2    1    3    3  502    0  0.46149938559E+03  0.85844826750E+03  0.94534254471E+03  0.13577877734E+04  0.25500000920E-02 0.  1.
       -2    1    3    3    0  502 -0.46149938559E+03 -0.85844826750E+03 -0.65049332761E+03  0.11717750126E+04  0.25500000920E-02 0. -1.
</event>
<event>
 5   0  0.2432309E-05  0.2506827E+04  0.7818609E-02  0.8400558E-01
        2   -1    0    0  501    0  0.00000000000E+00  0.00000000000E+00  0.24301058925E+04  0.24301058925E+04  0.25500000920E-02 0.  1.
       -2   -1    0    0    0  501  0.00000000000E+00  0.00000000000E+00 -0.64649242057E+03  0.64649242057E+03  0.25500000920E-02 0. -1.
    10030    2    1    2    0    0  0.00000000000E+00  0.00000000000E+00  0.17836134719E+04  0.30765983130E+04  0.25068267117E+04 0.  0.
        4    1    3    3  502    0 -0.11036692229E+03  0.34823115286E+03  0.23633233119E+04  0.23913896551E+04  0.12699999809E+01 0.  1.
       -4    1    3    3    0  502  0.11036692229E+03 -0.34823115286E+03 -0.57970983999E+03  0.68520865789E+03  0.12699999809E+01 0. -1.
</event>
<event>
 5   0  0.2432309E-05  0.2493652E+04  0.7818609E-02  0.8405250E-01
       -2   -1    0    0    0  501  0.00000000000E+00  0.00000000000E+00  0.65975159037E+03  0.65975159038E+03  0.25500000920E-02 0. -1.
        2   -1    0    0  501    0  0.00000000000E+00  0.00000000000E+00 -0.23563039282E+04  0.23563039282E+04  0.25500000920E-02 0.  1.
    10030    2    1    2    0    0  0.00000000000E+00  0.00000000000E+00 -0.16965523378E+04  0.30160555186E+04  0.24936521522E+04 0.  0.
        4    1    3    3  502    0  0.89091136732E+03 -0.17307453470E+03 -0.18823015290E+04  0.20896742613E+04  0.12699999809E+01 0.  1.
       -4    1    3    3    0  502 -0.89091136732E+03  0.17307453470E+03  0.18574919122E+03  0.92638125733E+03  0.12699999809E+01 0. -1.
</event>
<event>
 5   0  0.1015327E-05  0.2036170E+04  0.7818609E-02  0.8589894E-01
        1   -1    0    0  501    0  0.00000000000E+00  0.00000000000E+00  0.96024403983E+03  0.96024403985E+03  0.50400001928E-02 0. -1.
       -1   -1    0    0    0  501  0.00000000000E+00  0.00000000000E+00 -0.10794099350E+04  0.10794099350E+04  0.50400001928E-02 0.  1.
    10030    2    1    2    0    0  0.00000000000E+00  0.00000000000E+00 -0.11916589514E+03  0.20396539748E+04  0.20361698914E+04 0.  0.
        4    1    3    3  502    0  0.62545549970E+03  0.15993364379E+02 -0.86410412883E+03  0.10668307870E+04  0.12699999809E+01 0.  1.
       -4    1    3    3    0  502 -0.62545549970E+03 -0.15993364379E+02  0.74493823369E+03  0.97282318780E+03  0.12699999809E+01 0. -1.
</event>
<event>
 5   0  0.1002753E-05  0.2490497E+04  0.7818609E-02  0.8406379E-01
       -1   -1    0    0    0  501  0.00000000000E+00  0.00000000000E+00  0.69442766721E+03  0.69442766722E+03  0.50400001928E-02 0.  1.
        1   -1    0    0  501    0  0.00000000000E+00  0.00000000000E+00 -0.22329819399E+04  0.22329819399E+04  0.50400001928E-02 0. -1.
    10030    2    1    2    0    0  0.00000000000E+00  0.00000000000E+00 -0.15385542727E+04  0.29274096071E+04  0.24904974921E+04 0.  0.
        5    1    3    3  502    0  0.41955068426E+03 -0.15364431617E+03 -0.21355075028E+04  0.21817524463E+04  0.46999998093E+01 0. -1.
       -5    1    3    3    0  502 -0.41955068426E+03  0.15364431617E+03  0.59695323009E+03  0.74565716081E+03  0.46999998093E+01 0.  1.
</event>
<event>
 5   0  0.1008073E-05  0.2489436E+04  0.7818609E-02  0.8406759E-01
        1   -1    0    0  501    0  0.00000000000E+00  0.00000000000E+00  0.28514415513E+04  0.28514415513E+04  0.50400001928E-02 0. -1.
       -1   -1    0    0    0  501  0.00000000000E+00  0.00000000000E+00 -0.54334723274E+03  0.54334723277E+03  0.50400001928E-02 0.  1.
    10030    2    1    2    0    0  0.00000000000E+00  0.00000000000E+00  0.23080943185E+04  0.33947887841E+04  0.24894359813E+04 0.  0.
        1    1    3    3  502    0 -0.10299598056E+04 -0.58093596635E+03  0.62410593626E+03  0.13370908787E+04  0.50400001928E-02 0.  1.
       -1    1    3    3    0  502  0.10299598056E+04  0.58093596635E+03  0.16839883823E+04  0.20576979054E+04  0.50400001928E-02 0. -1.
</event>
<event>
 5   0  0.1015327E-05  0.2521781E+04  0.7818609E-02  0.8395267E-01
       -1   -1    0    0    0  501  0.00000000000E+00  0.00000000000E+00  0.71389725992E+03  0.71389725994E+03  0.50400001928E-02 0. -1.
        1   -1    0    0  501    0  0.00000000000E+00  0.00000000000E+00 -0.22269943833E+04  0.22269943833E+04  0.50400001928E-02 0.  1.
    10030    2    1    2    0    0  0.00000000000E+00  0.00000000000E+00 -0.15130971234E+04  0.29408916433E+04  0.25217812658E+04 0.  0.
        4    1    3    3  502    0  0.91178307369E+03  0.54228092937E+03  0.38200730981E+02  0.10615450478E+04  0.12699999809E+01 0. -1.
       -4    1    3    3    0  502 -0.91178307369E+03 -0.54228092937E+03 -0.15512978544E+04  0.18793465954E+04  0.12699999809E+01 0.  1.
</event>
<event>
 5   0  0.1008073E-05  0.2492152E+04  0.7818609E-02  0.8405787E-01
        1   -1    0    0  501    0  0.00000000000E+00  0.00000000000E+00  0.14238904208E+04  0.14238904208E+04  0.50400001928E-02 0.  1.
       -1   -1    0    0    0  501  0.00000000000E+00  0.00000000000E+00 -0.10904665110E+04  0.10904665110E+04  0.50400001928E-02 0. -1.
    10030    2    1    2    0    0  0.00000000000E+00  0.00000000000E+00  0.33342390981E+03  0.25143569318E+04  0.24921515357E+04 0.  0.
        1    1    3    3  502    0  0.71554838428E+03 -0.83367101368E+03  0.75990304066E+03  0.13358403649E+04  0.50400001928E-02 0.  1.
       -1    1    3    3    0  502 -0.71554838428E+03  0.83367101368E+03 -0.42647913084E+03  0.11785165669E+04  0.50400001928E-02 0. -1.
</event>
<event>
 5   0  0.2388326E-05  0.2521411E+04  0.7818609E-02  0.8395397E-01
       -2   -1    0    0    0  501  0.00000000000E+00  0.00000000000E+00  0.88627372917E+03  0.88627372918E+03  0.25500000920E-02 0. -1.
        2   -1    0    0  501    0  0.00000000000E+00  0.00000000000E+00 -0.17933260118E+04  0.17933260118E+04  0.25500000920E-02 0.  1.
    10030    2    1    2    0    0  0.00000000000E+00  0.00000000000E+00 -0.90705228263E+03  0.26795997410E+04  0.25214105038E+04 0.  0.
        2    1    3    3  502    0  0.43650100528E+03 -0.13308847627E+03 -0.17024730375E+04  0.17625720165E+04  0.25500000920E-02 0.  1.
       -2    1    3    3    0  502 -0.43650100528E+03  0.13308847627E+03  0.79542075485E+03  0.91702772444E+03  0.25500000920E-02 0. -1.
</event>
<event>
 5   0  0.1015327E-05  0.2289592E+04  0.7818609E-02  0.8482036E-01
        1   -1    0    0  501    0  0.00000000000E+00  0.00000000000E+00  0.10028751697E+04  0.10028751697E+04  0.50400001928E-02 0.  1.
       -1   -1    0    0    0  501  0.00000000000E+00  0.00000000000E+00 -0.13068008699E+04  0.13068008699E+04  0.50400001928E-02 0. -1.
    10030    2    1    2    0    0  0.00000000000E+00  0.00000000000E+00 -0.30392570021E+03  0.23096760396E+04  0.22895922293E+04 0.  0.
        4    1    3    3  502    0 -0.83882263063E+03 -0.10224764681E+03 -0.93105771126E+03  0.12573575711E+04  0.12699999809E+01 0. -1.
       -4    1    3    3    0  502  0.83882263063E+03  0.10224764681E+03  0.62713201105E+03  0.10523184685E+04  0.12699999809E+01 0.  1.
</event>
<event>
 5   0  0.2388326E-05  0.2248642E+04  0.7818609E-02  0.8498451E-01
        2   -1    0    0  501    0  0.00000000000E+00  0.00000000000E+00  0.16459156257E+04  0.16459156257E+04  0.25500000920E-02 0.  1.
       -2   -1    0    0    0  501  0.00000000000E+00  0.00000000000E+00 -0.76802090077E+03  0.76802090078E+03  0.25500000920E-02 0. -1.
    10030    2    1    2    0    0  0.00000000000E+00  0.00000000000E+00  0.87789472491E+03  0.24139365265E+04  0.22486419025E+04 0.  0.
        2    1    3    3  502    0  0.10524160068E+04  0.38069864744E+03  0.55450143094E+03  0.12489926935E+04  0.25500000920E-02 0.  1.
       -2    1    3    3    0  502 -0.10524160068E+04 -0.38069864744E+03  0.32339329397E+03  0.11649438330E+04  0.25500000920E-02 0. -1.
</event>
<event>
 5   0  0.1008073E-05  0.2503509E+04  0.7818609E-02  0.8401736E-01
       -1   -1    0    0    0  501  0.00000000000E+00  0.00000000000E+00  0.11241301852E+04  0.11241301852E+04  0.50400001928E-02 0. -1.
        1   -1    0    0  501    0  0.00000000000E+00  0.00000000000E+00 -0.13938684458E+04  0.13938684458E+04  0.50400001928E-02 0.  1.
    10030    2    1    2    0    0  0.00000000000E+00  0.00000000000E+00 -0.26973826061E+03  0.25179986310E+04  0.25035092124E+04 0.  0.
        1    1    3    3  502    0 -0.13790725398E+03  0.68161479047E+03  0.91195842781E+03  0.11468588873E+04  0.50400001928E-02 0. -1.
       -1    1    3    3    0  502  0.13790725398E+03 -0.68161479047E+03 -0.11816966884E+04  0.13711397437E+04  0.50400001928E-02 0.  1.
</event>
<event>
 5   0  0.1002753E-05  0.2572922E+04  0.7818609E-02  0.8377457E-01
       -1   -1    0    0    0  501  0.00000000000E+00  0.00000000000E+00  0.89248642882E+03  0.89248642884E+03  0.50400001928E-02 0. -1.
        1   -1    0    0  501    0  0.00000000000E+00  0.00000000000E+00 -0.18543502296E+04  0.18543502297E+04  0.50400001928E-02 0.  1.
    10030    2    1    2    0    0  0.00000000000E+00  0.00000000000E+00 -0.96186380082E+03  0.27468366585E+04  0.25729223962E+04 0.  0.
        5    1    3    3  502    0 -0.70115409796E+03  0.23471267770E+03 -0.16048266624E+04  0.17669741980E+04  0.46999998093E+01 0.  1.
       -5    1    3    3    0  502  0.70115409796E+03 -0.23471267770E+03  0.64296286154E+03  0.97986246049E+03  0.46999998093E+01 0. -1.
</event>
<event>
 5   0  0.2388326E-05  0.2494716E+04  0.7818609E-02  0.8404870E-01
       -2   -1    0    0    0  501  0.00000000000E+00  0.00000000000E+00  0.12062283295E+04  0.12062283295E+04  0.25500000920E-02 0. -1.
        2   -1    0    0  501    0  0.00000000000E+00  0.00000000000E+00 -0.12898904814E+04  0.12898904815E+04  0.25500000920E-02 0.  1.
    10030    2    1    2    0    0  0.00000000000E+00  0.00000000000E+00 -0.83662151958E+02  0.24961188109E+04  0.24947163692E+04 0.  0.
        2    1    3    3  502    0  0.46069267614E+03 -0.16952040969E+03  0.11055164551E+04  0.12096038788E+04  0.25500000920E-02 0. -1.
       -2    1    3    3    0  502 -0.46069267614E+03  0.16952040969E+03 -0.11891786070E+04  0.12865149321E+04  0.25500000920E-02 0.  1.
</event>
<event>
 5   0  0.2441340E-05  0.2465066E+04  0.7818609E-02  0.8415538E-01
        2   -1    0    0  501    0  0.00000000000E+00  0.00000000000E+00  0.15632927675E+04  0.15632927675E+04  0.25500000920E-02 0.  1.
       -2   -1    0    0    0  501  0.00000000000E+00  0.00000000000E+00 -0.97175498912E+03  0.97175498912E+03  0.25500000920E-02 0. -1.
    10030    2    1    2    0    0  0.00000000000E+00  0.00000000000E+00  0.59153777838E+03  0.25350477566E+04  0.24650659596E+04 0.  0.
        3    1    3    3  502    0  0.29420986944E+03  0.80228219540E+03 -0.61765940522E+03  0.10543810124E+04  0.10100000352E+00 0. -1.
       -3    1    3    3    0  502 -0.29420986944E+03 -0.80228219540E+03  0.12091971836E+04  0.14806667442E+04  0.10100000352E+00 0.  1.
</event>
<event>
 5   0  0.2345143E-05  0.2529496E+04  0.7818609E-02  0.8392552E-01
       -2   -1    0    0    0  501  0.00000000000E+00  0.00000000000E+00  0.10870177042E+04  0.10870177042E+04  0.25500000920E-02 0. -1.
        2   -1    0    0  501    0  0.00000000000E+00  0.00000000000E+00 -0.14715372465E+04  0.14715372465E+04  0.25500000920E-02 0.  1.
    10030    2    1    2    0    0  0.00000000000E+00  0.00000000000E+00 -0.38451954232E+03  0.25585549508E+04  0.25294956331E+04 0.  0.
        5    1    3    3  502    0  0.36967314824E+03 -0.47208407377E+03  0.93410548824E+03  0.11099985416E+04  0.46999998093E+01 0. -1.
       -5    1    3    3    0  502 -0.36967314824E+03  0.47208407377E+03 -0.13186250306E+04  0.14485564091E+04  0.46999998093E+01 0.  1.
</event>
<event>
 5   0  0.1015327E-05  0.2461442E+04  0.7818609E-02  0.8416852E-01
       -1   -1    0    0    0  501  0.00000000000E+00  0.00000000000E+00  0.18366185524E+04  0.18366185525E+04  0.50400001928E-02 0. -1.
        1   -1    0    0  501    0  0.00000000000E+00  0.00000000000E+00 -0.82470828620E+03  0.82470828622E+03  0.50400001928E-02 0.  1.
    10030    2    1    2    0    0  0.00000000000E+00  0.00000000000E+00  0.10119102662E+04  0.26613268387E+04  0.24614422917E+04 0.  0.
        4    1    3    3  502    0 -0.11182925967E+04  0.23740569987E+03  0.13165644448E+02  0.11432911900E+04  0.12699999809E+01 0.  1.
       -4    1    3    3    0  502  0.11182925967E+04 -0.23740569987E+03  0.99874462180E+03  0.15180356486E+04  0.12699999809E+01 0. -1.
</event>
<event>
 5   0  0.1008073E-05  0.2490033E+04  0.7818609E-02  0.8406545E-01
        1   -1    0    0  501    0  0.00000000000E+00  0.00000000000E+00  0.16389358815E+04  0.16389358816E+04  0.50400001928E-02 0. -1.
       -1   -1    0    0    0  501  0.00000000000E+00  0.00000000000E+00 -0.94577576799E+03  0.94577576800E+03  0.50400001928E-02 0.  1.
    10030    2    1    2    0    0  0.00000000000E+00  0.00000000000E+00  0.69316011356E+03  0.25847116496E+04  0.24900328047E+04 0.  0.
        1    1    3    3  502    0 -0.63240594707E+03  0.52477464176E+03  0.13174175906E+04  0.15527120836E+04  0.50400001928E-02 0. -1.
       -1    1    3    3    0  502  0.63240594707E+03 -0.52477464176E+03 -0.62425747702E+03  0.10319995660E+04  0.50400001928E-02 0.  1.
</event>
<event>
 5   0  0.1002753E-05  0.2458395E+04  0.7818609E-02  0.8417959E-01
        1   -1    0    0  501    0  0.00000000000E+00  0.00000000000E+00  0.16744015884E+04  0.16744015884E+04  0.50400001928E-02 0.  1.
       -1   -1    0    0    0  501  0.00000000000E+00  0.00000000000E+00 -0.90236808797E+03  0.90236808798E+03  0.50400001928E-02 0. -1.
    10030    2    1    2    0    0  0.00000000000E+00  0.00000000000E+00  0.77203350045E+03  0.25767696764E+04  0.24583950536E+04 0.  0.
        5    1    3    3  502    0 -0.72190934454E+03  0.21554558453E+03 -0.63198114722E+03  0.98337951025E+03  0.46999998093E+01 0. -1.
       -5    1    3    3    0  502  0.72190934454E+03 -0.21554558453E+03  0.14040146477E+04  0.15933901662E+04  0.46999998093E+01 0.  1.
</event>
<event>
 5   0  0.2441340E-05  0.2517374E+04  0.7818609E-02  0.8396822E-01
        2   -1    0    0  501    0  0.00000000000E+00  0.00000000000E+00  0.24622824224E+04  0.24622824224E+04  0.25500000920E-02 0. -1.
       -2   -1    0    0    0  501  0.00000000000E+00  0.00000000000E+00 -0.64342438935E+03  0.64342438935E+03  0.25500000920E-02 0.  1.
    10030    2    1    2    0    0  0.00000000000E+00  0.00000000000E+00  0.18188580331E+04  0.31057068118E+04  0.25173736823E+04 0.  0.
        3    1    3    3  502    0  0.80249817954E+02 -0.82219392671E+03 -0.26217227499E+03  0.86670479309E+03  0.10100000352E+00 0.  1.
       -3    1    3    3    0  502 -0.80249817954E+02  0.82219392671E+03  0.20810303081E+04  0.22390020187E+04  0.10100000352E+00 0. -1.
</event>
<event>
 5   0  0.2388326E-05  0.2498578E+04  0.7818609E-02  0.8403492E-01
        2   -1    0    0  501    0  0.00000000000E+00  0.00000000000E+00  0.20203033011E+04  0.20203033011E+04  0.25500000920E-02 0. -1.
       -2   -1    0    0    0  501  0.00000000000E+00  0.00000000000E+00 -0.77251912979E+03  0.77251912979E+03  0.25500000920E-02 0.  1.
    10030    2    1    2    0    0  0.00000000000E+00  0.00000000000E+00  0.12477841713E+04  0.27928224309E+04  0.24985779540E+04 0.  0.
        2    1    3    3  502    0  0.73239003818E+03  0.69409048445E+03 -0.19944329715E+03  0.10285593796E+04  0.25500000920E-02 0.  1.
       -2    1    3    3    0  502 -0.73239003818E+03 -0.69409048445E+03  0.14472274685E+04  0.17642630513E+04  0.25500000920E-02 0. -1.
</event>
<event>
 5   0  0.1010338E-05  0.2498720E+04  0.7818609E-02  0.8403442E-01
        1   -1    0    0  501    0  0.00000000000E+00  0.00000000000E+00  0.52535765927E+03  0.52535765930E+03  0.50400001928E-02 0.  1.
       -1   -1    0    0    0  501  0.00000000000E+00  0.00000000000E+00 -0.29711202828E+04  0.29711202828E+04  0.50400001928E-02 0. -1.
    10030    2    1    2    0    0  0.00000000000E+00  0.00000000000E+00 -0.24457626235E+04  0.34964779421E+04  0.24987203103E+04 0.  0.
        2    1    3    3  502    0 -0.99048074686E+03 -0.22768743896E+03 -0.20608717248E+03  0.10369983618E+04  0.25500000920E-02 0.  1.
       -2    1    3    3    0  502  0.99048074686E+03  0.22768743896E+03 -0.22396754510E+04  0.24594795803E+04  0.25500000920E-02 0. -1.
</event>
<event>
 5   0  0.1010338E-05  0.2510139E+04  0.7818609E-02  0.8399382E-01
        1   -1    0    0  501    0  0.00000000000E+00  0.00000000000E+00  0.16080834324E+04  0.16080834324E+04  0.50400001928E-02 0. -1.
       -1   -1    0    0    0  501  0.00000000000E+00  0.00000000000E+00 -0.97955071899E+03  0.97955071901E+03  0.50400001928E-02 0.  1.
    10030    2    1    2    0    0  0.00000000000E+00  0.00000000000E+00  0.62853271344E+03  0.25876341514E+04  0.25101388666E+04 0.  0.
        2    1    3    3  502    0 -0.95694938750E+03  0.81113705810E+03  0.35424276802E+03  0.13035272901E+04  0.25500000920E-02 0. -1.
       -2    1    3    3    0  502  0.95694938750E+03 -0.81113705810E+03  0.27428994542E+03  0.12841068614E+04  0.25500000920E-02 0.  1.
</event>
<event>
 5   0  0.2452457E-05  0.2494634E+04  0.7818609E-02  0.8404900E-01
        2   -1    0    0  501    0  0.00000000000E+00  0.00000000000E+00  0.14691936228E+04  0.14691936228E+04  0.25500000920E-02 0.  1.
       -2   -1    0    0    0  501  0.00000000000E+00  0.00000000000E+00 -0.10589478694E+04  0.10589478694E+04  0.25500000920E-02 0. -1.
    10030    2    1    2    0    0  0.00000000000E+00  0.00000000000E+00  0.41024575339E+03  0.25281414922E+04  0.24946338061E+04 0.  0.
        1    1    3    3  502    0  0.68200509809E+03 -0.76953649088E+03 -0.51039312949E+03  0.11479627656E+04  0.50400001928E-02 0. -1.
       -1    1    3    3    0  502 -0.68200509809E+03  0.76953649088E+03  0.92063888288E+03  0.13801787266E+04  0.50400001928E-02 0.  1.
</event>
<event>
 5   0  0.1039688E-05  0.2571762E+04  0.7818609E-02  0.8377857E-01
       -1   -1    0    0    0  501  0.00000000000E+00  0.00000000000E+00  0.11759365145E+04  0.11759365146E+04  0.50400001928E-02 0. -1.
        1   -1    0    0  501    0  0.00000000000E+00  0.00000000000E+00 -0.14061050890E+04  0.14061050890E+04  0.50400001928E-02 0.  1.
    10030    2    1    2    0    0  0.00000000000E+00  0.00000000000E+00 -0.23016857449E+03  0.25820416036E+04  0.25717622888E+04 0.  0.
        3    1    3    3  502    0 -0.23234020927E+03  0.19186135496E+03  0.11399912888E+04  0.11791407470E+04  0.10100000352E+00 0. -1.
       -3    1    3    3    0  502  0.23234020927E+03 -0.19186135496E+03 -0.13701598633E+04  0.14029008566E+04  0.10100000352E+00 0.  1.
</event>
<event>
 5   0  0.2452457E-05  0.2485065E+04  0.7818609E-02  0.8408326E-01
       -2   -1    0    0    0  501  0.00000000000E+00  0.00000000000E+00  0.12458995043E+04  0.12458995043E+04  0.25500000920E-02 0.  1.
        2   -1    0    0  501    0  0.00000000000E+00  0.00000000000E+00 -0.12391746024E+04  0.12391746024E+04  0.25500000920E-02 0. -1.
    10030    2    1    2    0    0  0.00000000000E+00  0.00000000000E+00  0.67249019487E+01  0.24850741067E+04  0.24850650075E+04 0.  0.
        1    1    3    3  502    0 -0.23077574193E+03  0.91884994461E+03  0.80732084068E+03  0.12447126591E+04  0.50400001928E-02 0.  1.
       -1    1    3    3    0  502  0.23077574193E+03 -0.91884994461E+03 -0.80059593874E+03  0.12403614477E+04  0.50400001928E-02 0. -1.
</event>
<event>
 5   0  0.1010338E-05  0.2478502E+04  0.7818609E-02  0.8410685E-01
       -1   -1    0    0    0  501  0.00000000000E+00  0.00000000000E+00  0.17085174230E+04  0.17085174230E+04  0.50400001928E-02 0. -1.
        1   -1    0    0  501    0  0.00000000000E+00  0.00000000000E+00 -0.89887448695E+03  0.89887448696E+03  0.50400001928E-02 0.  1.
    10030    2    1    2    0    0  0.00000000000E+00  0.00000000000E+00  0.80964293603E+03  0.26073919100E+04  0.24785017426E+04 0.  0.
        2    1    3    3  502    0 -0.40013125843E+03  0.50393158157E+03 -0.70935411507E+03  0.95772403303E+03  0.25500000920E-02 0.  1.
       -2    1    3    3    0  502  0.40013125843E+03 -0.50393158157E+03  0.15189970511E+04  0.16496678769E+04  0.25500000920E-02 0. -1.
</event>
<event>
 5   0  0.1015327E-05  0.2496220E+04  0.7818609E-02  0.8404333E-01
        1   -1    0    0  501    0  0.00000000000E+00  0.00000000000E+00  0.22566256028E+04  0.22566256028E+04  0.50400001928E-02 0. -1.
       -1   -1    0    0    0  501  0.00000000000E+00  0.00000000000E+00 -0.69031322693E+03  0.69031322695E+03  0.50400001928E-02 0.  1.
    10030    2    1    2    0    0  0.00000000000E+00  0.00000000000E+00  0.15663123759E+04  0.29469388298E+04  0.24962199438E+04 0.  0.
        4    1    3    3  502    0  0.53756174271E+03 -0.11148094388E+04  0.59278122618E+03  0.13722841932E+04  0.12699999809E+01 0.  1.
       -4    1    3    3    0  502 -0.53756174271E+03  0.11148094388E+04  0.97353114973E+03  0.15746546366E+04  0.12699999809E+01 0. -1.
</event>
<event>
 5   0  0.2432309E-05  0.2506399E+04  0.7818609E-02  0.8400709E-01
        2   -1    0    0  501    0  0.00000000000E+00  0.00000000000E+00  0.24992904531E+04  0.24992904531E+04  0.25500000920E-02 0. -1.
       -2   -1    0    0    0  501  0.00000000000E+00  0.00000000000E+00 -0.62838194640E+03  0.62838194640E+03  0.25500000920E-02 0.  1.
    10030    2    1    2    0    0  0.00000000000E+00  0.00000000000E+00  0.18709085067E+04  0.31276723995E+04  0.25063990102E+04 0.  0.
        4    1    3    3  502    0 -0.92276633480E+03  0.83269953346E+03  0.73571175215E+03  0.14443543945E+04  0.12699999809E+01 0.  1.
       -4    1    3    3    0  502  0.92276633480E+03 -0.83269953346E+03  0.11351967546E+04  0.16833180051E+04  0.12699999809E+01 0. -1.
</event>
<event>
 5   0  0.2388326E-05  0.2510527E+04  0.7818609E-02  0.8399245E-01
        2   -1    0    0  501    0  0.00000000000E+00  0.00000000000E+00  0.80336337886E+03  0.80336337886E+03  0.25500000920E-02 0.  1.
       -2   -1    0    0    0  501  0.00000000000E+00  0.00000000000E+00 -0.19613625173E+04  0.19613625173E+04  0.25500000920E-02 0. -1.
    10030    2    1    2    0    0  0.00000000000E+00  0.00000000000E+00 -0.11579991385E+04  0.27647258962E+04  0.25105272905E+04 0.  0.
        2    1    3    3  502    0 -0.10587389517E+03  0.11982847573E+04 -0.97390464946E+03  0.15477680406E+04  0.25500000920E-02 0.  1.
       -2    1    3    3    0  502  0.10587389517E+03 -0.11982847573E+04 -0.18409448902E+03  0.12169578556E+04  0.25500000920E-02 0. -1.
</event>
<event>
 5   0  0.1002753E-05  0.2510829E+04  0.7818609E-02  0.8399138E-01
        1   -1    0    0  501    0  0.00000000000E+00  0.00000000000E+00  0.16550171462E+04  0.16550171463E+04  0.50400001928E-02 0.  1.
       -1   -1    0    0    0  501  0.00000000000E+00  0.00000000000E+00 -0.95229540617E+03  0.95229540619E+03  0.50400001928E-02 0. -1.
    10030    2    1    2    0    0  0.00000000000E+00  0.00000000000E+00  0.70272174007E+03  0.26073125524E+04  0.25108287282E+04 0.  0.
        5    1    3    3  502    0  0.58149478991E+03 -0.57351127173E+03 -0.63868651501E+03  0.10368191375E+04  0.46999998093E+01 0. -1.
       -5    1    3    3    0  502 -0.58149478991E+03  0.57351127173E+03  0.13414082551E+04  0.15704934149E+04  0.46999998093E+01 0.  1.
</event>
<event>
 5   0  0.2345143E-05  0.2317001E+04  0.7818609E-02  0.8471248E-01
        2   -1    0    0  501    0  0.00000000000E+00  0.00000000000E+00  0.21212692347E+04  0.21212692347E+04  0.25500000920E-02 0. -1.
       -2   -1    0    0    0  501  0.00000000000E+00  0.00000000000E+00 -0.63269801407E+03  0.63269801407E+03  0.25500000920E-02 0.  1.
    10030    2    1    2    0    0  0.00000000000E+00  0.00000000000E+00  0.14885712206E+04  0.27539672488E+04  0.23170005025E+04 0.  0.
        5    1    3    3  502    0 -0.17000204940E+03 -0.49013483775E+03  0.19754782345E+04  0.20424664504E+04  0.46999998093E+01 0. -1.
       -5    1    3    3    0  502  0.17000204940E+03  0.49013483775E+03 -0.48690701386E+03  0.71150079840E+03  0.46999998093E+01 0.  1.
</event>
<event>
 5   0  0.2388326E-05  0.2556514E+04  0.7818609E-02  0.8383124E-01
        2   -1    0    0  501    0  0.00000000000E+00  0.00000000000E+00  0.16906840703E+04  0.16906840703E+04  0.25500000920E-02 0.  1.
       -2   -1    0    0    0  501  0.00000000000E+00  0.00000000000E+00 -0.96643746286E+03  0.96643746287E+03  0.25500000920E-02 0. -1.
    10030    2    1    2    0    0  0.00000000000E+00  0.00000000000E+00  0.72424660743E+03  0.26571215332E+04  0.25565135817E+04 0.  0.
        2    1    3    3  502    0  0.11304148247E+02  0.10952878699E+04  0.10469596148E+04  0.15152253089E+04  0.25500000920E-02 0. -1.
       -2    1    3    3    0  502 -0.11304148247E+02 -0.10952878699E+04 -0.32271300736E+03  0.11418962242E+04  0.25500000920E-02 0.  1.
</event>
<event>
 5   0  0.8166500E-06  0.2282011E+04  0.7818609E-02  0.8485048E-01
       -4   -1    0    0    0  501  0.00000000000E+00  0.00000000000E+00  0.91718827313E+03  0.91718915240E+03  0.12699999809E+01 0.  1.
        4   -1    0    0  501    0  0.00000000000E+00  0.00000000000E+00 -0.14194375688E+04  0.14194381370E+04  0.12699999809E+01 0. -1.
    10030    2    1    2    0    0  0.00000000000E+00  0.00000000000E+00 -0.50224929570E+03  0.23366272894E+04  0.22820106780E+04 0.  0.
        5    1    3    3  502    0  0.84633889382E+03  0.35355553236E+03 -0.94602788748E+03  0.13176804968E+04  0.46999998093E+01 0. -1.
       -5    1    3    3    0  502 -0.84633889382E+03 -0.35355553236E+03  0.44377859178E+03  0.10189467926E+04  0.46999998093E+01 0.  1.
</event>
<event>
 5   0  0.1039688E-05  0.2506601E+04  0.7818609E-02  0.8400638E-01
        1   -1    0    0  501    0  0.00000000000E+00  0.00000000000E+00  0.17857643040E+04  0.17857643040E+04  0.50400001928E-02 0. -1.
       -1   -1    0    0    0  501  0.00000000000E+00  0.00000000000E+00 -0.87960187261E+03  0.87960187263E+03  0.50400001928E-02 0.  1.
    10030    2    1    2    0    0  0.00000000000E+00  0.00000000000E+00  0.90616243142E+03  0.26653661767E+04  0.25066005872E+04 0.  0.
        3    1    3    3  502    0  0.19914255390E+03 -0.12218415222E+04  0.24523405933E+03  0.12620198953E+04  0.10100000352E+00 0.  1.
       -3    1    3    3    0  502 -0.19914255390E+03  0.12218415222E+04  0.66092837209E+03  0.14033462813E+04  0.10100000352E+00 0. -1.
</event>
<event>
 5   0  0.2452457E-05  0.2482596E+04  0.7818609E-02  0.8409212E-01
        2   -1    0    0  501    0  0.00000000000E+00  0.00000000000E+00  0.14248849713E+04  0.14248849713E+04  0.25500000920E-02 0.  1.
       -2   -1    0    0    0  501  0.00000000000E+00  0.00000000000E+00 -0.10813654233E+04  0.10813654233E+04  0.25500000920E-02 0. -1.
    10030    2    1    2    0    0  0.00000000000E+00  0.00000000000E+00  0.34351954791E+03  0.25062503946E+04  0.24825964957E+04 0.  0.
        1    1    3    3  502    0  0.65257456067E+03 -0.10008989760E+04  0.51137105120E+03  0.12996740628E+04  0.50400001928E-02 0.  1.
       -1    1    3    3    0  502 -0.65257456067E+03  0.10008989760E+04 -0.16785150329E+03  0.12065763318E+04  0.50400001928E-02 0. -1.
</event>
<event>
 5   0  0.1039688E-05  0.2500434E+04  0.7818609E-02  0.8402831E-01
        1   -1    0    0  501    0  0.00000000000E+00  0.00000000000E+00  0.15104953739E+04  0.15104953739E+04  0.50400001928E-02 0. -1.
       -1   -1    0    0    0  501  0.00000000000E+00  0.00000000000E+00 -0.10347878929E+04  0.10347878929E+04  0.50400001928E-02 0.  1.
    10030    2    1    2    0    0  0.00000000000E+00  0.00000000000E+00  0.47570748100E+03  0.25452832667E+04  0.25004338225E+04 0.  0.
        3    1    3    3  502    0  0.28357575200E+03 -0.18192528716E+03  0.14634132558E+04  0.15016958363E+04  0.10100000352E+00 0. -1.
       -3    1    3    3    0  502 -0.28357575200E+03  0.18192528716E+03 -0.98770577481E+03  0.10435874305E+04  0.10100000352E+00 0.  1.
</event>
<event>
 5   0  0.2388326E-05  0.2451350E+04  0.7818609E-02  0.8420525E-01
        2   -1    0    0  501    0  0.00000000000E+00  0.00000000000E+00  0.13557810318E+04  0.13557810318E+04  0.25500000920E-02 0. -1.
       -2   -1    0    0    0  501  0.00000000000E+00  0.00000000000E+00 -0.11080540430E+04  0.11080540430E+04  0.25500000920E-02 0.  1.
    10030    2    1    2    0    0  0.00000000000E+00  0.00000000000E+00  0.24772698874E+03  0.24638350748E+04  0.24513495497E+04 0.  0.
        2    1    3    3  502    0  0.11953677869E+04  0.18747877821E+03 -0.72647585135E+02  0.12121592758E+04  0.25500000920E-02 0. -1.
       -2    1    3    3    0  502 -0.11953677869E+04 -0.18747877821E+03  0.32037457388E+03  0.12516757990E+04  0.25500000920E-02 0.  1.
</event>
<event>
 5   0  0.2441340E-05  0.2495195E+04  0.7818609E-02  0.8404699E-01
        2   -1    0    0  501    0  0.00000000000E+00  0.00000000000E+00  0.97489157073E+03  0.97489157073E+03  0.25500000920E-02 0. -1.
       -2   -1    0    0    0  501  0.00000000000E+00  0.00000000000E+00 -0.15965873658E+04  0.15965873658E+04  0.25500000920E-02 0.  1.
    10030    2    1    2    0    0  0.00000000000E+00  0.00000000000E+00 -0.62169579507E+03  0.25714789365E+04  0.24951950343E+04 0.  0.
        3    1    3    3  502    0 -0.11955996334E+04  0.23860208041E+03 -0.58372608679E+03  0.13517120961E+04  0.10100000352E+00 0.  1.
       -3    1    3    3    0  502  0.11955996334E+04 -0.23860208041E+03 -0.37969708285E+02  0.12197668404E+04  0.10100000352E+00 0. -1.
</event>
<event>
 5   0  0.2452457E-05  0.2492653E+04  0.7818609E-02  0.8405607E-01
        2   -1    0    0  501    0  0.00000000000E+00  0.00000000000E+00  0.16245505731E+04  0.16245505731E+04  0.25500000920E-02 0. -1.
       -2   -1    0    0    0  501  0.00000000000E+00  0.00000000000E+00 -0.95616002780E+03  0.95616002780E+03  0.25500000920E-02 0.  1.
    10030    2    1    2    0    0  0.00000000000E+00  0.00000000000E+00  0.66839054532E+03  0.25807106009E+04  0.24926534626E+04 0.  0.
        1    1    3    3  502    0  0.70527548912E+03  0.83480463516E+03 -0.28615292959E+03  0.11296883613E+04  0.50400001928E-02 0. -1.
       -1    1    3    3    0  502 -0.70527548912E+03 -0.83480463516E+03  0.95454347491E+03  0.14510222397E+04  0.50400001928E-02 0.  1.
</event>
<event>
 5   0  0.2345143E-05  0.2509023E+04  0.7818609E-02  0.8399778E-01
       -2   -1    0    0    0  501  0.00000000000E+00  0.00000000000E+00  0.10692988487E+04  0.10692988487E+04  0.25500000920E-02 0. -1.
        2   -1    0    0  501    0  0.00000000000E+00  0.00000000000E+00 -0.14718050288E+04  0.14718050288E+04  0.25500000920E-02 0.  1.
    10030    2    1    2    0    0  0.00000000000E+00  0.00000000000E+00 -0.40250618011E+03  0.25411038775E+04  0.25090232544E+04 0.  0.
        5    1    3    3  502    0 -0.95257937061E+03  0.47483750624E+03  0.47123933483E+03  0.11640303756E+04  0.46999998093E+01 0. -1.
       -5    1    3    3    0  502  0.95257937061E+03 -0.47483750624E+03 -0.87374551494E+03  0.13770735019E+04  0.46999998093E+01 0.  1.
</event>
<event>
 5   0  0.1015327E-05  0.2483104E+04  0.7818609E-02  0.8409030E-01
       -1   -1    0    0    0  501  0.00000000000E+00  0.00000000000E+00  0.10933820508E+04  0.10933820508E+04  0.50400001928E-02 0. -1.
        1   -1    0    0  501    0  0.00000000000E+00  0.00000000000E+00 -0.14098010865E+04  0.14098010866E+04  0.50400001928E-02 0.  1.
    10030    2    1    2    0    0  0.00000000000E+00  0.00000000000E+00 -0.31641903578E+03  0.25031831373E+04  0.24831038667E+04 0.  0.
        4    1    3    3  502    0 -0.10653158874E+04  0.41479318911E+03 -0.64637554372E+03  0.13132990086E+04  0.12699999809E+01 0.  1.
       -4    1    3    3    0  502  0.10653158874E+04 -0.41479318911E+03  0.32995650795E+03  0.11898841287E+04  0.12699999809E+01 0. -1.
</event>
<event>
 5   0  0.1002753E-05  0.2519348E+04  0.7818609E-02  0.8396125E-01
       -1   -1    0    0    0  501  0.00000000000E+00  0.00000000000E+00  0.81149086899E+03  0.81149086901E+03  0.50400001928E-02 0. -1.
        1   -1    0    0  501    0  0.00000000000E+00  0.00000000000E+00 -0.19553871803E+04  0.19553871803E+04  0.50400001928E-02 0.  1.
    10030    2    1    2    0    0  0.00000000000E+00  0.00000000000E+00 -0.11438963113E+04  0.27668780493E+04  0.25193482031E+04 0.  0.
        5    1    3    3  502    0 -0.10814577977E+04 -0.62815891842E+03 -0.73713247905E+03  0.14517303389E+04  0.46999998093E+01 0.  1.
       -5    1    3    3    0  502  0.10814577977E+04  0.62815891842E+03 -0.40676383224E+03  0.13151477104E+04  0.46999998093E+01 0. -1.
</event>
<event>
 5   0  0.2432309E-05  0.2500155E+04  0.7818609E-02  0.8402930E-01
       -2   -1    0    0    0  501  0.00000000000E+00  0.00000000000E+00  0.81404070804E+03  0.81404070804E+03  0.25500000920E-02 0.  1.
        2   -1    0    0  501    0  0.00000000000E+00  0.00000000000E+00 -0.19196751708E+04  0.19196751709E+04  0.25500000920E-02 0. -1.
    10030    2    1    2    0    0  0.00000000000E+00  0.00000000000E+00 -0.11056344628E+04  0.27337158789E+04  0.25001549834E+04 0.  0.
        4    1    3    3  502    0  0.99921258697E+03  0.72899612049E+03 -0.75093726770E+03  0.14469863616E+04  0.12699999809E+01 0.  1.
       -4    1    3    3    0  502 -0.99921258697E+03 -0.72899612049E+03 -0.35469719511E+03  0.12867295173E+04  0.12699999809E+01 0. -1.
</event>
<event>
 5   0  0.1015327E-05  0.2505034E+04  0.7818609E-02  0.8401194E-01
        1   -1    0    0  501    0  0.00000000000E+00  0.00000000000E+00  0.14397028156E+04  0.14397028157E+04  0.50400001928E-02 0.  1.
       -1   -1    0    0    0  501  0.00000000000E+00  0.00000000000E+00 -0.10896682336E+04  0.10896682336E+04  0.50400001928E-02 0. -1.
    10030    2    1    2    0    0  0.00000000000E+00  0.00000000000E+00  0.35003458207E+03  0.25293710492E+04  0.25050336717E+04 0.  0.
        4    1    3    3  502    0  0.11235549071E+04 -0.29776544976E+03  0.64619523945E+03  0.13298908951E+04  0.12699999809E+01 0.  1.
       -4    1    3    3    0  502 -0.11235549071E+04  0.29776544976E+03 -0.29616065739E+03  0.11994801542E+04  0.12699999809E+01 0. -1.
</event>
<event>
 5   0  0.1039688E-05  0.2482421E+04  0.7818609E-02  0.8409275E-01
       -1   -1    0    0    0  501  0.00000000000E+00  0.00000000000E+00  0.91133296502E+03  0.91133296504E+03  0.50400001928E-02 0.  1.
        1   -1    0    0  501    0  0.00000000000E+00  0.00000000000E+00 -0.16904945497E+04  0.16904945497E+04  0.50400001928E-02 0. -1.
    10030    2    1    2    0    0  0.00000000000E+00  0.00000000000E+00 -0.77916158469E+03  0.26018275148E+04  0.24824209235E+04 0.  0.
        3    1    3    3  502    0 -0.62029681890E+03  0.10164144844E+04 -0.75677055964E+03  0.14108749901E+04  0.10100000352E+00 0. -1.
       -3    1    3    3    0  502  0.62029681890E+03 -0.10164144844E+04 -0.22391025046E+02  0.11909525246E+04  0.10100000352E+00 0.  1.
</event>
<event>
 5   0  0.2452457E-05  0.2474839E+04  0.7818609E-02  0.8412004E-01
       -2   -1    0    0    0  501  0.00000000000E+00  0.00000000000E+00  0.61768090994E+03  0.61768090995E+03  0.25500000920E-02 0. -1.
        2   -1    0    0  501    0  0.00000000000E+00  0.00000000000E+00 -0.24789620518E+04  0.24789620518E+04  0.25500000920E-02 0.  1.
    10030    2    1    2    0    0  0.00000000000E+00  0.00000000000E+00 -0.18612811419E+04  0.30966429618E+04  0.24748394177E+04 0.  0.
        1    1    3    3  502    0  0.11377324740E+04  0.46250143397E+03 -0.11198433866E+04  0.16620445149E+04  0.50400001928E-02 0.  1.
       -1    1    3    3    0  502 -0.11377324740E+04 -0.46250143397E+03 -0.74143775526E+03  0.14345984469E+04  0.50400001928E-02 0. -1.
</event>
<event>
 5   0  0.1002753E-05  0.2498036E+04  0.7818609E-02  0.8403685E-01
        1   -1    0    0  501    0  0.00000000000E+00  0.00000000000E+00  0.17456578708E+04  0.17456578708E+04  0.50400001928E-02 0. -1.
       -1   -1    0    0    0  501  0.00000000000E+00  0.00000000000E+00 -0.89367251296E+03  0.89367251297E+03  0.50400001928E-02 0.  1.
    10030    2    1    2    0    0  0.00000000000E+00  0.00000000000E+00  0.85198535787E+03  0.26393303838E+04  0.24980363938E+04 0.  0.
        5    1    3    3  502    0  0.27602029255E+03 -0.43692240886E+03  0.16273812758E+04  0.17074777598E+04  0.46999998093E+01 0. -1.
       -5    1    3    3    0  502 -0.27602029255E+03  0.43692240886E+03 -0.77539591797E+03  0.93185262401E+03  0.46999998093E+01 0.  1.
</event>
<event>
 5   0  0.2432309E-05  0.2512571E+04  0.7818609E-02  0.8398521E-01
        2   -1    0    0  501    0  0.00000000000E+00  0.00000000000E+00  0.14969554133E+04  0.14969554133E+04  0.25500000920E-02 0. -1.
       -2   -1    0    0    0  501  0.00000000000E+00  0.00000000000E+00 -0.10543087067E+04  0.10543087067E+04  0.25500000920E-02 0.  1.
    10030    2    1    2    0    0  0.00000000000E+00  0.00000000000E+00  0.44264670666E+03  0.25512641200E+04  0.25125708951E+04 0.  0.
        4    1    3    3  502    0  0.13527625234E+02 -0.91303828419E+03 -0.65476703466E+03  0.11236295598E+04  0.12699999809E+01 0.  1.
       -4    1    3    3    0  502 -0.13527625234E+02  0.91303828419E+03  0.10974137413E+04  0.14276345602E+04  0.12699999809E+01 0. -1.
</event>
<event>
 5   0  0.2452457E-05  0.2502333E+04  0.7818609E-02  0.8402155E-01
       -2   -1    0    0    0  501  0.00000000000E+00  0.00000000000E+00  0.16314425751E+04  0.16314425751E+04  0.25500000920E-02 0. -1.
        2   -1    0    0  501    0  0.00000000000E+00  0.00000000000E+00 -0.95952938660E+03  0.95952938660E+03  0.25500000920E-02 0.  1.
    10030    2    1    2    0    0  0.00000000000E+00  0.00000000000E+00  0.67191318850E+03  0.25909719617E+04  0.25023325865E+04 0.  0.
        1    1    3    3  502    0 -0.74685773386E+02 -0.92086661783E+03 -0.53763819591E+03  0.10689378477E+04  0.50400001928E-02 0.  1.
       -1    1    3    3    0  502  0.74685773386E+02  0.92086661783E+03  0.12095513844E+04  0.15220341140E+04  0.50400001928E-02 0. -1.
</event>
<event>
 5   0  0.2441340E-05  0.2510438E+04  0.7818609E-02  0.8399276E-01
        2   -1    0    0  501    0  0.00000000000E+00  0.00000000000E+00  0.21751512543E+04  0.21751512543E+04  0.25500000920E-02 0.  1.
       -2   -1    0    0    0  501  0.00000000000E+00  0.00000000000E+00 -0.72435177105E+03  0.72435177105E+03  0.25500000920E-02 0. -1.
    10030    2    1    2    0    0  0.00000000000E+00  0.00000000000E+00  0.14507994833E+04  0.28995030254E+04  0.25104379406E+04 0.  0.
        3    1    3    3  502    0  0.26636457045E+03  0.12101366931E+04  0.49384517253E+03  0.13338905371E+04  0.10100000352E+00 0. -1.
       -3    1    3    3    0  502 -0.26636457045E+03 -0.12101366931E+04  0.95695431076E+03  0.15656124883E+04  0.10100000352E+00 0.  1.
</event>
<event>
 5   0  0.2388326E-05  0.2564722E+04  0.7818609E-02  0.8380284E-01
        2   -1    0    0  501    0  0.00000000000E+00  0.00000000000E+00  0.98453539341E+03  0.98453539341E+03  0.25500000920E-02 0.  1.
       -2   -1    0    0    0  501  0.00000000000E+00  0.00000000000E+00 -0.16702801328E+04  0.16702801328E+04  0.25500000920E-02 0. -1.
    10030    2    1    2    0    0  0.00000000000E+00  0.00000000000E+00 -0.68574473939E+03  0.26548155262E+04  0.25647221352E+04 0.  0.
        2    1    3    3  502    0 -0.16742313504E+02 -0.25224868909E+03 -0.16442304175E+04  0.16635514336E+04  0.25500000920E-02 0. -1.
       -2    1    3    3    0  502  0.16742313504E+02  0.25224868909E+03  0.95848567813E+03  0.99126409265E+03  0.25500000920E-02 0.  1.
</event>
<event>
 5   0  0.2452457E-05  0.2506245E+04  0.7818609E-02  0.8400764E-01
        2   -1    0    0  501    0  0.00000000000E+00  0.00000000000E+00  0.28761060382E+04  0.28761060382E+04  0.25500000920E-02 0.  1.
       -2   -1    0    0    0  501  0.00000000000E+00  0.00000000000E+00 -0.54598678748E+03  0.54598678749E+03  0.25500000920E-02 0. -1.
    10030    2    1    2    0    0  0.00000000000E+00  0.00000000000E+00  0.23301192507E+04  0.34220928257E+04  0.25062449172E+04 0.  0.
        1    1    3    3  502    0 -0.19863099262E+03 -0.11730476374E+04  0.17023177875E+04  0.20768680460E+04  0.50400001928E-02 0.  1.
       -1    1    3    3    0  502  0.19863099262E+03  0.11730476374E+04  0.62780146323E+03  0.13452247797E+04  0.50400001928E-02 0. -1.
</event>
<event>
 5   0  0.2345143E-05  0.2466243E+04  0.7818609E-02  0.8415111E-01
       -2   -1    0    0    0  501  0.00000000000E+00  0.00000000000E+00  0.97403396832E+03  0.97403396833E+03  0.25500000920E-02 0. -1.
        2   -1    0    0  501    0  0.00000000000E+00  0.00000000000E+00 -0.15611252572E+04  0.15611252572E+04  0.25500000920E-02 0.  1.
    10030    2    1    2    0    0  0.00000000000E+00  0.00000000000E+00 -0.58709128886E+03  0.25351592255E+04  0.24662433208E+04 0.  0.
        5    1    3    3  502    0  0.60025053185E+03  0.87508534438E+03  0.35209126870E+03  0.11180632417E+04  0.46999998093E+01 0. -1.
       -5    1    3    3    0  502 -0.60025053185E+03 -0.87508534438E+03 -0.93918255757E+03  0.14170959838E+04  0.46999998093E+01 0.  1.
</event>
<event>
 5   0  0.2388326E-05  0.2541878E+04  0.7818609E-02  0.8388216E-01
        2   -1    0    0  501    0  0.00000000000E+00  0.00000000000E+00  0.16476236457E+04  0.16476236457E+04  0.25500000920E-02 0. -1.
       -2   -1    0    0    0  501  0.00000000000E+00  0.00000000000E+00 -0.98037305624E+03  0.98037305624E+03  0.25500000920E-02 0.  1.
    10030    2    1    2    0    0  0.00000000000E+00  0.00000000000E+00  0.66725058949E+03  0.26279967020E+04  0.25418779114E+04 0.  0.
        2    1    3    3  502    0 -0.15175958877E+03 -0.11106058323E+04  0.95292677833E+03  0.14712395224E+04  0.25500000920E-02 0. -1.
       -2    1    3    3    0  502  0.15175958877E+03  0.11106058323E+04 -0.28567618884E+03  0.11567571795E+04  0.25500000920E-02 0.  1.
</event>
<event>
 5   0  0.1039688E-05  0.2486184E+04  0.7818609E-02  0.8407924E-01
       -1   -1    0    0    0  501  0.00000000000E+00  0.00000000000E+00  0.88611525468E+03  0.88611525470E+03  0.50400001928E-02 0.  1.
        1   -1    0    0  501    0  0.00000000000E+00  0.00000000000E+00 -0.17438785600E+04  0.17438785600E+04  0.50400001928E-02 0. -1.
    10030    2    1    2    0    0  0.00000000000E+00  0.00000000000E+00 -0.85776330534E+03  0.26299938147E+04  0.24861837377E+04 0.  0.
        3    1    3    3  502    0  0.34971745162E+03 -0.66333495291E+03  0.61991147346E+03  0.97293668903E+03  0.10100000352E+00 0.  1.
       -3    1    3    3    0  502 -0.34971745162E+03  0.66333495291E+03 -0.14776747788E+04  0.16570571257E+04  0.10100000352E+00 0. -1.
</event>
<event>
 5   0  0.1008073E-05  0.2253580E+04  0.7818609E-02  0.8496452E-01
       -1   -1    0    0    0  501  0.00000000000E+00  0.00000000000E+00  0.55182052655E+03  0.55182052657E+03  0.50400001928E-02 0. -1.
        1   -1    0    0  501    0  0.00000000000E+00  0.00000000000E+00 -0.23008485344E+04  0.23008485344E+04  0.50400001928E-02 0.  1.
    10030    2    1    2    0    0  0.00000000000E+00  0.00000000000E+00 -0.17490280079E+04  0.28526690610E+04  0.22535797743E+04 0.  0.
        1    1    3    3  502    0  0.71645637302E+03  0.48337458236E+03 -0.17896855646E+04  0.19874443744E+04  0.50400001928E-02 0.  1.
       -1    1    3    3    0  502 -0.71645637302E+03 -0.48337458236E+03  0.40657556710E+02  0.86522468658E+03  0.50400001928E-02 0. -1.
</event>
<event>
 5   0  0.2388326E-05  0.2507088E+04  0.7818609E-02  0.8400465E-01
        2   -1    0    0  501    0  0.00000000000E+00  0.00000000000E+00  0.14260062766E+04  0.14260062766E+04  0.25500000920E-02 0. -1.
       -2   -1    0    0    0  501  0.00000000000E+00  0.00000000000E+00 -0.11019395608E+04  0.11019395608E+04  0.25500000920E-02 0.  1.
    10030    2    1    2    0    0  0.00000000000E+00  0.00000000000E+00  0.32406671582E+03  0.25279458374E+04  0.25070881357E+04 0.  0.
        2    1    3    3  502    0 -0.65958721295E+03 -0.10582365302E+04  0.29136928773E+03  0.12805529693E+04  0.25500000920E-02 0. -1.
       -2    1    3    3    0  502  0.65958721295E+03  0.10582365302E+04  0.32697428091E+02  0.12473928680E+04  0.25500000920E-02 0.  1.
</event>
<event>
 5   0  0.2345143E-05  0.2493633E+04  0.7818609E-02  0.8405257E-01
        2   -1    0    0  501    0  0.00000000000E+00  0.00000000000E+00  0.11838485307E+04  0.11838485307E+04  0.25500000920E-02 0. -1.
       -2   -1    0    0    0  501  0.00000000000E+00  0.00000000000E+00 -0.13131341962E+04  0.13131341962E+04  0.25500000920E-02 0.  1.
    10030    2    1    2    0    0  0.00000000000E+00  0.00000000000E+00 -0.12928566554E+03  0.24969827269E+04  0.24936334845E+04 0.  0.
        5    1    3    3  502    0  0.24327269337E+03 -0.52431378133E+03  0.10415777389E+04  0.11912148508E+04  0.46999998093E+01 0. -1.
       -5    1    3    3    0  502 -0.24327269337E+03  0.52431378133E+03 -0.11708634044E+04  0.13057678761E+04  0.46999998093E+01 0.  1.
</event>
<event>
 5   0  0.2345143E-05  0.2482979E+04  0.7818609E-02  0.8409075E-01
        2   -1    0    0  501    0  0.00000000000E+00  0.00000000000E+00  0.17605529516E+04  0.17605529516E+04  0.25500000920E-02 0.  1.
       -2   -1    0    0    0  501  0.00000000000E+00  0.00000000000E+00 -0.87546145661E+03  0.87546145661E+03  0.25500000920E-02 0. -1.
    10030    2    1    2    0    0  0.00000000000E+00  0.00000000000E+00  0.88509149498E+03  0.26360144082E+04  0.24829790587E+04 0.  0.
        5    1    3    3  502    0  0.36519350567E+03 -0.30838071706E+03 -0.77385177932E+03  0.90957881989E+03  0.46999998093E+01 0. -1.
       -5    1    3    3    0  502 -0.36519350567E+03  0.30838071706E+03  0.16589432743E+04  0.17264355883E+04  0.46999998093E+01 0.  1.
</event>
<event>
 5   0  0.1015327E-05  0.2474780E+04  0.7818609E-02  0.8412026E-01
        1   -1    0    0  501    0  0.00000000000E+00  0.00000000000E+00  0.16771285070E+04  0.16771285070E+04  0.50400001928E-02 0.  1.
       -1   -1    0    0    0  501  0.00000000000E+00  0.00000000000E+00 -0.91294946112E+03  0.91294946114E+03  0.50400001928E-02 0. -1.
    10030    2    1    2    0    0  0.00000000000E+00  0.00000000000E+00  0.76417904583E+03  0.25900779681E+04  0.24747796400E+04 0.  0.
        4    1    3    3  502    0 -0.19682251759E+03  0.10847703122E+03 -0.89141041443E+03  0.91930436178E+03  0.12699999809E+01 0. -1.
       -4    1    3    3    0  502  0.19682251759E+03 -0.10847703122E+03  0.16555894603E+04  0.16707736063E+04  0.12699999809E+01 0.  1.
</event>
<event>
 5   0  0.8166500E-06  0.2534961E+04  0.7818609E-02  0.8390635E-01
       -3   -1    0    0    0  501  0.00000000000E+00  0.00000000000E+00  0.11808455188E+04  0.11808455231E+04  0.10100000352E+00 0.  1.
        3   -1    0    0  501    0  0.00000000000E+00  0.00000000000E+00 -0.13604715742E+04  0.13604715779E+04  0.10100000352E+00 0. -1.
    10030    2    1    2    0    0  0.00000000000E+00  0.00000000000E+00 -0.17962605541E+03  0.25413171010E+04  0.25349609638E+04 0.  0.
        2    1    3    3  502    0 -0.92596233679E+03  0.13810648339E+02 -0.95737865401E+03  0.13319800563E+04  0.25500000920E-02 0. -1.
       -2    1    3    3    0  502  0.92596233679E+03 -0.13810648339E+02  0.77775259859E+03  0.12093370447E+04  0.25500000920E-02 0.  1.
</event>
<event>
 5   0  0.2452457E-05  0.2465511E+04  0.7818609E-02  0.8415376E-01
       -2   -1    0    0    0  501  0.00000000000E+00  0.00000000000E+00  0.99956643394E+03  0.99956643394E+03  0.25500000920E-02 0.  1.
        2   -1    0    0  501    0  0.00000000000E+00  0.00000000000E+00 -0.15203452733E+04  0.15203452733E+04  0.25500000920E-02 0. -1.
    10030    2    1    2    0    0  0.00000000000E+00  0.00000000000E+00 -0.52077883934E+03  0.25199117072E+04  0.24655109841E+04 0.  0.
        1    1    3    3  502    0  0.74610167501E+03 -0.58995788036E+03 -0.10618915376E+04  0.14255986980E+04  0.50400001928E-02 0. -1.
       -1    1    3    3    0  502 -0.74610167501E+03  0.58995788036E+03  0.54111269822E+03  0.10943130093E+04  0.50400001928E-02 0.  1.
</event>
<event>
 5   0  0.2432309E-05  0.2506916E+04  0.7818609E-02  0.8400526E-01
       -2   -1    0    0    0  501  0.00000000000E+00  0.00000000000E+00  0.10981951031E+04  0.10981951031E+04  0.25500000920E-02 0.  1.
        2   -1    0    0  501    0  0.00000000000E+00  0.00000000000E+00 -0.14306724686E+04  0.14306724686E+04  0.25500000920E-02 0. -1.
    10030    2    1    2    0    0  0.00000000000E+00  0.00000000000E+00 -0.33247736552E+03  0.25288675717E+04  0.25069164319E+04 0.  0.
        4    1    3    3  502    0  0.12246240416E+04  0.23709111397E+03 -0.29076859419E+03  0.12808060852E+04  0.12699999809E+01 0.  1.
       -4    1    3    3    0  502 -0.12246240416E+04 -0.23709111397E+03 -0.41708771333E+02  0.12480614865E+04  0.12699999809E+01 0. -1.
</event>
<event>
 5   0  0.2388326E-05  0.2364445E+04  0.7818609E-02  0.8452936E-01
       -2   -1    0    0    0  501  0.00000000000E+00  0.00000000000E+00  0.10321776301E+04  0.10321776301E+04  0.25500000920E-02 0.  1.
        2   -1    0    0  501    0  0.00000000000E+00  0.00000000000E+00 -0.13540789641E+04  0.13540789641E+04  0.25500000920E-02 0. -1.
    10030    2    1    2    0    0  0.00000000000E+00  0.00000000000E+00 -0.32190133396E+03  0.23862565942E+04  0.23644449803E+04 0.  0.
        2    1    3    3  502    0 -0.99394354859E+03  0.19276907845E+03 -0.77696345149E+03  0.12762272134E+04  0.25500000920E-02 0. -1.
       -2    1    3    3    0  502  0.99394354859E+03 -0.19276907845E+03  0.45506211753E+03  0.11100293808E+04  0.25500000920E-02 0.  1.
</event>
<event>
 5   0  0.2388326E-05  0.2478001E+04  0.7818609E-02  0.8410865E-01
       -2   -1    0    0    0  501  0.00000000000E+00  0.00000000000E+00  0.82309871177E+03  0.82309871177E+03  0.25500000920E-02 0.  1.
        2   -1    0    0  501    0  0.00000000000E+00  0.00000000000E+00 -0.18650519063E+04  0.18650519063E+04  0.25500000920E-02 0. -1.
    10030    2    1    2    0    0  0.00000000000E+00  0.00000000000E+00 -0.10419531945E+04  0.26881506180E+04  0.24780006630E+04 0.  0.
        2    1    3    3  502    0  0.70823272712E+03 -0.60832719963E+03  0.36263538452E+03  0.10015787536E+04  0.25500000920E-02 0.  1.
       -2    1    3    3    0  502 -0.70823272712E+03  0.60832719963E+03 -0.14045885790E+04  0.16865718644E+04  0.25500000920E-02 0. -1.
</event>
<event>
 5   0  0.1010338E-05  0.2417616E+04  0.7818609E-02  0.8432938E-01
       -1   -1    0    0    0  501  0.00000000000E+00  0.00000000000E+00  0.75454175389E+03  0.75454175390E+03  0.50400001928E-02 0.  1.
        1   -1    0    0  501    0  0.00000000000E+00  0.00000000000E+00 -0.19365619143E+04  0.19365619143E+04  0.50400001928E-02 0. -1.
    10030    2    1    2    0    0  0.00000000000E+00  0.00000000000E+00 -0.11820201604E+04  0.26911036682E+04  0.24176160352E+04 0.  0.
        2    1    3    3  502    0 -0.18138779708E+03 -0.82341271785E+03 -0.15551998917E+04  0.17690553242E+04  0.25500000920E-02 0. -1.
       -2    1    3    3    0  502  0.18138779708E+03  0.82341271785E+03  0.37317973131E+03  0.92204834402E+03  0.25500000920E-02 0.  1.
</event>
<event>
 5   0  0.1039688E-05  0.2495200E+04  0.7818609E-02  0.8404698E-01
       -1   -1    0    0    0  501  0.00000000000E+00  0.00000000000E+00  0.78889890755E+03  0.78889890756E+03  0.50400001928E-02 0. -1.
        1   -1    0    0  501    0  0.00000000000E+00  0.00000000000E+00 -0.19730105409E+04  0.19730105409E+04  0.50400001928E-02 0.  1.
    10030    2    1    2    0    0  0.00000000000E+00  0.00000000000E+00 -0.11841116334E+04  0.27619094485E+04  0.24952000804E+04 0.  0.
        3    1    3    3  502    0 -0.44608700559E+02  0.52725807184E+03 -0.18426516978E+04  0.19171218793E+04  0.10100000352E+00 0. -1.
       -3    1    3    3    0  502  0.44608700559E+02 -0.52725807184E+03  0.65854006439E+03  0.84478756922E+03  0.10100000352E+00 0.  1.
</event>
<event>
 5   0  0.2345143E-05  0.2443389E+04  0.7818609E-02  0.8423436E-01
       -2   -1    0    0    0  501  0.00000000000E+00  0.00000000000E+00  0.93473907051E+03  0.93473907051E+03  0.25500000920E-02 0. -1.
        2   -1    0    0  501    0  0.00000000000E+00  0.00000000000E+00 -0.15967418747E+04  0.15967418747E+04  0.25500000920E-02 0.  1.
    10030    2    1    2    0    0  0.00000000000E+00  0.00000000000E+00 -0.66200280419E+03  0.25314809452E+04  0.24433886435E+04 0.  0.
        5    1    3    3  502    0  0.50514267767E+03 -0.70972204273E+03  0.55640741213E+03  0.10336758684E+04  0.46999998093E+01 0. -1.
       -5    1    3    3    0  502 -0.50514267767E+03  0.70972204273E+03 -0.12184102163E+04  0.14978050768E+04  0.46999998093E+01 0.  1.
</event>
<event>
 5   0  0.2452457E-05  0.2532185E+04  0.7818609E-02  0.8391608E-01
       -2   -1    0    0    0  501  0.00000000000E+00  0.00000000000E+00  0.62313973476E+03  0.62313973477E+03  0.25500000920E-02 0.  1.
        2   -1    0    0  501    0  0.00000000000E+00  0.00000000000E+00 -0.25724407988E+04  0.25724407988E+04  0.25500000920E-02 0. -1.
    10030    2    1    2    0    0  0.00000000000E+00  0.00000000000E+00 -0.19493010640E+04  0.31955805336E+04  0.25321848882E+04 0.  0.
        1    1    3    3  502    0  0.22865327667E+03  0.57691270455E+03  0.41804605774E+03  0.74824668127E+03  0.50400001928E-02 0.  1.
       -1    1    3    3    0  502 -0.22865327667E+03 -0.57691270455E+03 -0.23673471218E+04  0.24473338523E+04  0.50400001928E-02 0. -1.
</event>
<event>
 5   0  0.1015327E-05  0.2526430E+04  0.7818609E-02  0.8393630E-01
        1   -1    0    0  501    0  0.00000000000E+00  0.00000000000E+00  0.12041943135E+04  0.12041943135E+04  0.50400001928E-02 0. -1.
       -1   -1    0    0    0  501  0.00000000000E+00  0.00000000000E+00 -0.13251287074E+04  0.13251287074E+04  0.50400001928E-02 0.  1.
    10030    2    1    2    0    0  0.00000000000E+00  0.00000000000E+00 -0.12093439394E+03  0.25293230209E+04  0.25264302517E+04 0.  0.
        4    1    3    3  502    0 -0.49172918666E+03  0.83376556030E+03  0.75209519401E+03  0.12258105059E+04  0.12699999809E+01 0. -1.
       -4    1    3    3    0  502  0.49172918666E+03 -0.83376556030E+03 -0.87302958796E+03  0.13035125151E+04  0.12699999809E+01 0.  1.
</event>
<event>
 5   0  0.1039688E-05  0.2510374E+04  0.7818609E-02  0.8399299E-01
       -1   -1    0    0    0  501  0.00000000000E+00  0.00000000000E+00  0.74611981669E+03  0.74611981670E+03  0.50400001928E-02 0.  1.
        1   -1    0    0  501    0  0.00000000000E+00  0.00000000000E+00 -0.21115830156E+04  0.21115830156E+04  0.50400001928E-02 0. -1.
    10030    2    1    2    0    0  0.00000000000E+00  0.00000000000E+00 -0.13654631989E+04  0.28577028323E+04  0.25103736236E+04 0.  0.
        3    1    3    3  502    0 -0.11610647716E+04  0.44170954741E+03 -0.47809557601E+03  0.13310725443E+04  0.10100000352E+00 0. -1.
       -3    1    3    3    0  502  0.11610647716E+04 -0.44170954741E+03 -0.88736762294E+03  0.15266302881E+04  0.10100000352E+00 0.  1.
</event>
<event>
 5   0  0.2345143E-05  0.2437532E+04  0.7818609E-02  0.8425584E-01
       -2   -1    0    0    0  501  0.00000000000E+00  0.00000000000E+00  0.60766613559E+03  0.60766613559E+03  0.25500000920E-02 0.  1.
        2   -1    0    0  501    0  0.00000000000E+00  0.00000000000E+00 -0.24444190475E+04  0.24444190475E+04  0.25500000920E-02 0. -1.
    10030    2    1    2    0    0  0.00000000000E+00  0.00000000000E+00 -0.18367529119E+04  0.30520851831E+04  0.24375320932E+04 0.  0.
        5    1    3    3  502    0  0.58770953761E+03  0.46106822729E+03  0.28742465674E+03  0.80038830208E+03  0.46999998093E+01 0.  1.
       -5    1    3    3    0  502 -0.58770953761E+03 -0.46106822729E+03 -0.21241775686E+04  0.22516968810E+04  0.46999998093E+01 0. -1.
</event>
<event>
 5   0  0.8166500E-06  0.2482583E+04  0.7818609E-02  0.8409217E-01
        4   -1    0    0  501    0  0.00000000000E+00  0.00000000000E+00  0.10650380834E+04  0.10650388406E+04  0.12699999809E+01 0.  1.
       -4   -1    0    0    0  501  0.00000000000E+00  0.00000000000E+00 -0.14467110697E+04  0.14467116271E+04  0.12699999809E+01 0. -1.
    10030    2    1    2    0    0  0.00000000000E+00  0.00000000000E+00 -0.38167298626E+03  0.25117504678E+04  0.24825825553E+04 0.  0.
        4    1    3    3  502    0 -0.42968400988E+03  0.10739886985E+04 -0.64637344205E+03  0.13250963408E+04  0.12699999809E+01 0. -1.
       -4    1    3    3    0  502  0.42968400988E+03 -0.10739886985E+04  0.26470045579E+03  0.11866541270E+04  0.12699999809E+01 0.  1.
</event>
<event>
 5   0  0.2388326E-05  0.2501985E+04  0.7818609E-02  0.8402279E-01
        2   -1    0    0  501    0  0.00000000000E+00  0.00000000000E+00  0.22192963113E+04  0.22192963113E+04  0.25500000920E-02 0.  1.
       -2   -1    0    0    0  501  0.00000000000E+00  0.00000000000E+00 -0.70517034061E+03  0.70517034061E+03  0.25500000920E-02 0. -1.
    10030    2    1    2    0    0  0.00000000000E+00  0.00000000000E+00  0.15141259707E+04  0.29244666520E+04  0.25019847608E+04 0.  0.
        2    1    3    3  502    0  0.53476571297E+03  0.92970657359E+03  0.15097328927E+04  0.18519238883E+04  0.25500000920E-02 0.  1.
       -2    1    3    3    0  502 -0.53476571297E+03 -0.92970657359E+03  0.43930780528E+01  0.10725427637E+04  0.25500000920E-02 0. -1.
</event>
<event>
 5   0  0.2432309E-05  0.2480760E+04  0.7818609E-02  0.8409872E-01
       -2   -1    0    0    0  501  0.00000000000E+00  0.00000000000E+00  0.11106795500E+04  0.11106795500E+04  0.25500000920E-02 0. -1.
        2   -1    0    0  501    0  0.00000000000E+00  0.00000000000E+00 -0.13852259855E+04  0.13852259855E+04  0.25500000920E-02 0.  1.
    10030    2    1    2    0    0  0.00000000000E+00  0.00000000000E+00 -0.27454643556E+03  0.24959055355E+04  0.24807597015E+04 0.  0.
        4    1    3    3  502    0 -0.59007702806E+03 -0.87954631006E+03 -0.78677475349E+03  0.13193971109E+04  0.12699999809E+01 0.  1.
       -4    1    3    3    0  502  0.59007702806E+03  0.87954631006E+03  0.51222831793E+03  0.11765084246E+04  0.12699999809E+01 0. -1.
</event>
<event>
 5   0  0.1008073E-05  0.2482719E+04  0.7818609E-02  0.8409168E-01
        1   -1    0    0  501    0  0.00000000000E+00  0.00000000000E+00  0.16135907031E+04  0.16135907031E+04  0.50400001928E-02 0.  1.
       -1   -1    0    0    0  501  0.00000000000E+00  0.00000000000E+00 -0.95499619096E+03  0.95499619097E+03  0.50400001928E-02 0. -1.
    10030    2    1    2    0    0  0.00000000000E+00  0.00000000000E+00  0.65859451216E+03  0.25685868941E+04  0.24827186512E+04 0.  0.
        1    1    3    3  502    0 -0.16502939546E+03 -0.68023878039E+03 -0.73134981646E+03  0.10123398904E+04  0.50400001928E-02 0. -1.
       -1    1    3    3    0  502  0.16502939546E+03  0.68023878039E+03  0.13899443286E+04  0.15562470037E+04  0.50400001928E-02 0.  1.
</event>
<event>
 5   0  0.1008073E-05  0.2498347E+04  0.7818609E-02  0.8403575E-01
        1   -1    0    0  501    0  0.00000000000E+00  0.00000000000E+00  0.23603477037E+04  0.23603477037E+04  0.50400001928E-02 0. -1.
       -1   -1    0    0    0  501  0.00000000000E+00  0.00000000000E+00 -0.66110337613E+03  0.66110337615E+03  0.50400001928E-02 0.  1.
    10030    2    1    2    0    0  0.00000000000E+00  0.00000000000E+00  0.16992443276E+04  0.30214510798E+04  0.24983465218E+04 0.  0.
        1    1    3    3  502    0  0.26577133932E+03 -0.11828215645E+04  0.12139098707E+04  0.17155985639E+04  0.50400001928E-02 0. -1.
       -1    1    3    3    0  502 -0.26577133932E+03  0.11828215645E+04  0.48533445684E+03  0.13058525159E+04  0.50400001928E-02 0.  1.
</event>
<event>
 5   0  0.1002753E-05  0.2419519E+04  0.7818609E-02  0.8432232E-01
       -1   -1    0    0    0  501  0.00000000000E+00  0.00000000000E+00  0.14255865329E+04  0.14255865329E+04  0.50400001928E-02 0.  1.
        1   -1    0    0  501    0  0.00000000000E+00  0.00000000000E+00 -0.10266078331E+04  0.10266078331E+04  0.50400001928E-02 0. -1.
    10030    2    1    2    0    0  0.00000000000E+00  0.00000000000E+00  0.39897869982E+03  0.24521943659E+04  0.24195192096E+04 0.  0.
        5    1    3    3  502    0  0.98994882738E+03 -0.54787611175E+03 -0.23446270775E+03  0.11554920017E+04  0.46999998093E+01 0. -1.
       -5    1    3    3    0  502 -0.98994882738E+03  0.54787611175E+03  0.63344140757E+03  0.12967023643E+04  0.46999998093E+01 0.  1.
</event>
<event>
 5   0  0.2452457E-05  0.2452164E+04  0.7818609E-02  0.8420228E-01
        2   -1    0    0  501    0  0.00000000000E+00  0.00000000000E+00  0.25456935648E+04  0.25456935648E+04  0.25500000920E-02 0. -1.
       -2   -1    0    0    0  501  0.00000000000E+00  0.00000000000E+00 -0.59051771401E+03  0.59051771402E+03  0.25500000920E-02 0.  1.
    10030    2    1    2    0    0  0.00000000000E+00  0.00000000000E+00  0.19551758508E+04  0.31362112788E+04  0.24521640602E+04 0.  0.
        1    1    3    3  502    0 -0.41854446613E+03  0.64566251832E+03 -0.24327480459E+03  0.80699577958E+03  0.50400001928E-02 0.  1.
       -1    1    3    3    0  502  0.41854446613E+03 -0.64566251832E+03  0.21984506554E+04  0.23292154993E+04  0.50400001928E-02 0. -1.
</event>
<event>
 5   0  0.2432309E-05  0.2501759E+04  0.7818609E-02  0.8402359E-01
       -2   -1    0    0    0  501  0.00000000000E+00  0.00000000000E+00  0.87490868871E+03  0.87490868871E+03  0.25500000920E-02 0.  1.
        2   -1    0    0  501    0  0.00000000000E+00  0.00000000000E+00 -0.17884139529E+04  0.17884139529E+04  0.25500000920E-02 0. -1.
    10030    2    1    2    0    0  0.00000000000E+00  0.00000000000E+00 -0.91350526420E+03  0.26633226416E+04  0.25017585067E+04 0.  0.
        4    1    3    3  502    0 -0.96122991120E+03 -0.43094509388E+03  0.26136230824E+03  0.10853517795E+04  0.12699999809E+01 0.  1.
       -4    1    3    3    0  502  0.96122991120E+03  0.43094509388E+03 -0.11748675724E+04  0.15779708621E+04  0.12699999809E+01 0. -1.
</event>
<event>
 5   0  0.1015327E-05  0.2521589E+04  0.7818609E-02  0.8395334E-01
        1   -1    0    0  501    0  0.00000000000E+00  0.00000000000E+00  0.25854106405E+04  0.25854106405E+04  0.50400001928E-02 0. -1.
       -1   -1    0    0    0  501  0.00000000000E+00  0.00000000000E+00 -0.61483581618E+03  0.61483581620E+03  0.50400001928E-02 0.  1.
    10030    2    1    2    0    0  0.00000000000E+00  0.00000000000E+00  0.19705748243E+04  0.32002464567E+04  0.25215892301E+04 0.  0.
        4    1    3    3  502    0  0.92249486370E+02  0.10623619340E+04  0.13158185705E+03  0.10744478790E+04  0.12699999809E+01 0.  1.
       -4    1    3    3    0  502 -0.92249486370E+02 -0.10623619340E+04  0.18389929672E+04  0.21257985777E+04  0.12699999809E+01 0. -1.
</event>
<event>
 5   0  0.1002753E-05  0.2505772E+04  0.7818609E-02  0.8400932E-01
       -1   -1    0    0    0  501  0.00000000000E+00  0.00000000000E+00  0.13656168772E+04  0.13656168772E+04  0.50400001928E-02 0.  1.
        1   -1    0    0  501    0  0.00000000000E+00  0.00000000000E+00 -0.11494611351E+04  0.11494611351E+04  0.50400001928E-02 0. -1.
    10030    2    1    2    0    0  0.00000000000E+00  0.00000000000E+00  0.21615574209E+03  0.25150780123E+04  0.25057721571E+04 0.  0.
        5    1    3    3  502    0 -0.89331103270E+02  0.12363114015E+04 -0.74960303890E+02  0.12418079822E+04  0.46999998093E+01 0. -1.
       -5    1    3    3    0  502  0.89331103270E+02 -0.12363114015E+04  0.29111604598E+03  0.12732700301E+04  0.46999998093E+01 0.  1.
</event>
<event>
 5   0  0.2452457E-05  0.2499705E+04  0.7818609E-02  0.8403091E-01
        2   -1    0    0  501    0  0.00000000000E+00  0.00000000000E+00  0.12869475648E+04  0.12869475648E+04  0.25500000920E-02 0.  1.
       -2   -1    0    0    0  501  0.00000000000E+00  0.00000000000E+00 -0.12138264685E+04  0.12138264685E+04  0.25500000920E-02 0. -1.
    10030    2    1    2    0    0  0.00000000000E+00  0.00000000000E+00  0.73121096235E+02  0.25007740333E+04  0.24997047967E+04 0.  0.
        1    1    3    3  502    0  0.19752401279E+03  0.12971598833E+02 -0.11980447186E+04  0.12142879172E+04  0.50400001928E-02 0. -1.
       -1    1    3    3    0  502 -0.19752401279E+03 -0.12971598833E+02  0.12711658149E+04  0.12864861161E+04  0.50400001928E-02 0.  1.
</event>
<event>
 5   0  0.1039688E-05  0.2495129E+04  0.7818609E-02  0.8404723E-01
       -1   -1    0    0    0  501  0.00000000000E+00  0.00000000000E+00  0.11695378929E+04  0.11695378929E+04  0.50400001928E-02 0.  1.
        1   -1    0    0  501    0  0.00000000000E+00  0.00000000000E+00 -0.13307967508E+04  0.13307967508E+04  0.50400001928E-02 0. -1.
    10030    2    1    2    0    0  0.00000000000E+00  0.00000000000E+00 -0.16125885791E+03  0.25003346436E+04  0.24951290369E+04 0.  0.
        3    1    3    3  502    0 -0.10368866162E+04  0.69347924310E+03 -0.61356467712E+02  0.12489243139E+04  0.10100000352E+00 0. -1.
       -3    1    3    3    0  502  0.10368866162E+04 -0.69347924310E+03 -0.99902390201E+02  0.12514103297E+04  0.10100000352E+00 0.  1.
</event>
<event>
 5   0  0.2388326E-05  0.2500455E+04  0.7818609E-02  0.8402823E-01
        2   -1    0    0  501    0  0.00000000000E+00  0.00000000000E+00  0.15376787912E+04  0.15376787912E+04  0.25500000920E-02 0. -1.
       -2   -1    0    0    0  501  0.00000000000E+00  0.00000000000E+00 -0.10165119432E+04  0.10165119432E+04  0.25500000920E-02 0.  1.
    10030    2    1    2    0    0  0.00000000000E+00  0.00000000000E+00  0.52116684800E+03  0.25541907345E+04  0.25004550435E+04 0.  0.
        2    1    3    3  502    0  0.86778982416E+03 -0.40557618834E+03  0.10812907863E+04  0.14445556369E+04  0.25500000920E-02 0.  1.
       -2    1    3    3    0  502 -0.86778982416E+03  0.40557618834E+03 -0.56012393834E+03  0.11096350976E+04  0.25500000920E-02 0. -1.
</event>
<event>
 5   0  0.2388326E-05  0.2372692E+04  0.7818609E-02  0.8449799E-01
       -2   -1    0    0    0  501  0.00000000000E+00  0.00000000000E+00  0.77980165758E+03  0.77980165758E+03  0.25500000920E-02 0.  1.
        2   -1    0    0  501    0  0.00000000000E+00  0.00000000000E+00 -0.18048391874E+04  0.18048391874E+04  0.25500000920E-02 0. -1.
    10030    2    1    2    0    0  0.00000000000E+00  0.00000000000E+00 -0.10250375298E+04  0.25846408450E+04  0.23726917962E+04 0.  0.
        2    1    3    3  502    0 -0.39448840184E+02 -0.91043837811E+03 -0.13399513260E+04  0.16204702426E+04  0.25500000920E-02 0. -1.
       -2    1    3    3    0  502  0.39448840184E+02  0.91043837811E+03  0.31491379617E+03  0.96417060231E+03  0.25500000920E-02 0.  1.
</event>
<event>
 5   0  0.2432309E-05  0.2490518E+04  0.7818609E-02  0.8406371E-01
       -2   -1    0    0    0  501  0.00000000000E+00  0.00000000000E+00  0.11878956401E+04  0.11878956401E+04  0.25500000920E-02 0.  1.
        2   -1    0    0  501    0  0.00000000000E+00  0.00000000000E+00 -0.13053920240E+04  0.13053920240E+04  0.25500000920E-02 0. -1.
    10030    2    1    2    0    0  0.00000000000E+00  0.00000000000E+00 -0.11749638390E+03  0.24932876640E+04  0.24905176120E+04 0.  0.
        4    1    3    3  502    0  0.94863167399E+03  0.77757766850E+03 -0.27378653596E+03  0.12567775315E+04  0.12699999809E+01 0. -1.
       -4    1    3    3    0  502 -0.94863167399E+03 -0.77757766850E+03  0.15629015206E+03  0.12365101326E+04  0.12699999809E+01 0.  1.
</event>
<event>
 5   0  0.2345143E-05  0.2483302E+04  0.7818609E-02  0.8408958E-01
       -2   -1    0    0    0  501  0.00000000000E+00  0.00000000000E+00  0.11969738244E+04  0.11969738244E+04  0.25500000920E-02 0. -1.
        2   -1    0    0  501    0  0.00000000000E+00  0.00000000000E+00 -0.12879960283E+04  0.12879960283E+04  0.25500000920E-02 0.  1.
    10030    2    1    2    0    0  0.00000000000E+00  0.00000000000E+00 -0.91022203946E+02  0.24849698527E+04  0.24833022626E+04 0.  0.
        5    1    3    3  502    0 -0.14972414385E+03 -0.84438967804E+03  0.85301402556E+03  0.12095727615E+04  0.46999998093E+01 0. -1.
       -5    1    3    3    0  502  0.14972414385E+03  0.84438967804E+03 -0.94403622951E+03  0.12753970912E+04  0.46999998093E+01 0.  1.
</event>
<event>
 5   0  0.2452457E-05  0.2732812E+04  0.7818609E-02  0.8324437E-01
        2   -1    0    0  501    0  0.00000000000E+00  0.00000000000E+00  0.15524348606E+04  0.15524348606E+04  0.25500000920E-02 0.  1.
       -2   -1    0    0    0  501  0.00000000000E+00  0.00000000000E+00 -0.12026687080E+04  0.12026687081E+04  0.25500000920E-02 0. -1.
    10030    2    1    2    0    0  0.00000000000E+00  0.00000000000E+00  0.34976615257E+03  0.27551035687E+04  0.27328116131E+04 0.  0.
        1    1    3    3  502    0  0.25330618760E+03  0.10519150074E+04  0.10161813815E+04  0.14843563614E+04  0.50400001928E-02 0.  1.
       -1    1    3    3    0  502 -0.25330618760E+03 -0.10519150074E+04 -0.66641522890E+03  0.12707472073E+04  0.50400001928E-02 0. -1.
</event>
<event>
 5   0  0.2345143E-05  0.2503749E+04  0.7818609E-02  0.8401651E-01
        2   -1    0    0  501    0  0.00000000000E+00  0.00000000000E+00  0.11127040564E+04  0.11127040564E+04  0.25500000920E-02 0.  1.
       -2   -1    0    0    0  501  0.00000000000E+00  0.00000000000E+00 -0.14084516394E+04  0.14084516394E+04  0.25500000920E-02 0. -1.
    10030    2    1    2    0    0  0.00000000000E+00  0.00000000000E+00 -0.29574758300E+03  0.25211556959E+04  0.25037490709E+04 0.  0.
        5    1    3    3  502    0 -0.18752161966E+03 -0.86813616488E+03 -0.10362448030E+04  0.13647894124E+04  0.46999998093E+01 0. -1.
       -5    1    3    3    0  502  0.18752161966E+03  0.86813616488E+03  0.74049721998E+03  0.11563662834E+04  0.46999998093E+01 0.  1.
</event>
<event>
 5   0  0.1015327E-05  0.2438275E+04  0.7818609E-02  0.8425311E-01
       -1   -1    0    0    0  501  0.00000000000E+00  0.00000000000E+00  0.18728568372E+04  0.18728568372E+04  0.50400001928E-02 0.  1.
        1   -1    0    0  501    0  0.00000000000E+00  0.00000000000E+00 -0.79359848326E+03  0.79359848327E+03  0.50400001928E-02 0. -1.
    10030    2    1    2    0    0  0.00000000000E+00  0.00000000000E+00  0.10792583539E+04  0.26664553205E+04  0.24382750832E+04 0.  0.
        4    1    3    3  502    0  0.55659528011E+03  0.99718529232E+03  0.10063185916E+04  0.15221220496E+04  0.12699999809E+01 0. -1.
       -4    1    3    3    0  502 -0.55659528011E+03 -0.99718529232E+03  0.72939762323E+02  0.11443332709E+04  0.12699999809E+01 0.  1.
</event>
<event>
 5   0  0.1002753E-05  0.2495457E+04  0.7818609E-02  0.8404606E-01
       -1   -1    0    0    0  501  0.00000000000E+00  0.00000000000E+00  0.13875757224E+04  0.13875757224E+04  0.50400001928E-02 0.  1.
        1   -1    0    0  501    0  0.00000000000E+00  0.00000000000E+00 -0.11219754966E+04  0.11219754966E+04  0.50400001928E-02 0. -1.
    10030    2    1    2    0    0  0.00000000000E+00  0.00000000000E+00  0.26560022583E+03  0.25095512190E+04  0.24954566398E+04 0.  0.
        5    1    3    3  502    0 -0.72749496239E+03  0.99192572912E+03 -0.77277578851E+02  0.12325418803E+04  0.46999998093E+01 0. -1.
       -5    1    3    3    0  502  0.72749496239E+03 -0.99192572912E+03  0.34287780468E+03  0.12770093388E+04  0.46999998093E+01 0.  1.
</event>
<event>
 5   0  0.2432309E-05  0.2136587E+04  0.7818609E-02  0.8545296E-01
        2   -1    0    0  501    0  0.00000000000E+00  0.00000000000E+00  0.22073494955E+04  0.22073494955E+04  0.25500000920E-02 0. -1.
       -2   -1    0    0    0  501  0.00000000000E+00  0.00000000000E+00 -0.51702319109E+03  0.51702319109E+03  0.25500000920E-02 0.  1.
    10030    2    1    2    0    0  0.00000000000E+00  0.00000000000E+00  0.16903263044E+04  0.27243726866E+04  0.21365868857E+04 0.  0.
        4    1    3    3  502    0  0.63936627524E+03  0.71746554662E+02 -0.24227977920E+03  0.68748665902E+03  0.12699999809E+01 0.  1.
       -4    1    3    3    0  502 -0.63936627524E+03 -0.71746554662E+02  0.19326060836E+04  0.20368860275E+04  0.12699999809E+01 0. -1.
</event>
<event>
 5   0  0.2388326E-05  0.2490455E+04  0.7818609E-02  0.8406394E-01
       -2   -1    0    0    0  501  0.00000000000E+00  0.00000000000E+00  0.85328594230E+03  0.85328594230E+03  0.25500000920E-02 0. -1.
        2   -1    0    0  501    0  0.00000000000E+00  0.00000000000E+00 -0.18172004581E+04  0.18172004581E+04  0.25500000920E-02 0.  1.
    10030    2    1    2    0    0  0.00000000000E+00  0.00000000000E+00 -0.96391451577E+03  0.26704864004E+04  0.24904550630E+04 0.  0.
        2    1    3    3  502    0  0.23079525395E+02 -0.15223190634E+03  0.84303926315E+03  0.85698449054E+03  0.25500000920E-02 0. -1.
       -2    1    3    3    0  502 -0.23079525395E+02  0.15223190634E+03 -0.18069537789E+04  0.18135019098E+04  0.25500000920E-02 0.  1.
</event>
<event>
 5   0  0.1002753E-05  0.2514773E+04  0.7818609E-02  0.8397741E-01
        1   -1    0    0  501    0  0.00000000000E+00  0.00000000000E+00  0.18830579064E+04  0.18830579064E+04  0.50400001928E-02 0. -1.
       -1   -1    0    0    0  501  0.00000000000E+00  0.00000000000E+00 -0.83960283642E+03  0.83960283644E+03  0.50400001928E-02 0.  1.
    10030    2    1    2    0    0  0.00000000000E+00  0.00000000000E+00  0.10434550700E+04  0.27226607429E+04  0.25147729595E+04 0.  0.
        5    1    3    3  502    0 -0.12272647183E+03 -0.68833852840E+03  0.16531669667E+04  0.17949525972E+04  0.46999998093E+01 0. -1.
       -5    1    3    3    0  502  0.12272647183E+03  0.68833852840E+03 -0.60971189667E+03  0.92770814565E+03  0.46999998093E+01 0.  1.
</event>
<event>
 5   0  0.1015327E-05  0.2490597E+04  0.7818609E-02  0.8406343E-01
       -1   -1    0    0    0  501  0.00000000000E+00  0.00000000000E+00  0.95763072843E+03  0.95763072844E+03  0.50400001928E-02 0.  1.
        1   -1    0    0  501    0  0.00000000000E+00  0.00000000000E+00 -0.16193797052E+04  0.16193797053E+04  0.50400001928E-02 0. -1.
    10030    2    1    2    0    0  0.00000000000E+00  0.00000000000E+00 -0.66174897682E+03  0.25770104337E+04  0.24905965284E+04 0.  0.
        4    1    3    3  502    0 -0.62243875193E+03 -0.51820558688E+03 -0.13096330489E+04  0.15398400456E+04  0.12699999809E+01 0. -1.
       -4    1    3    3    0  502  0.62243875193E+03  0.51820558688E+03  0.64788407212E+03  0.10371703881E+04  0.12699999809E+01 0.  1.
</event>
<event>
 5   0  0.2345143E-05  0.2521885E+04  0.7818609E-02  0.8395230E-01
       -2   -1    0    0    0  501  0.00000000000E+00  0.00000000000E+00  0.82214707821E+03  0.82214707821E+03  0.25500000920E-02 0.  1.
        2   -1    0    0  501    0  0.00000000000E+00  0.00000000000E+00 -0.19339319442E+04  0.19339319442E+04  0.25500000920E-02 0. -1.
    10030    2    1    2    0    0  0.00000000000E+00  0.00000000000E+00 -0.11117848660E+04  0.27560790224E+04  0.25218854037E+04 0.  0.
        5    1    3    3  502    0  0.95178670850E+03 -0.73097896705E+03 -0.13301428306E+03  0.12074531371E+04  0.46999998093E+01 0.  1.
       -5    1    3    3    0  502 -0.95178670850E+03  0.73097896705E+03 -0.97877058295E+03  0.15486258853E+04  0.46999998093E+01 0. -1.
</event>
<event>
 5   0  0.1010338E-05  0.2499174E+04  0.7818609E-02  0.8403280E-01
        1   -1    0    0  501    0  0.00000000000E+00  0.00000000000E+00  0.22597245538E+04  0.22597245538E+04  0.50400001928E-02 0. -1.
       -1   -1    0    0    0  501  0.00000000000E+00  0.00000000000E+00 -0.69099892190E+03  0.69099892192E+03  0.50400001928E-02 0.  1.
    10030    2    1    2    0    0  0.00000000000E+00  0.00000000000E+00  0.15687256319E+04  0.29507234758E+04  0.24991736478E+04 0.  0.
        2    1    3    3  502    0 -0.43115103296E+03  0.65065445152E+03  0.19364937135E+04  0.20878817809E+04  0.25500000920E-02 0. -1.
       -2    1    3    3    0  502  0.43115103296E+03 -0.65065445152E+03 -0.36776808161E+03  0.86284169484E+03  0.25500000920E-02 0.  1.
</event>
<event>
 5   0  0.1039688E-05  0.2436695E+04  0.7818609E-02  0.8425892E-01
       -1   -1    0    0    0  501  0.00000000000E+00  0.00000000000E+00  0.14059095737E+04  0.14059095737E+04  0.50400001928E-02 0.  1.
        1   -1    0    0  501    0  0.00000000000E+00  0.00000000000E+00 -0.10558081222E+04  0.10558081222E+04  0.50400001928E-02 0. -1.
    10030    2    1    2    0    0  0.00000000000E+00  0.00000000000E+00  0.35010145147E+03  0.24617176960E+04  0.24366950955E+04 0.  0.
        3    1    3    3  502    0 -0.74744563231E+03  0.59979195498E+03 -0.58496804015E+03  0.11227702261E+04  0.10100000352E+00 0. -1.
       -3    1    3    3    0  502  0.74744563231E+03 -0.59979195498E+03  0.93506949162E+03  0.13389474698E+04  0.10100000352E+00 0.  1.
</event>
<event>
 5   0  0.1008073E-05  0.2496283E+04  0.7818609E-02  0.8404311E-01
       -1   -1    0    0    0  501  0.00000000000E+00  0.00000000000E+00  0.76512194778E+03  0.76512194780E+03  0.50400001928E-02 0.  1.
        1   -1    0    0  501    0  0.00000000000E+00  0.00000000000E+00 -0.20360904535E+04  0.20360904535E+04  0.50400001928E-02 0. -1.
    10030    2    1    2    0    0  0.00000000000E+00  0.00000000000E+00 -0.12709685057E+04  0.28012124013E+04  0.24962832321E+04 0.  0.
        1    1    3    3  502    0  0.91574863859E+03  0.42569059524E+03 -0.14586044787E+04  0.17740730192E+04  0.50400001928E-02 0. -1.
       -1    1    3    3    0  502 -0.91574863859E+03 -0.42569059524E+03  0.18763597301E+03  0.10271393821E+04  0.50400001928E-02 0.  1.
</event>
<event>
 5   0  0.2452457E-05  0.2305164E+04  0.7818609E-02  0.8475888E-01
       -2   -1    0    0    0  501  0.00000000000E+00  0.00000000000E+00  0.12486664589E+04  0.12486664589E+04  0.25500000920E-02 0. -1.
        2   -1    0    0  501    0  0.00000000000E+00  0.00000000000E+00 -0.10638911815E+04  0.10638911815E+04  0.25500000920E-02 0.  1.
    10030    2    1    2    0    0  0.00000000000E+00  0.00000000000E+00  0.18477527742E+03  0.23125576404E+04  0.23051639718E+04 0.  0.
        1    1    3    3  502    0  0.24629946020E+02  0.10360509543E+04 -0.41364775451E+03  0.11158461717E+04  0.50400001928E-02 0. -1.
       -1    1    3    3    0  502 -0.24629946020E+02 -0.10360509543E+04  0.59842303193E+03  0.11967114687E+04  0.50400001928E-02 0.  1.
</event>
<event>
 5   0  0.2441340E-05  0.2471349E+04  0.7818609E-02  0.8413264E-01
       -2   -1    0    0    0  501  0.00000000000E+00  0.00000000000E+00  0.11360878873E+04  0.11360878873E+04  0.25500000920E-02 0.  1.
        2   -1    0    0  501    0  0.00000000000E+00  0.00000000000E+00 -0.13439901681E+04  0.13439901681E+04  0.25500000920E-02 0. -1.
    10030    2    1    2    0    0  0.00000000000E+00  0.00000000000E+00 -0.20790228079E+03  0.24800780554E+04  0.24713485797E+04 0.  0.
        3    1    3    3  502    0  0.54190523793E+03  0.11102393210E+04 -0.79404491833E+02  0.12379813085E+04  0.10100000352E+00 0.  1.
       -3    1    3    3    0  502 -0.54190523793E+03 -0.11102393210E+04 -0.12849778896E+03  0.12420967469E+04  0.10100000352E+00 0. -1.
</event>
<event>
 5   0  0.2345143E-05  0.2511667E+04  0.7818609E-02  0.8398841E-01
        2   -1    0    0  501    0  0.00000000000E+00  0.00000000000E+00  0.17496001346E+04  0.17496001346E+04  0.25500000920E-02 0.  1.
       -2   -1    0    0    0  501  0.00000000000E+00  0.00000000000E+00 -0.90141623171E+03  0.90141623171E+03  0.25500000920E-02 0. -1.
    10030    2    1    2    0    0  0.00000000000E+00  0.00000000000E+00  0.84818390291E+03  0.26510163663E+04  0.25116671438E+04 0.  0.
        5    1    3    3  502    0  0.51914013103E+03  0.54034395811E+03 -0.63959902916E+03  0.98518377820E+03  0.46999998093E+01 0. -1.
       -5    1    3    3    0  502 -0.51914013103E+03 -0.54034395811E+03  0.14877829321E+04  0.16658325881E+04  0.46999998093E+01 0.  1.
</event>
<event>
 5   0  0.2432309E-05  0.2429955E+04  0.7818609E-02  0.8428373E-01
        2   -1    0    0  501    0  0.00000000000E+00  0.00000000000E+00  0.13524389655E+04  0.13524389655E+04  0.25500000920E-02 0. -1.
       -2   -1    0    0    0  501  0.00000000000E+00  0.00000000000E+00 -0.10914875486E+04  0.10914875486E+04  0.25500000920E-02 0.  1.
    10030    2    1    2    0    0  0.00000000000E+00  0.00000000000E+00  0.26095141691E+03  0.24439265142E+04  0.24299549717E+04 0.  0.
        4    1    3    3  502    0 -0.23898023501E+03  0.10786592069E+04  0.63890326854E+03  0.12762508518E+04  0.12699999809E+01 0. -1.
       -4    1    3    3    0  502  0.23898023501E+03 -0.10786592069E+04 -0.37795185163E+03  0.11676756623E+04  0.12699999809E+01 0.  1.
</event>
<event>
 5   0  0.2452457E-05  0.2486443E+04  0.7818609E-02  0.8407831E-01
        2   -1    0    0  501    0  0.00000000000E+00  0.00000000000E+00  0.19609296361E+04  0.19609296361E+04  0.25500000920E-02 0.  1.
       -2   -1    0    0    0  501  0.00000000000E+00  0.00000000000E+00 -0.78819712676E+03  0.78819712677E+03  0.25500000920E-02 0. -1.
    10030    2    1    2    0    0  0.00000000000E+00  0.00000000000E+00  0.11727325094E+04  0.27491267629E+04  0.24864425230E+04 0.  0.
        1    1    3    3  502    0 -0.12145873952E+04  0.73951249974E+02  0.30468061381E+03  0.12544008946E+04  0.50400001928E-02 0. -1.
       -1    1    3    3    0  502  0.12145873952E+04 -0.73951249974E+02  0.86805189557E+03  0.14947258683E+04  0.50400001928E-02 0.  1.
</event>
<event>
 5   0  0.1010338E-05  0.2482035E+04  0.7818609E-02  0.8409414E-01
        1   -1    0    0  501    0  0.00000000000E+00  0.00000000000E+00  0.10650432300E+04  0.10650432300E+04  0.50400001928E-02 0.  1.
       -1   -1    0    0    0  501  0.00000000000E+00  0.00000000000E+00 -0.14460677733E+04  0.14460677733E+04  0.50400001928E-02 0. -1.
    10030    2    1    2    0    0  0.00000000000E+00  0.00000000000E+00 -0.38102454335E+03  0.25111110034E+04  0.24820352069E+04 0.  0.
        2    1    3    3  502    0 -0.79285651070E+03  0.63645227594E+03 -0.91048895928E+03  0.13648014841E+04  0.25500000920E-02 0.  1.
       -2    1    3    3    0  502  0.79285651070E+03 -0.63645227594E+03  0.52946441594E+03  0.11463095192E+04  0.25500000920E-02 0. -1.
</event>
<event>
 5   0  0.1039688E-05  0.2440229E+04  0.7818609E-02  0.8424594E-01
        1   -1    0    0  501    0  0.00000000000E+00  0.00000000000E+00  0.18338647400E+04  0.18338647400E+04  0.50400001928E-02 0.  1.
       -1   -1    0    0    0  501  0.00000000000E+00  0.00000000000E+00 -0.81177169131E+03  0.81177169133E+03  0.50400001928E-02 0. -1.
    10030    2    1    2    0    0  0.00000000000E+00  0.00000000000E+00  0.10220930487E+04  0.26456364313E+04  0.24402290726E+04 0.  0.
        3    1    3    3  502    0 -0.90176905515E+03 -0.82092068488E+03  0.55415898600E+03  0.13394739235E+04  0.10100000352E+00 0. -1.
       -3    1    3    3    0  502  0.90176905515E+03  0.82092068488E+03  0.46793406268E+03  0.13061625079E+04  0.10100000352E+00 0.  1.
</event>
<event>
 5   0  0.2441340E-05  0.2488821E+04  0.7818609E-02  0.8406979E-01
        2   -1    0    0  501    0  0.00000000000E+00  0.00000000000E+00  0.12992815041E+04  0.12992815042E+04  0.25500000920E-02 0. -1.
       -2   -1    0    0    0  501  0.00000000000E+00  0.00000000000E+00 -0.11918570050E+04  0.11918570050E+04  0.25500000920E-02 0.  1.
    10030    2    1    2    0    0  0.00000000000E+00  0.00000000000E+00  0.10742449919E+03  0.24911385091E+04  0.24888212167E+04 0.  0.
        3    1    3    3  502    0  0.51002420622E+03  0.10352379863E+04  0.51967267639E+03  0.12656627039E+04  0.10100000352E+00 0. -1.
       -3    1    3    3    0  502 -0.51002420622E+03 -0.10352379863E+04 -0.41224817720E+03  0.12254758052E+04  0.10100000352E+00 0.  1.
</event>
<event>
 5   0  0.2441340E-05  0.2494450E+04  0.7818609E-02  0.8404966E-01
       -2   -1    0    0    0  501  0.00000000000E+00  0.00000000000E+00  0.99065801650E+03  0.99065801650E+03  0.25500000920E-02 0. -1.
        2   -1    0    0  501    0  0.00000000000E+00  0.00000000000E+00 -0.15702388940E+04  0.15702388940E+04  0.25500000920E-02 0.  1.
    10030    2    1    2    0    0  0.00000000000E+00  0.00000000000E+00 -0.57958087753E+03  0.25608969105E+04  0.24944496373E+04 0.  0.
        3    1    3    3  502    0 -0.61368384181E+03 -0.10085131450E+04  0.12324879410E+03  0.11869696276E+04  0.10100000352E+00 0. -1.
       -3    1    3    3    0  502  0.61368384181E+03  0.10085131450E+04 -0.70282967164E+03  0.13739272830E+04  0.10100000352E+00 0.  1.
</event>
<event>
 5   0  0.1015327E-05  0.2522443E+04  0.7818609E-02  0.8395033E-01
        1   -1    0    0  501    0  0.00000000000E+00  0.00000000000E+00  0.18363544363E+04  0.18363544363E+04  0.50400001928E-02 0.  1.
       -1   -1    0    0    0  501  0.00000000000E+00  0.00000000000E+00 -0.86621621906E+03  0.86621621908E+03  0.50400001928E-02 0. -1.
    10030    2    1    2    0    0  0.00000000000E+00  0.00000000000E+00  0.97013821720E+03  0.27025706553E+04  0.25224432574E+04 0.  0.
        4    1    3    3  502    0  0.12468191964E+04 -0.18982748232E+03  0.47514468723E+03  0.13477227712E+04  0.12699999809E+01 0.  1.
       -4    1    3    3    0  502 -0.12468191964E+04  0.18982748232E+03  0.49499352998E+03  0.13548478841E+04  0.12699999809E+01 0. -1.
</event>
<event>
 5   0  0.1008073E-05  0.2484748E+04  0.7818609E-02  0.8408439E-01
        1   -1    0    0  501    0  0.00000000000E+00  0.00000000000E+00  0.13481676165E+04  0.13481676166E+04  0.50400001928E-02 0. -1.
       -1   -1    0    0    0  501  0.00000000000E+00  0.00000000000E+00 -0.11448818864E+04  0.11448818864E+04  0.50400001928E-02 0.  1.
    10030    2    1    2    0    0  0.00000000000E+00  0.00000000000E+00  0.20328573015E+03  0.24930495030E+04  0.24847476202E+04 0.  0.
        1    1    3    3  502    0 -0.54819704537E+03 -0.11423932058E+03 -0.10110810305E+04  0.11557921410E+04  0.50400001928E-02 0.  1.
       -1    1    3    3    0  502  0.54819704537E+03  0.11423932058E+03  0.12143667606E+04  0.13372573620E+04  0.50400001928E-02 0. -1.
</event>
<event>
 5   0  0.2345143E-05  0.2506843E+04  0.7818609E-02  0.8400552E-01
        2   -1    0    0  501    0  0.00000000000E+00  0.00000000000E+00  0.11826281861E+04  0.11826281861E+04  0.25500000920E-02 0. -1.
       -2   -1    0    0    0  501  0.00000000000E+00  0.00000000000E+00 -0.13284523480E+04  0.13284523480E+04  0.25500000920E-02 0.  1.
    10030    2    1    2    0    0  0.00000000000E+00  0.00000000000E+00 -0.14582416194E+03  0.25110805341E+04  0.25068427877E+04 0.  0.
        5    1    3    3  502    0 -0.98126840299E+03  0.57546127279E+03  0.45428527996E+03  0.12249247164E+04  0.46999998093E+01 0. -1.
       -5    1    3    3    0  502  0.98126840299E+03 -0.57546127279E+03 -0.60010944190E+03  0.12861558177E+04  0.46999998093E+01 0.  1.
</event>
<event>
 5   0  0.1008073E-05  0.2504124E+04  0.7818609E-02  0.8401518E-01
        1   -1    0    0  501    0  0.00000000000E+00  0.00000000000E+00  0.58506064667E+03  0.58506064670E+03  0.50400001928E-02 0.  1.
       -1   -1    0    0    0  501  0.00000000000E+00  0.00000000000E+00 -0.26794807985E+04  0.26794807985E+04  0.50400001928E-02 0. -1.
    10030    2    1    2    0    0  0.00000000000E+00  0.00000000000E+00 -0.20944201518E+04  0.32645414452E+04  0.25041236142E+04 0.  0.
        1    1    3    3  502    0 -0.51583331147E+03  0.76975875543E+03  0.50540557952E+02  0.92799078380E+03  0.50400001928E-02 0. -1.
       -1    1    3    3    0  502  0.51583331147E+03 -0.76975875543E+03 -0.21449607097E+04  0.23365506614E+04  0.50400001928E-02 0.  1.
</event>
<event>
 5   0  0.1008073E-05  0.2522464E+04  0.7818609E-02  0.8395026E-01
       -1   -1    0    0    0  501  0.00000000000E+00  0.00000000000E+00  0.14740379122E+04  0.14740379122E+04  0.50400001928E-02 0. -1.
        1   -1    0    0  501    0  0.00000000000E+00  0.00000000000E+00 -0.10791486740E+04  0.10791486740E+04  0.50400001928E-02 0.  1.
    10030    2    1    2    0    0  0.00000000000E+00  0.00000000000E+00  0.39488923817E+03  0.25531865863E+04  0.25224639212E+04 0.  0.
        1    1    3    3  502    0  0.51117480690E+03 -0.59021280566E+03 -0.80510140074E+03  0.11215342637E+04  0.50400001928E-02 0.  1.
       -1    1    3    3    0  502 -0.51117480690E+03  0.59021280566E+03  0.11999906389E+04  0.14316523226E+04  0.50400001928E-02 0. -1.
</event>
<event>
 5   0  0.2432309E-05  0.2507408E+04  0.7818609E-02  0.8400351E-01
        2   -1    0    0  501    0  0.00000000000E+00  0.00000000000E+00  0.24762894920E+04  0.24762894920E+04  0.25500000920E-02 0.  1.
       -2   -1    0    0    0  501  0.00000000000E+00  0.00000000000E+00 -0.63472951213E+03  0.63472951214E+03  0.25500000920E-02 0. -1.
    10030    2    1    2    0    0  0.00000000000E+00  0.00000000000E+00  0.18415599799E+04  0.31110190041E+04  0.25074082405E+04 0.  0.
        4    1    3    3  502    0 -0.66053345410E+03  0.62520977064E+03 -0.14983545595E+03  0.92176134549E+03  0.12699999809E+01 0. -1.
       -4    1    3    3    0  502  0.66053345410E+03 -0.62520977064E+03  0.19913954358E+04  0.21892576586E+04  0.12699999809E+01 0.  1.
</event>
<event>
 5   0  0.1039688E-05  0.2505052E+04  0.7818609E-02  0.8401188E-01
        1   -1    0    0  501    0  0.00000000000E+00  0.00000000000E+00  0.17154707291E+04  0.17154707291E+04  0.50400001928E-02 0.  1.
       -1   -1    0    0    0  501  0.00000000000E+00  0.00000000000E+00 -0.91451351281E+03  0.91451351282E+03  0.50400001928E-02 0. -1.
    10030    2    1    2    0    0  0.00000000000E+00  0.00000000000E+00  0.80095721630E+03  0.26299842419E+04  0.25050518259E+04 0.  0.
        3    1    3    3  502    0  0.79467715182E+03 -0.96811154585E+03  0.40922547274E+03  0.13176559637E+04  0.10100000352E+00 0.  1.
       -3    1    3    3    0  502 -0.79467715182E+03  0.96811154585E+03  0.39173174357E+03  0.13123282783E+04  0.10100000352E+00 0. -1.
</event>
<event>
 5   0  0.1039688E-05  0.2505256E+04  0.7818609E-02  0.8401116E-01
       -1   -1    0    0    0  501  0.00000000000E+00  0.00000000000E+00  0.11060655791E+04  0.11060655791E+04  0.50400001928E-02 0. -1.
        1   -1    0    0  501    0  0.00000000000E+00  0.00000000000E+00 -0.14186108639E+04  0.14186108639E+04  0.50400001928E-02 0.  1.
    10030    2    1    2    0    0  0.00000000000E+00  0.00000000000E+00 -0.31254528479E+03  0.25246764430E+04  0.25052557927E+04 0.  0.
        3    1    3    3  502    0 -0.11474982849E+04 -0.28948113722E+03  0.25742763561E+03  0.12111237098E+04  0.10100000352E+00 0.  1.
       -3    1    3    3    0  502  0.11474982849E+04  0.28948113722E+03 -0.56997292040E+03  0.13135527332E+04  0.10100000352E+00 0. -1.
</event>
<event>
 5   0  0.1008073E-05  0.2546934E+04  0.7818609E-02  0.8386453E-01
        1   -1    0    0  501    0  0.00000000000E+00  0.00000000000E+00  0.94309603445E+03  0.94309603447E+03  0.50400001928E-02 0.  1.
       -1   -1    0    0    0  501  0.00000000000E+00  0.00000000000E+00 -0.17195685159E+04  0.17195685159E+04  0.50400001928E-02 0. -1.
    10030    2    1    2    0    0  0.00000000000E+00  0.00000000000E+00 -0.77647248145E+03  0.26626645504E+04  0.25469340379E+04 0.  0.
        1    1    3    3  502    0  0.11105792778E+04 -0.27655706198E+03  0.19557212675E+03  0.11610850949E+04  0.50400001928E-02 0.  1.
       -1    1    3    3    0  502 -0.11105792778E+04  0.27655706198E+03 -0.97204460821E+03  0.15015794555E+04  0.50400001928E-02 0. -1.
</event>
<event>
 5   0  0.1002753E-05  0.2520813E+04  0.7818609E-02  0.8395608E-01
       -1   -1    0    0    0  501  0.00000000000E+00  0.00000000000E+00  0.79371503770E+03  0.79371503772E+03  0.50400001928E-02 0.  1.
        1   -1    0    0  501    0  0.00000000000E+00  0.00000000000E+00 -0.20015052180E+04  0.20015052180E+04  0.50400001928E-02 0. -1.
    10030    2    1    2    0    0  0.00000000000E+00  0.00000000000E+00 -0.12077901803E+04  0.27952202557E+04  0.25208131939E+04 0.  0.
        5    1    3    3  502    0 -0.51470056715E+03  0.49983971138E+03 -0.17529649462E+04  0.18941131443E+04  0.46999998093E+01 0. -1.
       -5    1    3    3    0  502  0.51470056715E+03 -0.49983971138E+03  0.54517476588E+03  0.90110711142E+03  0.46999998093E+01 0.  1.
</event>
<event>
 5   0  0.1002753E-05  0.2503983E+04  0.7818609E-02  0.8401568E-01
        1   -1    0    0  501    0  0.00000000000E+00  0.00000000000E+00  0.13145180408E+04  0.13145180408E+04  0.50400001928E-02 0. -1.
       -1   -1    0    0    0  501  0.00000000000E+00  0.00000000000E+00 -0.11924387801E+04  0.11924387801E+04  0.50400001928E-02 0.  1.
    10030    2    1    2    0    0  0.00000000000E+00  0.00000000000E+00  0.12207926072E+03  0.25069568209E+04  0.25039826589E+04 0.  0.
        5    1    3    3  502    0 -0.17090468940E+03 -0.36400772125E+03 -0.11260119993E+04  0.11956735117E+04  0.46999998093E+01 0.  1.
       -5    1    3    3    0  502  0.17090468940E+03  0.36400772125E+03  0.12480912600E+04  0.13112833093E+04  0.46999998093E+01 0. -1.
</event>
<event>
 5   0  0.1010338E-05  0.2503982E+04  0.7818609E-02  0.8401568E-01
        1   -1    0    0  501    0  0.00000000000E+00  0.00000000000E+00  0.25276630007E+04  0.25276630007E+04  0.50400001928E-02 0. -1.
       -1   -1    0    0    0  501  0.00000000000E+00  0.00000000000E+00 -0.62013048404E+03  0.62013048407E+03  0.50400001928E-02 0.  1.
    10030    2    1    2    0    0  0.00000000000E+00  0.00000000000E+00  0.19075325167E+04  0.31477934848E+04  0.25039815336E+04 0.  0.
        2    1    3    3  502    0 -0.92281392373E+03 -0.64171216446E+03  0.16470067483E+04  0.19939937986E+04  0.25500000920E-02 0. -1.
       -2    1    3    3    0  502  0.92281392373E+03  0.64171216446E+03  0.26052576835E+03  0.11537996862E+04  0.25500000920E-02 0.  1.
</event>
<event>
 5   0  0.1010338E-05  0.2496954E+04  0.7818609E-02  0.8404071E-01
        1   -1    0    0  501    0  0.00000000000E+00  0.00000000000E+00  0.11863452903E+04  0.11863452903E+04  0.50400001928E-02 0. -1.
       -1   -1    0    0    0  501  0.00000000000E+00  0.00000000000E+00 -0.13138627708E+04  0.13138627709E+04  0.50400001928E-02 0.  1.
    10030    2    1    2    0    0  0.00000000000E+00  0.00000000000E+00 -0.12751748052E+03  0.25002080612E+04  0.24969540727E+04 0.  0.
        2    1    3    3  502    0  0.41547569996E+03  0.45042371676E+03  0.10254056978E+04  0.11945536517E+04  0.25500000920E-02 0. -1.
       -2    1    3    3    0  502 -0.41547569996E+03 -0.45042371676E+03 -0.11529231783E+04  0.13056544094E+04  0.25500000920E-02 0.  1.
</event>
<event>
 5   0  0.1010338E-05  0.2457148E+04  0.7818609E-02  0.8418413E-01
       -1   -1    0    0    0  501  0.00000000000E+00  0.00000000000E+00  0.74637678079E+03  0.74637678080E+03  0.50400001928E-02 0.  1.
        1   -1    0    0  501    0  0.00000000000E+00  0.00000000000E+00 -0.20222942485E+04  0.20222942485E+04  0.50400001928E-02 0. -1.
    10030    2    1    2    0    0  0.00000000000E+00  0.00000000000E+00 -0.12759174677E+04  0.27686710293E+04  0.24571475096E+04 0.  0.
        2    1    3    3  502    0 -0.45949948721E+03  0.88947843982E+03 -0.14403369652E+04  0.17541044002E+04  0.25500000920E-02 0. -1.
       -2    1    3    3    0  502  0.45949948721E+03 -0.88947843982E+03  0.16441949749E+03  0.10145666291E+04  0.25500000920E-02 0.  1.
</event>
<event>
 5   0  0.2345143E-05  0.2491059E+04  0.7818609E-02  0.8406178E-01
       -2   -1    0    0    0  501  0.00000000000E+00  0.00000000000E+00  0.85685068960E+03  0.85685068961E+03  0.25500000920E-02 0. -1.
        2   -1    0    0  501    0  0.00000000000E+00  0.00000000000E+00 -0.18105185375E+04  0.18105185375E+04  0.25500000920E-02 0.  1.
    10030    2    1    2    0    0  0.00000000000E+00  0.00000000000E+00 -0.95366784790E+03  0.26673692271E+04  0.24910592586E+04 0.  0.
        5    1    3    3  502    0 -0.10221440396E+04  0.61102755550E+02  0.28244443809E+03  0.10622188734E+04  0.46999998093E+01 0. -1.
       -5    1    3    3    0  502  0.10221440396E+04 -0.61102755550E+02 -0.12361122860E+04  0.16051503537E+04  0.46999998093E+01 0.  1.
</event>
<event>
 5   0  0.1008073E-05  0.2480327E+04  0.7818609E-02  0.8410028E-01
       -1   -1    0    0    0  501  0.00000000000E+00  0.00000000000E+00  0.54508275629E+03  0.54508275631E+03  0.50400001928E-02 0. -1.
        1   -1    0    0  501    0  0.00000000000E+00  0.00000000000E+00 -0.28216009761E+04  0.28216009761E+04  0.50400001928E-02 0.  1.
    10030    2    1    2    0    0  0.00000000000E+00  0.00000000000E+00 -0.22765182198E+04  0.33666837324E+04  0.24803274278E+04 0.  0.
        1    1    3    3  502    0 -0.75827064309E+02  0.12280234415E+04 -0.13494781361E+04  0.18261660813E+04  0.50400001928E-02 0.  1.
       -1    1    3    3    0  502  0.75827064309E+02 -0.12280234415E+04 -0.92704008370E+03  0.15405176511E+04  0.50400001928E-02 0. -1.
</event>
<event>
 5   0  0.2345143E-05  0.2477609E+04  0.7818609E-02  0.8411006E-01
        2   -1    0    0  501    0  0.00000000000E+00  0.00000000000E+00  0.14091906389E+04  0.14091906389E+04  0.25500000920E-02 0. -1.
       -2   -1    0    0    0  501  0.00000000000E+00  0.00000000000E+00 -0.10890199643E+04  0.10890199643E+04  0.25500000920E-02 0.  1.
    10030    2    1    2    0    0  0.00000000000E+00  0.00000000000E+00  0.32017067452E+03  0.24982106032E+04  0.24776091211E+04 0.  0.
        5    1    3    3  502    0  0.31267891998E+02 -0.54909805303E+03 -0.95915723744E+03  0.11056631716E+04  0.46999998093E+01 0.  1.
       -5    1    3    3    0  502 -0.31267891998E+02  0.54909805303E+03  0.12793279120E+04  0.13925474316E+04  0.46999998093E+01 0. -1.
</event>
<event>
 5   0  0.1015327E-05  0.2482285E+04  0.7818609E-02  0.8409324E-01
        1   -1    0    0  501    0  0.00000000000E+00  0.00000000000E+00  0.11382147599E+04  0.11382147599E+04  0.50400001928E-02 0.  1.
       -1   -1    0    0    0  501  0.00000000000E+00  0.00000000000E+00 -0.13533782120E+04  0.13533782120E+04  0.50400001928E-02 0. -1.
    10030    2    1    2    0    0  0.00000000000E+00  0.00000000000E+00 -0.21516345208E+03  0.24915929718E+04  0.24822852830E+04 0.  0.
        4    1    3    3  502    0 -0.64813161448E+03  0.34845362401E+03 -0.11107987034E+04  0.13324300695E+04  0.12699999809E+01 0. -1.
       -4    1    3    3    0  502  0.64813161448E+03 -0.34845362401E+03  0.89563525134E+03  0.11591629023E+04  0.12699999809E+01 0.  1.
</event>
<event>
 5   0  0.2432309E-05  0.2349879E+04  0.7818609E-02  0.8458510E-01
        2   -1    0    0  501    0  0.00000000000E+00  0.00000000000E+00  0.18153891610E+04  0.18153891610E+04  0.25500000920E-02 0.  1.
       -2   -1    0    0    0  501  0.00000000000E+00  0.00000000000E+00 -0.76043327435E+03  0.76043327435E+03  0.25500000920E-02 0. -1.
    10030    2    1    2    0    0  0.00000000000E+00  0.00000000000E+00  0.10549558867E+04  0.25758224354E+04  0.23498785704E+04 0.  0.
        4    1    3    3  502    0 -0.41082456343E+03  0.27588954753E+03 -0.64062484338E+03  0.80950211069E+03  0.12699999809E+01 0. -1.
       -4    1    3    3    0  502  0.41082456343E+03 -0.27588954753E+03  0.16955807300E+04  0.17663203247E+04  0.12699999809E+01 0.  1.
</event>
<event>
 5   0  0.2452457E-05  0.2454776E+04  0.7818609E-02  0.8419276E-01
        2   -1    0    0  501    0  0.00000000000E+00  0.00000000000E+00  0.89333040369E+03  0.89333040369E+03  0.25500000920E-02 0. -1.
       -2   -1    0    0    0  501  0.00000000000E+00  0.00000000000E+00 -0.16863654644E+04  0.16863654644E+04  0.25500000920E-02 0.  1.
    10030    2    1    2    0    0  0.00000000000E+00  0.00000000000E+00 -0.79303506067E+03  0.25796958680E+04  0.24547761943E+04 0.  0.
        1    1    3    3  502    0  0.40549599897E+03 -0.37411459052E+03  0.75567645730E+03  0.93564717718E+03  0.50400001928E-02 0. -1.
       -1    1    3    3    0  502 -0.40549599897E+03  0.37411459052E+03 -0.15487115180E+04  0.16440486909E+04  0.50400001928E-02 0.  1.
</event>
<event>
 5   0  0.1039688E-05  0.2486316E+04  0.7818609E-02  0.8407877E-01
        1   -1    0    0  501    0  0.00000000000E+00  0.00000000000E+00  0.18932461744E+04  0.18932461744E+04  0.50400001928E-02 0. -1.
       -1   -1    0    0    0  501  0.00000000000E+00  0.00000000000E+00 -0.81629183312E+03  0.81629183314E+03  0.50400001928E-02 0.  1.
    10030    2    1    2    0    0  0.00000000000E+00  0.00000000000E+00  0.10769543413E+04  0.27095380076E+04  0.24863156600E+04 0.  0.
        3    1    3    3  502    0 -0.26081644848E+02 -0.45635584758E+03 -0.72138646173E+03  0.85401367038E+03  0.10100000352E+00 0.  1.
       -3    1    3    3    0  502  0.26081644848E+02  0.45635584758E+03  0.17983408031E+04  0.18555243372E+04  0.10100000352E+00 0. -1.
</event>
<event>
 5   0  0.2441340E-05  0.2506188E+04  0.7818609E-02  0.8400784E-01
        2   -1    0    0  501    0  0.00000000000E+00  0.00000000000E+00  0.21072732313E+04  0.21072732313E+04  0.25500000920E-02 0.  1.
       -2   -1    0    0    0  501  0.00000000000E+00  0.00000000000E+00 -0.74515496882E+03  0.74515496882E+03  0.25500000920E-02 0. -1.
    10030    2    1    2    0    0  0.00000000000E+00  0.00000000000E+00  0.13621182625E+04  0.28524282001E+04  0.25061884358E+04 0.  0.
        3    1    3    3  502    0  0.11925729997E+03 -0.90130882002E+03  0.16625578430E+04  0.18949085688E+04  0.10100000352E+00 0.  1.
       -3    1    3    3    0  502 -0.11925729997E+03  0.90130882002E+03 -0.30043958050E+03  0.95751963132E+03  0.10100000352E+00 0. -1.
</event>
<event>
 5   0  0.1015327E-05  0.2501658E+04  0.7818609E-02  0.8402395E-01
        1   -1    0    0  501    0  0.00000000000E+00  0.00000000000E+00  0.87538178920E+03  0.87538178921E+03  0.50400001928E-02 0. -1.
       -1   -1    0    0    0  501  0.00000000000E+00  0.00000000000E+00 -0.17873035382E+04  0.17873035382E+04  0.50400001928E-02 0.  1.
    10030    2    1    2    0    0  0.00000000000E+00  0.00000000000E+00 -0.91192174900E+03  0.26626853274E+04  0.25016578256E+04 0.  0.
        4    1    3    3  502    0 -0.26473366980E+03  0.97266598268E+03  0.33225278741E+03  0.10613936864E+04  0.12699999809E+01 0. -1.
       -4    1    3    3    0  502  0.26473366980E+03 -0.97266598268E+03 -0.12441745364E+04  0.16012916411E+04  0.12699999809E+01 0.  1.
</event>
<event>
 5   0  0.2388326E-05  0.2497977E+04  0.7818609E-02  0.8403707E-01
        2   -1    0    0  501    0  0.00000000000E+00  0.00000000000E+00  0.15071082443E+04  0.15071082443E+04  0.25500000920E-02 0.  1.
       -2   -1    0    0    0  501  0.00000000000E+00  0.00000000000E+00 -0.10350764037E+04  0.10350764037E+04  0.25500000920E-02 0. -1.
    10030    2    1    2    0    0  0.00000000000E+00  0.00000000000E+00  0.47203184069E+03  0.25421846480E+04  0.24979769266E+04 0.  0.
        2    1    3    3  502    0 -0.11405854782E+04  0.35757685118E+03 -0.13257568244E+03  0.12026523809E+04  0.25500000920E-02 0. -1.
       -2    1    3    3    0  502  0.11405854782E+04 -0.35757685118E+03  0.60460752312E+03  0.13395322671E+04  0.25500000920E-02 0.  1.
</event>
<event>
 5   0  0.1015327E-05  0.2474946E+04  0.7818609E-02  0.8411966E-01
       -1   -1    0    0    0  501  0.00000000000E+00  0.00000000000E+00  0.57896186579E+03  0.57896186581E+03  0.50400001928E-02 0.  1.
        1   -1    0    0  501    0  0.00000000000E+00  0.00000000000E+00 -0.26449745824E+04  0.26449745824E+04  0.50400001928E-02 0. -1.
    10030    2    1    2    0    0  0.00000000000E+00  0.00000000000E+00 -0.20660127166E+04  0.32239364482E+04  0.24749459948E+04 0.  0.
        4    1    3    3  502    0 -0.10885139306E+03 -0.12270895523E+04 -0.88031283695E+03  0.15141168049E+04  0.12699999809E+01 0.  1.
       -4    1    3    3    0  502  0.10885139306E+03  0.12270895523E+04 -0.11856998797E+04  0.17098196433E+04  0.12699999809E+01 0. -1.
</event>
<event>
 5   0  0.1015327E-05  0.2536647E+04  0.7818609E-02  0.8390045E-01
        1   -1    0    0  501    0  0.00000000000E+00  0.00000000000E+00  0.20334957480E+04  0.20334957480E+04  0.50400001928E-02 0.  1.
       -1   -1    0    0    0  501  0.00000000000E+00  0.00000000000E+00 -0.79107318051E+03  0.79107318053E+03  0.50400001928E-02 0. -1.
    10030    2    1    2    0    0  0.00000000000E+00  0.00000000000E+00  0.12424225675E+04  0.28245689286E+04  0.25366465650E+04 0.  0.
        4    1    3    3  502    0 -0.35327707414E+03  0.28204796922E+02 -0.73481766743E+03  0.81581788344E+03  0.12699999809E+01 0. -1.
       -4    1    3    3    0  502  0.35327707414E+03 -0.28204796922E+02  0.19772402349E+04  0.20087510451E+04  0.12699999809E+01 0.  1.
</event>
<event>
 5   0  0.1010338E-05  0.2497661E+04  0.7818609E-02  0.8403819E-01
       -1   -1    0    0    0  501  0.00000000000E+00  0.00000000000E+00  0.15725265598E+04  0.15725265598E+04  0.50400001928E-02 0.  1.
        1   -1    0    0  501    0  0.00000000000E+00  0.00000000000E+00 -0.99176559881E+03  0.99176559882E+03  0.50400001928E-02 0. -1.
    10030    2    1    2    0    0  0.00000000000E+00  0.00000000000E+00  0.58076096100E+03  0.25642921586E+04  0.24976611021E+04 0.  0.
        2    1    3    3  502    0 -0.87449512075E+03  0.28651539805E+03  0.11571448898E+04  0.14784509074E+04  0.25500000920E-02 0.  1.
       -2    1    3    3    0  502  0.87449512075E+03 -0.28651539805E+03 -0.57638392881E+03  0.10858412513E+04  0.25500000920E-02 0. -1.
</event>
<event>
 5   0  0.2388326E-05  0.2526764E+04  0.7818609E-02  0.8393512E-01
       -2   -1    0    0    0  501  0.00000000000E+00  0.00000000000E+00  0.13249055575E+04  0.13249055575E+04  0.25500000920E-02 0.  1.
        2   -1    0    0  501    0  0.00000000000E+00  0.00000000000E+00 -0.12047155176E+04  0.12047155177E+04  0.25500000920E-02 0. -1.
    10030    2    1    2    0    0  0.00000000000E+00  0.00000000000E+00  0.12019003990E+03  0.25296210752E+04  0.25267641636E+04 0.  0.
        2    1    3    3  502    0 -0.69232884319E+03 -0.81212495223E+03  0.73707562065E+03  0.12969759580E+04  0.25500000920E-02 0.  1.
       -2    1    3    3    0  502  0.69232884319E+03  0.81212495223E+03 -0.61688558075E+03  0.12326451172E+04  0.25500000920E-02 0. -1.
</event>
<event>
 5   0  0.2452457E-05  0.2513581E+04  0.7818609E-02  0.8398163E-01
        2   -1    0    0  501    0  0.00000000000E+00  0.00000000000E+00  0.14167820105E+04  0.14167820105E+04  0.25500000920E-02 0.  1.
       -2   -1    0    0    0  501  0.00000000000E+00  0.00000000000E+00 -0.11148664269E+04  0.11148664269E+04  0.25500000920E-02 0. -1.
    10030    2    1    2    0    0  0.00000000000E+00  0.00000000000E+00  0.30191558364E+03  0.25316484374E+04  0.25135812680E+04 0.  0.
        1    1    3    3  502    0 -0.61574230396E+03 -0.50937806488E+03 -0.82602379029E+03  0.11493127947E+04  0.50400001928E-02 0. -1.
       -1    1    3    3    0  502  0.61574230396E+03  0.50937806488E+03  0.11279393739E+04  0.13823356427E+04  0.50400001928E-02 0.  1.
</event>
<event>
 5   0  0.8166500E-06  0.2504590E+04  0.7818609E-02  0.8401352E-01
        4   -1    0    0  501    0  0.00000000000E+00  0.00000000000E+00  0.16255787431E+04  0.16255792392E+04  0.12699999809E+01 0.  1.
       -4   -1    0    0    0  501  0.00000000000E+00  0.00000000000E+00 -0.96472774911E+03  0.96472858505E+03  0.12699999809E+01 0. -1.
    10030    2    1    2    0    0  0.00000000000E+00  0.00000000000E+00  0.66085099398E+03  0.25903078242E+04  0.25045899042E+04 0.  0.
        3    1    3    3  502    0 -0.12912692221E+03 -0.69118289979E+03 -0.74129995363E+03  0.10217304901E+04  0.10100000352E+00 0. -1.
       -3    1    3    3    0  502  0.12912692221E+03  0.69118289979E+03  0.14021509476E+04  0.15685773341E+04  0.10100000352E+00 0.  1.
</event>
<event>
 5   0  0.2452457E-05  0.2243846E+04  0.7818609E-02  0.8500397E-01
       -2   -1    0    0    0  501  0.00000000000E+00  0.00000000000E+00  0.12439635765E+04  0.12439635765E+04  0.25500000920E-02 0. -1.
        2   -1    0    0  501    0  0.00000000000E+00  0.00000000000E+00 -0.10118553596E+04  0.10118553596E+04  0.25500000920E-02 0.  1.
    10030    2    1    2    0    0  0.00000000000E+00  0.00000000000E+00  0.23210821688E+03  0.22558189361E+04  0.22438459948E+04 0.  0.
        1    1    3    3  502    0  0.34806612852E+03 -0.10372609631E+04 -0.13356672002E+03  0.11022252057E+04  0.50400001928E-02 0.  1.
       -1    1    3    3    0  502 -0.34806612852E+03  0.10372609631E+04  0.36567493690E+03  0.11535937304E+04  0.50400001928E-02 0. -1.
</event>
<event>
 5   0  0.1008073E-05  0.2471587E+04  0.7818609E-02  0.8413178E-01
        1   -1    0    0  501    0  0.00000000000E+00  0.00000000000E+00  0.11494077970E+04  0.11494077970E+04  0.50400001928E-02 0.  1.
       -1   -1    0    0    0  501  0.00000000000E+00  0.00000000000E+00 -0.13286717936E+04  0.13286717936E+04  0.50400001928E-02 0. -1.
    10030    2    1    2    0    0  0.00000000000E+00  0.00000000000E+00 -0.17926399661E+03  0.24780795906E+04  0.24715871170E+04 0.  0.
        1    1    3    3  502    0 -0.90015435617E+03  0.51664204364E+02  0.75771443599E+03  0.11777428503E+04  0.50400001928E-02 0.  1.
       -1    1    3    3    0  502  0.90015435617E+03 -0.51664204364E+02 -0.93697843261E+03  0.13003367403E+04  0.50400001928E-02 0. -1.
</event>
<event>
 5   0  0.2345143E-05  0.2511017E+04  0.7818609E-02  0.8399071E-01
       -2   -1    0    0    0  501  0.00000000000E+00  0.00000000000E+00  0.97155016309E+03  0.97155016310E+03  0.25500000920E-02 0. -1.
        2   -1    0    0  501    0  0.00000000000E+00  0.00000000000E+00 -0.16224603039E+04  0.16224603039E+04  0.25500000920E-02 0.  1.
    10030    2    1    2    0    0  0.00000000000E+00  0.00000000000E+00 -0.65091014079E+03  0.25940104670E+04  0.25110169835E+04 0.  0.
        5    1    3    3  502    0  0.59844610405E+03 -0.98596142402E+03 -0.83785478833E+03  0.14255807257E+04  0.46999998093E+01 0.  1.
       -5    1    3    3    0  502 -0.59844610405E+03  0.98596142402E+03  0.18694464754E+03  0.11684297413E+04  0.46999998093E+01 0. -1.
</event>
<event>
 5   0  0.2432309E-05  0.2526662E+04  0.7818609E-02  0.8393548E-01
        2   -1    0    0  501    0  0.00000000000E+00  0.00000000000E+00  0.10519756788E+04  0.10519756788E+04  0.25500000920E-02 0.  1.
       -2   -1    0    0    0  501  0.00000000000E+00  0.00000000000E+00 -0.15171499887E+04  0.15171499887E+04  0.25500000920E-02 0. -1.
    10030    2    1    2    0    0  0.00000000000E+00  0.00000000000E+00 -0.46517430985E+03  0.25691256675E+04  0.25266617417E+04 0.  0.
        4    1    3    3  502    0  0.35731429695E+03 -0.85721670446E+02  0.99643754658E+03  0.10620315950E+04  0.12699999809E+01 0.  1.
       -4    1    3    3    0  502 -0.35731429695E+03  0.85721670446E+02 -0.14616118564E+04  0.15070940725E+04  0.12699999809E+01 0. -1.
</event>
<event>
 5   0  0.2432309E-05  0.2507928E+04  0.7818609E-02  0.8400166E-01
        2   -1    0    0  501    0  0.00000000000E+00  0.00000000000E+00  0.11018973260E+04  0.11018973260E+04  0.25500000920E-02 0.  1.
       -2   -1    0    0    0  501  0.00000000000E+00  0.00000000000E+00 -0.14270169980E+04  0.14270169980E+04  0.25500000920E-02 0. -1.
    10030    2    1    2    0    0  0.00000000000E+00  0.00000000000E+00 -0.32511967199E+03  0.25289143240E+04  0.25079283995E+04 0.  0.
        4    1    3    3  502    0 -0.78217310332E+03  0.87615563226E+03 -0.60553198661E+03  0.13214060902E+04  0.12699999809E+01 0.  1.
       -4    1    3    3    0  502  0.78217310332E+03 -0.87615563226E+03  0.28041231462E+03  0.12075082338E+04  0.12699999809E+01 0. -1.
</event>
<event>
 5   0  0.1010338E-05  0.2477975E+04  0.7818609E-02  0.8410874E-01
       -1   -1    0    0    0  501  0.00000000000E+00  0.00000000000E+00  0.74422265518E+03  0.74422265520E+03  0.50400001928E-02 0.  1.
        1   -1    0    0  501    0  0.00000000000E+00  0.00000000000E+00 -0.20626763926E+04  0.20626763926E+04  0.50400001928E-02 0. -1.
    10030    2    1    2    0    0  0.00000000000E+00  0.00000000000E+00 -0.13184537374E+04  0.28068990478E+04  0.24779753846E+04 0.  0.
        2    1    3    3  502    0  0.10032244872E+04  0.24944421435E+03  0.11436720332E+03  0.10400777110E+04  0.25500000920E-02 0.  1.
       -2    1    3    3    0  502 -0.10032244872E+04 -0.24944421435E+03 -0.14328209407E+04  0.17668213368E+04  0.25500000920E-02 0. -1.
</event>
<event>
 5   0  0.1039688E-05  0.2466533E+04  0.7818609E-02  0.8415006E-01
       -1   -1    0    0    0  501  0.00000000000E+00  0.00000000000E+00  0.76554612647E+03  0.76554612648E+03  0.50400001928E-02 0.  1.
        1   -1    0    0  501    0  0.00000000000E+00  0.00000000000E+00 -0.19867467427E+04  0.19867467427E+04  0.50400001928E-02 0. -1.
    10030    2    1    2    0    0  0.00000000000E+00  0.00000000000E+00 -0.12212006163E+04  0.27522928692E+04  0.24665330107E+04 0.  0.
        3    1    3    3  502    0 -0.10178870623E+04 -0.68557081761E+03 -0.74655542356E+03  0.14364701279E+04  0.10100000352E+00 0.  1.
       -3    1    3    3    0  502  0.10178870623E+04  0.68557081761E+03 -0.47464519272E+03  0.13158227414E+04  0.10100000352E+00 0. -1.
</event>
<event>
 5   0  0.1002753E-05  0.2509250E+04  0.7818609E-02  0.8399698E-01
       -1   -1    0    0    0  501  0.00000000000E+00  0.00000000000E+00  0.12824024359E+04  0.12824024359E+04  0.50400001928E-02 0. -1.
        1   -1    0    0  501    0  0.00000000000E+00  0.00000000000E+00 -0.12274494134E+04  0.12274494134E+04  0.50400001928E-02 0.  1.
    10030    2    1    2    0    0  0.00000000000E+00  0.00000000000E+00  0.54953022502E+02  0.25098518493E+04  0.25092501810E+04 0.  0.
        5    1    3    3  502    0  0.85266131682E+03  0.32662042260E+03 -0.83316562745E+03  0.12360822280E+04  0.46999998093E+01 0.  1.
       -5    1    3    3    0  502 -0.85266131682E+03 -0.32662042260E+03  0.88811864995E+03  0.12737696213E+04  0.46999998093E+01 0. -1.
</event>
<event>
 5   0  0.2432309E-05  0.2457364E+04  0.7818609E-02  0.8418334E-01
       -2   -1    0    0    0  501  0.00000000000E+00  0.00000000000E+00  0.69052098394E+03  0.69052098394E+03  0.25500000920E-02 0. -1.
        2   -1    0    0  501    0  0.00000000000E+00  0.00000000000E+00 -0.21862616305E+04  0.21862616305E+04  0.25500000920E-02 0.  1.
    10030    2    1    2    0    0  0.00000000000E+00  0.00000000000E+00 -0.14957406466E+04  0.28767826145E+04  0.24573640612E+04 0.  0.
        4    1    3    3  502    0 -0.30544016190E+03  0.30069991195E+03  0.60016136029E+03  0.73750213616E+03  0.12699999809E+01 0. -1.
       -4    1    3    3    0  502  0.30544016190E+03 -0.30069991195E+03 -0.20959020069E+04  0.21392804783E+04  0.12699999809E+01 0.  1.
</event>
<event>
 5   0  0.2345143E-05  0.2501644E+04  0.7818609E-02  0.8402400E-01
       -2   -1    0    0    0  501  0.00000000000E+00  0.00000000000E+00  0.75940014305E+03  0.75940014305E+03  0.25500000920E-02 0. -1.
        2   -1    0    0  501    0  0.00000000000E+00  0.00000000000E+00 -0.20602519005E+04  0.20602519005E+04  0.25500000920E-02 0.  1.
    10030    2    1    2    0    0  0.00000000000E+00  0.00000000000E+00 -0.13008517574E+04  0.28196520435E+04  0.25016439299E+04 0.  0.
        5    1    3    3  502    0 -0.42338594901E+03 -0.56922936282E+03  0.51070200697E+03  0.87413749447E+03  0.46999998093E+01 0. -1.
       -5    1    3    3    0  502  0.42338594901E+03  0.56922936282E+03 -0.18115537644E+04  0.19455145491E+04  0.46999998093E+01 0.  1.
</event>
<event>
 5   0  0.2452457E-05  0.2326112E+04  0.7818609E-02  0.8467696E-01
        2   -1    0    0  501    0  0.00000000000E+00  0.00000000000E+00  0.18372817841E+04  0.18372817841E+04  0.25500000920E-02 0. -1.
       -2   -1    0    0    0  501  0.00000000000E+00  0.00000000000E+00 -0.73625001746E+03  0.73625001746E+03  0.25500000920E-02 0.  1.
    10030    2    1    2    0    0  0.00000000000E+00  0.00000000000E+00  0.11010317666E+04  0.25735318015E+04  0.23261115585E+04 0.  0.
        1    1    3    3  502    0  0.67138220716E+03  0.49087400627E+03  0.14500043233E+04  0.16715932208E+04  0.50400001928E-02 0. -1.
       -1    1    3    3    0  502 -0.67138220716E+03 -0.49087400627E+03 -0.34897255669E+03  0.90193858076E+03  0.50400001928E-02 0.  1.
</event>
<event>
 5   0  0.2452457E-05  0.2488132E+04  0.7818609E-02  0.8407226E-01
        2   -1    0    0  501    0  0.00000000000E+00  0.00000000000E+00  0.11834684235E+04  0.11834684235E+04  0.25500000920E-02 0. -1.
       -2   -1    0    0    0  501  0.00000000000E+00  0.00000000000E+00 -0.13077659512E+04  0.13077659512E+04  0.25500000920E-02 0.  1.
    10030    2    1    2    0    0  0.00000000000E+00  0.00000000000E+00 -0.12429752763E+03  0.24912343747E+04  0.24881315951E+04 0.  0.
        1    1    3    3  502    0 -0.10946170258E+04 -0.96291406011E+02 -0.64617817494E+03  0.12747567226E+04  0.50400001928E-02 0.  1.
       -1    1    3    3    0  502  0.10946170258E+04  0.96291406011E+02  0.52188064732E+03  0.12164776521E+04  0.50400001928E-02 0. -1.
</event>
<event>
 5   0  0.8166500E-06  0.2262853E+04  0.7818609E-02  0.8492713E-01
       -3   -1    0    0    0  501  0.00000000000E+00  0.00000000000E+00  0.12473243672E+04  0.12473243713E+04  0.10100000352E+00 0.  1.
        3   -1    0    0  501    0  0.00000000000E+00  0.00000000000E+00 -0.10262978690E+04  0.10262978739E+04  0.10100000352E+00 0. -1.
    10030    2    1    2    0    0  0.00000000000E+00  0.00000000000E+00  0.22102649823E+03  0.22736222452E+04  0.22628533759E+04 0.  0.
        3    1    3    3  502    0  0.10127661271E+04  0.35839336470E+03  0.46714651147E+03  0.11714806467E+04  0.10100000352E+00 0.  1.
       -3    1    3    3    0  502 -0.10127661271E+04 -0.35839336470E+03 -0.24612001325E+03  0.11021415985E+04  0.10100000352E+00 0. -1.
</event>
<event>
 5   0  0.8166500E-06  0.2541074E+04  0.7818609E-02  0.8388497E-01
        3   -1    0    0  501    0  0.00000000000E+00  0.00000000000E+00  0.14396602209E+04  0.14396602244E+04  0.10100000352E+00 0.  1.
       -3   -1    0    0    0  501  0.00000000000E+00  0.00000000000E+00 -0.11212817229E+04  0.11212817274E+04  0.10100000352E+00 0. -1.
    10030    2    1    2    0    0  0.00000000000E+00  0.00000000000E+00  0.31837849804E+03  0.25609419518E+04  0.25410743422E+04 0.  0.
        3    1    3    3  502    0  0.10951280112E+04  0.64223304071E+03  0.10883810913E+03  0.12742112791E+04  0.10100000352E+00 0.  1.
       -3    1    3    3    0  502 -0.10951280112E+04 -0.64223304071E+03  0.20954038891E+03  0.12867306728E+04  0.10100000352E+00 0. -1.
</event>
<event>
 5   0  0.2432309E-05  0.2243920E+04  0.7818609E-02  0.8500367E-01
        2   -1    0    0  501    0  0.00000000000E+00  0.00000000000E+00  0.24233522377E+04  0.24233522377E+04  0.25500000920E-02 0. -1.
       -2   -1    0    0    0  501  0.00000000000E+00  0.00000000000E+00 -0.51944327997E+03  0.51944327998E+03  0.25500000920E-02 0.  1.
    10030    2    1    2    0    0  0.00000000000E+00  0.00000000000E+00  0.19039089578E+04  0.29427955177E+04  0.22439198158E+04 0.  0.
        4    1    3    3  502    0 -0.10529043117E+03  0.32631473170E+03 -0.44904637091E+03  0.56498817257E+03  0.12699999809E+01 0.  1.
       -4    1    3    3    0  502  0.10529043117E+03 -0.32631473170E+03  0.23529553287E+04  0.23778073451E+04  0.12699999809E+01 0. -1.
</event>
<event>
 5   0  0.1015327E-05  0.2492720E+04  0.7818609E-02  0.8405584E-01
        1   -1    0    0  501    0  0.00000000000E+00  0.00000000000E+00  0.19846715680E+04  0.19846715680E+04  0.50400001928E-02 0. -1.
       -1   -1    0    0    0  501  0.00000000000E+00  0.00000000000E+00 -0.78270549783E+03  0.78270549785E+03  0.50400001928E-02 0.  1.
    10030    2    1    2    0    0  0.00000000000E+00  0.00000000000E+00  0.12019660701E+04  0.27673770658E+04  0.24927200787E+04 0.  0.
        4    1    3    3  502    0 -0.97996037830E+03 -0.19291362199E+03  0.14287019870E+04  0.17431950520E+04  0.12699999809E+01 0. -1.
       -4    1    3    3    0  502  0.97996037830E+03  0.19291362199E+03 -0.22673591689E+03  0.10241820139E+04  0.12699999809E+01 0.  1.
</event>
<event>
 5   0  0.2432309E-05  0.2408614E+04  0.7818609E-02  0.8436285E-01
        2   -1    0    0  501    0  0.00000000000E+00  0.00000000000E+00  0.11733122415E+04  0.11733122415E+04  0.25500000920E-02 0. -1.
       -2   -1    0    0    0  501  0.00000000000E+00  0.00000000000E+00 -0.12361209633E+04  0.12361209633E+04  0.25500000920E-02 0.  1.
    10030    2    1    2    0    0  0.00000000000E+00  0.00000000000E+00 -0.62808721845E+02  0.24094332048E+04  0.24086144218E+04 0.  0.
        4    1    3    3  502    0  0.10458785392E+04 -0.59081169127E+03  0.54844853193E+02  0.12024682716E+04  0.12699999809E+01 0. -1.
       -4    1    3    3    0  502 -0.10458785392E+04  0.59081169127E+03 -0.11765357504E+03  0.12069649332E+04  0.12699999809E+01 0.  1.
</event>
<event>
 5   0  0.1039688E-05  0.2472162E+04  0.7818609E-02  0.8412970E-01
        1   -1    0    0  501    0  0.00000000000E+00  0.00000000000E+00  0.19401136274E+04  0.19401136274E+04  0.50400001928E-02 0. -1.
       -1   -1    0    0    0  501  0.00000000000E+00  0.00000000000E+00 -0.78752952114E+03  0.78752952115E+03  0.50400001928E-02 0.  1.
    10030    2    1    2    0    0  0.00000000000E+00  0.00000000000E+00  0.11525841062E+04  0.27276431485E+04  0.24721624186E+04 0.  0.
        3    1    3    3  502    0  0.68024729525E+03 -0.85454814477E+03  0.12148101394E+04  0.16336317209E+04  0.10100000352E+00 0. -1.
       -3    1    3    3    0  502 -0.68024729525E+03  0.85454814477E+03 -0.62226033195E+02  0.10940114277E+04  0.10100000352E+00 0.  1.
</event>
<event>
 5   0  0.1015327E-05  0.2512720E+04  0.7818609E-02  0.8398468E-01
       -1   -1    0    0    0  501  0.00000000000E+00  0.00000000000E+00  0.10199388072E+04  0.10199388072E+04  0.50400001928E-02 0. -1.
        1   -1    0    0  501    0  0.00000000000E+00  0.00000000000E+00 -0.15475832672E+04  0.15475832672E+04  0.50400001928E-02 0.  1.
    10030    2    1    2    0    0  0.00000000000E+00  0.00000000000E+00 -0.52764446005E+03  0.25675220744E+04  0.25127198265E+04 0.  0.
        4    1    3    3  502    0 -0.29594598799E+03 -0.64935478071E+03  0.79274750122E+03  0.10666282729E+04  0.12699999809E+01 0. -1.
       -4    1    3    3    0  502  0.29594598799E+03  0.64935478071E+03 -0.13203919613E+04  0.15008938015E+04  0.12699999809E+01 0.  1.
</event>
<event>
 5   0  0.1010338E-05  0.2485629E+04  0.7818609E-02  0.8408123E-01
       -1   -1    0    0    0  501  0.00000000000E+00  0.00000000000E+00  0.92341766242E+03  0.92341766243E+03  0.50400001928E-02 0.  1.
        1   -1    0    0  501    0  0.00000000000E+00  0.00000000000E+00 -0.16726862165E+04  0.16726862165E+04  0.50400001928E-02 0. -1.
    10030    2    1    2    0    0  0.00000000000E+00  0.00000000000E+00 -0.74926855413E+03  0.25961038790E+04  0.24856290923E+04 0.  0.
        2    1    3    3  502    0 -0.11871762324E+04 -0.12942960021E+03 -0.73409434324E+03  0.14017966803E+04  0.25500000920E-02 0. -1.
       -2    1    3    3    0  502  0.11871762324E+04  0.12942960021E+03 -0.15174210883E+02  0.11943071987E+04  0.25500000920E-02 0.  1.
</event>
<event>
 5   0  0.2452457E-05  0.2504074E+04  0.7818609E-02  0.8401536E-01
        2   -1    0    0  501    0  0.00000000000E+00  0.00000000000E+00  0.17059424832E+04  0.17059424832E+04  0.25500000920E-02 0.  1.
       -2   -1    0    0    0  501  0.00000000000E+00  0.00000000000E+00 -0.91890335060E+03  0.91890335061E+03  0.25500000920E-02 0. -1.
    10030    2    1    2    0    0  0.00000000000E+00  0.00000000000E+00  0.78703913259E+03  0.26248458338E+04  0.25040736920E+04 0.  0.
        1    1    3    3  502    0 -0.22356665535E+03 -0.49253418126E+03  0.15771494606E+04  0.16673249204E+04  0.50400001928E-02 0.  1.
       -1    1    3    3    0  502  0.22356665535E+03  0.49253418126E+03 -0.79011032802E+03  0.95752091339E+03  0.50400001928E-02 0. -1.
</event>
<event>
 5   0  0.1039688E-05  0.2497313E+04  0.7818609E-02  0.8403943E-01
       -1   -1    0    0    0  501  0.00000000000E+00  0.00000000000E+00  0.10026728391E+04  0.10026728391E+04  0.50400001928E-02 0. -1.
        1   -1    0    0  501    0  0.00000000000E+00  0.00000000000E+00 -0.15549871374E+04  0.15549871374E+04  0.50400001928E-02 0.  1.
    10030    2    1    2    0    0  0.00000000000E+00  0.00000000000E+00 -0.55231429838E+03  0.25576599765E+04  0.24973132505E+04 0.  0.
        3    1    3    3  502    0 -0.46816969093E+02 -0.15544851575E+03 -0.15441322662E+04  0.15526430805E+04  0.10100000352E+00 0.  1.
       -3    1    3    3    0  502  0.46816969093E+02  0.15544851575E+03  0.99181796786E+03  0.10050168960E+04  0.10100000352E+00 0. -1.
</event>
<event>
 5   0  0.2452457E-05  0.2467043E+04  0.7818609E-02  0.8414821E-01
        2   -1    0    0  501    0  0.00000000000E+00  0.00000000000E+00  0.17601558874E+04  0.17601558874E+04  0.25500000920E-02 0.  1.
       -2   -1    0    0    0  501  0.00000000000E+00  0.00000000000E+00 -0.86445501462E+03  0.86445501462E+03  0.25500000920E-02 0. -1.
    10030    2    1    2    0    0  0.00000000000E+00  0.00000000000E+00  0.89570087275E+03  0.26246109020E+04  0.24670432370E+04 0.  0.
        1    1    3    3  502    0  0.52147887372E+03 -0.11064751135E+04  0.61723025033E+03  0.13701096943E+04  0.50400001928E-02 0.  1.
       -1    1    3    3    0  502 -0.52147887372E+03  0.11064751135E+04  0.27847062242E+03  0.12545012077E+04  0.50400001928E-02 0. -1.
</event>
<event>
 5   0  0.2388326E-05  0.2469550E+04  0.7818609E-02  0.8413914E-01
        2   -1    0    0  501    0  0.00000000000E+00  0.00000000000E+00  0.12296303633E+04  0.12296303633E+04  0.25500000920E-02 0. -1.
       -2   -1    0    0    0  501  0.00000000000E+00  0.00000000000E+00 -0.12399413281E+04  0.12399413281E+04  0.25500000920E-02 0.  1.
    10030    2    1    2    0    0  0.00000000000E+00  0.00000000000E+00 -0.10310964882E+02  0.24695716914E+04  0.24695501661E+04 0.  0.
        2    1    3    3  502    0  0.28773865086E+01 -0.12096263262E+04 -0.25307976283E+03  0.12358209801E+04  0.25500000920E-02 0. -1.
       -2    1    3    3    0  502 -0.28773865086E+01  0.12096263262E+04  0.24276879794E+03  0.12337507113E+04  0.25500000920E-02 0.  1.
</event>
<event>
 5   0  0.2432309E-05  0.2489308E+04  0.7818609E-02  0.8406805E-01
       -2   -1    0    0    0  501  0.00000000000E+00  0.00000000000E+00  0.65096558013E+03  0.65096558013E+03  0.25500000920E-02 0.  1.
        2   -1    0    0  501    0  0.00000000000E+00  0.00000000000E+00 -0.23797927050E+04  0.23797927050E+04  0.25500000920E-02 0. -1.
    10030    2    1    2    0    0  0.00000000000E+00  0.00000000000E+00 -0.17288271249E+04  0.30307582851E+04  0.24893076457E+04 0.  0.
        4    1    3    3  502    0 -0.53589539450E+03 -0.22065511898E+03  0.47666695351E+03  0.75039026702E+03  0.12699999809E+01 0.  1.
       -4    1    3    3    0  502  0.53589539450E+03  0.22065511898E+03 -0.22054940784E+04  0.22803680181E+04  0.12699999809E+01 0. -1.
</event>
<event>
 5   0  0.1015327E-05  0.2517743E+04  0.7818609E-02  0.8396692E-01
       -1   -1    0    0    0  501  0.00000000000E+00  0.00000000000E+00  0.12417077338E+04  0.12417077338E+04  0.50400001928E-02 0.  1.
        1   -1    0    0  501    0  0.00000000000E+00  0.00000000000E+00 -0.12762724496E+04  0.12762724496E+04  0.50400001928E-02 0. -1.
    10030    2    1    2    0    0  0.00000000000E+00  0.00000000000E+00 -0.34564715813E+02  0.25179801834E+04  0.25177429345E+04 0.  0.
        4    1    3    3  502    0  0.88080992151E+03 -0.16491902304E+03 -0.90152140332E+03  0.12711281822E+04  0.12699999809E+01 0. -1.
       -4    1    3    3    0  502 -0.88080992151E+03  0.16491902304E+03  0.86695668750E+03  0.12468520012E+04  0.12699999809E+01 0.  1.
</event>
<event>
 5   0  0.1008073E-05  0.2498012E+04  0.7818609E-02  0.8403694E-01
        1   -1    0    0  501    0  0.00000000000E+00  0.00000000000E+00  0.23228317478E+04  0.23228317478E+04  0.50400001928E-02 0.  1.
       -1   -1    0    0    0  501  0.00000000000E+00  0.00000000000E+00 -0.67160094539E+03  0.67160094541E+03  0.50400001928E-02 0. -1.
    10030    2    1    2    0    0  0.00000000000E+00  0.00000000000E+00  0.16512308024E+04  0.29944326932E+04  0.24980120079E+04 0.  0.
        1    1    3    3  502    0 -0.83718176475E+03 -0.41666436578E+03  0.18181242199E+04  0.20445190583E+04  0.50400001928E-02 0.  1.
       -1    1    3    3    0  502  0.83718176475E+03  0.41666436578E+03 -0.16689341745E+03  0.94991363490E+03  0.50400001928E-02 0. -1.
</event>
<event>
 5   0  0.2432309E-05  0.2305158E+04  0.7818609E-02  0.8475890E-01
        2   -1    0    0  501    0  0.00000000000E+00  0.00000000000E+00  0.26156371525E+04  0.26156371525E+04  0.25500000920E-02 0.  1.
       -2   -1    0    0    0  501  0.00000000000E+00  0.00000000000E+00 -0.50788309576E+03  0.50788309577E+03  0.25500000920E-02 0. -1.
    10030    2    1    2    0    0  0.00000000000E+00  0.00000000000E+00  0.21077540567E+04  0.31235202483E+04  0.23051576036E+04 0.  0.
        4    1    3    3  502    0  0.25673649363E+01  0.12181165520E+03 -0.49913165940E+03  0.51378857229E+03  0.12699999809E+01 0. -1.
       -4    1    3    3    0  502 -0.25673649363E+01 -0.12181165520E+03  0.26068857161E+04  0.26097316760E+04  0.12699999809E+01 0.  1.
</event>
<event>
 5   0  0.2345143E-05  0.2506481E+04  0.7818609E-02  0.8400680E-01
       -2   -1    0    0    0  501  0.00000000000E+00  0.00000000000E+00  0.13674334767E+04  0.13674334767E+04  0.25500000920E-02 0.  1.
        2   -1    0    0  501    0  0.00000000000E+00  0.00000000000E+00 -0.11485840459E+04  0.11485840459E+04  0.25500000920E-02 0. -1.
    10030    2    1    2    0    0  0.00000000000E+00  0.00000000000E+00  0.21884943087E+03  0.25160175226E+04  0.25064814184E+04 0.  0.
        5    1    3    3  502    0 -0.70975273156E+03 -0.41279202920E+03  0.10598341766E+04  0.13406777284E+04  0.46999998093E+01 0.  1.
       -5    1    3    3    0  502  0.70975273156E+03  0.41279202920E+03 -0.84098474577E+03  0.11753397943E+04  0.46999998093E+01 0. -1.
</event>
<event>
 5   0  0.1010338E-05  0.2520393E+04  0.7818609E-02  0.8395756E-01
        1   -1    0    0  501    0  0.00000000000E+00  0.00000000000E+00  0.95964962752E+03  0.95964962753E+03  0.50400001928E-02 0. -1.
       -1   -1    0    0    0  501  0.00000000000E+00  0.00000000000E+00 -0.16548696168E+04  0.16548696168E+04  0.50400001928E-02 0.  1.
    10030    2    1    2    0    0  0.00000000000E+00  0.00000000000E+00 -0.69521998930E+03  0.26145192444E+04  0.25203928356E+04 0.  0.
        2    1    3    3  502    0 -0.46795189504E+02  0.12189195263E+04 -0.19342191407E+02  0.12199707873E+04  0.25500000920E-02 0. -1.
       -2    1    3    3    0  502  0.46795189504E+02 -0.12189195263E+04 -0.67587779790E+03  0.13945484571E+04  0.25500000920E-02 0.  1.
</event>
<event>
 5   0  0.1039688E-05  0.2506413E+04  0.7818609E-02  0.8400704E-01
       -1   -1    0    0    0  501  0.00000000000E+00  0.00000000000E+00  0.15210555100E+04  0.15210555101E+04  0.50400001928E-02 0. -1.
        1   -1    0    0  501    0  0.00000000000E+00  0.00000000000E+00 -0.10325243126E+04  0.10325243126E+04  0.50400001928E-02 0.  1.
    10030    2    1    2    0    0  0.00000000000E+00  0.00000000000E+00  0.48853119745E+03  0.25535798227E+04  0.25064132101E+04 0.  0.
        3    1    3    3  502    0 -0.12456616259E+04  0.13513839399E+03  0.21948687483E+03  0.12720494370E+04  0.10100000352E+00 0.  1.
       -3    1    3    3    0  502  0.12456616259E+04 -0.13513839399E+03  0.26904432263E+03  0.12815303857E+04  0.10100000352E+00 0. -1.
</event>
<event>
 5   0  0.2388326E-05  0.2473593E+04  0.7818609E-02  0.8412454E-01
       -2   -1    0    0    0  501  0.00000000000E+00  0.00000000000E+00  0.86006518319E+03  0.86006518320E+03  0.25500000920E-02 0. -1.
        2   -1    0    0  501    0  0.00000000000E+00  0.00000000000E+00 -0.17785465190E+04  0.17785465190E+04  0.25500000920E-02 0.  1.
    10030    2    1    2    0    0  0.00000000000E+00  0.00000000000E+00 -0.91848133582E+03  0.26386117022E+04  0.24735932873E+04 0.  0.
        2    1    3    3  502    0  0.12099471190E+04 -0.23477824019E+03 -0.34955546385E+03  0.12811252379E+04  0.25500000920E-02 0.  1.
       -2    1    3    3    0  502 -0.12099471190E+04  0.23477824019E+03 -0.56892587197E+03  0.13574864643E+04  0.25500000920E-02 0. -1.
</event>
<event>
 5   0  0.2432309E-05  0.2429868E+04  0.7818609E-02  0.8428405E-01
        2   -1    0    0  501    0  0.00000000000E+00  0.00000000000E+00  0.16243970077E+04  0.16243970077E+04  0.25500000920E-02 0.  1.
       -2   -1    0    0    0  501  0.00000000000E+00  0.00000000000E+00 -0.90868444481E+03  0.90868444482E+03  0.25500000920E-02 0. -1.
    10030    2    1    2    0    0  0.00000000000E+00  0.00000000000E+00  0.71571256284E+03  0.25330814525E+04  0.24298677273E+04 0.  0.
        4    1    3    3  502    0  0.67624555384E+02 -0.38574042184E+03 -0.84108027339E+03  0.92778574720E+03  0.12699999809E+01 0. -1.
       -4    1    3    3    0  502 -0.67624555384E+02  0.38574042184E+03  0.15567928362E+04  0.16052957053E+04  0.12699999809E+01 0.  1.
</event>
<event>
 5   0  0.1008073E-05  0.2243385E+04  0.7818609E-02  0.8500584E-01
        1   -1    0    0  501    0  0.00000000000E+00  0.00000000000E+00  0.17258018379E+04  0.17258018380E+04  0.50400001928E-02 0.  1.
       -1   -1    0    0    0  501  0.00000000000E+00  0.00000000000E+00 -0.72904903352E+03  0.72904903354E+03  0.50400001928E-02 0. -1.
    10030    2    1    2    0    0  0.00000000000E+00  0.00000000000E+00  0.99675280442E+03  0.24548508715E+04  0.22433850869E+04 0.  0.
        1    1    3    3  502    0 -0.35773217755E+03  0.30585094339E+03  0.16125247701E+04  0.16798075023E+04  0.50400001928E-02 0.  1.
       -1    1    3    3    0  502  0.35773217755E+03 -0.30585094339E+03 -0.61577196569E+03  0.77504336923E+03  0.50400001928E-02 0. -1.
</event>
<event>
 5   0  0.1008073E-05  0.2346048E+04  0.7818609E-02  0.8459983E-01
       -1   -1    0    0    0  501  0.00000000000E+00  0.00000000000E+00  0.14592650545E+04  0.14592650545E+04  0.50400001928E-02 0. -1.
        1   -1    0    0  501    0  0.00000000000E+00  0.00000000000E+00 -0.94292999110E+03  0.94292999111E+03  0.50400001928E-02 0.  1.
    10030    2    1    2    0    0  0.00000000000E+00  0.00000000000E+00  0.51633506339E+03  0.24021950456E+04  0.23460475569E+04 0.  0.
        1    1    3    3  502    0  0.71182805051E+03  0.17195552572E+02  0.12126738904E+04  0.14062620044E+04  0.50400001928E-02 0. -1.
       -1    1    3    3    0  502 -0.71182805051E+03 -0.17195552572E+02 -0.69633882702E+03  0.99593304120E+03  0.50400001928E-02 0.  1.
</event>
<event>
 5   0  0.2441340E-05  0.2468042E+04  0.7818609E-02  0.8414460E-01
        2   -1    0    0  501    0  0.00000000000E+00  0.00000000000E+00  0.15948704187E+04  0.15948704187E+04  0.25500000920E-02 0.  1.
       -2   -1    0    0    0  501  0.00000000000E+00  0.00000000000E+00 -0.95481593111E+03  0.95481593112E+03  0.25500000920E-02 0. -1.
    10030    2    1    2    0    0  0.00000000000E+00  0.00000000000E+00  0.64005448758E+03  0.25496863498E+04  0.24680418828E+04 0.  0.
        3    1    3    3  502    0  0.41036992527E+03  0.10297649118E+04  0.88017080584E+03  0.14154574903E+04  0.10100000352E+00 0.  1.
       -3    1    3    3    0  502 -0.41036992527E+03 -0.10297649118E+04 -0.24011631826E+03  0.11342288595E+04  0.10100000352E+00 0. -1.
</event>
<event>
 5   0  0.1015327E-05  0.2499751E+04  0.7818609E-02  0.8403074E-01
        1   -1    0    0  501    0  0.00000000000E+00  0.00000000000E+00  0.89354705778E+03  0.89354705779E+03  0.50400001928E-02 0.  1.
       -1   -1    0    0    0  501  0.00000000000E+00  0.00000000000E+00 -0.17483002877E+04  0.17483002877E+04  0.50400001928E-02 0. -1.
    10030    2    1    2    0    0  0.00000000000E+00  0.00000000000E+00 -0.85475322991E+03  0.26418473455E+04  0.24997508501E+04 0.  0.
        4    1    3    3  502    0  0.66994554842E+03 -0.34802670801E+03 -0.14801109242E+04  0.16615292920E+04  0.12699999809E+01 0. -1.
       -4    1    3    3    0  502 -0.66994554842E+03  0.34802670801E+03  0.62535769427E+03  0.98031805350E+03  0.12699999809E+01 0.  1.
</event>
<event>
 5   0  0.1039688E-05  0.2553004E+04  0.7818609E-02  0.8384342E-01
        1   -1    0    0  501    0  0.00000000000E+00  0.00000000000E+00  0.16926772250E+04  0.16926772250E+04  0.50400001928E-02 0.  1.
       -1   -1    0    0    0  501  0.00000000000E+00  0.00000000000E+00 -0.96265091229E+03  0.96265091230E+03  0.50400001928E-02 0. -1.
    10030    2    1    2    0    0  0.00000000000E+00  0.00000000000E+00  0.73002631268E+03  0.26553281373E+04  0.25530039364E+04 0.  0.
        3    1    3    3  502    0  0.54754471119E+03 -0.11488589414E+04  0.46784538431E+03  0.13559356149E+04  0.10100000352E+00 0.  1.
       -3    1    3    3    0  502 -0.54754471119E+03  0.11488589414E+04  0.26218092837E+03  0.12993925224E+04  0.10100000352E+00 0. -1.
</event>
<event>
 5   0  0.1008073E-05  0.2501204E+04  0.7818609E-02  0.8402557E-01
        1   -1    0    0  501    0  0.00000000000E+00  0.00000000000E+00  0.14579987164E+04  0.14579987164E+04  0.50400001928E-02 0.  1.
       -1   -1    0    0    0  501  0.00000000000E+00  0.00000000000E+00 -0.10727065654E+04  0.10727065654E+04  0.50400001928E-02 0. -1.
    10030    2    1    2    0    0  0.00000000000E+00  0.00000000000E+00  0.38529215103E+03  0.25307052818E+04  0.25012035466E+04 0.  0.
        1    1    3    3  502    0  0.79567812313E+03 -0.96461468751E+03  0.21337242890E+03  0.12685081649E+04  0.50400001928E-02 0. -1.
       -1    1    3    3    0  502 -0.79567812313E+03  0.96461468751E+03  0.17191972213E+03  0.12621971169E+04  0.50400001928E-02 0.  1.
</event>
<event>
 5   0  0.1039688E-05  0.2332541E+04  0.7818609E-02  0.8465200E-01
        1   -1    0    0  501    0  0.00000000000E+00  0.00000000000E+00  0.10250469763E+04  0.10250469763E+04  0.50400001928E-02 0. -1.
       -1   -1    0    0    0  501  0.00000000000E+00  0.00000000000E+00 -0.13269511109E+04  0.13269511109E+04  0.50400001928E-02 0.  1.
    10030    2    1    2    0    0  0.00000000000E+00  0.00000000000E+00 -0.30190413458E+03  0.23519980872E+04  0.23325412957E+04 0.  0.
        3    1    3    3  502    0  0.89893716783E+03 -0.70103944705E+03  0.97359823477E+02  0.11441255541E+04  0.10100000352E+00 0. -1.
       -3    1    3    3    0  502 -0.89893716783E+03  0.70103944705E+03 -0.39926395805E+03  0.12078725332E+04  0.10100000352E+00 0.  1.
</event>
<event>
 5   0  0.8166500E-06  0.2493114E+04  0.7818609E-02  0.8405443E-01
        4   -1    0    0  501    0  0.00000000000E+00  0.00000000000E+00  0.20654355683E+04  0.20654359588E+04  0.12699999809E+01 0.  1.
       -4   -1    0    0    0  501  0.00000000000E+00  0.00000000000E+00 -0.75233617858E+03  0.75233725051E+03  0.12699999809E+01 0. -1.
    10030    2    1    2    0    0  0.00000000000E+00  0.00000000000E+00  0.13130993897E+04  0.28177732093E+04  0.24931136861E+04 0.  0.
        2    1    3    3  502    0 -0.83234466291E+03 -0.69921895871E+03 -0.32977905279E+02  0.10875625648E+04  0.25500000920E-02 0.  1.
       -2    1    3    3    0  502  0.83234466291E+03  0.69921895871E+03  0.13460772950E+04  0.17302106445E+04  0.25500000920E-02 0. -1.
</event>
<event>
 5   0  0.1015327E-05  0.2492501E+04  0.7818609E-02  0.8405662E-01
       -1   -1    0    0    0  501  0.00000000000E+00  0.00000000000E+00  0.15466997019E+04  0.15466997019E+04  0.50400001928E-02 0. -1.
        1   -1    0    0  501    0  0.00000000000E+00  0.00000000000E+00 -0.10041640267E+04  0.10041640267E+04  0.50400001928E-02 0.  1.
    10030    2    1    2    0    0  0.00000000000E+00  0.00000000000E+00  0.54253567520E+03  0.25508637287E+04  0.24925009134E+04 0.  0.
        4    1    3    3  502    0 -0.18672754078E+02 -0.43910689360E+03 -0.92221836638E+03  0.10215928073E+04  0.12699999809E+01 0.  1.
       -4    1    3    3    0  502  0.18672754078E+02  0.43910689360E+03  0.14647540416E+04  0.15292709214E+04  0.12699999809E+01 0. -1.
</event>
<event>
 5   0  0.1008073E-05  0.2096440E+04  0.7818609E-02  0.8562813E-01
        1   -1    0    0  501    0  0.00000000000E+00  0.00000000000E+00  0.76113266906E+03  0.76113266908E+03  0.50400001928E-02 0.  1.
       -1   -1    0    0    0  501  0.00000000000E+00  0.00000000000E+00 -0.14435925347E+04  0.14435925347E+04  0.50400001928E-02 0. -1.
    10030    2    1    2    0    0  0.00000000000E+00  0.00000000000E+00 -0.68245986564E+03  0.22047252038E+04  0.20964402582E+04 0.  0.
        1    1    3    3  502    0 -0.40849114808E+03 -0.47062910929E+03  0.54516262315E+03  0.82798494085E+03  0.50400001928E-02 0.  1.
       -1    1    3    3    0  502  0.40849114808E+03  0.47062910929E+03 -0.12276224888E+04  0.13767402629E+04  0.50400001928E-02 0. -1.
</event>
<event>
 5   0  0.1039688E-05  0.2215858E+04  0.7818609E-02  0.8511857E-01
        1   -1    0    0  501    0  0.00000000000E+00  0.00000000000E+00  0.11935509717E+04  0.11935509717E+04  0.50400001928E-02 0.  1.
       -1   -1    0    0    0  501  0.00000000000E+00  0.00000000000E+00 -0.10284491539E+04  0.10284491540E+04  0.50400001928E-02 0. -1.
    10030    2    1    2    0    0  0.00000000000E+00  0.00000000000E+00  0.16510181771E+03  0.22220001256E+04  0.22158578357E+04 0.  0.
        3    1    3    3  502    0  0.79184195846E+02 -0.57002396557E+03  0.10319112134E+04  0.11815406133E+04  0.10100000352E+00 0.  1.
       -3    1    3    3    0  502 -0.79184195846E+02  0.57002396557E+03 -0.86680939571E+03  0.10404595124E+04  0.10100000352E+00 0. -1.
</event>
<event>
 5   0  0.2345143E-05  0.2494028E+04  0.7818609E-02  0.8405116E-01
       -2   -1    0    0    0  501  0.00000000000E+00  0.00000000000E+00  0.99430723861E+03  0.99430723861E+03  0.25500000920E-02 0. -1.
        2   -1    0    0  501    0  0.00000000000E+00  0.00000000000E+00 -0.15639467308E+04  0.15639467309E+04  0.25500000920E-02 0.  1.
    10030    2    1    2    0    0  0.00000000000E+00  0.00000000000E+00 -0.56963949224E+03  0.25582539695E+04  0.24940277106E+04 0.  0.
        5    1    3    3  502    0 -0.13635070634E+02  0.10099581250E+04 -0.10349665395E+04  0.14461601423E+04  0.46999998093E+01 0.  1.
       -5    1    3    3    0  502  0.13635070634E+02 -0.10099581250E+04  0.46532704722E+03  0.11120938271E+04  0.46999998093E+01 0. -1.
</event>
<event>
 5   0  0.2432309E-05  0.2527559E+04  0.7818609E-02  0.8393233E-01
       -2   -1    0    0    0  501  0.00000000000E+00  0.00000000000E+00  0.14300486037E+04  0.14300486037E+04  0.25500000920E-02 0.  1.
        2   -1    0    0  501    0  0.00000000000E+00  0.00000000000E+00 -0.11168422185E+04  0.11168422185E+04  0.25500000920E-02 0. -1.
    10030    2    1    2    0    0  0.00000000000E+00  0.00000000000E+00  0.31320638516E+03  0.25468908222E+04  0.25275590241E+04 0.  0.
        4    1    3    3  502    0 -0.56146388062E+03  0.43884797195E+03  0.12082849268E+04  0.14027769990E+04  0.12699999809E+01 0.  1.
       -4    1    3    3    0  502  0.56146388062E+03 -0.43884797195E+03 -0.89507854165E+03  0.11441138232E+04  0.12699999809E+01 0. -1.
</event>
<event>
 5   0  0.1002753E-05  0.2496062E+04  0.7818609E-02  0.8404390E-01
       -1   -1    0    0    0  501  0.00000000000E+00  0.00000000000E+00  0.11398204344E+04  0.11398204344E+04  0.50400001928E-02 0. -1.
        1   -1    0    0  501    0  0.00000000000E+00  0.00000000000E+00 -0.13665151386E+04  0.13665151386E+04  0.50400001928E-02 0.  1.
    10030    2    1    2    0    0  0.00000000000E+00  0.00000000000E+00 -0.22669470421E+03  0.25063355730E+04  0.24960624022E+04 0.  0.
        5    1    3    3  502    0  0.33312400759E+03  0.10965549026E+03 -0.13160097209E+04  0.13619469911E+04  0.46999998093E+01 0.  1.
       -5    1    3    3    0  502 -0.33312400759E+03 -0.10965549026E+03  0.10893150167E+04  0.11443885820E+04  0.46999998093E+01 0. -1.
</event>
<event>
 5   0  0.2432309E-05  0.2475775E+04  0.7818609E-02  0.8411667E-01
       -2   -1    0    0    0  501  0.00000000000E+00  0.00000000000E+00  0.18794348484E+04  0.18794348484E+04  0.25500000920E-02 0. -1.
        2   -1    0    0  501    0  0.00000000000E+00  0.00000000000E+00 -0.81533332447E+03  0.81533332448E+03  0.25500000920E-02 0.  1.
    10030    2    1    2    0    0  0.00000000000E+00  0.00000000000E+00  0.10641015239E+04  0.26947681729E+04  0.24757753235E+04 0.  0.
        4    1    3    3  502    0  0.22596870904E+03 -0.11094940817E+04 -0.12530295428E+02  0.11323416427E+04  0.12699999809E+01 0.  1.
       -4    1    3    3    0  502 -0.22596870904E+03  0.11094940817E+04  0.10766318193E+04  0.15624265301E+04  0.12699999809E+01 0. -1.
</event>
<event>
 5   0  0.1002753E-05  0.2495823E+04  0.7818609E-02  0.8404475E-01
       -1   -1    0    0    0  501  0.00000000000E+00  0.00000000000E+00  0.18323944700E+04  0.18323944700E+04  0.50400001928E-02 0.  1.
        1   -1    0    0  501    0  0.00000000000E+00  0.00000000000E+00 -0.84986224705E+03  0.84986224707E+03  0.50400001928E-02 0. -1.
    10030    2    1    2    0    0  0.00000000000E+00  0.00000000000E+00  0.98253222298E+03  0.26822567171E+04  0.24958228157E+04 0.  0.
        5    1    3    3  502    0  0.99971685134E+03 -0.72602033544E+03  0.30289787648E+03  0.12721275580E+04  0.46999998093E+01 0. -1.
       -5    1    3    3    0  502 -0.99971685134E+03  0.72602033544E+03  0.67963434650E+03  0.14101291591E+04  0.46999998093E+01 0.  1.
</event>
<event>
 5   0  0.2388326E-05  0.2446625E+04  0.7818609E-02  0.8422251E-01
        2   -1    0    0  501    0  0.00000000000E+00  0.00000000000E+00  0.11557173079E+04  0.11557173079E+04  0.25500000920E-02 0. -1.
       -2   -1    0    0    0  501  0.00000000000E+00  0.00000000000E+00 -0.12948611918E+04  0.12948611918E+04  0.25500000920E-02 0.  1.
    10030    2    1    2    0    0  0.00000000000E+00  0.00000000000E+00 -0.13914388392E+03  0.24505784997E+04  0.24466250148E+04 0.  0.
        2    1    3    3  502    0  0.23749733277E+03 -0.22562355007E+02 -0.12713354879E+04  0.12935254020E+04  0.25500000920E-02 0.  1.
       -2    1    3    3    0  502 -0.23749733277E+03  0.22562355007E+02  0.11321916039E+04  0.11570530977E+04  0.25500000920E-02 0. -1.
</event>
<event>
 5   0  0.2452457E-05  0.2486590E+04  0.7818609E-02  0.8407779E-01
        2   -1    0    0  501    0  0.00000000000E+00  0.00000000000E+00  0.19707826428E+04  0.19707826428E+04  0.25500000920E-02 0.  1.
       -2   -1    0    0    0  501  0.00000000000E+00  0.00000000000E+00 -0.78434941110E+03  0.78434941111E+03  0.25500000920E-02 0. -1.
    10030    2    1    2    0    0  0.00000000000E+00  0.00000000000E+00  0.11864332316E+04  0.27551320539E+04  0.24865897975E+04 0.  0.
        1    1    3    3  502    0  0.88070974375E+03 -0.83561817987E+03  0.29616861983E+03  0.12496492495E+04  0.50400001928E-02 0.  1.
       -1    1    3    3    0  502 -0.88070974375E+03  0.83561817987E+03  0.89026461181E+03  0.15054828044E+04  0.50400001928E-02 0. -1.
</event>
<event>
 5   0  0.1015327E-05  0.2480528E+04  0.7818609E-02  0.8409955E-01
        1   -1    0    0  501    0  0.00000000000E+00  0.00000000000E+00  0.15020788111E+04  0.15020788111E+04  0.50400001928E-02 0.  1.
       -1   -1    0    0    0  501  0.00000000000E+00  0.00000000000E+00 -0.10240843295E+04  0.10240843295E+04  0.50400001928E-02 0. -1.
    10030    2    1    2    0    0  0.00000000000E+00  0.00000000000E+00  0.47799448160E+03  0.25261631406E+04  0.24805284696E+04 0.  0.
        4    1    3    3  502    0  0.40625653137E+03  0.57675650953E+03  0.12778428701E+04  0.14596494285E+04  0.12699999809E+01 0.  1.
       -4    1    3    3    0  502 -0.40625653137E+03 -0.57675650953E+03 -0.79984838853E+03  0.10665137121E+04  0.12699999809E+01 0. -1.
</event>
<event>
 5   0  0.2452457E-05  0.2469379E+04  0.7818609E-02  0.8413976E-01
       -2   -1    0    0    0  501  0.00000000000E+00  0.00000000000E+00  0.13498214934E+04  0.13498214934E+04  0.25500000920E-02 0.  1.
        2   -1    0    0  501    0  0.00000000000E+00  0.00000000000E+00 -0.11293773363E+04  0.11293773363E+04  0.25500000920E-02 0. -1.
    10030    2    1    2    0    0  0.00000000000E+00  0.00000000000E+00  0.22044415711E+03  0.24791988296E+04  0.24693787094E+04 0.  0.
        1    1    3    3  502    0  0.11500795485E+04 -0.42366857670E+03  0.26007976660E+03  0.12529243855E+04  0.50400001928E-02 0.  1.
       -1    1    3    3    0  502 -0.11500795485E+04  0.42366857670E+03 -0.39635609491E+02  0.12262744441E+04  0.50400001928E-02 0. -1.
</event>
<event>
 5   0  0.1010338E-05  0.2509428E+04  0.7818609E-02  0.8399635E-01
        1   -1    0    0  501    0  0.00000000000E+00  0.00000000000E+00  0.10018944752E+04  0.10018944752E+04  0.50400001928E-02 0. -1.
       -1   -1    0    0    0  501  0.00000000000E+00  0.00000000000E+00 -0.15713301030E+04  0.15713301030E+04  0.50400001928E-02 0.  1.
    10030    2    1    2    0    0  0.00000000000E+00  0.00000000000E+00 -0.56943562780E+03  0.25732245781E+04  0.25094277825E+04 0.  0.
        2    1    3    3  502    0 -0.59056168008E+03  0.22754579937E+03  0.82623059763E+03  0.10407675962E+04  0.25500000920E-02 0. -1.
       -2    1    3    3    0  502  0.59056168008E+03 -0.22754579937E+03 -0.13956662254E+04  0.15324569820E+04  0.25500000920E-02 0.  1.
</event>
<event>
 5   0  0.2432309E-05  0.2493432E+04  0.7818609E-02  0.8405329E-01
        2   -1    0    0  501    0  0.00000000000E+00  0.00000000000E+00  0.23879662858E+04  0.23879662858E+04  0.25500000920E-02 0. -1.
       -2   -1    0    0    0  501  0.00000000000E+00  0.00000000000E+00 -0.65088900706E+03  0.65088900707E+03  0.25500000920E-02 0.  1.
    10030    2    1    2    0    0  0.00000000000E+00  0.00000000000E+00  0.17370772788E+04  0.30388552929E+04  0.24934321765E+04 0.  0.
        4    1    3    3  502    0 -0.85353989753E+03 -0.25400811208E+03  0.19318875818E+04  0.21272615540E+04  0.12699999809E+01 0.  1.
       -4    1    3    3    0  502  0.85353989753E+03  0.25400811208E+03 -0.19481030302E+03  0.91159373887E+03  0.12699999809E+01 0. -1.
</event>
<event>
 5   0  0.2441340E-05  0.2537483E+04  0.7818609E-02  0.8389752E-01
        2   -1    0    0  501    0  0.00000000000E+00  0.00000000000E+00  0.15789510576E+04  0.15789510576E+04  0.25500000920E-02 0. -1.
       -2   -1    0    0    0  501  0.00000000000E+00  0.00000000000E+00 -0.10194774505E+04  0.10194774505E+04  0.25500000920E-02 0.  1.
    10030    2    1    2    0    0  0.00000000000E+00  0.00000000000E+00  0.55947360705E+03  0.25984285081E+04  0.25374830038E+04 0.  0.
        3    1    3    3  502    0  0.36007929716E+03  0.20473555558E+03  0.15077609055E+04  0.15636229425E+04  0.10100000352E+00 0. -1.
       -3    1    3    3    0  502 -0.36007929716E+03 -0.20473555558E+03 -0.94828729844E+03  0.10348055656E+04  0.10100000352E+00 0.  1.
</event>
<event>
 5   0  0.1010338E-05  0.2540069E+04  0.7818609E-02  0.8388848E-01
        1   -1    0    0  501    0  0.00000000000E+00  0.00000000000E+00  0.81575162911E+03  0.81575162913E+03  0.50400001928E-02 0.  1.
       -1   -1    0    0    0  501  0.00000000000E+00  0.00000000000E+00 -0.19773026669E+04  0.19773026669E+04  0.50400001928E-02 0. -1.
    10030    2    1    2    0    0  0.00000000000E+00  0.00000000000E+00 -0.11615510378E+04  0.27930542960E+04  0.25400691894E+04 0.  0.
        2    1    3    3  502    0  0.66419976996E+03  0.30770236380E+03  0.56044895440E+03  0.92192467674E+03  0.25500000920E-02 0.  1.
       -2    1    3    3    0  502 -0.66419976996E+03 -0.30770236380E+03 -0.17219999921E+04  0.18711296193E+04  0.25500000920E-02 0. -1.
</event>
<event>
 5   0  0.1015327E-05  0.2484914E+04  0.7818609E-02  0.8408380E-01
        1   -1    0    0  501    0  0.00000000000E+00  0.00000000000E+00  0.96157562893E+03  0.96157562894E+03  0.50400001928E-02 0. -1.
       -1   -1    0    0    0  501  0.00000000000E+00  0.00000000000E+00 -0.16053859098E+04  0.16053859098E+04  0.50400001928E-02 0.  1.
    10030    2    1    2    0    0  0.00000000000E+00  0.00000000000E+00 -0.64381028089E+03  0.25669615388E+04  0.24849144580E+04 0.  0.
        4    1    3    3  502    0  0.30597543870E+03 -0.10177672382E+04  0.34295032383E+03  0.11167307902E+04  0.12699999809E+01 0. -1.
       -4    1    3    3    0  502 -0.30597543870E+03  0.10177672382E+04 -0.98676060472E+03  0.14502307486E+04  0.12699999809E+01 0.  1.
</event>
<event>
 5   0  0.1002753E-05  0.2557546E+04  0.7818609E-02  0.8382766E-01
        1   -1    0    0  501    0  0.00000000000E+00  0.00000000000E+00  0.18638990921E+04  0.18638990921E+04  0.50400001928E-02 0.  1.
       -1   -1    0    0    0  501  0.00000000000E+00  0.00000000000E+00 -0.87733324747E+03  0.87733324749E+03  0.50400001928E-02 0. -1.
    10030    2    1    2    0    0  0.00000000000E+00  0.00000000000E+00  0.98656584462E+03  0.27412323396E+04  0.25575462017E+04 0.  0.
        5    1    3    3  502    0  0.37759032998E+03  0.77027211963E+03 -0.52316588571E+03  0.10047976063E+04  0.46999998093E+01 0. -1.
       -5    1    3    3    0  502 -0.37759032998E+03 -0.77027211963E+03  0.15097317303E+04  0.17364347333E+04  0.46999998093E+01 0.  1.
</event>
<event>
 5   0  0.1039688E-05  0.2514134E+04  0.7818609E-02  0.8397968E-01
       -1   -1    0    0    0  501  0.00000000000E+00  0.00000000000E+00  0.79084585947E+03  0.79084585949E+03  0.50400001928E-02 0. -1.
        1   -1    0    0  501    0  0.00000000000E+00  0.00000000000E+00 -0.19981354534E+04  0.19981354534E+04  0.50400001928E-02 0.  1.
    10030    2    1    2    0    0  0.00000000000E+00  0.00000000000E+00 -0.12072895939E+04  0.27889813129E+04  0.25141337673E+04 0.  0.
        3    1    3    3  502    0 -0.36170800699E+03 -0.58885153194E+02 -0.19375620955E+04  0.19719145589E+04  0.10100000352E+00 0.  1.
       -3    1    3    3    0  502  0.36170800699E+03  0.58885153194E+02  0.73027250161E+03  0.81706675394E+03  0.10100000352E+00 0. -1.
</event>
<event>
 5   0  0.2441340E-05  0.2510011E+04  0.7818609E-02  0.8399428E-01
       -2   -1    0    0    0  501  0.00000000000E+00  0.00000000000E+00  0.76711383241E+03  0.76711383241E+03  0.25500000920E-02 0. -1.
        2   -1    0    0  501    0  0.00000000000E+00  0.00000000000E+00 -0.20532004023E+04  0.20532004023E+04  0.25500000920E-02 0.  1.
    10030    2    1    2    0    0  0.00000000000E+00  0.00000000000E+00 -0.12860865699E+04  0.28203142347E+04  0.25100107006E+04 0.  0.
        3    1    3    3  502    0 -0.82606864214E+03 -0.94433019061E+03 -0.60953154146E+03  0.13948754857E+04  0.10100000352E+00 0. -1.
       -3    1    3    3    0  502  0.82606864214E+03  0.94433019061E+03 -0.67655502843E+03  0.14254387490E+04  0.10100000352E+00 0.  1.
</event>
<event>
 5   0  0.2345143E-05  0.2371116E+04  0.7818609E-02  0.8450397E-01
       -2   -1    0    0    0  501  0.00000000000E+00  0.00000000000E+00  0.10329919235E+04  0.10329919235E+04  0.25500000920E-02 0. -1.
        2   -1    0    0  501    0  0.00000000000E+00  0.00000000000E+00 -0.13606566985E+04  0.13606566985E+04  0.25500000920E-02 0.  1.
    10030    2    1    2    0    0  0.00000000000E+00  0.00000000000E+00 -0.32766477499E+03  0.23936486220E+04  0.23711156701E+04 0.  0.
        5    1    3    3  502    0  0.99342120025E+03  0.52692121506E+02  0.48717044251E+03  0.11077090190E+04  0.46999998093E+01 0. -1.
       -5    1    3    3    0  502 -0.99342120025E+03 -0.52692121506E+02 -0.81483521751E+03  0.12859396030E+04  0.46999998093E+01 0.  1.
</event>
<event>
 5   0  0.2388326E-05  0.2646407E+04  0.7818609E-02  0.8352606E-01
       -2   -1    0    0    0  501  0.00000000000E+00  0.00000000000E+00  0.58309794973E+03  0.58309794974E+03  0.25500000920E-02 0.  1.
        2   -1    0    0  501    0  0.00000000000E+00  0.00000000000E+00 -0.30026996912E+04  0.30026996912E+04  0.25500000920E-02 0. -1.
    10030    2    1    2    0    0  0.00000000000E+00  0.00000000000E+00 -0.24196017415E+04  0.35857976410E+04  0.26464074015E+04 0.  0.
        2    1    3    3  502    0 -0.27501653988E+03 -0.31876524381E+03  0.48992691693E+03  0.64596730708E+03  0.25500000920E-02 0.  1.
       -2    1    3    3    0  502  0.27501653988E+03  0.31876524381E+03 -0.29095286584E+04  0.29398303339E+04  0.25500000920E-02 0. -1.
</event>
<event>
 5   0  0.1039688E-05  0.2526415E+04  0.7818609E-02  0.8393635E-01
       -1   -1    0    0    0  501  0.00000000000E+00  0.00000000000E+00  0.12340362660E+04  0.12340362660E+04  0.50400001928E-02 0. -1.
        1   -1    0    0  501    0  0.00000000000E+00  0.00000000000E+00 -0.12930686548E+04  0.12930686548E+04  0.50400001928E-02 0.  1.
    10030    2    1    2    0    0  0.00000000000E+00  0.00000000000E+00 -0.59032388841E+02  0.25271049208E+04  0.25264153376E+04 0.  0.
        3    1    3    3  502    0  0.77322638502E+03  0.47753467317E+03 -0.90712400786E+03  0.12840531073E+04  0.10100000352E+00 0.  1.
       -3    1    3    3    0  502 -0.77322638502E+03 -0.47753467317E+03  0.84809161902E+03  0.12430518135E+04  0.10100000352E+00 0. -1.
</event>
<event>
 5   0  0.2388326E-05  0.2508433E+04  0.7818609E-02  0.8399987E-01
       -2   -1    0    0    0  501  0.00000000000E+00  0.00000000000E+00  0.60296071782E+03  0.60296071783E+03  0.25500000920E-02 0.  1.
        2   -1    0    0  501    0  0.00000000000E+00  0.00000000000E+00 -0.26088912378E+04  0.26088912378E+04  0.25500000920E-02 0. -1.
    10030    2    1    2    0    0  0.00000000000E+00  0.00000000000E+00 -0.20059305199E+04  0.32118519556E+04  0.25084329239E+04 0.  0.
        2    1    3    3  502    0 -0.66872943333E+03  0.54275840347E+03 -0.21703793070E+04  0.23350229283E+04  0.25500000920E-02 0. -1.
       -2    1    3    3    0  502  0.66872943333E+03 -0.54275840347E+03  0.16444878703E+03  0.87682902729E+03  0.25500000920E-02 0.  1.
</event>
<event>
 5   0  0.1008073E-05  0.2477741E+04  0.7818609E-02  0.8410958E-01
        1   -1    0    0  501    0  0.00000000000E+00  0.00000000000E+00  0.18714187504E+04  0.18714187504E+04  0.50400001928E-02 0. -1.
       -1   -1    0    0    0  501  0.00000000000E+00  0.00000000000E+00 -0.82012675471E+03  0.82012675472E+03  0.50400001928E-02 0.  1.
    10030    2    1    2    0    0  0.00000000000E+00  0.00000000000E+00  0.10512919957E+04  0.26915455051E+04  0.24777413800E+04 0.  0.
        1    1    3    3  502    0  0.10029081568E+04 -0.69521696109E+03  0.75773913713E+03  0.14364261185E+04  0.50400001928E-02 0. -1.
       -1    1    3    3    0  502 -0.10029081568E+04  0.69521696109E+03  0.29355285856E+03  0.12551193866E+04  0.50400001928E-02 0.  1.
</event>
<event>
 5   0  0.8166500E-06  0.2509610E+04  0.7818609E-02  0.8399570E-01
       -3   -1    0    0    0  501  0.00000000000E+00  0.00000000000E+00  0.14936238252E+04  0.14936238286E+04  0.10100000352E+00 0.  1.
        3   -1    0    0  501    0  0.00000000000E+00  0.00000000000E+00 -0.10541715934E+04  0.10541715982E+04  0.10100000352E+00 0. -1.
    10030    2    1    2    0    0  0.00000000000E+00  0.00000000000E+00  0.43945223178E+03  0.25477954268E+04  0.25096101835E+04 0.  0.
        2    1    3    3  502    0 -0.51288709732E+03 -0.10958291168E+04  0.55741495388E+03  0.13321434077E+04  0.25500000920E-02 0. -1.
       -2    1    3    3    0  502  0.51288709732E+03  0.10958291168E+04 -0.11796272210E+03  0.12156520191E+04  0.25500000920E-02 0.  1.
</event>
<event>
 5   0  0.2432309E-05  0.2546624E+04  0.7818609E-02  0.8386561E-01
        2   -1    0    0  501    0  0.00000000000E+00  0.00000000000E+00  0.16448239805E+04  0.16448239805E+04  0.25500000920E-02 0. -1.
       -2   -1    0    0    0  501  0.00000000000E+00  0.00000000000E+00 -0.98571207230E+03  0.98571207230E+03  0.25500000920E-02 0.  1.
    10030    2    1    2    0    0  0.00000000000E+00  0.00000000000E+00  0.65911190821E+03  0.26305360528E+04  0.25466235328E+04 0.  0.
        4    1    3    3  502    0  0.96441529016E+03  0.81280694401E+03  0.14895419215E+03  0.12700161197E+04  0.12699999809E+01 0.  1.
       -4    1    3    3    0  502 -0.96441529016E+03 -0.81280694401E+03  0.51015771607E+03  0.13605199331E+04  0.12699999809E+01 0. -1.
</event>
<event>
 5   0  0.1039688E-05  0.2363163E+04  0.7818609E-02  0.8453425E-01
        1   -1    0    0  501    0  0.00000000000E+00  0.00000000000E+00  0.10089187973E+04  0.10089187973E+04  0.50400001928E-02 0.  1.
       -1   -1    0    0    0  501  0.00000000000E+00  0.00000000000E+00 -0.13837927171E+04  0.13837927171E+04  0.50400001928E-02 0. -1.
    10030    2    1    2    0    0  0.00000000000E+00  0.00000000000E+00 -0.37487391981E+03  0.23927115144E+04  0.23631626976E+04 0.  0.
        3    1    3    3  502    0 -0.87394831828E+03 -0.15482002128E+03  0.60230284515E+03  0.10726246452E+04  0.10100000352E+00 0.  1.
       -3    1    3    3    0  502  0.87394831828E+03  0.15482002128E+03 -0.97717676496E+03  0.13200868692E+04  0.10100000352E+00 0. -1.
</event>
<event>
 5   0  0.1008073E-05  0.2360055E+04  0.7818609E-02  0.8454612E-01
        1   -1    0    0  501    0  0.00000000000E+00  0.00000000000E+00  0.15708400091E+04  0.15708400091E+04  0.50400001928E-02 0.  1.
       -1   -1    0    0    0  501  0.00000000000E+00  0.00000000000E+00 -0.88644578909E+03  0.88644578910E+03  0.50400001928E-02 0. -1.
    10030    2    1    2    0    0  0.00000000000E+00  0.00000000000E+00  0.68439422001E+03  0.24572857982E+04  0.23600546701E+04 0.  0.
        1    1    3    3  502    0 -0.27507220679E+03  0.15091075760E+03 -0.84222106788E+03  0.89876309610E+03  0.50400001928E-02 0. -1.
       -1    1    3    3    0  502  0.27507220679E+03 -0.15091075760E+03  0.15266152879E+04  0.15585227021E+04  0.50400001928E-02 0.  1.
</event>
<event>
 5   0  0.1010338E-05  0.2496996E+04  0.7818609E-02  0.8404057E-01
       -1   -1    0    0    0  501  0.00000000000E+00  0.00000000000E+00  0.68854113750E+03  0.68854113752E+03  0.50400001928E-02 0.  1.
        1   -1    0    0  501    0  0.00000000000E+00  0.00000000000E+00 -0.22638404115E+04  0.22638404115E+04  0.50400001928E-02 0. -1.
    10030    2    1    2    0    0  0.00000000000E+00  0.00000000000E+00 -0.15752992740E+04  0.29523815490E+04  0.24969959969E+04 0.  0.
        2    1    3    3  502    0  0.64687865338E+03  0.75463209288E+03 -0.16809682476E+04  0.19528378932E+04  0.25500000920E-02 0. -1.
       -2    1    3    3    0  502 -0.64687865338E+03 -0.75463209288E+03  0.10566897363E+03  0.99954365577E+03  0.25500000920E-02 0.  1.
</event>
<event>
 5   0  0.1015327E-05  0.2516665E+04  0.7818609E-02  0.8397072E-01
       -1   -1    0    0    0  501  0.00000000000E+00  0.00000000000E+00  0.14786226655E+04  0.14786226655E+04  0.50400001928E-02 0.  1.
        1   -1    0    0  501    0  0.00000000000E+00  0.00000000000E+00 -0.10708622383E+04  0.10708622383E+04  0.50400001928E-02 0. -1.
    10030    2    1    2    0    0  0.00000000000E+00  0.00000000000E+00  0.40776042721E+03  0.25494849039E+04  0.25166653947E+04 0.  0.
        4    1    3    3  502    0 -0.95350009125E+03  0.34899144499E+03 -0.54907709937E+03  0.11543156963E+04  0.12699999809E+01 0. -1.
       -4    1    3    3    0  502  0.95350009125E+03 -0.34899144499E+03  0.95683752658E+03  0.13951692076E+04  0.12699999809E+01 0.  1.
</event>
<event>
 5   0  0.8166500E-06  0.2082244E+04  0.7818609E-02  0.8569106E-01
        3   -1    0    0  501    0  0.00000000000E+00  0.00000000000E+00  0.24057484371E+04  0.24057484392E+04  0.10100000352E+00 0. -1.
       -3   -1    0    0    0  501  0.00000000000E+00  0.00000000000E+00 -0.45056032300E+03  0.45056033432E+03  0.10100000352E+00 0.  1.
    10030    2    1    2    0    0  0.00000000000E+00  0.00000000000E+00  0.19551881141E+04  0.28563087735E+04  0.20822438013E+04 0.  0.
        3    1    3    3  502    0  0.93411692468E+03 -0.41314770391E+03  0.12542290906E+04  0.16175154021E+04  0.10100000352E+00 0. -1.
       -3    1    3    3    0  502 -0.93411692468E+03  0.41314770391E+03  0.70095902351E+03  0.12387933714E+04  0.10100000352E+00 0.  1.
</event>
<event>
 5   0  0.2452457E-05  0.2493196E+04  0.7818609E-02  0.8405413E-01
        2   -1    0    0  501    0  0.00000000000E+00  0.00000000000E+00  0.17595842385E+04  0.17595842385E+04  0.25500000920E-02 0. -1.
       -2   -1    0    0    0  501  0.00000000000E+00  0.00000000000E+00 -0.88316695576E+03  0.88316695577E+03  0.25500000920E-02 0.  1.
    10030    2    1    2    0    0  0.00000000000E+00  0.00000000000E+00  0.87641728272E+03  0.26427511942E+04  0.24931960655E+04 0.  0.
        1    1    3    3  502    0 -0.12290095802E+04  0.16884506232E+03  0.56817447687E+03  0.13644762510E+04  0.50400001928E-02 0. -1.
       -1    1    3    3    0  502  0.12290095802E+04 -0.16884506232E+03  0.30824280585E+03  0.12782749433E+04  0.50400001928E-02 0.  1.
</event>
<event>
 5   0  0.1010338E-05  0.2508042E+04  0.7818609E-02  0.8400126E-01
        1   -1    0    0  501    0  0.00000000000E+00  0.00000000000E+00  0.16631762566E+04  0.16631762566E+04  0.50400001928E-02 0.  1.
       -1   -1    0    0    0  501  0.00000000000E+00  0.00000000000E+00 -0.94552121460E+03  0.94552121462E+03  0.50400001928E-02 0. -1.
    10030    2    1    2    0    0  0.00000000000E+00  0.00000000000E+00  0.71765504201E+03  0.26086974712E+04  0.25080418133E+04 0.  0.
        2    1    3    3  502    0  0.43356720171E+02  0.94441711049E+03  0.12157640357E+04  0.15400927486E+04  0.25500000920E-02 0.  1.
       -2    1    3    3    0  502 -0.43356720171E+02 -0.94441711049E+03 -0.49810899364E+03  0.10686047227E+04  0.25500000920E-02 0. -1.
</event>
<event>
 5   0  0.2441340E-05  0.2495088E+04  0.7818609E-02  0.8404738E-01
        2   -1    0    0  501    0  0.00000000000E+00  0.00000000000E+00  0.11782847867E+04  0.11782847867E+04  0.25500000920E-02 0.  1.
       -2   -1    0    0    0  501  0.00000000000E+00  0.00000000000E+00 -0.13208738382E+04  0.13208738382E+04  0.25500000920E-02 0. -1.
    10030    2    1    2    0    0  0.00000000000E+00  0.00000000000E+00 -0.14258905156E+03  0.24991586249E+04  0.24950876126E+04 0.  0.
        3    1    3    3  502    0 -0.28991343622E+02  0.82024561000E+01 -0.13205093611E+04  0.13208530431E+04  0.10100000352E+00 0. -1.
       -3    1    3    3    0  502  0.28991343622E+02 -0.82024561000E+01  0.11779203096E+04  0.11783055818E+04  0.10100000352E+00 0.  1.
</event>
<event>
 5   0  0.1015327E-05  0.2511695E+04  0.7818609E-02  0.8398831E-01
        1   -1    0    0  501    0  0.00000000000E+00  0.00000000000E+00  0.17965413689E+04  0.17965413689E+04  0.50400001928E-02 0.  1.
       -1   -1    0    0    0  501  0.00000000000E+00  0.00000000000E+00 -0.87788269406E+03  0.87788269408E+03  0.50400001928E-02 0. -1.
    10030    2    1    2    0    0  0.00000000000E+00  0.00000000000E+00  0.91865867482E+03  0.26744240630E+04  0.25116947083E+04 0.  0.
        4    1    3    3  502    0 -0.87757245425E+03 -0.85925005585E+03  0.73843174043E+03  0.14330830817E+04  0.12699999809E+01 0. -1.
       -4    1    3    3    0  502  0.87757245425E+03  0.85925005585E+03  0.18022693440E+03  0.12413409812E+04  0.12699999809E+01 0.  1.
</event>
<event>
 5   0  0.2452457E-05  0.2409711E+04  0.7818609E-02  0.8435877E-01
       -2   -1    0    0    0  501  0.00000000000E+00  0.00000000000E+00  0.10856907450E+04  0.10856907450E+04  0.25500000920E-02 0. -1.
        2   -1    0    0  501    0  0.00000000000E+00  0.00000000000E+00 -0.13371001589E+04  0.13371001589E+04  0.25500000920E-02 0.  1.
    10030    2    1    2    0    0  0.00000000000E+00  0.00000000000E+00 -0.25140941390E+03  0.24227909040E+04  0.24097114082E+04 0.  0.
        1    1    3    3  502    0 -0.36822048054E+03 -0.38497703545E+03 -0.12122571331E+04  0.13241453836E+04  0.50400001928E-02 0.  1.
       -1    1    3    3    0  502  0.36822048054E+03  0.38497703545E+03  0.96084771916E+03  0.10986455204E+04  0.50400001928E-02 0. -1.
</event>
<event>
 5   0  0.1039688E-05  0.2536701E+04  0.7818609E-02  0.8390026E-01
       -1   -1    0    0    0  501  0.00000000000E+00  0.00000000000E+00  0.99108006042E+03  0.99108006044E+03  0.50400001928E-02 0. -1.
        1   -1    0    0  501    0  0.00000000000E+00  0.00000000000E+00 -0.16231915243E+04  0.16231915243E+04  0.50400001928E-02 0.  1.
    10030    2    1    2    0    0  0.00000000000E+00  0.00000000000E+00 -0.63211146384E+03  0.26142715847E+04  0.25367008132E+04 0.  0.
        3    1    3    3  502    0  0.64942570155E+03 -0.10101091146E+04 -0.73675255316E+03  0.14088571610E+04  0.10100000352E+00 0. -1.
       -3    1    3    3    0  502 -0.64942570155E+03  0.10101091146E+04  0.10464108932E+03  0.12054144237E+04  0.10100000352E+00 0.  1.
</event>
<event>
 5   0  0.2432309E-05  0.2511501E+04  0.7818609E-02  0.8398900E-01
        2   -1    0    0  501    0  0.00000000000E+00  0.00000000000E+00  0.12777881973E+04  0.12777881973E+04  0.25500000920E-02 0.  1.
       -2   -1    0    0    0  501  0.00000000000E+00  0.00000000000E+00 -0.12340923984E+04  0.12340923984E+04  0.25500000920E-02 0. -1.
    10030    2    1    2    0    0  0.00000000000E+00  0.00000000000E+00  0.43695798871E+02  0.25118805957E+04  0.25115005085E+04 0.  0.
        4    1    3    3  502    0 -0.45753904652E+02 -0.10003788619E+04 -0.73593146683E+03  0.12427582323E+04  0.12699999809E+01 0. -1.
       -4    1    3    3    0  502  0.45753904652E+02  0.10003788619E+04  0.77962726571E+03  0.12691223635E+04  0.12699999809E+01 0.  1.
</event>
<event>
 5   0  0.2432309E-05  0.2512980E+04  0.7818609E-02  0.8398376E-01
       -2   -1    0    0    0  501  0.00000000000E+00  0.00000000000E+00  0.97784172120E+03  0.97784172120E+03  0.25500000920E-02 0. -1.
        2   -1    0    0  501    0  0.00000000000E+00  0.00000000000E+00 -0.16145427828E+04  0.16145427828E+04  0.25500000920E-02 0.  1.
    10030    2    1    2    0    0  0.00000000000E+00  0.00000000000E+00 -0.63670106161E+03  0.25923845040E+04  0.25129801382E+04 0.  0.
        4    1    3    3  502    0  0.11277407791E+04 -0.20894422663E+02 -0.88949600441E+03  0.14364680980E+04  0.12699999809E+01 0. -1.
       -4    1    3    3    0  502 -0.11277407791E+04  0.20894422663E+02  0.25279494280E+03  0.11559164060E+04  0.12699999809E+01 0.  1.
</event>
<event>
 5   0  0.2345143E-05  0.2505028E+04  0.7818609E-02  0.8401196E-01
        2   -1    0    0  501    0  0.00000000000E+00  0.00000000000E+00  0.25171546969E+04  0.25171546969E+04  0.25500000920E-02 0. -1.
       -2   -1    0    0    0  501  0.00000000000E+00  0.00000000000E+00 -0.62323998934E+03  0.62323998934E+03  0.25500000920E-02 0.  1.
    10030    2    1    2    0    0  0.00000000000E+00  0.00000000000E+00  0.18939147076E+04  0.31403946862E+04  0.25050281168E+04 0.  0.
        5    1    3    3  502    0  0.15294323221E+03 -0.24056108936E+02 -0.61118676783E+03  0.63050906720E+03  0.46999998093E+01 0.  1.
       -5    1    3    3    0  502 -0.15294323221E+03  0.24056108936E+02  0.25051014754E+04  0.25098856190E+04  0.46999998093E+01 0. -1.
</event>
<event>
 5   0  0.2388326E-05  0.2500014E+04  0.7818609E-02  0.8402980E-01
        2   -1    0    0  501    0  0.00000000000E+00  0.00000000000E+00  0.11115684641E+04  0.11115684641E+04  0.25500000920E-02 0. -1.
       -2   -1    0    0    0  501  0.00000000000E+00  0.00000000000E+00 -0.14056873156E+04  0.14056873157E+04  0.25500000920E-02 0.  1.
    10030    2    1    2    0    0  0.00000000000E+00  0.00000000000E+00 -0.29411885154E+03  0.25172557798E+04  0.25000141523E+04 0.  0.
        2    1    3    3  502    0 -0.87261792271E+03 -0.13392475310E+02  0.75402938857E+03  0.11533437112E+04  0.25500000920E-02 0. -1.
       -2    1    3    3    0  502  0.87261792271E+03  0.13392475310E+02 -0.10481482401E+04  0.13639120685E+04  0.25500000920E-02 0.  1.
</event>
<event>
 5   0  0.2441340E-05  0.2514721E+04  0.7818609E-02  0.8397760E-01
        2   -1    0    0  501    0  0.00000000000E+00  0.00000000000E+00  0.14790454470E+04  0.14790454470E+04  0.25500000920E-02 0.  1.
       -2   -1    0    0    0  501  0.00000000000E+00  0.00000000000E+00 -0.10689026343E+04  0.10689026344E+04  0.25500000920E-02 0. -1.
    10030    2    1    2    0    0  0.00000000000E+00  0.00000000000E+00  0.41014281268E+03  0.25479480814E+04  0.25147211175E+04 0.  0.
        3    1    3    3  502    0 -0.92379441965E+03 -0.43731287209E+03 -0.53694153740E+03  0.11545323307E+04  0.10100000352E+00 0.  1.
       -3    1    3    3    0  502  0.92379441965E+03  0.43731287209E+03  0.94708435008E+03  0.13934157507E+04  0.10100000352E+00 0. -1.
</event>
<event>
 5   0  0.2441340E-05  0.2479328E+04  0.7818609E-02  0.8410387E-01
        2   -1    0    0  501    0  0.00000000000E+00  0.00000000000E+00  0.19794601000E+04  0.19794601000E+04  0.25500000920E-02 0.  1.
       -2   -1    0    0    0  501  0.00000000000E+00  0.00000000000E+00 -0.77635664984E+03  0.77635664984E+03  0.25500000920E-02 0. -1.
    10030    2    1    2    0    0  0.00000000000E+00  0.00000000000E+00  0.12031034501E+04  0.27558167498E+04  0.24793281442E+04 0.  0.
        3    1    3    3  502    0  0.16165264293E+03  0.48515805773E+03 -0.65365482643E+03  0.82992443046E+03  0.10100000352E+00 0. -1.
       -3    1    3    3    0  502 -0.16165264293E+03 -0.48515805773E+03  0.18567582766E+04  0.19258923193E+04  0.10100000352E+00 0.  1.
</event>
<event>
 5   0  0.2388326E-05  0.2497935E+04  0.7818609E-02  0.8403722E-01
       -2   -1    0    0    0  501  0.00000000000E+00  0.00000000000E+00  0.10201501545E+04  0.10201501545E+04  0.25500000920E-02 0.  1.
        2   -1    0    0  501    0  0.00000000000E+00  0.00000000000E+00 -0.15291078297E+04  0.15291078297E+04  0.25500000920E-02 0. -1.
    10030    2    1    2    0    0  0.00000000000E+00  0.00000000000E+00 -0.50895767515E+03  0.25492579842E+04  0.24979348180E+04 0.  0.
        2    1    3    3  502    0 -0.11472050038E+04 -0.42175672862E+03 -0.51658549154E+03  0.13269584127E+04  0.25500000920E-02 0. -1.
       -2    1    3    3    0  502  0.11472050038E+04  0.42175672862E+03  0.76278163942E+01  0.12222995715E+04  0.25500000920E-02 0.  1.
</event>
<event>
 5   0  0.8166500E-06  0.2478490E+04  0.7818609E-02  0.8410689E-01
       -4   -1    0    0    0  501  0.00000000000E+00  0.00000000000E+00  0.10493340272E+04  0.10493347957E+04  0.12699999809E+01 0.  1.
        4   -1    0    0  501    0  0.00000000000E+00  0.00000000000E+00 -0.14635253206E+04  0.14635258716E+04  0.12699999809E+01 0. -1.
    10030    2    1    2    0    0  0.00000000000E+00  0.00000000000E+00 -0.41419129336E+03  0.25128606673E+04  0.24784903280E+04 0.  0.
        5    1    3    3  502    0  0.10492131183E+04  0.13622320875E+03 -0.86125747310E+03  0.13642549085E+04  0.46999998093E+01 0. -1.
       -5    1    3    3    0  502 -0.10492131183E+04 -0.13622320875E+03  0.44706617973E+03  0.11486057589E+04  0.46999998093E+01 0.  1.
</event>
<event>
 5   0  0.2441340E-05  0.2599347E+04  0.7818609E-02  0.8368423E-01
        2   -1    0    0  501    0  0.00000000000E+00  0.00000000000E+00  0.22776581537E+04  0.22776581537E+04  0.25500000920E-02 0. -1.
       -2   -1    0    0    0  501  0.00000000000E+00  0.00000000000E+00 -0.74161745180E+03  0.74161745180E+03  0.25500000920E-02 0.  1.
    10030    2    1    2    0    0  0.00000000000E+00  0.00000000000E+00  0.15360407019E+04  0.30192756055E+04  0.25993468688E+04 0.  0.
        3    1    3    3  502    0 -0.22854060316E+03  0.12564153554E+04  0.10485793730E+04  0.16523707405E+04  0.10100000352E+00 0. -1.
       -3    1    3    3    0  502  0.22854060316E+03 -0.12564153554E+04  0.48746132896E+03  0.13669048650E+04  0.10100000352E+00 0.  1.
</event>
<event>
 5   0  0.1008073E-05  0.2709884E+04  0.7818609E-02  0.8331805E-01
        1   -1    0    0  501    0  0.00000000000E+00  0.00000000000E+00  0.13580474093E+04  0.13580474093E+04  0.50400001928E-02 0.  1.
       -1   -1    0    0    0  501  0.00000000000E+00  0.00000000000E+00 -0.13518432750E+04  0.13518432750E+04  0.50400001928E-02 0. -1.
    10030    2    1    2    0    0  0.00000000000E+00  0.00000000000E+00  0.62041343045E+01  0.27098906843E+04  0.27098835823E+04 0.  0.
        1    1    3    3  502    0  0.31584852268E+03  0.51765026967E+03 -0.12085715118E+04  0.13521712872E+04  0.50400001928E-02 0. -1.
       -1    1    3    3    0  502 -0.31584852268E+03 -0.51765026967E+03  0.12147756461E+04  0.13577193971E+04  0.50400001928E-02 0.  1.
</event>
<event>
 5   0  0.2452457E-05  0.2502495E+04  0.7818609E-02  0.8402097E-01
        2   -1    0    0  501    0  0.00000000000E+00  0.00000000000E+00  0.12582949885E+04  0.12582949885E+04  0.25500000920E-02 0.  1.
       -2   -1    0    0    0  501  0.00000000000E+00  0.00000000000E+00 -0.12442391503E+04  0.12442391503E+04  0.25500000920E-02 0. -1.
    10030    2    1    2    0    0  0.00000000000E+00  0.00000000000E+00  0.14055838165E+02  0.25025341389E+04  0.25024946652E+04 0.  0.
        1    1    3    3  502    0 -0.23745816402E+03 -0.81738201012E+03  0.92416841683E+03  0.12564183192E+04  0.50400001928E-02 0.  1.
       -1    1    3    3    0  502  0.23745816402E+03  0.81738201012E+03 -0.91011257866E+03  0.12461158197E+04  0.50400001928E-02 0. -1.
</event>
<event>
 5   0  0.2388326E-05  0.2366415E+04  0.7818609E-02  0.8452185E-01
       -2   -1    0    0    0  501  0.00000000000E+00  0.00000000000E+00  0.84706057267E+03  0.84706057268E+03  0.25500000920E-02 0. -1.
        2   -1    0    0  501    0  0.00000000000E+00  0.00000000000E+00 -0.16527507894E+04  0.16527507894E+04  0.25500000920E-02 0.  1.
    10030    2    1    2    0    0  0.00000000000E+00  0.00000000000E+00 -0.80569021670E+03  0.24998113620E+04  0.23664150356E+04 0.  0.
        2    1    3    3  502    0 -0.78520769264E+03 -0.57846392580E+03 -0.11105412178E+04  0.14779964244E+04  0.25500000920E-02 0.  1.
       -2    1    3    3    0  502  0.78520769264E+03  0.57846392580E+03  0.30485100106E+03  0.10218149377E+04  0.25500000920E-02 0. -1.
</event>
<event>
 5   0  0.1010338E-05  0.2545714E+04  0.7818609E-02  0.8386878E-01
       -1   -1    0    0    0  501  0.00000000000E+00  0.00000000000E+00  0.13771206091E+04  0.13771206091E+04  0.50400001928E-02 0. -1.
        1   -1    0    0  501    0  0.00000000000E+00  0.00000000000E+00 -0.11764872493E+04  0.11764872493E+04  0.50400001928E-02 0.  1.
    10030    2    1    2    0    0  0.00000000000E+00  0.00000000000E+00  0.20063335978E+03  0.25536078584E+04  0.25457139174E+04 0.  0.
        2    1    3    3  502    0 -0.15528609275E+03  0.10764264271E+04  0.76369726403E+03  0.13289248040E+04  0.25500000920E-02 0. -1.
       -2    1    3    3    0  502  0.15528609275E+03 -0.10764264271E+04 -0.56306390425E+03  0.12246830544E+04  0.25500000920E-02 0.  1.
</event>
<event>
 5   0  0.2345143E-05  0.2499929E+04  0.7818609E-02  0.8403011E-01
       -2   -1    0    0    0  501  0.00000000000E+00  0.00000000000E+00  0.17340860494E+04  0.17340860494E+04  0.25500000920E-02 0.  1.
        2   -1    0    0  501    0  0.00000000000E+00  0.00000000000E+00 -0.90100012511E+03  0.90100012511E+03  0.25500000920E-02 0. -1.
    10030    2    1    2    0    0  0.00000000000E+00  0.00000000000E+00  0.83308592425E+03  0.26350861745E+04  0.24999293969E+04 0.  0.
        5    1    3    3  502    0  0.85367528480E+03  0.69312546913E+03 -0.20989872968E+03  0.11194927309E+04  0.46999998093E+01 0. -1.
       -5    1    3    3    0  502 -0.85367528480E+03 -0.69312546913E+03  0.10429846539E+04  0.15155934436E+04  0.46999998093E+01 0.  1.
</event>
<event>
 5   0  0.1039688E-05  0.2516988E+04  0.7818609E-02  0.8396958E-01
       -1   -1    0    0    0  501  0.00000000000E+00  0.00000000000E+00  0.94851331006E+03  0.94851331007E+03  0.50400001928E-02 0. -1.
        1   -1    0    0  501    0  0.00000000000E+00  0.00000000000E+00 -0.16697786861E+04  0.16697786862E+04  0.50400001928E-02 0.  1.
    10030    2    1    2    0    0  0.00000000000E+00  0.00000000000E+00 -0.72126537608E+03  0.26182919962E+04  0.25169881277E+04 0.  0.
        3    1    3    3  502    0 -0.12308428295E+04  0.25538880180E+02 -0.89008417721E+02  0.12343211956E+04  0.10100000352E+00 0. -1.
       -3    1    3    3    0  502  0.12308428295E+04 -0.25538880180E+02 -0.63225695836E+03  0.13839708006E+04  0.10100000352E+00 0.  1.
</event>
<event>
 5   0  0.1039688E-05  0.2493485E+04  0.7818609E-02  0.8405310E-01
       -1   -1    0    0    0  501  0.00000000000E+00  0.00000000000E+00  0.52865843763E+03  0.52865843766E+03  0.50400001928E-02 0. -1.
        1   -1    0    0  501    0  0.00000000000E+00  0.00000000000E+00 -0.29402106733E+04  0.29402106733E+04  0.50400001928E-02 0.  1.
    10030    2    1    2    0    0  0.00000000000E+00  0.00000000000E+00 -0.24115522356E+04  0.34688691109E+04  0.24934852563E+04 0.  0.
        3    1    3    3  502    0  0.41948140227E+01  0.75465446908E+03  0.17481576844E+03  0.77464929308E+03  0.10100000352E+00 0. -1.
       -3    1    3    3    0  502 -0.41948140227E+01 -0.75465446908E+03 -0.25863680041E+04  0.26942198178E+04  0.10100000352E+00 0.  1.
</event>
<event>
 5   0  0.1015327E-05  0.2476087E+04  0.7818609E-02  0.8411555E-01
       -1   -1    0    0    0  501  0.00000000000E+00  0.00000000000E+00  0.74307656266E+03  0.74307656267E+03  0.50400001928E-02 0. -1.
        1   -1    0    0  501    0  0.00000000000E+00  0.00000000000E+00 -0.20627097537E+04  0.20627097537E+04  0.50400001928E-02 0.  1.
    10030    2    1    2    0    0  0.00000000000E+00  0.00000000000E+00 -0.13196331910E+04  0.28057863163E+04  0.24760866492E+04 0.  0.
        4    1    3    3  502    0 -0.10814764909E+04 -0.12853753206E+03 -0.13269701652E+04  0.17166725750E+04  0.12699999809E+01 0.  1.
       -4    1    3    3    0  502  0.10814764909E+04  0.12853753206E+03  0.73369741990E+01  0.10891137413E+04  0.12699999809E+01 0. -1.
</event>
<event>
 5   0  0.2432309E-05  0.2503788E+04  0.7818609E-02  0.8401637E-01
       -2   -1    0    0    0  501  0.00000000000E+00  0.00000000000E+00  0.12090926090E+04  0.12090926090E+04  0.25500000920E-02 0. -1.
        2   -1    0    0  501    0  0.00000000000E+00  0.00000000000E+00 -0.12962107804E+04  0.12962107804E+04  0.25500000920E-02 0.  1.
    10030    2    1    2    0    0  0.00000000000E+00  0.00000000000E+00 -0.87118171414E+02  0.25053033894E+04  0.25037882293E+04 0.  0.
        4    1    3    3  502    0  0.16071150987E+03 -0.12379209833E+04 -0.13827740154E+03  0.12559453822E+04  0.12699999809E+01 0. -1.
       -4    1    3    3    0  502 -0.16071150987E+03  0.12379209833E+04  0.51159230128E+02  0.12493580072E+04  0.12699999809E+01 0.  1.
</event>
<event>
 5   0  0.2388326E-05  0.2504463E+04  0.7818609E-02  0.8401397E-01
       -2   -1    0    0    0  501  0.00000000000E+00  0.00000000000E+00  0.64529556079E+03  0.64529556080E+03  0.25500000920E-02 0.  1.
        2   -1    0    0  501    0  0.00000000000E+00  0.00000000000E+00 -0.24300233396E+04  0.24300233396E+04  0.25500000920E-02 0. -1.
    10030    2    1    2    0    0  0.00000000000E+00  0.00000000000E+00 -0.17847277789E+04  0.30753189004E+04  0.25044626359E+04 0.  0.
        2    1    3    3  502    0 -0.29395404206E+03 -0.97840368646E+03 -0.31481160559E+01  0.10216127755E+04  0.25500000920E-02 0.  1.
       -2    1    3    3    0  502  0.29395404206E+03  0.97840368646E+03 -0.17815796628E+04  0.20537061249E+04  0.25500000920E-02 0. -1.
</event>
<event>
 5   0  0.2432309E-05  0.2406206E+04  0.7818609E-02  0.8437184E-01
        2   -1    0    0  501    0  0.00000000000E+00  0.00000000000E+00  0.15933154286E+04  0.15933154286E+04  0.25500000920E-02 0. -1.
       -2   -1    0    0    0  501  0.00000000000E+00  0.00000000000E+00 -0.90845571116E+03  0.90845571117E+03  0.25500000920E-02 0.  1.
    10030    2    1    2    0    0  0.00000000000E+00  0.00000000000E+00  0.68485971746E+03  0.25017711398E+04  0.24062057276E+04 0.  0.
        4    1    3    3  502    0  0.16995840523E+03 -0.40376045681E+03 -0.82258436217E+03  0.93196298842E+03  0.12699999809E+01 0.  1.
       -4    1    3    3    0  502 -0.16995840523E+03  0.40376045681E+03  0.15074440796E+04  0.15698081514E+04  0.12699999809E+01 0. -1.
</event>
<event>
 5   0  0.2452457E-05  0.2507768E+04  0.7818609E-02  0.8400223E-01
       -2   -1    0    0    0  501  0.00000000000E+00  0.00000000000E+00  0.14103233132E+04  0.14103233132E+04  0.25500000920E-02 0. -1.
        2   -1    0    0  501    0  0.00000000000E+00  0.00000000000E+00 -0.11147980723E+04  0.11147980723E+04  0.25500000920E-02 0.  1.
    10030    2    1    2    0    0  0.00000000000E+00  0.00000000000E+00  0.29552524089E+03  0.25251213856E+04  0.25077684988E+04 0.  0.
        1    1    3    3  502    0  0.42758390775E+03 -0.61278663583E+03 -0.86612609876E+03  0.11439011663E+04  0.50400001928E-02 0.  1.
       -1    1    3    3    0  502 -0.42758390775E+03  0.61278663583E+03  0.11616513396E+04  0.13812202193E+04  0.50400001928E-02 0. -1.
</event>
<event>
 5   0  0.2441340E-05  0.2475927E+04  0.7818609E-02  0.8411612E-01
        2   -1    0    0  501    0  0.00000000000E+00  0.00000000000E+00  0.17027159609E+04  0.17027159609E+04  0.25500000920E-02 0.  1.
       -2   -1    0    0    0  501  0.00000000000E+00  0.00000000000E+00 -0.90006444640E+03  0.90006444640E+03  0.25500000920E-02 0. -1.
    10030    2    1    2    0    0  0.00000000000E+00  0.00000000000E+00  0.80265151451E+03  0.26027804073E+04  0.24759273808E+04 0.  0.
        3    1    3    3  502    0 -0.56281395608E+03  0.10414652582E+04  0.20632728274E+02  0.11839911963E+04  0.10100000352E+00 0.  1.
       -3    1    3    3    0  502  0.56281395608E+03 -0.10414652582E+04  0.78201878623E+03  0.14187892110E+04  0.10100000352E+00 0. -1.
</event>
<event>
 5   0  0.1008073E-05  0.2465145E+04  0.7818609E-02  0.8415509E-01
       -1   -1    0    0    0  501  0.00000000000E+00  0.00000000000E+00  0.19580822400E+04  0.19580822400E+04  0.50400001928E-02 0. -1.
        1   -1    0    0  501    0  0.00000000000E+00  0.00000000000E+00 -0.77587891587E+03  0.77587891589E+03  0.50400001928E-02 0.  1.
    10030    2    1    2    0    0  0.00000000000E+00  0.00000000000E+00  0.11822033242E+04  0.27339611559E+04  0.24651448036E+04 0.  0.
        1    1    3    3  502    0  0.90682783886E+03 -0.82902755392E+03  0.48237370643E+03  0.13199650780E+04  0.50400001928E-02 0. -1.
       -1    1    3    3    0  502 -0.90682783886E+03  0.82902755392E+03  0.69982961774E+03  0.14139960779E+04  0.50400001928E-02 0.  1.
</event>
<event>
 5   0  0.2388326E-05  0.2501939E+04  0.7818609E-02  0.8402295E-01
        2   -1    0    0  501    0  0.00000000000E+00  0.00000000000E+00  0.20948222145E+04  0.20948222145E+04  0.25500000920E-02 0.  1.
       -2   -1    0    0    0  501  0.00000000000E+00  0.00000000000E+00 -0.74704417051E+03  0.74704417051E+03  0.25500000920E-02 0. -1.
    10030    2    1    2    0    0  0.00000000000E+00  0.00000000000E+00  0.13477780440E+04  0.28418663850E+04  0.25019390269E+04 0.  0.
        2    1    3    3  502    0 -0.62207079882E+03  0.19507419934E+03 -0.53882964592E+03  0.84579158741E+03  0.25500000920E-02 0. -1.
       -2    1    3    3    0  502  0.62207079882E+03 -0.19507419934E+03  0.18866076899E+04  0.19960747976E+04  0.25500000920E-02 0.  1.
</event>
<event>
 5   0  0.1015327E-05  0.2496943E+04  0.7818609E-02  0.8404076E-01
       -1   -1    0    0    0  501  0.00000000000E+00  0.00000000000E+00  0.92411468539E+03  0.92411468540E+03  0.50400001928E-02 0. -1.
        1   -1    0    0  501    0  0.00000000000E+00  0.00000000000E+00 -0.16866744965E+04  0.16866744965E+04  0.50400001928E-02 0.  1.
    10030    2    1    2    0    0  0.00000000000E+00  0.00000000000E+00 -0.76255981110E+03  0.26107891819E+04  0.24969426679E+04 0.  0.
        4    1    3    3  502    0  0.72662801219E+03 -0.79794808970E+03  0.27500831580E+03  0.11137057998E+04  0.12699999809E+01 0. -1.
       -4    1    3    3    0  502 -0.72662801219E+03  0.79794808970E+03 -0.10375681269E+04  0.14970833821E+04  0.12699999809E+01 0.  1.
</event>
<event>
 5   0  0.2432309E-05  0.2505435E+04  0.7818609E-02  0.8401052E-01
        2   -1    0    0  501    0  0.00000000000E+00  0.00000000000E+00  0.10984811783E+04  0.10984811783E+04  0.25500000920E-02 0.  1.
       -2   -1    0    0    0  501  0.00000000000E+00  0.00000000000E+00 -0.14286098382E+04  0.14286098382E+04  0.25500000920E-02 0. -1.
    10030    2    1    2    0    0  0.00000000000E+00  0.00000000000E+00 -0.33012865989E+03  0.25270910165E+04  0.25054349071E+04 0.  0.
        4    1    3    3  502    0 -0.99447793311E+03  0.68314264932E+02  0.60020724753E+03  0.11635736123E+04  0.12699999809E+01 0.  1.
       -4    1    3    3    0  502  0.99447793311E+03 -0.68314264932E+02 -0.93033590742E+03  0.13635174043E+04  0.12699999809E+01 0. -1.
</event>
<event>
 5   0  0.2432309E-05  0.2133672E+04  0.7818609E-02  0.8546554E-01
       -2   -1    0    0    0  501  0.00000000000E+00  0.00000000000E+00  0.67546117869E+03  0.67546117870E+03  0.25500000920E-02 0. -1.
        2   -1    0    0  501    0  0.00000000000E+00  0.00000000000E+00 -0.16849814731E+04  0.16849814731E+04  0.25500000920E-02 0.  1.
    10030    2    1    2    0    0  0.00000000000E+00  0.00000000000E+00 -0.10095202944E+04  0.23604426518E+04  0.21336724883E+04 0.  0.
        4    1    3    3  502    0  0.68769904066E+03 -0.72500896419E+03 -0.91805664024E+03  0.13569810523E+04  0.12699999809E+01 0. -1.
       -4    1    3    3    0  502 -0.68769904066E+03  0.72500896419E+03 -0.91463654128E+02  0.10034615995E+04  0.12699999809E+01 0.  1.
</event>
<event>
 5   0  0.1008073E-05  0.2606956E+04  0.7818609E-02  0.8365842E-01
       -1   -1    0    0    0  501  0.00000000000E+00  0.00000000000E+00  0.91209991906E+03  0.91209991907E+03  0.50400001928E-02 0. -1.
        1   -1    0    0  501    0  0.00000000000E+00  0.00000000000E+00 -0.18627940779E+04  0.18627940779E+04  0.50400001928E-02 0.  1.
    10030    2    1    2    0    0  0.00000000000E+00  0.00000000000E+00 -0.95069415880E+03  0.27748939969E+04  0.26069555636E+04 0.  0.
        1    1    3    3  502    0  0.12400639078E+04  0.94639762828E+02 -0.89079685555E+03  0.15297824087E+04  0.50400001928E-02 0. -1.
       -1    1    3    3    0  502 -0.12400639078E+04 -0.94639762828E+02 -0.59897303246E+02  0.12451115882E+04  0.50400001928E-02 0.  1.
</event>
<event>
 5   0  0.1002753E-05  0.2016229E+04  0.7818609E-02  0.8599070E-01
       -1   -1    0    0    0  501  0.00000000000E+00  0.00000000000E+00  0.59333592762E+03  0.59333592764E+03  0.50400001928E-02 0.  1.
        1   -1    0    0  501    0  0.00000000000E+00  0.00000000000E+00 -0.17128488951E+04  0.17128488951E+04  0.50400001928E-02 0. -1.
    10030    2    1    2    0    0  0.00000000000E+00  0.00000000000E+00 -0.11195129675E+04  0.23061848227E+04  0.20162289434E+04 0.  0.
        5    1    3    3  502    0 -0.27645208891E+03 -0.36772870736E+03 -0.15857635730E+04  0.16511566731E+04  0.46999998093E+01 0. -1.
       -5    1    3    3    0  502  0.27645208891E+03  0.36772870736E+03  0.46625060552E+03  0.65502814965E+03  0.46999998093E+01 0.  1.
</event>
<event>
 5   0  0.2441340E-05  0.2501938E+04  0.7818609E-02  0.8402295E-01
        2   -1    0    0  501    0  0.00000000000E+00  0.00000000000E+00  0.16157073294E+04  0.16157073294E+04  0.25500000920E-02 0. -1.
       -2   -1    0    0    0  501  0.00000000000E+00  0.00000000000E+00 -0.96856896088E+03  0.96856896088E+03  0.25500000920E-02 0.  1.
    10030    2    1    2    0    0  0.00000000000E+00  0.00000000000E+00  0.64713836851E+03  0.25842762903E+04  0.25019384238E+04 0.  0.
        3    1    3    3  502    0 -0.40720818492E+03 -0.66067741764E+02 -0.89628812626E+03  0.98666907717E+03  0.10100000352E+00 0.  1.
       -3    1    3    3    0  502  0.40720818492E+03  0.66067741764E+02  0.15434264948E+04  0.15976072131E+04  0.10100000352E+00 0. -1.
</event>
<event>
 5   0  0.1002753E-05  0.2539733E+04  0.7818609E-02  0.8388966E-01
       -1   -1    0    0    0  501  0.00000000000E+00  0.00000000000E+00  0.83925883847E+03  0.83925883849E+03  0.50400001928E-02 0. -1.
        1   -1    0    0  501    0  0.00000000000E+00  0.00000000000E+00 -0.19214107424E+04  0.19214107424E+04  0.50400001928E-02 0.  1.
    10030    2    1    2    0    0  0.00000000000E+00  0.00000000000E+00 -0.10821519039E+04  0.27606695809E+04  0.25397330158E+04 0.  0.
        5    1    3    3  502    0  0.17816932151E+03 -0.56819611934E+03  0.67807550350E+03  0.90244092084E+03  0.46999998093E+01 0. -1.
       -5    1    3    3    0  502 -0.17816932151E+03  0.56819611934E+03 -0.17602274074E+04  0.18582286600E+04  0.46999998093E+01 0.  1.
</event>
<event>
 5   0  0.1015327E-05  0.2542775E+04  0.7818609E-02  0.8387903E-01
       -1   -1    0    0    0  501  0.00000000000E+00  0.00000000000E+00  0.13181271157E+04  0.13181271157E+04  0.50400001928E-02 0. -1.
        1   -1    0    0  501    0  0.00000000000E+00  0.00000000000E+00 -0.12263051430E+04  0.12263051430E+04  0.50400001928E-02 0.  1.
    10030    2    1    2    0    0  0.00000000000E+00  0.00000000000E+00  0.91821972681E+02  0.25444322587E+04  0.25427749103E+04 0.  0.
        4    1    3    3  502    0  0.59132241021E+03  0.25073396516E+03 -0.10520255383E+04  0.12325944428E+04  0.12699999809E+01 0.  1.
       -4    1    3    3    0  502 -0.59132241021E+03 -0.25073396516E+03  0.11438475110E+04  0.13118378160E+04  0.12699999809E+01 0. -1.
</event>
<event>
 5   0  0.2432309E-05  0.2491394E+04  0.7818609E-02  0.8406058E-01
       -2   -1    0    0    0  501  0.00000000000E+00  0.00000000000E+00  0.12320709497E+04  0.12320709497E+04  0.25500000920E-02 0. -1.
        2   -1    0    0  501    0  0.00000000000E+00  0.00000000000E+00 -0.12594738737E+04  0.12594738737E+04  0.25500000920E-02 0.  1.
    10030    2    1    2    0    0  0.00000000000E+00  0.00000000000E+00 -0.27402923994E+02  0.24915448233E+04  0.24913941251E+04 0.  0.
        4    1    3    3  502    0 -0.23163452171E+02  0.68877825391E+03  0.10240546755E+04  0.12343587890E+04  0.12699999809E+01 0. -1.
       -4    1    3    3    0  502  0.23163452171E+02 -0.68877825391E+03 -0.10514575995E+04  0.12571860344E+04  0.12699999809E+01 0.  1.
</event>
<event>
 5   0  0.2452457E-05  0.2484289E+04  0.7818609E-02  0.8408604E-01
        2   -1    0    0  501    0  0.00000000000E+00  0.00000000000E+00  0.84723818558E+03  0.84723818558E+03  0.25500000920E-02 0. -1.
       -2   -1    0    0    0  501  0.00000000000E+00  0.00000000000E+00 -0.18211202711E+04  0.18211202711E+04  0.25500000920E-02 0.  1.
    10030    2    1    2    0    0  0.00000000000E+00  0.00000000000E+00 -0.97388208555E+03  0.26683584567E+04  0.24842887386E+04 0.  0.
        1    1    3    3  502    0  0.49069233890E+03  0.23091608180E+03 -0.16872478539E+04  0.17722602881E+04  0.50400001928E-02 0.  1.
       -1    1    3    3    0  502 -0.49069233890E+03 -0.23091608180E+03  0.71336576835E+03  0.89609816860E+03  0.50400001928E-02 0. -1.
</event>
<event>
 5   0  0.1010338E-05  0.2483662E+04  0.7818609E-02  0.8408829E-01
        1   -1    0    0  501    0  0.00000000000E+00  0.00000000000E+00  0.19969205091E+04  0.19969205091E+04  0.50400001928E-02 0. -1.
       -1   -1    0    0    0  501  0.00000000000E+00  0.00000000000E+00 -0.77226125891E+03  0.77226125892E+03  0.50400001928E-02 0.  1.
    10030    2    1    2    0    0  0.00000000000E+00  0.00000000000E+00  0.12246592502E+04  0.27691817680E+04  0.24836620916E+04 0.  0.
        2    1    3    3  502    0 -0.84796657661E+02 -0.20491894532E+03  0.19746628432E+04  0.19870771479E+04  0.25500000920E-02 0. -1.
       -2    1    3    3    0  502  0.84796657661E+02  0.20491894532E+03 -0.75000359302E+03  0.78210462014E+03  0.25500000920E-02 0.  1.
</event>
<event>
 5   0  0.2388326E-05  0.2465467E+04  0.7818609E-02  0.8415392E-01
        2   -1    0    0  501    0  0.00000000000E+00  0.00000000000E+00  0.10960591009E+04  0.10960591009E+04  0.25500000920E-02 0.  1.
       -2   -1    0    0    0  501  0.00000000000E+00  0.00000000000E+00 -0.13864510043E+04  0.13864510043E+04  0.25500000920E-02 0. -1.
    10030    2    1    2    0    0  0.00000000000E+00  0.00000000000E+00 -0.29039190340E+03  0.24825101053E+04  0.24654672915E+04 0.  0.
        2    1    3    3  502    0  0.70197004317E+03  0.11177042830E+03 -0.11593212580E+04  0.13598824763E+04  0.25500000920E-02 0. -1.
       -2    1    3    3    0  502 -0.70197004317E+03 -0.11177042830E+03  0.86892935455E+03  0.11226276290E+04  0.25500000920E-02 0.  1.
</event>
<event>
 5   0  0.2452457E-05  0.2506169E+04  0.7818609E-02  0.8400791E-01
       -2   -1    0    0    0  501  0.00000000000E+00  0.00000000000E+00  0.73846415174E+03  0.73846415175E+03  0.25500000920E-02 0.  1.
        2   -1    0    0  501    0  0.00000000000E+00  0.00000000000E+00 -0.21263337651E+04  0.21263337651E+04  0.25500000920E-02 0. -1.
    10030    2    1    2    0    0  0.00000000000E+00  0.00000000000E+00 -0.13878696134E+04  0.28647979169E+04  0.25061693959E+04 0.  0.
        1    1    3    3  502    0  0.70173573405E+03  0.10278506122E+04 -0.52706070710E+03  0.13515557371E+04  0.50400001928E-02 0. -1.
       -1    1    3    3    0  502 -0.70173573405E+03 -0.10278506122E+04 -0.86080890626E+03  0.15132421798E+04  0.50400001928E-02 0.  1.
</event>
<event>
 5   0  0.2441340E-05  0.2518915E+04  0.7818609E-02  0.8396278E-01
        2   -1    0    0  501    0  0.00000000000E+00  0.00000000000E+00  0.83108193215E+03  0.83108193215E+03  0.25500000920E-02 0.  1.
       -2   -1    0    0    0  501  0.00000000000E+00  0.00000000000E+00 -0.19086365121E+04  0.19086365121E+04  0.25500000920E-02 0. -1.
    10030    2    1    2    0    0  0.00000000000E+00  0.00000000000E+00 -0.10775545799E+04  0.27397184442E+04  0.25189151000E+04 0.  0.
        3    1    3    3  502    0 -0.10316513755E+04  0.43222707239E+03 -0.11684068807E+04  0.16174978985E+04  0.10100000352E+00 0. -1.
       -3    1    3    3    0  502  0.10316513755E+04 -0.43222707239E+03  0.90852300730E+02  0.11222205458E+04  0.10100000352E+00 0.  1.
</event>
<event>
 5   0  0.2388326E-05  0.2509954E+04  0.7818609E-02  0.8399448E-01
        2   -1    0    0  501    0  0.00000000000E+00  0.00000000000E+00  0.13930285008E+04  0.13930285008E+04  0.25500000920E-02 0.  1.
       -2   -1    0    0    0  501  0.00000000000E+00  0.00000000000E+00 -0.11306063365E+04  0.11306063365E+04  0.25500000920E-02 0. -1.
    10030    2    1    2    0    0  0.00000000000E+00  0.00000000000E+00  0.26242216428E+03  0.25236348373E+04  0.25099536649E+04 0.  0.
        2    1    3    3  502    0 -0.59336184867E+03 -0.37416540658E+03 -0.91508053003E+03  0.11530179580E+04  0.25500000920E-02 0. -1.
       -2    1    3    3    0  502  0.59336184867E+03  0.37416540658E+03  0.11775026943E+04  0.13706168794E+04  0.25500000920E-02 0.  1.
</event>
<event>
 5   0  0.1002753E-05  0.2486651E+04  0.7818609E-02  0.8407757E-01
        1   -1    0    0  501    0  0.00000000000E+00  0.00000000000E+00  0.10393897946E+04  0.10393897946E+04  0.50400001928E-02 0. -1.
       -1   -1    0    0    0  501  0.00000000000E+00  0.00000000000E+00 -0.14872746943E+04  0.14872746943E+04  0.50400001928E-02 0.  1.
    10030    2    1    2    0    0  0.00000000000E+00  0.00000000000E+00 -0.44788489968E+03  0.25266644889E+04  0.24866508713E+04 0.  0.
        5    1    3    3  502    0  0.12396292605E+04  0.37478828990E+02 -0.13448783570E+03  0.12474752238E+04  0.46999998093E+01 0. -1.
       -5    1    3    3    0  502 -0.12396292605E+04 -0.37478828990E+02 -0.31339706399E+03  0.12791892650E+04  0.46999998093E+01 0.  1.
</event>
<event>
 5   0  0.2432309E-05  0.2491652E+04  0.7818609E-02  0.8405966E-01
        2   -1    0    0  501    0  0.00000000000E+00  0.00000000000E+00  0.15466739682E+04  0.15466739682E+04  0.25500000920E-02 0. -1.
       -2   -1    0    0    0  501  0.00000000000E+00  0.00000000000E+00 -0.10034965767E+04  0.10034965767E+04  0.25500000920E-02 0.  1.
    10030    2    1    2    0    0  0.00000000000E+00  0.00000000000E+00  0.54317739152E+03  0.25501705448E+04  0.24916516870E+04 0.  0.
        4    1    3    3  502    0  0.43501272814E+03  0.11654094077E+04  0.20168184580E+03  0.12601953583E+04  0.12699999809E+01 0.  1.
       -4    1    3    3    0  502 -0.43501272814E+03 -0.11654094077E+04  0.34149554572E+03  0.12899751865E+04  0.12699999809E+01 0. -1.
</event>
<event>
 5   0  0.1039688E-05  0.2479974E+04  0.7818609E-02  0.8410155E-01
        1   -1    0    0  501    0  0.00000000000E+00  0.00000000000E+00  0.17553878858E+04  0.17553878858E+04  0.50400001928E-02 0. -1.
       -1   -1    0    0    0  501  0.00000000000E+00  0.00000000000E+00 -0.87591336539E+03  0.87591336540E+03  0.50400001928E-02 0.  1.
    10030    2    1    2    0    0  0.00000000000E+00  0.00000000000E+00  0.87947452044E+03  0.26313012512E+04  0.24799739601E+04 0.  0.
        3    1    3    3  502    0 -0.91105781445E+03  0.68299222643E+03  0.96067846496E+03  0.14897677154E+04  0.10100000352E+00 0. -1.
       -3    1    3    3    0  502  0.91105781445E+03 -0.68299222643E+03 -0.81203944510E+02  0.11415335358E+04  0.10100000352E+00 0.  1.
</event>
<event>
 5   0  0.1039688E-05  0.2497794E+04  0.7818609E-02  0.8403772E-01
        1   -1    0    0  501    0  0.00000000000E+00  0.00000000000E+00  0.77854662130E+03  0.77854662131E+03  0.50400001928E-02 0. -1.
       -1   -1    0    0    0  501  0.00000000000E+00  0.00000000000E+00 -0.20034045448E+04  0.20034045448E+04  0.50400001928E-02 0.  1.
    10030    2    1    2    0    0  0.00000000000E+00  0.00000000000E+00 -0.12248579235E+04  0.27819511661E+04  0.24977940984E+04 0.  0.
        3    1    3    3  502    0 -0.96674924983E+03  0.25238730133E+03 -0.14469642098E+04  0.17584109009E+04  0.10100000352E+00 0.  1.
       -3    1    3    3    0  502  0.96674924983E+03 -0.25238730133E+03  0.22210628624E+03  0.10235402652E+04  0.10100000352E+00 0. -1.
</event>
<event>
 5   0  0.2441340E-05  0.2487202E+04  0.7818609E-02  0.8407559E-01
        2   -1    0    0  501    0  0.00000000000E+00  0.00000000000E+00  0.22894482958E+04  0.22894482959E+04  0.25500000920E-02 0. -1.
       -2   -1    0    0    0  501  0.00000000000E+00  0.00000000000E+00 -0.67550934897E+03  0.67550934898E+03  0.25500000920E-02 0.  1.
    10030    2    1    2    0    0  0.00000000000E+00  0.00000000000E+00  0.16139389469E+04  0.29649576448E+04  0.24872022257E+04 0.  0.
        3    1    3    3  502    0  0.43339184610E+03  0.99180318356E+03  0.15370103170E+04  0.18798677539E+04  0.10100000352E+00 0.  1.
       -3    1    3    3    0  502 -0.43339184610E+03 -0.99180318356E+03  0.76928629848E+02  0.10850898910E+04  0.10100000352E+00 0. -1.
</event>
<event>
 5   0  0.1039688E-05  0.2520167E+04  0.7818609E-02  0.8395836E-01
       -1   -1    0    0    0  501  0.00000000000E+00  0.00000000000E+00  0.21141054193E+04  0.21141054193E+04  0.50400001928E-02 0. -1.
        1   -1    0    0  501    0  0.00000000000E+00  0.00000000000E+00 -0.75105532892E+03  0.75105532894E+03  0.50400001928E-02 0.  1.
    10030    2    1    2    0    0  0.00000000000E+00  0.00000000000E+00  0.13630500904E+04  0.28651607483E+04  0.25201667732E+04 0.  0.
        3    1    3    3  502    0 -0.69544740102E+03 -0.84625761983E+03 -0.26651889273E+02  0.10956775895E+04  0.10100000352E+00 0. -1.
       -3    1    3    3    0  502  0.69544740102E+03  0.84625761983E+03  0.13897019797E+04  0.17694831588E+04  0.10100000352E+00 0.  1.
</event>
<event>
 5   0  0.1015327E-05  0.2549121E+04  0.7818609E-02  0.8385692E-01
        1   -1    0    0  501    0  0.00000000000E+00  0.00000000000E+00  0.11275750771E+04  0.11275750771E+04  0.50400001928E-02 0.  1.
       -1   -1    0    0    0  501  0.00000000000E+00  0.00000000000E+00 -0.14407061023E+04  0.14407061023E+04  0.50400001928E-02 0. -1.
    10030    2    1    2    0    0  0.00000000000E+00  0.00000000000E+00 -0.31313102521E+03  0.25682811794E+04  0.25491208637E+04 0.  0.
        4    1    3    3  502    0 -0.64717756691E+03 -0.91974019661E+03 -0.76085859546E+03  0.13578174574E+04  0.12699999809E+01 0. -1.
       -4    1    3    3    0  502  0.64717756691E+03  0.91974019661E+03  0.44772757024E+03  0.12104637221E+04  0.12699999809E+01 0.  1.
</event>
<event>
 5   0  0.1002753E-05  0.2490850E+04  0.7818609E-02  0.8406253E-01
       -1   -1    0    0    0  501  0.00000000000E+00  0.00000000000E+00  0.95382594614E+03  0.95382594616E+03  0.50400001928E-02 0.  1.
        1   -1    0    0  501    0  0.00000000000E+00  0.00000000000E+00 -0.16261697046E+04  0.16261697046E+04  0.50400001928E-02 0. -1.
    10030    2    1    2    0    0  0.00000000000E+00  0.00000000000E+00 -0.67234375846E+03  0.25799956508E+04  0.24908495395E+04 0.  0.
        5    1    3    3  502    0 -0.64850974582E+03  0.28078639562E+03  0.72603252853E+03  0.10131886364E+04  0.46999998093E+01 0.  1.
       -5    1    3    3    0  502  0.64850974582E+03 -0.28078639562E+03 -0.13983762870E+04  0.15668070144E+04  0.46999998093E+01 0. -1.
</event>
<event>
 5   0  0.1015327E-05  0.2245396E+04  0.7818609E-02  0.8499767E-01
       -1   -1    0    0    0  501  0.00000000000E+00  0.00000000000E+00  0.70186495396E+03  0.70186495398E+03  0.50400001928E-02 0. -1.
        1   -1    0    0  501    0  0.00000000000E+00  0.00000000000E+00 -0.17958591709E+04  0.17958591709E+04  0.50400001928E-02 0.  1.
    10030    2    1    2    0    0  0.00000000000E+00  0.00000000000E+00 -0.10939942169E+04  0.24977241249E+04  0.22453958353E+04 0.  0.
        4    1    3    3  502    0  0.10583354881E+04  0.34918351098E+03 -0.39591913632E+03  0.11826904520E+04  0.12699999809E+01 0.  1.
       -4    1    3    3    0  502 -0.10583354881E+04 -0.34918351098E+03 -0.69807508059E+03  0.13150336729E+04  0.12699999809E+01 0. -1.
</event>
<event>
 5   0  0.2441340E-05  0.2540197E+04  0.7818609E-02  0.8388804E-01
       -2   -1    0    0    0  501  0.00000000000E+00  0.00000000000E+00  0.19150701811E+04  0.19150701811E+04  0.25500000920E-02 0.  1.
        2   -1    0    0  501    0  0.00000000000E+00  0.00000000000E+00 -0.84234493881E+03  0.84234493881E+03  0.25500000920E-02 0. -1.
    10030    2    1    2    0    0  0.00000000000E+00  0.00000000000E+00  0.10727252423E+04  0.27574151199E+04  0.25401965865E+04 0.  0.
        3    1    3    3  502    0 -0.12058298507E+04 -0.24839753621E+03  0.87517939608E+03  0.15105184376E+04  0.10100000352E+00 0.  1.
       -3    1    3    3    0  502  0.12058298507E+04  0.24839753621E+03  0.19754584623E+03  0.12468966823E+04  0.10100000352E+00 0. -1.
</event>
<event>
 5   0  0.1008073E-05  0.2488236E+04  0.7818609E-02  0.8407189E-01
       -1   -1    0    0    0  501  0.00000000000E+00  0.00000000000E+00  0.11867102092E+04  0.11867102092E+04  0.50400001928E-02 0.  1.
        1   -1    0    0  501    0  0.00000000000E+00  0.00000000000E+00 -0.13043025930E+04  0.13043025930E+04  0.50400001928E-02 0. -1.
    10030    2    1    2    0    0  0.00000000000E+00  0.00000000000E+00 -0.11759238381E+03  0.24910128023E+04  0.24882356826E+04 0.  0.
        1    1    3    3  502    0  0.57595870202E+02  0.23079797065E+03  0.11637318561E+04  0.11877949404E+04  0.50400001928E-02 0.  1.
       -1    1    3    3    0  502 -0.57595870202E+02 -0.23079797065E+03 -0.12813242399E+04  0.13032178618E+04  0.50400001928E-02 0. -1.
</event>
<event>
 5   0  0.2441340E-05  0.2501636E+04  0.7818609E-02  0.8402403E-01
       -2   -1    0    0    0  501  0.00000000000E+00  0.00000000000E+00  0.94673186100E+03  0.94673186100E+03  0.25500000920E-02 0.  1.
        2   -1    0    0  501    0  0.00000000000E+00  0.00000000000E+00 -0.16525751703E+04  0.16525751703E+04  0.25500000920E-02 0. -1.
    10030    2    1    2    0    0  0.00000000000E+00  0.00000000000E+00 -0.70584330926E+03  0.25993070313E+04  0.25016359179E+04 0.  0.
        3    1    3    3  502    0 -0.11218618223E+04  0.97362768165E+02  0.21284850833E+03  0.11460183047E+04  0.10100000352E+00 0.  1.
       -3    1    3    3    0  502  0.11218618223E+04 -0.97362768165E+02 -0.91869181759E+03  0.14532887266E+04  0.10100000352E+00 0. -1.
</event>
<event>
 5   0  0.2432309E-05  0.2491554E+04  0.7818609E-02  0.8406001E-01
        2   -1    0    0  501    0  0.00000000000E+00  0.00000000000E+00  0.15759967248E+04  0.15759967248E+04  0.25500000920E-02 0. -1.
       -2   -1    0    0    0  501  0.00000000000E+00  0.00000000000E+00 -0.98474864213E+03  0.98474864214E+03  0.25500000920E-02 0.  1.
    10030    2    1    2    0    0  0.00000000000E+00  0.00000000000E+00  0.59124808264E+03  0.25607453669E+04  0.24915542416E+04 0.  0.
        4    1    3    3  502    0  0.27214559852E+02 -0.31374835066E+03 -0.94316122014E+03  0.99435072278E+03  0.12699999809E+01 0.  1.
       -4    1    3    3    0  502 -0.27214559852E+02  0.31374835066E+03  0.15344093028E+04  0.15663946441E+04  0.12699999809E+01 0. -1.
</event>
<event>
 5   0  0.1008073E-05  0.2498690E+04  0.7818609E-02  0.8403452E-01
       -1   -1    0    0    0  501  0.00000000000E+00  0.00000000000E+00  0.17827473197E+04  0.17827473197E+04  0.50400001928E-02 0.  1.
        1   -1    0    0  501    0  0.00000000000E+00  0.00000000000E+00 -0.87553816085E+03  0.87553816086E+03  0.50400001928E-02 0. -1.
    10030    2    1    2    0    0  0.00000000000E+00  0.00000000000E+00  0.90720915888E+03  0.26582854806E+04  0.24986903046E+04 0.  0.
        1    1    3    3  502    0  0.28203459289E+03 -0.57640197347E+03 -0.68681437459E+03  0.93994506849E+03  0.50400001928E-02 0. -1.
       -1    1    3    3    0  502 -0.28203459289E+03  0.57640197347E+03  0.15940235335E+04  0.17183404121E+04  0.50400001928E-02 0.  1.
</event>
<event>
 5   0  0.1008073E-05  0.2506754E+04  0.7818609E-02  0.8400583E-01
        1   -1    0    0  501    0  0.00000000000E+00  0.00000000000E+00  0.18008053846E+04  0.18008053846E+04  0.50400001928E-02 0.  1.
       -1   -1    0    0    0  501  0.00000000000E+00  0.00000000000E+00 -0.87236197390E+03  0.87236197392E+03  0.50400001928E-02 0. -1.
    10030    2    1    2    0    0  0.00000000000E+00  0.00000000000E+00  0.92844341068E+03  0.26731673585E+04  0.25067541881E+04 0.  0.
        1    1    3    3  502    0  0.10384414984E+04  0.42270436873E+03 -0.13325369217E+03  0.11290687647E+04  0.50400001928E-02 0. -1.
       -1    1    3    3    0  502 -0.10384414984E+04 -0.42270436873E+03  0.10616971029E+04  0.15440985938E+04  0.50400001928E-02 0.  1.
</event>
<event>
 5   0  0.2388326E-05  0.2166531E+04  0.7818609E-02  0.8532489E-01
        2   -1    0    0  501    0  0.00000000000E+00  0.00000000000E+00  0.22966561421E+04  0.22966561421E+04  0.25500000920E-02 0. -1.
       -2   -1    0    0    0  501  0.00000000000E+00  0.00000000000E+00 -0.51094465905E+03  0.51094465905E+03  0.25500000920E-02 0.  1.
    10030    2    1    2    0    0  0.00000000000E+00  0.00000000000E+00  0.17857114830E+04  0.28076008011E+04  0.21665310424E+04 0.  0.
        2    1    3    3  502    0 -0.86564031624E+03 -0.63074230469E+01  0.17367734440E+04  0.19405553166E+04  0.25500000920E-02 0. -1.
       -2    1    3    3    0  502  0.86564031624E+03  0.63074230469E+01  0.48938039004E+02  0.86704548459E+03  0.25500000920E-02 0.  1.
</event>
<event>
 5   0  0.2441340E-05  0.2513374E+04  0.7818609E-02  0.8398236E-01
        2   -1    0    0  501    0  0.00000000000E+00  0.00000000000E+00  0.15584564981E+04  0.15584564981E+04  0.25500000920E-02 0. -1.
       -2   -1    0    0    0  501  0.00000000000E+00  0.00000000000E+00 -0.10133502934E+04  0.10133502934E+04  0.25500000920E-02 0.  1.
    10030    2    1    2    0    0  0.00000000000E+00  0.00000000000E+00  0.54510620478E+03  0.25718067915E+04  0.25133741063E+04 0.  0.
        3    1    3    3  502    0 -0.37990403631E+03  0.11938081844E+04  0.17147766754E+03  0.12644799953E+04  0.10100000352E+00 0.  1.
       -3    1    3    3    0  502  0.37990403631E+03 -0.11938081844E+04  0.37362853724E+03  0.13073267962E+04  0.10100000352E+00 0. -1.
</event>
<event>
 5   0  0.1015327E-05  0.2515249E+04  0.7818609E-02  0.8397573E-01
       -1   -1    0    0    0  501  0.00000000000E+00  0.00000000000E+00  0.80737067424E+03  0.80737067425E+03  0.50400001928E-02 0. -1.
        1   -1    0    0  501    0  0.00000000000E+00  0.00000000000E+00 -0.19589749421E+04  0.19589749421E+04  0.50400001928E-02 0.  1.
    10030    2    1    2    0    0  0.00000000000E+00  0.00000000000E+00 -0.11516042679E+04  0.27663456163E+04  0.25152486317E+04 0.  0.
        4    1    3    3  502    0  0.91895397279E+03  0.49736491103E+03  0.19389733089E+03  0.10627539916E+04  0.12699999809E+01 0. -1.
       -4    1    3    3    0  502 -0.91895397279E+03 -0.49736491103E+03 -0.13455015987E+04  0.17035916248E+04  0.12699999809E+01 0.  1.
</event>
<event>
 5   0  0.1010338E-05  0.2452473E+04  0.7818609E-02  0.8420115E-01
        1   -1    0    0  501    0  0.00000000000E+00  0.00000000000E+00  0.10687509156E+04  0.10687509156E+04  0.50400001928E-02 0. -1.
       -1   -1    0    0    0  501  0.00000000000E+00  0.00000000000E+00 -0.14069287842E+04  0.14069287843E+04  0.50400001928E-02 0.  1.
    10030    2    1    2    0    0  0.00000000000E+00  0.00000000000E+00 -0.33817786863E+03  0.24756796999E+04  0.24524733853E+04 0.  0.
        2    1    3    3  502    0 -0.66223037810E+03 -0.44540727660E+02  0.87174635091E+03  0.10956617409E+04  0.25500000920E-02 0. -1.
       -2    1    3    3    0  502  0.66223037810E+03  0.44540727660E+02 -0.12099242195E+04  0.13800179590E+04  0.25500000920E-02 0.  1.
</event>
<event>
 5   0  0.1008073E-05  0.2501105E+04  0.7818609E-02  0.8402592E-01
        1   -1    0    0  501    0  0.00000000000E+00  0.00000000000E+00  0.20141517880E+04  0.20141517880E+04  0.50400001928E-02 0.  1.
       -1   -1    0    0    0  501  0.00000000000E+00  0.00000000000E+00 -0.77644678926E+03  0.77644678928E+03  0.50400001928E-02 0. -1.
    10030    2    1    2    0    0  0.00000000000E+00  0.00000000000E+00  0.12377049987E+04  0.27905985773E+04  0.25011051069E+04 0.  0.
        1    1    3    3  502    0 -0.95931529371E+03  0.76007340673E+03  0.33246351919E+03  0.12682781272E+04  0.50400001928E-02 0. -1.
       -1    1    3    3    0  502  0.95931529371E+03 -0.76007340673E+03  0.90524147955E+03  0.15223204501E+04  0.50400001928E-02 0.  1.
</event>
<event>
 5   0  0.2388326E-05  0.2502084E+04  0.7818609E-02  0.8402243E-01
        2   -1    0    0  501    0  0.00000000000E+00  0.00000000000E+00  0.20935745071E+04  0.20935745071E+04  0.25500000920E-02 0.  1.
       -2   -1    0    0    0  501  0.00000000000E+00  0.00000000000E+00 -0.74757601517E+03  0.74757601517E+03  0.25500000920E-02 0. -1.
    10030    2    1    2    0    0  0.00000000000E+00  0.00000000000E+00  0.13459984919E+04  0.28411505222E+04  0.25020840014E+04 0.  0.
        2    1    3    3  502    0  0.43505713191E+03 -0.92045786354E+03  0.14985642878E+04  0.18116876970E+04  0.25500000920E-02 0.  1.
       -2    1    3    3    0  502 -0.43505713191E+03  0.92045786354E+03 -0.15256579592E+03  0.10294628253E+04  0.25500000920E-02 0. -1.
</event>
<event>
 5   0  0.1002753E-05  0.2472930E+04  0.7818609E-02  0.8412693E-01
       -1   -1    0    0    0  501  0.00000000000E+00  0.00000000000E+00  0.56434327940E+03  0.56434327943E+03  0.50400001928E-02 0.  1.
        1   -1    0    0  501    0  0.00000000000E+00  0.00000000000E+00 -0.27090708673E+04  0.27090708673E+04  0.50400001928E-02 0. -1.
    10030    2    1    2    0    0  0.00000000000E+00  0.00000000000E+00 -0.21447275879E+04  0.32734141467E+04  0.24729301951E+04 0.  0.
        5    1    3    3  502    0  0.11361554825E+04  0.42071108322E+03 -0.13992309163E+04  0.18508690777E+04  0.46999998093E+01 0. -1.
       -5    1    3    3    0  502 -0.11361554825E+04 -0.42071108322E+03 -0.74549667159E+03  0.14225450690E+04  0.46999998093E+01 0.  1.
</event>
<event>
 5   0  0.1039688E-05  0.2175650E+04  0.7818609E-02  0.8528632E-01
        1   -1    0    0  501    0  0.00000000000E+00  0.00000000000E+00  0.89857674343E+03  0.89857674345E+03  0.50400001928E-02 0.  1.
       -1   -1    0    0    0  501  0.00000000000E+00  0.00000000000E+00 -0.13169300986E+04  0.13169300986E+04  0.50400001928E-02 0. -1.
    10030    2    1    2    0    0  0.00000000000E+00  0.00000000000E+00 -0.41835335517E+03  0.22155068421E+04  0.21756495668E+04 0.  0.
        3    1    3    3  502    0 -0.98155582526E+03 -0.34148029945E+03 -0.53647121736E+03  0.11695563305E+04  0.10100000352E+00 0.  1.
       -3    1    3    3    0  502  0.98155582526E+03  0.34148029945E+03  0.11811786219E+03  0.10459505115E+04  0.10100000352E+00 0. -1.
</event>
<event>
 5   0  0.2441340E-05  0.2577879E+04  0.7818609E-02  0.8375754E-01
        2   -1    0    0  501    0  0.00000000000E+00  0.00000000000E+00  0.11022933648E+04  0.11022933648E+04  0.25500000920E-02 0.  1.
       -2   -1    0    0    0  501  0.00000000000E+00  0.00000000000E+00 -0.15071894992E+04  0.15071894992E+04  0.25500000920E-02 0. -1.
    10030    2    1    2    0    0  0.00000000000E+00  0.00000000000E+00 -0.40489613443E+03  0.26094828640E+04  0.25778789611E+04 0.  0.
        3    1    3    3  502    0  0.10750809640E+04  0.78122613042E+01 -0.92215319413E+03  0.14164132992E+04  0.10100000352E+00 0. -1.
       -3    1    3    3    0  502 -0.10750809640E+04 -0.78122613042E+01  0.51725705969E+03  0.11930695648E+04  0.10100000352E+00 0.  1.
</event>
<event>
 5   0  0.2441340E-05  0.2497452E+04  0.7818609E-02  0.8403894E-01
        2   -1    0    0  501    0  0.00000000000E+00  0.00000000000E+00  0.19595184580E+04  0.19595184580E+04  0.25500000920E-02 0. -1.
       -2   -1    0    0    0  501  0.00000000000E+00  0.00000000000E+00 -0.79576495913E+03  0.79576495913E+03  0.25500000920E-02 0.  1.
    10030    2    1    2    0    0  0.00000000000E+00  0.00000000000E+00  0.11637534989E+04  0.27552834171E+04  0.24974516016E+04 0.  0.
        3    1    3    3  502    0 -0.12167943939E+04  0.23453765095E+03  0.41196517770E+03  0.13058758841E+04  0.10100000352E+00 0.  1.
       -3    1    3    3    0  502  0.12167943939E+04 -0.23453765095E+03  0.75178832115E+03  0.14494075330E+04  0.10100000352E+00 0. -1.
</event>
<event>
 5   0  0.1008073E-05  0.2500987E+04  0.7818609E-02  0.8402634E-01
       -1   -1    0    0    0  501  0.00000000000E+00  0.00000000000E+00  0.77115785416E+03  0.77115785418E+03  0.50400001928E-02 0.  1.
        1   -1    0    0  501    0  0.00000000000E+00  0.00000000000E+00 -0.20277739132E+04  0.20277739132E+04  0.50400001928E-02 0. -1.
    10030    2    1    2    0    0  0.00000000000E+00  0.00000000000E+00 -0.12566160590E+04  0.27989317674E+04  0.25009868290E+04 0.  0.
        1    1    3    3  502    0 -0.14095130543E+03  0.35985850327E+03  0.70264329871E+03  0.80191833632E+03  0.50400001928E-02 0.  1.
       -1    1    3    3    0  502  0.14095130543E+03 -0.35985850327E+03 -0.19592593577E+04  0.19970134310E+04  0.50400001928E-02 0. -1.
</event>
<event>
 5   0  0.2452457E-05  0.2501467E+04  0.7818609E-02  0.8402463E-01
        2   -1    0    0  501    0  0.00000000000E+00  0.00000000000E+00  0.12868853471E+04  0.12868853471E+04  0.25500000920E-02 0. -1.
       -2   -1    0    0    0  501  0.00000000000E+00  0.00000000000E+00 -0.12155974541E+04  0.12155974541E+04  0.25500000920E-02 0.  1.
    10030    2    1    2    0    0  0.00000000000E+00  0.00000000000E+00  0.71287892966E+02  0.25024828012E+04  0.25014672108E+04 0.  0.
        1    1    3    3  502    0  0.13504603257E+03  0.10208993057E+04 -0.67447642707E+03  0.12310122965E+04  0.50400001928E-02 0.  1.
       -1    1    3    3    0  502 -0.13504603257E+03 -0.10208993057E+04  0.74576432004E+03  0.12714705047E+04  0.50400001928E-02 0. -1.
</event>
<event>
 5   0  0.1015327E-05  0.2380532E+04  0.7818609E-02  0.8446828E-01
       -1   -1    0    0    0  501  0.00000000000E+00  0.00000000000E+00  0.65751388682E+03  0.65751388684E+03  0.50400001928E-02 0. -1.
        1   -1    0    0  501    0  0.00000000000E+00  0.00000000000E+00 -0.21546816127E+04  0.21546816127E+04  0.50400001928E-02 0.  1.
    10030    2    1    2    0    0  0.00000000000E+00  0.00000000000E+00 -0.14971677259E+04  0.28121954995E+04  0.23805319423E+04 0.  0.
        4    1    3    3  502    0 -0.28230364138E+03  0.10169355337E+04 -0.13987218385E+04  0.17522207681E+04  0.12699999809E+01 0.  1.
       -4    1    3    3    0  502  0.28230364138E+03 -0.10169355337E+04 -0.98445887398E+02  0.10599747315E+04  0.12699999809E+01 0. -1.
</event>
<event>
 5   0  0.1008073E-05  0.2487384E+04  0.7818609E-02  0.8407494E-01
        1   -1    0    0  501    0  0.00000000000E+00  0.00000000000E+00  0.14312729608E+04  0.14312729608E+04  0.50400001928E-02 0.  1.
       -1   -1    0    0    0  501  0.00000000000E+00  0.00000000000E+00 -0.10806948100E+04  0.10806948100E+04  0.50400001928E-02 0. -1.
    10030    2    1    2    0    0  0.00000000000E+00  0.00000000000E+00  0.35057815079E+03  0.25119677708E+04  0.24873835735E+04 0.  0.
        1    1    3    3  502    0 -0.60790952984E+03 -0.90878360105E+02  0.12671578729E+04  0.14083685411E+04  0.50400001928E-02 0.  1.
       -1    1    3    3    0  502  0.60790952984E+03  0.90878360105E+02 -0.91657972209E+03  0.11035992297E+04  0.50400001928E-02 0. -1.
</event>
<event>
 5   0  0.1010338E-05  0.2525538E+04  0.7818609E-02  0.8393943E-01
       -1   -1    0    0    0  501  0.00000000000E+00  0.00000000000E+00  0.10896588660E+04  0.10896588660E+04  0.50400001928E-02 0. -1.
        1   -1    0    0  501    0  0.00000000000E+00  0.00000000000E+00 -0.14633808872E+04  0.14633808872E+04  0.50400001928E-02 0.  1.
    10030    2    1    2    0    0  0.00000000000E+00  0.00000000000E+00 -0.37372202118E+03  0.25530397532E+04  0.25255383253E+04 0.  0.
        2    1    3    3  502    0 -0.57038038184E+03  0.92010462089E+03  0.47034120061E+03  0.11803165416E+04  0.25500000920E-02 0. -1.
       -2    1    3    3    0  502  0.57038038184E+03 -0.92010462089E+03 -0.84406322179E+03  0.13727232116E+04  0.25500000920E-02 0.  1.
</event>
<event>
 5   0  0.2452457E-05  0.2542172E+04  0.7818609E-02  0.8388114E-01
        2   -1    0    0  501    0  0.00000000000E+00  0.00000000000E+00  0.12812141865E+04  0.12812141865E+04  0.25500000920E-02 0. -1.
       -2   -1    0    0    0  501  0.00000000000E+00  0.00000000000E+00 -0.12610378928E+04  0.12610378928E+04  0.25500000920E-02 0.  1.
    10030    2    1    2    0    0  0.00000000000E+00  0.00000000000E+00  0.20176293709E+02  0.25422520792E+04  0.25421720146E+04 0.  0.
        1    1    3    3  502    0  0.10932675400E+03  0.59922019009E+02  0.12750851595E+04  0.12811655442E+04  0.50400001928E-02 0. -1.
       -1    1    3    3    0  502 -0.10932675400E+03 -0.59922019009E+02 -0.12549088658E+04  0.12610865351E+04  0.50400001928E-02 0.  1.
</event>
<event>
 5   0  0.1015327E-05  0.2504768E+04  0.7818609E-02  0.8401289E-01
       -1   -1    0    0    0  501  0.00000000000E+00  0.00000000000E+00  0.10879270398E+04  0.10879270398E+04  0.50400001928E-02 0. -1.
        1   -1    0    0  501    0  0.00000000000E+00  0.00000000000E+00 -0.14417016841E+04  0.14417016841E+04  0.50400001928E-02 0.  1.
    10030    2    1    2    0    0  0.00000000000E+00  0.00000000000E+00 -0.35377464428E+03  0.25296287239E+04  0.25047684487E+04 0.  0.
        4    1    3    3  502    0 -0.80623627412E+02 -0.73968669146E+03 -0.11942725647E+04  0.14070981283E+04  0.12699999809E+01 0.  1.
       -4    1    3    3    0  502  0.80623627412E+02  0.73968669146E+03  0.84049792045E+03  0.11225305956E+04  0.12699999809E+01 0. -1.
</event>
<event>
 5   0  0.1010338E-05  0.2485683E+04  0.7818609E-02  0.8408104E-01
       -1   -1    0    0    0  501  0.00000000000E+00  0.00000000000E+00  0.99462396970E+03  0.99462396971E+03  0.50400001928E-02 0.  1.
        1   -1    0    0  501    0  0.00000000000E+00  0.00000000000E+00 -0.15530036588E+04  0.15530036588E+04  0.50400001928E-02 0. -1.
    10030    2    1    2    0    0  0.00000000000E+00  0.00000000000E+00 -0.55837968913E+03  0.25476276286E+04  0.24856827345E+04 0.  0.
        2    1    3    3  502    0 -0.10571247835E+03  0.10466895824E+04 -0.95743682599E+03  0.14224695026E+04  0.25500000920E-02 0. -1.
       -2    1    3    3    0  502  0.10571247835E+03 -0.10466895824E+04  0.39905713686E+03  0.11251581260E+04  0.25500000920E-02 0.  1.
</event>
<event>
 5   0  0.2388326E-05  0.2538492E+04  0.7818609E-02  0.8389400E-01
       -2   -1    0    0    0  501  0.00000000000E+00  0.00000000000E+00  0.10520351288E+04  0.10520351288E+04  0.25500000920E-02 0. -1.
        2   -1    0    0  501    0  0.00000000000E+00  0.00000000000E+00 -0.15313032689E+04  0.15313032689E+04  0.25500000920E-02 0.  1.
    10030    2    1    2    0    0  0.00000000000E+00  0.00000000000E+00 -0.47926814007E+03  0.25833383977E+04  0.25384915455E+04 0.  0.
        2    1    3    3  502    0  0.33394567023E+03  0.22595403125E+01  0.10065236794E+04  0.10604785398E+04  0.25500000920E-02 0. -1.
       -2    1    3    3    0  502 -0.33394567023E+03 -0.22595403125E+01 -0.14857918194E+04  0.15228598579E+04  0.25500000920E-02 0.  1.
</event>
<event>
 5   0  0.1039688E-05  0.2432348E+04  0.7818609E-02  0.8427491E-01
        1   -1    0    0  501    0  0.00000000000E+00  0.00000000000E+00  0.12026465333E+04  0.12026465333E+04  0.50400001928E-02 0.  1.
       -1   -1    0    0    0  501  0.00000000000E+00  0.00000000000E+00 -0.12298535835E+04  0.12298535835E+04  0.50400001928E-02 0. -1.
    10030    2    1    2    0    0  0.00000000000E+00  0.00000000000E+00 -0.27207050178E+02  0.24325001168E+04  0.24323479592E+04 0.  0.
        3    1    3    3  502    0  0.10507479766E+04  0.18177389731E+03 -0.59841876401E+03  0.12227911054E+04  0.10100000352E+00 0. -1.
       -3    1    3    3    0  502 -0.10507479766E+04 -0.18177389731E+03  0.57121171384E+03  0.12097090114E+04  0.10100000352E+00 0.  1.
</event>
<event>
 5   0  0.2345143E-05  0.2509558E+04  0.7818609E-02  0.8399588E-01
        2   -1    0    0  501    0  0.00000000000E+00  0.00000000000E+00  0.12749825709E+04  0.12749825709E+04  0.25500000920E-02 0.  1.
       -2   -1    0    0    0  501  0.00000000000E+00  0.00000000000E+00 -0.12348960604E+04  0.12348960604E+04  0.25500000920E-02 0. -1.
    10030    2    1    2    0    0  0.00000000000E+00  0.00000000000E+00  0.40086510495E+02  0.25098786312E+04  0.25095584901E+04 0.  0.
        5    1    3    3  502    0 -0.27173391109E+03 -0.18331616944E+03 -0.11913109618E+04  0.12355921795E+04  0.46999998093E+01 0. -1.
       -5    1    3    3    0  502  0.27173391109E+03  0.18331616944E+03  0.12313974723E+04  0.12742864517E+04  0.46999998093E+01 0.  1.
</event>
<event>
 5   0  0.1039688E-05  0.2409727E+04  0.7818609E-02  0.8435871E-01
       -1   -1    0    0    0  501  0.00000000000E+00  0.00000000000E+00  0.12837025979E+04  0.12837025979E+04  0.50400001928E-02 0. -1.
        1   -1    0    0  501    0  0.00000000000E+00  0.00000000000E+00 -0.11308658689E+04  0.11308658690E+04  0.50400001928E-02 0.  1.
    10030    2    1    2    0    0  0.00000000000E+00  0.00000000000E+00  0.15283672893E+03  0.24145684668E+04  0.24097265022E+04 0.  0.
        3    1    3    3  502    0  0.52420076718E+03  0.10754658660E+04  0.21912001067E+03  0.12163169252E+04  0.10100000352E+00 0. -1.
       -3    1    3    3    0  502 -0.52420076718E+03 -0.10754658660E+04 -0.66283281735E+02  0.11982515416E+04  0.10100000352E+00 0.  1.
</event>
<event>
 5   0  0.2388326E-05  0.2497277E+04  0.7818609E-02  0.8403956E-01
       -2   -1    0    0    0  501  0.00000000000E+00  0.00000000000E+00  0.68907555808E+03  0.68907555809E+03  0.25500000920E-02 0. -1.
        2   -1    0    0  501    0  0.00000000000E+00  0.00000000000E+00 -0.22625935441E+04  0.22625935441E+04  0.25500000920E-02 0.  1.
    10030    2    1    2    0    0  0.00000000000E+00  0.00000000000E+00 -0.15735179860E+04  0.29516691022E+04  0.24972768442E+04 0.  0.
        2    1    3    3  502    0 -0.38044545032E+03  0.46361820550E+03 -0.20812115518E+04  0.21658998371E+04  0.25500000920E-02 0.  1.
       -2    1    3    3    0  502  0.38044545032E+03 -0.46361820550E+03  0.50769356580E+03  0.78576926505E+03  0.25500000920E-02 0. -1.
</event>
<event>
 5   0  0.2388326E-05  0.2487349E+04  0.7818609E-02  0.8407507E-01
        2   -1    0    0  501    0  0.00000000000E+00  0.00000000000E+00  0.81941678705E+03  0.81941678705E+03  0.25500000920E-02 0.  1.
       -2   -1    0    0    0  501  0.00000000000E+00  0.00000000000E+00 -0.18875934870E+04  0.18875934870E+04  0.25500000920E-02 0. -1.
    10030    2    1    2    0    0  0.00000000000E+00  0.00000000000E+00 -0.10681766999E+04  0.27070102740E+04  0.24873486208E+04 0.  0.
        2    1    3    3  502    0  0.86726607197E+03 -0.86833451085E+03 -0.31487925205E+03  0.12670060007E+04  0.25500000920E-02 0.  1.
       -2    1    3    3    0  502 -0.86726607197E+03  0.86833451085E+03 -0.75329744788E+03  0.14400042734E+04  0.25500000920E-02 0. -1.
</event>
<event>
 5   0  0.1008073E-05  0.2496812E+04  0.7818609E-02  0.8404122E-01
       -1   -1    0    0    0  501  0.00000000000E+00  0.00000000000E+00  0.10040142800E+04  0.10040142800E+04  0.50400001928E-02 0. -1.
        1   -1    0    0  501    0  0.00000000000E+00  0.00000000000E+00 -0.15522866062E+04  0.15522866062E+04  0.50400001928E-02 0.  1.
    10030    2    1    2    0    0  0.00000000000E+00  0.00000000000E+00 -0.54827232622E+03  0.25563008862E+04  0.24968123031E+04 0.  0.
        1    1    3    3  502    0 -0.49793040937E+03 -0.86071993925E+03  0.49866205571E+03  0.11124016146E+04  0.50400001928E-02 0. -1.
       -1    1    3    3    0  502  0.49793040937E+03  0.86071993925E+03 -0.10469343819E+04  0.14438992716E+04  0.50400001928E-02 0.  1.
</event>
<event>
 5   0  0.2441340E-05  0.2474071E+04  0.7818609E-02  0.8412281E-01
        2   -1    0    0  501    0  0.00000000000E+00  0.00000000000E+00  0.12260796488E+04  0.12260796488E+04  0.25500000920E-02 0. -1.
       -2   -1    0    0    0  501  0.00000000000E+00  0.00000000000E+00 -0.12480897523E+04  0.12480897524E+04  0.25500000920E-02 0.  1.
    10030    2    1    2    0    0  0.00000000000E+00  0.00000000000E+00 -0.22010103537E+02  0.24741694012E+04  0.24740714988E+04 0.  0.
        3    1    3    3  502    0  0.11811782600E+04  0.23313461587E+03  0.27312518764E+03  0.12345570903E+04  0.10100000352E+00 0. -1.
       -3    1    3    3    0  502 -0.11811782600E+04 -0.23313461587E+03 -0.29513529117E+03  0.12396123109E+04  0.10100000352E+00 0.  1.
</event>
<event>
 5   0  0.2388326E-05  0.2120018E+04  0.7818609E-02  0.8552476E-01
        2   -1    0    0  501    0  0.00000000000E+00  0.00000000000E+00  0.27293448701E+04  0.27293448701E+04  0.25500000920E-02 0. -1.
       -2   -1    0    0    0  501  0.00000000000E+00  0.00000000000E+00 -0.41168084408E+03  0.41168084409E+03  0.25500000920E-02 0.  1.
    10030    2    1    2    0    0  0.00000000000E+00  0.00000000000E+00  0.23176640260E+04  0.31410257142E+04  0.21200179244E+04 0.  0.
        2    1    3    3  502    0 -0.97549460898E+03  0.32936707344E+03  0.15323212697E+04  0.18460988259E+04  0.25500000920E-02 0. -1.
       -2    1    3    3    0  502  0.97549460898E+03 -0.32936707344E+03  0.78534275627E+03  0.12949268883E+04  0.25500000920E-02 0.  1.
</event>
<event>
 5   0  0.1039688E-05  0.2474521E+04  0.7818609E-02  0.8412119E-01
       -1   -1    0    0    0  501  0.00000000000E+00  0.00000000000E+00  0.10935004757E+04  0.10935004758E+04  0.50400001928E-02 0.  1.
        1   -1    0    0  501    0  0.00000000000E+00  0.00000000000E+00 -0.13999207002E+04  0.13999207002E+04  0.50400001928E-02 0. -1.
    10030    2    1    2    0    0  0.00000000000E+00  0.00000000000E+00 -0.30642022441E+03  0.24934211759E+04  0.24745213288E+04 0.  0.
        3    1    3    3  502    0  0.41267072677E+03 -0.69250603416E+03  0.79254917687E+03  0.11304848270E+04  0.10100000352E+00 0.  1.
       -3    1    3    3    0  502 -0.41267072677E+03  0.69250603416E+03 -0.10989694013E+04  0.13629363489E+04  0.10100000352E+00 0. -1.
</event>
<event>
 5   0  0.1002753E-05  0.2509314E+04  0.7818609E-02  0.8399675E-01
       -1   -1    0    0    0  501  0.00000000000E+00  0.00000000000E+00  0.91331443876E+03  0.91331443878E+03  0.50400001928E-02 0. -1.
        1   -1    0    0  501    0  0.00000000000E+00  0.00000000000E+00 -0.17235734383E+04  0.17235734383E+04  0.50400001928E-02 0.  1.
    10030    2    1    2    0    0  0.00000000000E+00  0.00000000000E+00 -0.81025899955E+03  0.26368878771E+04  0.25093142549E+04 0.  0.
        5    1    3    3  502    0  0.11572620941E+04 -0.37174321251E+03 -0.78364126100E+02  0.12180359587E+04  0.46999998093E+01 0. -1.
       -5    1    3    3    0  502 -0.11572620941E+04  0.37174321251E+03 -0.73189487345E+03  0.14188519184E+04  0.46999998093E+01 0.  1.
</event>
<event>
 5   0  0.1015327E-05  0.2423472E+04  0.7818609E-02  0.8430768E-01
        1   -1    0    0  501    0  0.00000000000E+00  0.00000000000E+00  0.17853230167E+04  0.17853230167E+04  0.50400001928E-02 0.  1.
       -1   -1    0    0    0  501  0.00000000000E+00  0.00000000000E+00 -0.82243035621E+03  0.82243035623E+03  0.50400001928E-02 0. -1.
    10030    2    1    2    0    0  0.00000000000E+00  0.00000000000E+00  0.96289266052E+03  0.26077533730E+04  0.24234717614E+04 0.  0.
        4    1    3    3  502    0 -0.80476252248E+03 -0.62985928533E+03 -0.21916814858E+03  0.10451802367E+04  0.12699999809E+01 0. -1.
       -4    1    3    3    0  502  0.80476252248E+03  0.62985928533E+03  0.11820608091E+04  0.15625731363E+04  0.12699999809E+01 0.  1.
</event>
<event>
 5   0  0.2441340E-05  0.2497038E+04  0.7818609E-02  0.8404041E-01
       -2   -1    0    0    0  501  0.00000000000E+00  0.00000000000E+00  0.10314320619E+04  0.10314320619E+04  0.25500000920E-02 0.  1.
        2   -1    0    0  501    0  0.00000000000E+00  0.00000000000E+00 -0.15112969711E+04  0.15112969711E+04  0.25500000920E-02 0. -1.
    10030    2    1    2    0    0  0.00000000000E+00  0.00000000000E+00 -0.47986490920E+03  0.25427290330E+04  0.24970383666E+04 0.  0.
        3    1    3    3  502    0  0.20185377012E+03  0.84037538213E+03  0.67756722296E+03  0.10982135854E+04  0.10100000352E+00 0.  1.
       -3    1    3    3    0  502 -0.20185377012E+03 -0.84037538213E+03 -0.11574321322E+04  0.14445154475E+04  0.10100000352E+00 0. -1.
</event>
<event>
 5   0  0.2388326E-05  0.2514387E+04  0.7818609E-02  0.8397878E-01
       -2   -1    0    0    0  501  0.00000000000E+00  0.00000000000E+00  0.15064330640E+04  0.15064330640E+04  0.25500000920E-02 0.  1.
        2   -1    0    0  501    0  0.00000000000E+00  0.00000000000E+00 -0.10491910343E+04  0.10491910343E+04  0.25500000920E-02 0. -1.
    10030    2    1    2    0    0  0.00000000000E+00  0.00000000000E+00  0.45724202972E+03  0.25556240983E+04  0.25143874519E+04 0.  0.
        2    1    3    3  502    0 -0.57948615112E+03  0.10777008802E+04  0.52195892042E+03  0.13302948925E+04  0.25500000920E-02 0.  1.
       -2    1    3    3    0  502  0.57948615112E+03 -0.10777008802E+04 -0.64716890708E+02  0.12253292058E+04  0.25500000920E-02 0. -1.
</event>
<event>
 5   0  0.2432309E-05  0.2366784E+04  0.7818609E-02  0.8452045E-01
       -2   -1    0    0    0  501  0.00000000000E+00  0.00000000000E+00  0.10312978311E+04  0.10312978311E+04  0.25500000920E-02 0.  1.
        2   -1    0    0  501    0  0.00000000000E+00  0.00000000000E+00 -0.13579166885E+04  0.13579166885E+04  0.25500000920E-02 0. -1.
    10030    2    1    2    0    0  0.00000000000E+00  0.00000000000E+00 -0.32661885740E+03  0.23892145196E+04  0.23667839240E+04 0.  0.
        4    1    3    3  502    0 -0.53964734602E+03 -0.99073845061E+03  0.19733398199E+03  0.11453053082E+04  0.12699999809E+01 0.  1.
       -4    1    3    3    0  502  0.53964734602E+03  0.99073845061E+03 -0.52395283939E+03  0.12439092115E+04  0.12699999809E+01 0. -1.
</event>
<event>
 5   0  0.1010338E-05  0.2522874E+04  0.7818609E-02  0.8394882E-01
        1   -1    0    0  501    0  0.00000000000E+00  0.00000000000E+00  0.13008950236E+04  0.13008950236E+04  0.50400001928E-02 0. -1.
       -1   -1    0    0    0  501  0.00000000000E+00  0.00000000000E+00 -0.12231758238E+04  0.12231758238E+04  0.50400001928E-02 0.  1.
    10030    2    1    2    0    0  0.00000000000E+00  0.00000000000E+00  0.77719199816E+02  0.25240708474E+04  0.25228740295E+04 0.  0.
        2    1    3    3  502    0 -0.15600772598E+02 -0.65258822760E+03 -0.10410544011E+04  0.12287835631E+04  0.25500000920E-02 0.  1.
       -2    1    3    3    0  502  0.15600772598E+02  0.65258822760E+03  0.11187736009E+04  0.12952872843E+04  0.25500000920E-02 0. -1.
</event>
<event>
 5   0  0.2441340E-05  0.2498610E+04  0.7818609E-02  0.8403481E-01
       -2   -1    0    0    0  501  0.00000000000E+00  0.00000000000E+00  0.64544546964E+03  0.64544546964E+03  0.25500000920E-02 0.  1.
        2   -1    0    0  501    0  0.00000000000E+00  0.00000000000E+00 -0.24181168229E+04  0.24181168229E+04  0.25500000920E-02 0. -1.
    10030    2    1    2    0    0  0.00000000000E+00  0.00000000000E+00 -0.17726713533E+04  0.30635622925E+04  0.24986096521E+04 0.  0.
        3    1    3    3  502    0  0.72388211370E+03  0.10079763660E+04 -0.10629157848E+04  0.16339558271E+04  0.10100000352E+00 0.  1.
       -3    1    3    3    0  502 -0.72388211370E+03 -0.10079763660E+04 -0.70975556843E+03  0.14296064655E+04  0.10100000352E+00 0. -1.
</event>
<event>
 5   0  0.2388326E-05  0.2302880E+04  0.7818609E-02  0.8476787E-01
       -2   -1    0    0    0  501  0.00000000000E+00  0.00000000000E+00  0.87805082352E+03  0.87805082352E+03  0.25500000920E-02 0.  1.
        2   -1    0    0  501    0  0.00000000000E+00  0.00000000000E+00 -0.15099511902E+04  0.15099511902E+04  0.25500000920E-02 0. -1.
    10030    2    1    2    0    0  0.00000000000E+00  0.00000000000E+00 -0.63190036670E+03  0.23880020137E+04  0.23028798371E+04 0.  0.
        2    1    3    3  502    0 -0.32232471599E+03  0.33021729653E+03  0.77797352282E+03  0.90453274550E+03  0.25500000920E-02 0.  1.
       -2    1    3    3    0  502  0.32232471599E+03 -0.33021729653E+03 -0.14098738895E+04  0.14834692682E+04  0.25500000920E-02 0. -1.
</event>
<event>
 5   0  0.1008073E-05  0.2532750E+04  0.7818609E-02  0.8391410E-01
       -1   -1    0    0    0  501  0.00000000000E+00  0.00000000000E+00  0.10852616798E+04  0.10852616798E+04  0.50400001928E-02 0.  1.
        1   -1    0    0  501    0  0.00000000000E+00  0.00000000000E+00 -0.14777133307E+04  0.14777133307E+04  0.50400001928E-02 0. -1.
    10030    2    1    2    0    0  0.00000000000E+00  0.00000000000E+00 -0.39245165088E+03  0.25629750105E+04  0.25327500087E+04 0.  0.
        1    1    3    3  502    0 -0.11714606876E+04  0.21942096052E+03  0.23694792365E+03  0.12151584337E+04  0.50400001928E-02 0.  1.
       -1    1    3    3    0  502  0.11714606876E+04 -0.21942096052E+03 -0.62939957453E+03  0.13478165769E+04  0.50400001928E-02 0. -1.
</event>
<event>
 5   0  0.1002753E-05  0.2513698E+04  0.7818609E-02  0.8398122E-01
        1   -1    0    0  501    0  0.00000000000E+00  0.00000000000E+00  0.24600250592E+04  0.24600250592E+04  0.50400001928E-02 0. -1.
       -1   -1    0    0    0  501  0.00000000000E+00  0.00000000000E+00 -0.64213552113E+03  0.64213552115E+03  0.50400001928E-02 0.  1.
    10030    2    1    2    0    0  0.00000000000E+00  0.00000000000E+00  0.18178895381E+04  0.31021605804E+04  0.25136980514E+04 0.  0.
        5    1    3    3  502    0 -0.64027935418E+03 -0.99752665155E+03  0.39322832345E+03  0.12488665566E+04  0.46999998093E+01 0. -1.
       -5    1    3    3    0  502  0.64027935418E+03  0.99752665155E+03  0.14246612146E+04  0.18532940237E+04  0.46999998093E+01 0.  1.
</event>
<event>
 5   0  0.1015327E-05  0.2407829E+04  0.7818609E-02  0.8436578E-01
        1   -1    0    0  501    0  0.00000000000E+00  0.00000000000E+00  0.91340233340E+03  0.91340233342E+03  0.50400001928E-02 0.  1.
       -1   -1    0    0    0  501  0.00000000000E+00  0.00000000000E+00 -0.15868251314E+04  0.15868251314E+04  0.50400001928E-02 0. -1.
    10030    2    1    2    0    0  0.00000000000E+00  0.00000000000E+00 -0.67342279796E+03  0.25002274648E+04  0.24078287129E+04 0.  0.
        4    1    3    3  502    0  0.63238099879E+03 -0.92150787801E+03  0.12804163358E+03  0.11249350069E+04  0.12699999809E+01 0.  1.
       -4    1    3    3    0  502 -0.63238099879E+03  0.92150787801E+03 -0.80146443154E+03  0.13752924579E+04  0.12699999809E+01 0. -1.
</event>
<event>
 5   0  0.1039688E-05  0.2479532E+04  0.7818609E-02  0.8410314E-01
       -1   -1    0    0    0  501  0.00000000000E+00  0.00000000000E+00  0.82396271950E+03  0.82396271952E+03  0.50400001928E-02 0.  1.
        1   -1    0    0  501    0  0.00000000000E+00  0.00000000000E+00 -0.18653997551E+04  0.18653997552E+04  0.50400001928E-02 0. -1.
    10030    2    1    2    0    0  0.00000000000E+00  0.00000000000E+00 -0.10414370356E+04  0.26893624747E+04  0.24795320972E+04 0.  0.
        3    1    3    3  502    0 -0.11475604203E+04  0.43164983613E+03 -0.32130277080E+03  0.12674588672E+04  0.10100000352E+00 0. -1.
       -3    1    3    3    0  502  0.11475604203E+04 -0.43164983613E+03 -0.72013426485E+03  0.14219036075E+04  0.10100000352E+00 0.  1.
</event>
<event>
 5   0  0.2441340E-05  0.2481527E+04  0.7818609E-02  0.8409596E-01
       -2   -1    0    0    0  501  0.00000000000E+00  0.00000000000E+00  0.62378861307E+03  0.62378861308E+03  0.25500000920E-02 0.  1.
        2   -1    0    0  501    0  0.00000000000E+00  0.00000000000E+00 -0.24679743239E+04  0.24679743239E+04  0.25500000920E-02 0. -1.
    10030    2    1    2    0    0  0.00000000000E+00  0.00000000000E+00 -0.18441857109E+04  0.30917629370E+04  0.24815271755E+04 0.  0.
        3    1    3    3  502    0  0.59414985110E+03  0.94527660661E+03 -0.15964202881E+04  0.19481066847E+04  0.10100000352E+00 0. -1.
       -3    1    3    3    0  502 -0.59414985110E+03 -0.94527660661E+03 -0.24776542280E+03  0.11436562523E+04  0.10100000352E+00 0.  1.
</event>
<event>
 5   0  0.1015327E-05  0.2217985E+04  0.7818609E-02  0.8510980E-01
        1   -1    0    0  501    0  0.00000000000E+00  0.00000000000E+00  0.11062908544E+04  0.11062908544E+04  0.50400001928E-02 0.  1.
       -1   -1    0    0    0  501  0.00000000000E+00  0.00000000000E+00 -0.11117005259E+04  0.11117005259E+04  0.50400001928E-02 0. -1.
    10030    2    1    2    0    0  0.00000000000E+00  0.00000000000E+00 -0.54096715495E+01  0.22179913803E+04  0.22179847832E+04 0.  0.
        4    1    3    3  502    0  0.18899336351E+03 -0.94448565266E+03  0.54692473879E+03  0.11076551459E+04  0.12699999809E+01 0.  1.
       -4    1    3    3    0  502 -0.18899336351E+03  0.94448565266E+03 -0.55233441034E+03  0.11103362343E+04  0.12699999809E+01 0. -1.
</event>
<event>
 5   0  0.2452457E-05  0.2503249E+04  0.7818609E-02  0.8401829E-01
       -2   -1    0    0    0  501  0.00000000000E+00  0.00000000000E+00  0.11750747094E+04  0.11750747094E+04  0.25500000920E-02 0.  1.
        2   -1    0    0  501    0  0.00000000000E+00  0.00000000000E+00 -0.13331615366E+04  0.13331615366E+04  0.25500000920E-02 0. -1.
    10030    2    1    2    0    0  0.00000000000E+00  0.00000000000E+00 -0.15808682720E+03  0.25082362461E+04  0.25032494125E+04 0.  0.
        1    1    3    3  502    0 -0.37392324022E+03 -0.86165791876E+03  0.74982363049E+03  0.12018770467E+04  0.50400001928E-02 0.  1.
       -1    1    3    3    0  502  0.37392324022E+03  0.86165791876E+03 -0.90791045769E+03  0.13063591994E+04  0.50400001928E-02 0. -1.
</event>
<event>
 5   0  0.1010338E-05  0.2513236E+04  0.7818609E-02  0.8398285E-01
       -1   -1    0    0    0  501  0.00000000000E+00  0.00000000000E+00  0.13731977616E+04  0.13731977616E+04  0.50400001928E-02 0.  1.
        1   -1    0    0  501    0  0.00000000000E+00  0.00000000000E+00 -0.11499351340E+04  0.11499351340E+04  0.50400001928E-02 0. -1.
    10030    2    1    2    0    0  0.00000000000E+00  0.00000000000E+00  0.22326262761E+03  0.25231328957E+04  0.25132356452E+04 0.  0.
        2    1    3    3  502    0 -0.66770186716E+03  0.97225428940E+03  0.54691014766E+03  0.13000826498E+04  0.25500000920E-02 0.  1.
       -2    1    3    3    0  502  0.66770186716E+03 -0.97225428940E+03 -0.32364752005E+03  0.12230502459E+04  0.25500000920E-02 0. -1.
</event>
<event>
 5   0  0.1039688E-05  0.2564382E+04  0.7818609E-02  0.8380401E-01
       -1   -1    0    0    0  501  0.00000000000E+00  0.00000000000E+00  0.16649251844E+04  0.16649251845E+04  0.50400001928E-02 0.  1.
        1   -1    0    0  501    0  0.00000000000E+00  0.00000000000E+00 -0.98743999308E+03  0.98743999309E+03  0.50400001928E-02 0. -1.
    10030    2    1    2    0    0  0.00000000000E+00  0.00000000000E+00  0.67748519137E+03  0.26523651775E+04  0.25643819627E+04 0.  0.
        3    1    3    3  502    0 -0.82148337809E+02  0.11582613377E+04  0.90117890334E+03  0.14698439039E+04  0.10100000352E+00 0. -1.
       -3    1    3    3    0  502  0.82148337809E+02 -0.11582613377E+04 -0.22369371198E+03  0.11825212737E+04  0.10100000352E+00 0.  1.
</event>
<event>
 5   0  0.2452457E-05  0.2496128E+04  0.7818609E-02  0.8404366E-01
        2   -1    0    0  501    0  0.00000000000E+00  0.00000000000E+00  0.14660508664E+04  0.14660508664E+04  0.25500000920E-02 0. -1.
       -2   -1    0    0    0  501  0.00000000000E+00  0.00000000000E+00 -0.10624896778E+04  0.10624896778E+04  0.25500000920E-02 0.  1.
    10030    2    1    2    0    0  0.00000000000E+00  0.00000000000E+00  0.40356118857E+03  0.25285405442E+04  0.24961281319E+04 0.  0.
        1    1    3    3  502    0 -0.53022868089E+03 -0.15034494711E+03 -0.93254463132E+03  0.10832292216E+04  0.50400001928E-02 0.  1.
       -1    1    3    3    0  502  0.53022868089E+03  0.15034494711E+03  0.13361058199E+04  0.14453113226E+04  0.50400001928E-02 0. -1.
</event>
<event>
 5   0  0.1015327E-05  0.2499428E+04  0.7818609E-02  0.8403189E-01
       -1   -1    0    0    0  501  0.00000000000E+00  0.00000000000E+00  0.24616723895E+04  0.24616723895E+04  0.50400001928E-02 0. -1.
        1   -1    0    0  501    0  0.00000000000E+00  0.00000000000E+00 -0.63444056426E+03  0.63444056428E+03  0.50400001928E-02 0.  1.
    10030    2    1    2    0    0  0.00000000000E+00  0.00000000000E+00  0.18272318252E+04  0.30961129538E+04  0.24994277904E+04 0.  0.
        4    1    3    3  502    0 -0.81123214799E+03 -0.67155593532E+02 -0.26100706326E+03  0.85482967406E+03  0.12699999809E+01 0.  1.
       -4    1    3    3    0  502  0.81123214799E+03  0.67155593532E+02  0.20882388885E+04  0.22412832797E+04  0.12699999809E+01 0. -1.
</event>
<event>
 5   0  0.2388326E-05  0.2495848E+04  0.7818609E-02  0.8404466E-01
       -2   -1    0    0    0  501  0.00000000000E+00  0.00000000000E+00  0.83464543644E+03  0.83464543644E+03  0.25500000920E-02 0.  1.
        2   -1    0    0  501    0  0.00000000000E+00  0.00000000000E+00 -0.18658389753E+04  0.18658389753E+04  0.25500000920E-02 0. -1.
    10030    2    1    2    0    0  0.00000000000E+00  0.00000000000E+00 -0.10311935389E+04  0.27004844117E+04  0.24958477404E+04 0.  0.
        2    1    3    3  502    0  0.92221327452E+03 -0.83982164274E+03 -0.55800571151E+03  0.13664362734E+04  0.25500000920E-02 0. -1.
       -2    1    3    3    0  502 -0.92221327452E+03  0.83982164274E+03 -0.47318782735E+03  0.13340481383E+04  0.25500000920E-02 0.  1.
</event>
<event>
 5   0  0.1002753E-05  0.2517619E+04  0.7818609E-02  0.8396735E-01
        1   -1    0    0  501    0  0.00000000000E+00  0.00000000000E+00  0.19373989204E+04  0.19373989204E+04  0.50400001928E-02 0. -1.
       -1   -1    0    0    0  501  0.00000000000E+00  0.00000000000E+00 -0.81790138394E+03  0.81790138395E+03  0.50400001928E-02 0.  1.
    10030    2    1    2    0    0  0.00000000000E+00  0.00000000000E+00  0.11194975365E+04  0.27553003044E+04  0.25176189213E+04 0.  0.
        5    1    3    3  502    0 -0.49153748825E+03  0.83330083378E+03 -0.32162607604E+03  0.10195414679E+04  0.46999998093E+01 0.  1.
       -5    1    3    3    0  502  0.49153748825E+03 -0.83330083378E+03  0.14411236125E+04  0.17357588365E+04  0.46999998093E+01 0. -1.
</event>
<event>
 5   0  0.2441340E-05  0.2425936E+04  0.7818609E-02  0.8429857E-01
       -2   -1    0    0    0  501  0.00000000000E+00  0.00000000000E+00  0.10882498837E+04  0.10882498837E+04  0.25500000920E-02 0. -1.
        2   -1    0    0  501    0  0.00000000000E+00  0.00000000000E+00 -0.13519794571E+04  0.13519794571E+04  0.25500000920E-02 0.  1.
    10030    2    1    2    0    0  0.00000000000E+00  0.00000000000E+00 -0.26372957342E+03  0.24402293409E+04  0.24259360973E+04 0.  0.
        3    1    3    3  502    0  0.59334271995E+03  0.94689484372E+03  0.34274782766E+03  0.11688205645E+04  0.10100000352E+00 0.  1.
       -3    1    3    3    0  502 -0.59334271995E+03 -0.94689484372E+03 -0.60647740109E+03  0.12714087764E+04  0.10100000352E+00 0. -1.
</event>
<event>
 5   0  0.1010338E-05  0.2492491E+04  0.7818609E-02  0.8405666E-01
        1   -1    0    0  501    0  0.00000000000E+00  0.00000000000E+00  0.19634944475E+04  0.19634944475E+04  0.50400001928E-02 0.  1.
       -1   -1    0    0    0  501  0.00000000000E+00  0.00000000000E+00 -0.79100194618E+03  0.79100194620E+03  0.50400001928E-02 0. -1.
    10030    2    1    2    0    0  0.00000000000E+00  0.00000000000E+00  0.11724925013E+04  0.27544963937E+04  0.24924910666E+04 0.  0.
        2    1    3    3  502    0 -0.54593385131E+03 -0.11002758550E+04  0.35318110673E+03  0.12780405398E+04  0.25500000920E-02 0.  1.
       -2    1    3    3    0  502  0.54593385131E+03  0.11002758550E+04  0.81931139456E+03  0.14764558539E+04  0.25500000920E-02 0. -1.
</event>
<event>
 5   0  0.2388326E-05  0.2500623E+04  0.7818609E-02  0.8402764E-01
       -2   -1    0    0    0  501  0.00000000000E+00  0.00000000000E+00  0.87370366103E+03  0.87370366103E+03  0.25500000920E-02 0. -1.
        2   -1    0    0  501    0  0.00000000000E+00  0.00000000000E+00 -0.17892546619E+04  0.17892546619E+04  0.25500000920E-02 0.  1.
    10030    2    1    2    0    0  0.00000000000E+00  0.00000000000E+00 -0.91555100086E+03  0.26629583229E+04  0.25006226014E+04 0.  0.
        2    1    3    3  502    0  0.73557876078E+03  0.71657191989E+03  0.30177836224E+03  0.10703371476E+04  0.25500000920E-02 0. -1.
       -2    1    3    3    0  502 -0.73557876078E+03 -0.71657191989E+03 -0.12173293631E+04  0.15926211753E+04  0.25500000920E-02 0.  1.
</event>
<event>
 5   0  0.2452457E-05  0.2514492E+04  0.7818609E-02  0.8397841E-01
       -2   -1    0    0    0  501  0.00000000000E+00  0.00000000000E+00  0.14780825414E+04  0.14780825414E+04  0.25500000920E-02 0. -1.
        2   -1    0    0  501    0  0.00000000000E+00  0.00000000000E+00 -0.10694044755E+04  0.10694044755E+04  0.25500000920E-02 0.  1.
    10030    2    1    2    0    0  0.00000000000E+00  0.00000000000E+00  0.40867806588E+03  0.25474870169E+04  0.25144924617E+04 0.  0.
        1    1    3    3  502    0 -0.73857772460E+02 -0.58395865609E+03  0.13298645952E+04  0.14543048251E+04  0.50400001928E-02 0. -1.
       -1    1    3    3    0  502  0.73857772460E+02  0.58395865609E+03 -0.92118652936E+03  0.10931821918E+04  0.50400001928E-02 0.  1.
</event>
<event>
 5   0  0.1039688E-05  0.2500818E+04  0.7818609E-02  0.8402694E-01
        1   -1    0    0  501    0  0.00000000000E+00  0.00000000000E+00  0.65937060247E+03  0.65937060249E+03  0.50400001928E-02 0. -1.
       -1   -1    0    0    0  501  0.00000000000E+00  0.00000000000E+00 -0.23712357854E+04  0.23712357854E+04  0.50400001928E-02 0.  1.
    10030    2    1    2    0    0  0.00000000000E+00  0.00000000000E+00 -0.17118651829E+04  0.30306063879E+04  0.25008184008E+04 0.  0.
        3    1    3    3  502    0  0.61498897123E+03 -0.36748767956E+03  0.38599629084E+03  0.81378853280E+03  0.10100000352E+00 0. -1.
       -3    1    3    3    0  502 -0.61498897123E+03  0.36748767956E+03 -0.20978614738E+04  0.22168178551E+04  0.10100000352E+00 0.  1.
</event>
<event>
 5   0  0.1015327E-05  0.2497849E+04  0.7818609E-02  0.8403752E-01
        1   -1    0    0  501    0  0.00000000000E+00  0.00000000000E+00  0.11942725532E+04  0.11942725532E+04  0.50400001928E-02 0.  1.
       -1   -1    0    0    0  501  0.00000000000E+00  0.00000000000E+00 -0.13060770088E+04  0.13060770088E+04  0.50400001928E-02 0. -1.
    10030    2    1    2    0    0  0.00000000000E+00  0.00000000000E+00 -0.11180445564E+03  0.25003495620E+04  0.24978486135E+04 0.  0.
        4    1    3    3  502    0  0.63473819677E+02 -0.74200719009E+03  0.94770159402E+03  0.12052981043E+04  0.12699999809E+01 0.  1.
       -4    1    3    3    0  502 -0.63473819677E+02  0.74200719009E+03 -0.10595060497E+04  0.12950514577E+04  0.12699999809E+01 0. -1.
</event>
<event>
 5   0  0.2388326E-05  0.2504177E+04  0.7818609E-02  0.8401499E-01
        2   -1    0    0  501    0  0.00000000000E+00  0.00000000000E+00  0.20594482997E+04  0.20594482997E+04  0.25500000920E-02 0. -1.
       -2   -1    0    0    0  501  0.00000000000E+00  0.00000000000E+00 -0.76123577891E+03  0.76123577892E+03  0.25500000920E-02 0.  1.
    10030    2    1    2    0    0  0.00000000000E+00  0.00000000000E+00  0.12982125208E+04  0.28206840786E+04  0.25041770948E+04 0.  0.
        2    1    3    3  502    0  0.34299860295E+03 -0.46082760744E+03  0.19022469784E+04  0.19870967999E+04  0.25500000920E-02 0. -1.
       -2    1    3    3    0  502 -0.34299860295E+03  0.46082760744E+03 -0.60403445755E+03  0.83358727876E+03  0.25500000920E-02 0.  1.
</event>
<event>
 5   0  0.2432309E-05  0.2703595E+04  0.7818609E-02  0.8333839E-01
        2   -1    0    0  501    0  0.00000000000E+00  0.00000000000E+00  0.13269524372E+04  0.13269524372E+04  0.25500000920E-02 0.  1.
       -2   -1    0    0    0  501  0.00000000000E+00  0.00000000000E+00 -0.13771079083E+04  0.13771079083E+04  0.25500000920E-02 0. -1.
    10030    2    1    2    0    0  0.00000000000E+00  0.00000000000E+00 -0.50155471042E+02  0.27040603455E+04  0.27035951585E+04 0.  0.
        4    1    3    3  502    0 -0.12483218745E+04 -0.47644002646E+03  0.18002456481E+03  0.13482258928E+04  0.12699999809E+01 0.  1.
       -4    1    3    3    0  502  0.12483218745E+04  0.47644002646E+03 -0.23018003586E+03  0.13558344527E+04  0.12699999809E+01 0. -1.
</event>
<event>
 5   0  0.2441340E-05  0.2602962E+04  0.7818609E-02  0.8367196E-01
       -2   -1    0    0    0  501  0.00000000000E+00  0.00000000000E+00  0.15646228824E+04  0.15646228824E+04  0.25500000920E-02 0.  1.
        2   -1    0    0  501    0  0.00000000000E+00  0.00000000000E+00 -0.10825948517E+04  0.10825948517E+04  0.25500000920E-02 0. -1.
    10030    2    1    2    0    0  0.00000000000E+00  0.00000000000E+00  0.48202803076E+03  0.26472177341E+04  0.26029619108E+04 0.  0.
        3    1    3    3  502    0  0.94435881185E+02 -0.92799064282E+03  0.11640620083E+04  0.14916853349E+04  0.10100000352E+00 0.  1.
       -3    1    3    3    0  502 -0.94435881185E+02  0.92799064282E+03 -0.68203397758E+03  0.11555323992E+04  0.10100000352E+00 0. -1.
</event>
<event>
 5   0  0.2345143E-05  0.2460177E+04  0.7818609E-02  0.8417312E-01
        2   -1    0    0  501    0  0.00000000000E+00  0.00000000000E+00  0.17397935394E+04  0.17397935394E+04  0.25500000920E-02 0. -1.
       -2   -1    0    0    0  501  0.00000000000E+00  0.00000000000E+00 -0.86971122597E+03  0.86971122597E+03  0.25500000920E-02 0.  1.
    10030    2    1    2    0    0  0.00000000000E+00  0.00000000000E+00  0.87008231346E+03  0.26095047654E+04  0.24601772067E+04 0.  0.
        5    1    3    3  502    0 -0.11692675807E+03 -0.35267634112E+02 -0.86325488112E+03  0.87186395301E+03  0.46999998093E+01 0.  1.
       -5    1    3    3    0  502  0.11692675807E+03  0.35267634112E+02  0.17333371946E+04  0.17376408124E+04  0.46999998093E+01 0. -1.
</event>
<event>
 5   0  0.1015327E-05  0.2517505E+04  0.7818609E-02  0.8396776E-01
       -1   -1    0    0    0  501  0.00000000000E+00  0.00000000000E+00  0.12073048021E+04  0.12073048022E+04  0.50400001928E-02 0. -1.
        1   -1    0    0  501    0  0.00000000000E+00  0.00000000000E+00 -0.13123923449E+04  0.13123923449E+04  0.50400001928E-02 0.  1.
    10030    2    1    2    0    0  0.00000000000E+00  0.00000000000E+00 -0.10508754273E+03  0.25196971470E+04  0.25175047808E+04 0.  0.
        4    1    3    3  502    0  0.30898668555E+03 -0.29150396289E+03 -0.12384843511E+04  0.13093099072E+04  0.12699999809E+01 0.  1.
       -4    1    3    3    0  502 -0.30898668555E+03  0.29150396289E+03  0.11333968084E+04  0.12103872398E+04  0.12699999809E+01 0. -1.
</event>
<event>
 5   0  0.1002753E-05  0.2518929E+04  0.7818609E-02  0.8396273E-01
       -1   -1    0    0    0  501  0.00000000000E+00  0.00000000000E+00  0.15578235493E+04  0.15578235494E+04  0.50400001928E-02 0.  1.
        1   -1    0    0  501    0  0.00000000000E+00  0.00000000000E+00 -0.10182478537E+04  0.10182478538E+04  0.50400001928E-02 0. -1.
    10030    2    1    2    0    0  0.00000000000E+00  0.00000000000E+00  0.53957569561E+03  0.25760714031E+04  0.25189287292E+04 0.  0.
        5    1    3    3  502    0 -0.60595914840E+03 -0.49354710914E+03  0.12798433208E+04  0.14995986977E+04  0.46999998093E+01 0.  1.
       -5    1    3    3    0  502  0.60595914840E+03  0.49354710914E+03 -0.74026762520E+03  0.10764727054E+04  0.46999998093E+01 0. -1.
</event>
<event>
 5   0  0.1008073E-05  0.2499915E+04  0.7818609E-02  0.8403016E-01
       -1   -1    0    0    0  501  0.00000000000E+00  0.00000000000E+00  0.15364117470E+04  0.15364117470E+04  0.50400001928E-02 0.  1.
        1   -1    0    0  501    0  0.00000000000E+00  0.00000000000E+00 -0.10169108394E+04  0.10169108394E+04  0.50400001928E-02 0. -1.
    10030    2    1    2    0    0  0.00000000000E+00  0.00000000000E+00  0.51950090758E+03  0.25533225864E+04  0.24999150060E+04 0.  0.
        1    1    3    3  502    0  0.32783178469E+03  0.92313302418E+03  0.10527034269E+04  0.14379960933E+04  0.50400001928E-02 0. -1.
       -1    1    3    3    0  502 -0.32783178469E+03 -0.92313302418E+03 -0.53320251933E+03  0.11153264930E+04  0.50400001928E-02 0.  1.
</event>
<event>
 5   0  0.2432309E-05  0.2475551E+04  0.7818609E-02  0.8411748E-01
       -2   -1    0    0    0  501  0.00000000000E+00  0.00000000000E+00  0.53945827666E+03  0.53945827667E+03  0.25500000920E-02 0.  1.
        2   -1    0    0  501    0  0.00000000000E+00  0.00000000000E+00 -0.28400503982E+04  0.28400503982E+04  0.25500000920E-02 0. -1.
    10030    2    1    2    0    0  0.00000000000E+00  0.00000000000E+00 -0.23005921216E+04  0.33795086749E+04  0.24755514081E+04 0.  0.
        4    1    3    3  502    0  0.29660800915E+03  0.89890704030E+03 -0.22390667705E+04  0.24309322890E+04  0.12699999809E+01 0. -1.
       -4    1    3    3    0  502 -0.29660800915E+03 -0.89890704030E+03 -0.61525351118E+02  0.94857638592E+03  0.12699999809E+01 0.  1.
</event>
<event>
 5   0  0.2432309E-05  0.2482681E+04  0.7818609E-02  0.8409182E-01
       -2   -1    0    0    0  501  0.00000000000E+00  0.00000000000E+00  0.75951608681E+03  0.75951608682E+03  0.25500000920E-02 0.  1.
        2   -1    0    0  501    0  0.00000000000E+00  0.00000000000E+00 -0.20288263025E+04  0.20288263025E+04  0.25500000920E-02 0. -1.
    10030    2    1    2    0    0  0.00000000000E+00  0.00000000000E+00 -0.12693102157E+04  0.27883423894E+04  0.24826809816E+04 0.  0.
        4    1    3    3  502    0  0.10828016046E+03 -0.10001447733E+04  0.18214587884E+03  0.10223467586E+04  0.12699999809E+01 0.  1.
       -4    1    3    3    0  502 -0.10828016046E+03  0.10001447733E+04 -0.14514560946E+04  0.17659956308E+04  0.12699999809E+01 0. -1.
</event>
<event>
 5   0  0.8166500E-06  0.2488487E+04  0.7818609E-02  0.8407099E-01
        3   -1    0    0  501    0  0.00000000000E+00  0.00000000000E+00  0.10460573324E+04  0.10460573373E+04  0.10100000352E+00 0. -1.
       -3   -1    0    0    0  501  0.00000000000E+00  0.00000000000E+00 -0.14799776550E+04  0.14799776585E+04  0.10100000352E+00 0.  1.
    10030    2    1    2    0    0  0.00000000000E+00  0.00000000000E+00 -0.43392032261E+03  0.25260349958E+04  0.24884866794E+04 0.  0.
        5    1    3    3  502    0 -0.51028695472E+03  0.11282993680E+04 -0.33989558280E+03  0.12841352488E+04  0.46999998093E+01 0.  1.
       -5    1    3    3    0  502  0.51028695472E+03 -0.11282993680E+04 -0.94024739806E+02  0.12418997470E+04  0.46999998093E+01 0. -1.
</event>
<event>
 5   0  0.2388326E-05  0.2506222E+04  0.7818609E-02  0.8400772E-01
        2   -1    0    0  501    0  0.00000000000E+00  0.00000000000E+00  0.97643257221E+03  0.97643257221E+03  0.25500000920E-02 0.  1.
       -2   -1    0    0    0  501  0.00000000000E+00  0.00000000000E+00 -0.16081876823E+04  0.16081876823E+04  0.25500000920E-02 0. -1.
    10030    2    1    2    0    0  0.00000000000E+00  0.00000000000E+00 -0.63175511005E+03  0.25846202545E+04  0.25062217262E+04 0.  0.
        2    1    3    3  502    0  0.38371900621E+03  0.11825728352E+04 -0.47752267058E+03  0.13318208165E+04  0.25500000920E-02 0. -1.
       -2    1    3    3    0  502 -0.38371900621E+03 -0.11825728352E+04 -0.15423243947E+03  0.12527994380E+04  0.25500000920E-02 0.  1.
</event>
<event>
 5   0  0.1010338E-05  0.2511863E+04  0.7818609E-02  0.8398771E-01
       -1   -1    0    0    0  501  0.00000000000E+00  0.00000000000E+00  0.15769831371E+04  0.15769831371E+04  0.50400001928E-02 0. -1.
        1   -1    0    0  501    0  0.00000000000E+00  0.00000000000E+00 -0.10002415246E+04  0.10002415246E+04  0.50400001928E-02 0.  1.
    10030    2    1    2    0    0  0.00000000000E+00  0.00000000000E+00  0.57674161256E+03  0.25772246617E+04  0.25118630674E+04 0.  0.
        2    1    3    3  502    0  0.94953020506E+03  0.93825415311E+02  0.11262935872E+04  0.14761260323E+04  0.25500000920E-02 0. -1.
       -2    1    3    3    0  502 -0.94953020506E+03 -0.93825415311E+02 -0.54955197461E+03  0.11010986294E+04  0.25500000920E-02 0.  1.
</event>
<event>
 5   0  0.1039688E-05  0.2679639E+04  0.7818609E-02  0.8341642E-01
       -1   -1    0    0    0  501  0.00000000000E+00  0.00000000000E+00  0.15080821645E+04  0.15080821645E+04  0.50400001928E-02 0.  1.
        1   -1    0    0  501    0  0.00000000000E+00  0.00000000000E+00 -0.11903303789E+04  0.11903303789E+04  0.50400001928E-02 0. -1.
    10030    2    1    2    0    0  0.00000000000E+00  0.00000000000E+00  0.31775178555E+03  0.26984125434E+04  0.26796387923E+04 0.  0.
        3    1    3    3  502    0 -0.15905879628E+03  0.11370676281E+04  0.85428888120E+03  0.14310946839E+04  0.10100000352E+00 0. -1.
       -3    1    3    3    0  502  0.15905879628E+03 -0.11370676281E+04 -0.53653709565E+03  0.12673178594E+04  0.10100000352E+00 0.  1.
</event>
<event>
 5   0  0.2345143E-05  0.2509026E+04  0.7818609E-02  0.8399777E-01
        2   -1    0    0  501    0  0.00000000000E+00  0.00000000000E+00  0.12028394628E+04  0.12028394628E+04  0.25500000920E-02 0.  1.
       -2   -1    0    0    0  501  0.00000000000E+00  0.00000000000E+00 -0.13084063676E+04  0.13084063676E+04  0.25500000920E-02 0. -1.
    10030    2    1    2    0    0  0.00000000000E+00  0.00000000000E+00 -0.10556690488E+03  0.25112458304E+04  0.25090259563E+04 0.  0.
        5    1    3    3  502    0  0.99231363617E+03 -0.36136149861E+03  0.62495096337E+03  0.12271325445E+04  0.46999998093E+01 0.  1.
       -5    1    3    3    0  502 -0.99231363617E+03  0.36136149861E+03 -0.73051786825E+03  0.12841132859E+04  0.46999998093E+01 0. -1.
</event>
<event>
 5   0  0.2452457E-05  0.2403470E+04  0.7818609E-02  0.8438205E-01
        2   -1    0    0  501    0  0.00000000000E+00  0.00000000000E+00  0.14748604102E+04  0.14748604102E+04  0.25500000920E-02 0. -1.
       -2   -1    0    0    0  501  0.00000000000E+00  0.00000000000E+00 -0.97918927574E+03  0.97918927575E+03  0.25500000920E-02 0.  1.
    10030    2    1    2    0    0  0.00000000000E+00  0.00000000000E+00  0.49567113444E+03  0.24540496859E+04  0.24034704050E+04 0.  0.
        1    1    3    3  502    0  0.11985100289E+04  0.42143000983E+00  0.33767023110E+03  0.12451697281E+04  0.50400001928E-02 0.  1.
       -1    1    3    3    0  502 -0.11985100289E+04 -0.42143000983E+00  0.15800090334E+03  0.12088799578E+04  0.50400001928E-02 0. -1.
</event>
<event>
 5   0  0.1015327E-05  0.2516418E+04  0.7818609E-02  0.8397160E-01
        1   -1    0    0  501    0  0.00000000000E+00  0.00000000000E+00  0.13159416589E+04  0.13159416589E+04  0.50400001928E-02 0.  1.
       -1   -1    0    0    0  501  0.00000000000E+00  0.00000000000E+00 -0.12030092682E+04  0.12030092682E+04  0.50400001928E-02 0. -1.
    10030    2    1    2    0    0  0.00000000000E+00  0.00000000000E+00  0.11293239077E+03  0.25189509271E+04  0.25164180989E+04 0.  0.
        4    1    3    3  502    0  0.19629096632E+03 -0.20515494508E+03  0.12834526508E+04  0.13144850758E+04  0.12699999809E+01 0.  1.
       -4    1    3    3    0  502 -0.19629096632E+03  0.20515494508E+03 -0.11705202600E+04  0.12044658513E+04  0.12699999809E+01 0. -1.
</event>
<event>
 5   0  0.1015327E-05  0.2491104E+04  0.7818609E-02  0.8406162E-01
       -1   -1    0    0    0  501  0.00000000000E+00  0.00000000000E+00  0.68826330202E+03  0.68826330204E+03  0.50400001928E-02 0. -1.
        1   -1    0    0  501    0  0.00000000000E+00  0.00000000000E+00 -0.22540783584E+04  0.22540783584E+04  0.50400001928E-02 0.  1.
    10030    2    1    2    0    0  0.00000000000E+00  0.00000000000E+00 -0.15658150564E+04  0.29423416604E+04  0.24911037024E+04 0.  0.
        4    1    3    3  502    0 -0.63348989347E+03 -0.79630695518E+03  0.65528765874E+02  0.10196616321E+04  0.12699999809E+01 0. -1.
       -4    1    3    3    0  502  0.63348989347E+03  0.79630695518E+03 -0.16313438222E+04  0.19226800283E+04  0.12699999809E+01 0.  1.
</event>
<event>
 5   0  0.1002753E-05  0.2578016E+04  0.7818609E-02  0.8375707E-01
        1   -1    0    0  501    0  0.00000000000E+00  0.00000000000E+00  0.21434424601E+04  0.21434424601E+04  0.50400001928E-02 0. -1.
       -1   -1    0    0    0  501  0.00000000000E+00  0.00000000000E+00 -0.77517438335E+03  0.77517438337E+03  0.50400001928E-02 0.  1.
    10030    2    1    2    0    0  0.00000000000E+00  0.00000000000E+00  0.13682680767E+04  0.29186168435E+04  0.25780160490E+04 0.  0.
        5    1    3    3  502    0 -0.80089208767E+03 -0.51211984583E+03  0.16696776633E+04  0.19213381956E+04  0.46999998093E+01 0. -1.
       -5    1    3    3    0  502  0.80089208767E+03  0.51211984583E+03 -0.30140958656E+03  0.99727864785E+03  0.46999998093E+01 0.  1.
</event>
<event>
 5   0  0.2432309E-05  0.2504907E+04  0.7818609E-02  0.8401239E-01
       -2   -1    0    0    0  501  0.00000000000E+00  0.00000000000E+00  0.89441072585E+03  0.89441072585E+03  0.25500000920E-02 0. -1.
        2   -1    0    0  501    0  0.00000000000E+00  0.00000000000E+00 -0.17538251854E+04  0.17538251854E+04  0.25500000920E-02 0.  1.
    10030    2    1    2    0    0  0.00000000000E+00  0.00000000000E+00 -0.85941445951E+03  0.26482359112E+04  0.25049072295E+04 0.  0.
        4    1    3    3  502    0  0.61173365438E+03  0.44974939281E+03 -0.14827664316E+04  0.16658602834E+04  0.12699999809E+01 0.  1.
       -4    1    3    3    0  502 -0.61173365438E+03 -0.44974939281E+03  0.62335197205E+03  0.98237562785E+03  0.12699999809E+01 0. -1.
</event>
<event>
 5   0  0.8166500E-06  0.2479759E+04  0.7818609E-02  0.8410232E-01
       -3   -1    0    0    0  501  0.00000000000E+00  0.00000000000E+00  0.14021239841E+04  0.14021239877E+04  0.10100000352E+00 0.  1.
        3   -1    0    0  501    0  0.00000000000E+00  0.00000000000E+00 -0.10964087282E+04  0.10964087328E+04  0.10100000352E+00 0. -1.
    10030    2    1    2    0    0  0.00000000000E+00  0.00000000000E+00  0.30571525590E+03  0.24985327205E+04  0.24797588467E+04 0.  0.
        2    1    3    3  502    0  0.18554736074E+03  0.12258213143E+04  0.13740309011E+03  0.12473753752E+04  0.25500000920E-02 0.  1.
       -2    1    3    3    0  502 -0.18554736074E+03 -0.12258213143E+04  0.16831216580E+03  0.12511573453E+04  0.25500000920E-02 0. -1.
</event>
<event>
 5   0  0.2441340E-05  0.2523338E+04  0.7818609E-02  0.8394718E-01
       -2   -1    0    0    0  501  0.00000000000E+00  0.00000000000E+00  0.67807040343E+03  0.67807040344E+03  0.25500000920E-02 0.  1.
        2   -1    0    0  501    0  0.00000000000E+00  0.00000000000E+00 -0.23475573047E+04  0.23475573047E+04  0.25500000920E-02 0. -1.
    10030    2    1    2    0    0  0.00000000000E+00  0.00000000000E+00 -0.16694869013E+04  0.30256277081E+04  0.25233383671E+04 0.  0.
        3    1    3    3  502    0 -0.56197667948E+03 -0.38689878596E+03  0.43778402109E+03  0.81065610352E+03  0.10100000352E+00 0.  1.
       -3    1    3    3    0  502  0.56197667948E+03  0.38689878596E+03 -0.21072709224E+04  0.22149716046E+04  0.10100000352E+00 0. -1.
</event>
<event>
 5   0  0.2441340E-05  0.2487519E+04  0.7818609E-02  0.8407445E-01
       -2   -1    0    0    0  501  0.00000000000E+00  0.00000000000E+00  0.11412384723E+04  0.11412384723E+04  0.25500000920E-02 0.  1.
        2   -1    0    0  501    0  0.00000000000E+00  0.00000000000E+00 -0.13554903037E+04  0.13554903037E+04  0.25500000920E-02 0. -1.
    10030    2    1    2    0    0  0.00000000000E+00  0.00000000000E+00 -0.21425183143E+03  0.24967287759E+04  0.24875189915E+04 0.  0.
        3    1    3    3  502    0 -0.68602593987E+03  0.77217957433E+03  0.58829194545E+03  0.11886884825E+04  0.10100000352E+00 0.  1.
       -3    1    3    3    0  502  0.68602593987E+03 -0.77217957433E+03 -0.80254377688E+03  0.13080402934E+04  0.10100000352E+00 0. -1.
</event>
<event>
 5   0  0.1002753E-05  0.2456990E+04  0.7818609E-02  0.8418470E-01
        1   -1    0    0  501    0  0.00000000000E+00  0.00000000000E+00  0.15539832607E+04  0.15539832607E+04  0.50400001928E-02 0.  1.
       -1   -1    0    0    0  501  0.00000000000E+00  0.00000000000E+00 -0.97118149709E+03  0.97118149710E+03  0.50400001928E-02 0. -1.
    10030    2    1    2    0    0  0.00000000000E+00  0.00000000000E+00  0.58280176364E+03  0.25251647578E+04  0.24569898572E+04 0.  0.
        5    1    3    3  502    0  0.32299947405E+03  0.19674082999E+02  0.15093842214E+04  0.15436899131E+04  0.46999998093E+01 0.  1.
       -5    1    3    3    0  502 -0.32299947405E+03 -0.19674082999E+02 -0.92658245781E+03  0.98147484476E+03  0.46999998093E+01 0. -1.
</event>
<event>
 5   0  0.2441340E-05  0.2512955E+04  0.7818609E-02  0.8398385E-01
       -2   -1    0    0    0  501  0.00000000000E+00  0.00000000000E+00  0.13957168714E+04  0.13957168714E+04  0.25500000920E-02 0.  1.
        2   -1    0    0  501    0  0.00000000000E+00  0.00000000000E+00 -0.11311286556E+04  0.11311286556E+04  0.25500000920E-02 0. -1.
    10030    2    1    2    0    0  0.00000000000E+00  0.00000000000E+00  0.26458821576E+03  0.25268455271E+04  0.25129547138E+04 0.  0.
        3    1    3    3  502    0 -0.44544915457E+03 -0.61116922738E+03 -0.87663783908E+03  0.11577766127E+04  0.10100000352E+00 0. -1.
       -3    1    3    3    0  502  0.44544915457E+03  0.61116922738E+03  0.11412260548E+04  0.13690689144E+04  0.10100000352E+00 0.  1.
</event>
<event>
 5   0  0.2388326E-05  0.2504279E+04  0.7818609E-02  0.8401463E-01
        2   -1    0    0  501    0  0.00000000000E+00  0.00000000000E+00  0.13648663469E+04  0.13648663469E+04  0.25500000920E-02 0.  1.
       -2   -1    0    0    0  501  0.00000000000E+00  0.00000000000E+00 -0.11487228924E+04  0.11487228924E+04  0.25500000920E-02 0. -1.
    10030    2    1    2    0    0  0.00000000000E+00  0.00000000000E+00  0.21614345451E+03  0.25135892393E+04  0.25042789124E+04 0.  0.
        2    1    3    3  502    0 -0.81930660005E+03  0.27167032380E+03 -0.80237561788E+03  0.11785052829E+04  0.25500000920E-02 0. -1.
       -2    1    3    3    0  502  0.81930660005E+03 -0.27167032380E+03  0.10185190724E+04  0.13350839564E+04  0.25500000920E-02 0.  1.
</event>
<event>
 5   0  0.2452457E-05  0.2424587E+04  0.7818609E-02  0.8430355E-01
        2   -1    0    0  501    0  0.00000000000E+00  0.00000000000E+00  0.16943885477E+04  0.16943885477E+04  0.25500000920E-02 0. -1.
       -2   -1    0    0    0  501  0.00000000000E+00  0.00000000000E+00 -0.86736639255E+03  0.86736639255E+03  0.25500000920E-02 0.  1.
    10030    2    1    2    0    0  0.00000000000E+00  0.00000000000E+00  0.82702215516E+03  0.25617549403E+04  0.24245871254E+04 0.  0.
        1    1    3    3  502    0 -0.95051285490E+03 -0.20503714816E+03  0.11784447092E+04  0.15278242216E+04  0.50400001928E-02 0. -1.
       -1    1    3    3    0  502  0.95051285490E+03  0.20503714816E+03 -0.35142255405E+03  0.10339307186E+04  0.50400001928E-02 0.  1.
</event>
<event>
 5   0  0.1008073E-05  0.2470469E+04  0.7818609E-02  0.8413582E-01
       -1   -1    0    0    0  501  0.00000000000E+00  0.00000000000E+00  0.62930940334E+03  0.62930940336E+03  0.50400001928E-02 0. -1.
        1   -1    0    0  501    0  0.00000000000E+00  0.00000000000E+00 -0.24245693508E+04  0.24245693508E+04  0.50400001928E-02 0.  1.
    10030    2    1    2    0    0  0.00000000000E+00  0.00000000000E+00 -0.17952599474E+04  0.30538787541E+04  0.24704690174E+04 0.  0.
        1    1    3    3  502    0  0.41768348345E+03 -0.10717155844E+04 -0.14542704341E+04  0.18541672745E+04  0.50400001928E-02 0.  1.
       -1    1    3    3    0  502 -0.41768348345E+03  0.10717155844E+04 -0.34098951329E+03  0.11997114796E+04  0.50400001928E-02 0. -1.
</event>
<event>
 5   0  0.2432309E-05  0.2537017E+04  0.7818609E-02  0.8389915E-01
       -2   -1    0    0    0  501  0.00000000000E+00  0.00000000000E+00  0.12038702282E+04  0.12038702282E+04  0.25500000920E-02 0. -1.
        2   -1    0    0  501    0  0.00000000000E+00  0.00000000000E+00 -0.13366173135E+04  0.13366173135E+04  0.25500000920E-02 0.  1.
    10030    2    1    2    0    0  0.00000000000E+00  0.00000000000E+00 -0.13274708532E+03  0.25404875418E+04  0.25370169809E+04 0.  0.
        4    1    3    3  502    0  0.55320693346E+03  0.10989809052E+04 -0.37552753514E+03  0.12863978715E+04  0.12699999809E+01 0.  1.
       -4    1    3    3    0  502 -0.55320693346E+03 -0.10989809052E+04  0.24278044981E+03  0.12540896702E+04  0.12699999809E+01 0. -1.
</event>
<event>
 5   0  0.2432309E-05  0.2419551E+04  0.7818609E-02  0.8432220E-01
        2   -1    0    0  501    0  0.00000000000E+00  0.00000000000E+00  0.51163160012E+03  0.51163160012E+03  0.25500000920E-02 0.  1.
       -2   -1    0    0    0  501  0.00000000000E+00  0.00000000000E+00 -0.28605686505E+04  0.28605686505E+04  0.25500000920E-02 0. -1.
    10030    2    1    2    0    0  0.00000000000E+00  0.00000000000E+00 -0.23489370503E+04  0.33722002506E+04  0.24195514592E+04 0.  0.
        4    1    3    3  502    0  0.11586221423E+04  0.16497650997E+03 -0.74731104245E+03  0.13885596583E+04  0.12699999809E+01 0.  1.
       -4    1    3    3    0  502 -0.11586221423E+04 -0.16497650997E+03 -0.16016260079E+04  0.19836405923E+04  0.12699999809E+01 0. -1.
</event>
<event>
 5   0  0.2345143E-05  0.2493671E+04  0.7818609E-02  0.8405244E-01
        2   -1    0    0  501    0  0.00000000000E+00  0.00000000000E+00  0.19094983147E+04  0.19094983147E+04  0.25500000920E-02 0.  1.
       -2   -1    0    0    0  501  0.00000000000E+00  0.00000000000E+00 -0.81413971111E+03  0.81413971111E+03  0.25500000920E-02 0. -1.
    10030    2    1    2    0    0  0.00000000000E+00  0.00000000000E+00  0.10953586036E+04  0.27236380258E+04  0.24936707131E+04 0.  0.
        5    1    3    3  502    0 -0.63727900954E+02 -0.26807317136E+03 -0.78045883994E+03  0.82768506173E+03  0.46999998093E+01 0. -1.
       -5    1    3    3    0  502  0.63727900954E+02  0.26807317136E+03  0.18758174436E+04  0.18959529641E+04  0.46999998093E+01 0.  1.
</event>
<event>
 5   0  0.1015327E-05  0.2499328E+04  0.7818609E-02  0.8403225E-01
       -1   -1    0    0    0  501  0.00000000000E+00  0.00000000000E+00  0.89593392382E+03  0.89593392383E+03  0.50400001928E-02 0.  1.
        1   -1    0    0  501    0  0.00000000000E+00  0.00000000000E+00 -0.17430532904E+04  0.17430532904E+04  0.50400001928E-02 0. -1.
    10030    2    1    2    0    0  0.00000000000E+00  0.00000000000E+00 -0.84711936661E+03  0.26389872143E+04  0.24993283689E+04 0.  0.
        4    1    3    3  502    0  0.61363201368E+03  0.94608990887E+03 -0.99219571891E+03  0.15020267379E+04  0.12699999809E+01 0. -1.
       -4    1    3    3    0  502 -0.61363201368E+03 -0.94608990887E+03  0.14507635231E+03  0.11369604763E+04  0.12699999809E+01 0.  1.
</event>
<event>
 5   0  0.1010338E-05  0.2489825E+04  0.7818609E-02  0.8406619E-01
        1   -1    0    0  501    0  0.00000000000E+00  0.00000000000E+00  0.87815024896E+03  0.87815024897E+03  0.50400001928E-02 0.  1.
       -1   -1    0    0    0  501  0.00000000000E+00  0.00000000000E+00 -0.17648539546E+04  0.17648539546E+04  0.50400001928E-02 0. -1.
    10030    2    1    2    0    0  0.00000000000E+00  0.00000000000E+00 -0.88670370564E+03  0.26430042036E+04  0.24898248450E+04 0.  0.
        2    1    3    3  502    0  0.11563336213E+04  0.30920841195E+03 -0.80658737944E+03  0.14433642945E+04  0.25500000920E-02 0. -1.
       -2    1    3    3    0  502 -0.11563336213E+04 -0.30920841195E+03 -0.80116326202E+02  0.11996399091E+04  0.25500000920E-02 0.  1.
</event>
<event>
 5   0  0.2441340E-05  0.2463640E+04  0.7818609E-02  0.8416055E-01
        2   -1    0    0  501    0  0.00000000000E+00  0.00000000000E+00  0.16407918719E+04  0.16407918719E+04  0.25500000920E-02 0. -1.
       -2   -1    0    0    0  501  0.00000000000E+00  0.00000000000E+00 -0.92478544742E+03  0.92478544742E+03  0.25500000920E-02 0.  1.
    10030    2    1    2    0    0  0.00000000000E+00  0.00000000000E+00  0.71600642449E+03  0.25655773193E+04  0.24636399456E+04 0.  0.
        3    1    3    3  502    0  0.95014707102E+03  0.70721759978E+03  0.71029689047E+03  0.13811074805E+04  0.10100000352E+00 0.  1.
       -3    1    3    3    0  502 -0.95014707102E+03 -0.70721759978E+03  0.57095340181E+01  0.11844698388E+04  0.10100000352E+00 0. -1.
</event>
<event>
 5   0  0.2432309E-05  0.2510921E+04  0.7818609E-02  0.8399105E-01
       -2   -1    0    0    0  501  0.00000000000E+00  0.00000000000E+00  0.90338575946E+03  0.90338575946E+03  0.25500000920E-02 0. -1.
        2   -1    0    0  501    0  0.00000000000E+00  0.00000000000E+00 -0.17447484143E+04  0.17447484143E+04  0.25500000920E-02 0.  1.
    10030    2    1    2    0    0  0.00000000000E+00  0.00000000000E+00 -0.84136265480E+03  0.26481341737E+04  0.25109208441E+04 0.  0.
        4    1    3    3  502    0 -0.38175119740E+03  0.16707918849E+02 -0.16819285061E+04  0.17247893332E+04  0.12699999809E+01 0.  1.
       -4    1    3    3    0  502  0.38175119740E+03 -0.16707918849E+02  0.84056585131E+03  0.92334484054E+03  0.12699999809E+01 0. -1.
</event>
<event>
 5   0  0.2432309E-05  0.2478508E+04  0.7818609E-02  0.8410683E-01
       -2   -1    0    0    0  501  0.00000000000E+00  0.00000000000E+00  0.76108846247E+03  0.76108846248E+03  0.25500000920E-02 0.  1.
        2   -1    0    0  501    0  0.00000000000E+00  0.00000000000E+00 -0.20178337785E+04  0.20178337785E+04  0.25500000920E-02 0. -1.
    10030    2    1    2    0    0  0.00000000000E+00  0.00000000000E+00 -0.12567453161E+04  0.27789222410E+04  0.24785076220E+04 0.  0.
        4    1    3    3  502    0 -0.11526854649E+04 -0.37701824890E+03 -0.34269150278E+03  0.12602641072E+04  0.12699999809E+01 0.  1.
       -4    1    3    3    0  502  0.11526854649E+04  0.37701824890E+03 -0.91405381329E+03  0.15186581338E+04  0.12699999809E+01 0. -1.
</event>
<event>
 5   0  0.1039688E-05  0.2446572E+04  0.7818609E-02  0.8422271E-01
        1   -1    0    0  501    0  0.00000000000E+00  0.00000000000E+00  0.12315037835E+04  0.12315037835E+04  0.50400001928E-02 0. -1.
       -1   -1    0    0    0  501  0.00000000000E+00  0.00000000000E+00 -0.12151230162E+04  0.12151230162E+04  0.50400001928E-02 0.  1.
    10030    2    1    2    0    0  0.00000000000E+00  0.00000000000E+00  0.16380767370E+02  0.24466267997E+04  0.24465719624E+04 0.  0.
        3    1    3    3  502    0 -0.11023791238E+03 -0.74012758441E+03 -0.95955406827E+03  0.12168341130E+04  0.10100000352E+00 0.  1.
       -3    1    3    3    0  502  0.11023791238E+03  0.74012758441E+03  0.97593483564E+03  0.12297926867E+04  0.10100000352E+00 0. -1.
</event>
<event>
 5   0  0.1008073E-05  0.2491156E+04  0.7818609E-02  0.8406143E-01
        1   -1    0    0  501    0  0.00000000000E+00  0.00000000000E+00  0.11809335627E+04  0.11809335627E+04  0.50400001928E-02 0. -1.
       -1   -1    0    0    0  501  0.00000000000E+00  0.00000000000E+00 -0.13137606255E+04  0.13137606256E+04  0.50400001928E-02 0.  1.
    10030    2    1    2    0    0  0.00000000000E+00  0.00000000000E+00 -0.13282706288E+03  0.24946941882E+04  0.24911555680E+04 0.  0.
        1    1    3    3  502    0  0.61124277211E+03  0.82033366429E+03 -0.77798529776E+03  0.12852338973E+04  0.50400001928E-02 0.  1.
       -1    1    3    3    0  502 -0.61124277211E+03 -0.82033366429E+03  0.64515823488E+03  0.12094602909E+04  0.50400001928E-02 0. -1.
</event>
<event>
 5   0  0.1015327E-05  0.2479386E+04  0.7818609E-02  0.8410366E-01
        1   -1    0    0  501    0  0.00000000000E+00  0.00000000000E+00  0.23273641076E+04  0.23273641077E+04  0.50400001928E-02 0.  1.
       -1   -1    0    0    0  501  0.00000000000E+00  0.00000000000E+00 -0.66033434006E+03  0.66033434008E+03  0.50400001928E-02 0. -1.
    10030    2    1    2    0    0  0.00000000000E+00  0.00000000000E+00  0.16670297676E+04  0.29876984477E+04  0.24793857644E+04 0.  0.
        4    1    3    3  502    0 -0.11358234653E+03  0.60314566106E+03 -0.46441117896E+03  0.76965251507E+03  0.12699999809E+01 0. -1.
       -4    1    3    3    0  502  0.11358234653E+03 -0.60314566106E+03  0.21314409466E+04  0.22180459327E+04  0.12699999809E+01 0.  1.
</event>
<event>
 5   0  0.2452457E-05  0.2605012E+04  0.7818609E-02  0.8366501E-01
        2   -1    0    0  501    0  0.00000000000E+00  0.00000000000E+00  0.12110890202E+04  0.12110890202E+04  0.25500000920E-02 0.  1.
       -2   -1    0    0    0  501  0.00000000000E+00  0.00000000000E+00 -0.14008235394E+04  0.14008235394E+04  0.25500000920E-02 0. -1.
    10030    2    1    2    0    0  0.00000000000E+00  0.00000000000E+00 -0.18973451915E+03  0.26119125596E+04  0.26050120981E+04 0.  0.
        1    1    3    3  502    0  0.84210314539E+03  0.90739017917E+02 -0.10870088724E+04  0.13780274183E+04  0.50400001928E-02 0. -1.
       -1    1    3    3    0  502 -0.84210314539E+03 -0.90739017917E+02  0.89727435325E+03  0.12338851413E+04  0.50400001928E-02 0.  1.
</event>
<event>
 5   0  0.2432309E-05  0.2504430E+04  0.7818609E-02  0.8401409E-01
       -2   -1    0    0    0  501  0.00000000000E+00  0.00000000000E+00  0.18633237268E+04  0.18633237268E+04  0.25500000920E-02 0.  1.
        2   -1    0    0  501    0  0.00000000000E+00  0.00000000000E+00 -0.84152945582E+03  0.84152945582E+03  0.25500000920E-02 0. -1.
    10030    2    1    2    0    0  0.00000000000E+00  0.00000000000E+00  0.10217942710E+04  0.27048531826E+04  0.25044295174E+04 0.  0.
        4    1    3    3  502    0 -0.37687770959E+03 -0.10955581089E+01 -0.77882150848E+03  0.86521821710E+03  0.12699999809E+01 0. -1.
       -4    1    3    3    0  502  0.37687770959E+03  0.10955581089E+01  0.18006157795E+04  0.18396349655E+04  0.12699999809E+01 0.  1.
</event>
<event>
 5   0  0.1002753E-05  0.2504321E+04  0.7818609E-02  0.8401448E-01
        1   -1    0    0  501    0  0.00000000000E+00  0.00000000000E+00  0.15210019478E+04  0.15210019478E+04  0.50400001928E-02 0.  1.
       -1   -1    0    0    0  501  0.00000000000E+00  0.00000000000E+00 -0.10308378102E+04  0.10308378102E+04  0.50400001928E-02 0. -1.
    10030    2    1    2    0    0  0.00000000000E+00  0.00000000000E+00  0.49016413764E+03  0.25518397580E+04  0.25043213190E+04 0.  0.
        5    1    3    3  502    0  0.12373707372E+04 -0.15626136177E+03  0.35845998099E+03  0.12976978086E+04  0.46999998093E+01 0. -1.
       -5    1    3    3    0  502 -0.12373707372E+04  0.15626136177E+03  0.13170415665E+03  0.12541419494E+04  0.46999998093E+01 0.  1.
</event>
<event>
 5   0  0.2452457E-05  0.2498907E+04  0.7818609E-02  0.8403375E-01
        2   -1    0    0  501    0  0.00000000000E+00  0.00000000000E+00  0.14424623712E+04  0.14424623712E+04  0.25500000920E-02 0.  1.
       -2   -1    0    0    0  501  0.00000000000E+00  0.00000000000E+00 -0.10822700528E+04  0.10822700528E+04  0.25500000920E-02 0. -1.
    10030    2    1    2    0    0  0.00000000000E+00  0.00000000000E+00  0.36019231836E+03  0.25247324240E+04  0.24989068223E+04 0.  0.
        1    1    3    3  502    0 -0.11834616683E+04  0.24415254030E+03 -0.14090079414E+03  0.12165710078E+04  0.50400001928E-02 0. -1.
       -1    1    3    3    0  502  0.11834616683E+04 -0.24415254030E+03  0.50109311250E+03  0.13081614161E+04  0.50400001928E-02 0.  1.
</event>
<event>
 5   0  0.1039688E-05  0.2489917E+04  0.7818609E-02  0.8406586E-01
       -1   -1    0    0    0  501  0.00000000000E+00  0.00000000000E+00  0.85817655441E+03  0.85817655442E+03  0.50400001928E-02 0. -1.
        1   -1    0    0  501    0  0.00000000000E+00  0.00000000000E+00 -0.18060639521E+04  0.18060639521E+04  0.50400001928E-02 0.  1.
    10030    2    1    2    0    0  0.00000000000E+00  0.00000000000E+00 -0.94788739766E+03  0.26642405065E+04  0.24899170584E+04 0.  0.
        3    1    3    3  502    0 -0.20096058452E+03  0.10765774242E+04 -0.11074391124E+04  0.15575061813E+04  0.10100000352E+00 0.  1.
       -3    1    3    3    0  502  0.20096058452E+03 -0.10765774242E+04  0.15955171473E+03  0.11067343252E+04  0.10100000352E+00 0. -1.
</event>
<event>
 5   0  0.8166500E-06  0.2473198E+04  0.7818609E-02  0.8412596E-01
       -3   -1    0    0    0  501  0.00000000000E+00  0.00000000000E+00  0.11733755464E+04  0.11733755508E+04  0.10100000352E+00 0.  1.
        3   -1    0    0  501    0  0.00000000000E+00  0.00000000000E+00 -0.13032293284E+04  0.13032293323E+04  0.10100000352E+00 0. -1.
    10030    2    1    2    0    0  0.00000000000E+00  0.00000000000E+00 -0.12985378196E+03  0.24766048831E+04  0.24731982821E+04 0.  0.
        3    1    3    3  502    0 -0.22304464052E+03  0.10260191686E+04  0.58920574438E+03  0.12040048444E+04  0.10100000352E+00 0.  1.
       -3    1    3    3    0  502  0.22304464052E+03 -0.10260191686E+04 -0.71905952634E+03  0.12726000387E+04  0.10100000352E+00 0. -1.
</event>
<event>
 5   0  0.1002753E-05  0.2498508E+04  0.7818609E-02  0.8403517E-01
       -1   -1    0    0    0  501  0.00000000000E+00  0.00000000000E+00  0.72693237667E+03  0.72693237668E+03  0.50400001928E-02 0. -1.
        1   -1    0    0  501    0  0.00000000000E+00  0.00000000000E+00 -0.21468786799E+04  0.21468786799E+04  0.50400001928E-02 0.  1.
    10030    2    1    2    0    0  0.00000000000E+00  0.00000000000E+00 -0.14199463033E+04  0.28738110566E+04  0.24985080518E+04 0.  0.
        5    1    3    3  502    0  0.32028009371E+02 -0.10542918727E+04 -0.14798899464E+04  0.18173204147E+04  0.46999998093E+01 0.  1.
       -5    1    3    3    0  502 -0.32028009371E+02  0.10542918727E+04  0.59943643084E+02  0.10564906420E+04  0.46999998093E+01 0. -1.
</event>
<event>
 5   0  0.8166500E-06  0.2497436E+04  0.7818609E-02  0.8403900E-01
        4   -1    0    0  501    0  0.00000000000E+00  0.00000000000E+00  0.19922858282E+04  0.19922862330E+04  0.12699999809E+01 0. -1.
       -4   -1    0    0    0  501  0.00000000000E+00  0.00000000000E+00 -0.78266607832E+03  0.78266710870E+03  0.12699999809E+01 0.  1.
    10030    2    1    2    0    0  0.00000000000E+00  0.00000000000E+00  0.12096197499E+04  0.27749533417E+04  0.24974359069E+04 0.  0.
        3    1    3    3  502    0 -0.51424435907E+03 -0.39911329853E+03 -0.57922900137E+03  0.87134661997E+03  0.10100000352E+00 0.  1.
       -3    1    3    3    0  502  0.51424435907E+03  0.39911329853E+03  0.17888487512E+04  0.19036067217E+04  0.10100000352E+00 0. -1.
</event>
<event>
 5   0  0.2345143E-05  0.2492887E+04  0.7818609E-02  0.8405524E-01
       -2   -1    0    0    0  501  0.00000000000E+00  0.00000000000E+00  0.20189048958E+04  0.20189048958E+04  0.25500000920E-02 0. -1.
        2   -1    0    0  501    0  0.00000000000E+00  0.00000000000E+00 -0.76953675670E+03  0.76953675670E+03  0.25500000920E-02 0.  1.
    10030    2    1    2    0    0  0.00000000000E+00  0.00000000000E+00  0.12493681391E+04  0.27884416525E+04  0.24928871018E+04 0.  0.
        5    1    3    3  502    0 -0.26838645667E+03 -0.95834631913E+01  0.19861485185E+04  0.20042283204E+04  0.46999998093E+01 0. -1.
       -5    1    3    3    0  502  0.26838645667E+03  0.95834631913E+01 -0.73678037934E+03  0.78421333212E+03  0.46999998093E+01 0.  1.
</event>
<event>
 5   0  0.2432309E-05  0.2438897E+04  0.7818609E-02  0.8425083E-01
        2   -1    0    0  501    0  0.00000000000E+00  0.00000000000E+00  0.15470370254E+04  0.15470370254E+04  0.25500000920E-02 0. -1.
       -2   -1    0    0    0  501  0.00000000000E+00  0.00000000000E+00 -0.96122773683E+03  0.96122773683E+03  0.25500000920E-02 0.  1.
    10030    2    1    2    0    0  0.00000000000E+00  0.00000000000E+00  0.58580928862E+03  0.25082647623E+04  0.24388972088E+04 0.  0.
        4    1    3    3  502    0  0.10001564697E+04  0.44948699777E+03 -0.25584589094E+03  0.11259708068E+04  0.12699999809E+01 0.  1.
       -4    1    3    3    0  502 -0.10001564697E+04 -0.44948699777E+03  0.84165517956E+03  0.13822939554E+04  0.12699999809E+01 0. -1.
</event>
<event>
 5   0  0.1008073E-05  0.2500664E+04  0.7818609E-02  0.8402749E-01
        1   -1    0    0  501    0  0.00000000000E+00  0.00000000000E+00  0.27817717069E+04  0.27817717069E+04  0.50400001928E-02 0.  1.
       -1   -1    0    0    0  501  0.00000000000E+00  0.00000000000E+00 -0.56199074780E+03  0.56199074782E+03  0.50400001928E-02 0. -1.
    10030    2    1    2    0    0  0.00000000000E+00  0.00000000000E+00  0.22197809591E+04  0.33437624547E+04  0.25006638813E+04 0.  0.
        1    1    3    3  502    0  0.15915049429E+03 -0.55860110525E+03 -0.37064660011E+03  0.68901594816E+03  0.50400001928E-02 0. -1.
       -1    1    3    3    0  502 -0.15915049429E+03  0.55860110525E+03  0.25904275592E+04  0.26547465065E+04  0.50400001928E-02 0.  1.
</event>
<event>
 5   0  0.2345143E-05  0.2486862E+04  0.7818609E-02  0.8407681E-01
       -2   -1    0    0    0  501  0.00000000000E+00  0.00000000000E+00  0.12360480579E+04  0.12360480579E+04  0.25500000920E-02 0. -1.
        2   -1    0    0  501    0  0.00000000000E+00  0.00000000000E+00 -0.12508584892E+04  0.12508584892E+04  0.25500000920E-02 0.  1.
    10030    2    1    2    0    0  0.00000000000E+00  0.00000000000E+00 -0.14810431256E+02  0.24869065471E+04  0.24868624460E+04 0.  0.
        5    1    3    3  502    0 -0.65603253806E+02 -0.35716125716E+03 -0.11966408210E+04  0.12505356033E+04  0.46999998093E+01 0.  1.
       -5    1    3    3    0  502  0.65603253806E+02  0.35716125716E+03  0.11818303898E+04  0.12363709438E+04  0.46999998093E+01 0. -1.
</event>
<event>
 5   0  0.1002753E-05  0.2507943E+04  0.7818609E-02  0.8400161E-01
        1   -1    0    0  501    0  0.00000000000E+00  0.00000000000E+00  0.25016584099E+04  0.25016584099E+04  0.50400001928E-02 0. -1.
       -1   -1    0    0    0  501  0.00000000000E+00  0.00000000000E+00 -0.62856063223E+03  0.62856063225E+03  0.50400001928E-02 0.  1.
    10030    2    1    2    0    0  0.00000000000E+00  0.00000000000E+00  0.18730977777E+04  0.31302190422E+04  0.25079425765E+04 0.  0.
        5    1    3    3  502    0 -0.80112065204E+03  0.48038326027E+02 -0.26600895658E+03  0.84550862496E+03  0.46999998093E+01 0.  1.
       -5    1    3    3    0  502  0.80112065204E+03 -0.48038326027E+02  0.21391067343E+04  0.22847104172E+04  0.46999998093E+01 0. -1.
</event>
<event>
 5   0  0.2441340E-05  0.2510147E+04  0.7818609E-02  0.8399379E-01
        2   -1    0    0  501    0  0.00000000000E+00  0.00000000000E+00  0.17104491330E+04  0.17104491330E+04  0.25500000920E-02 0. -1.
       -2   -1    0    0    0  501  0.00000000000E+00  0.00000000000E+00 -0.92093329506E+03  0.92093329506E+03  0.25500000920E-02 0.  1.
    10030    2    1    2    0    0  0.00000000000E+00  0.00000000000E+00  0.78951583799E+03  0.26313824281E+04  0.25101470524E+04 0.  0.
        3    1    3    3  502    0 -0.17633531475E+03  0.84633283794E+03 -0.55904136939E+03  0.10295147783E+04  0.10100000352E+00 0.  1.
       -3    1    3    3    0  502  0.17633531475E+03 -0.84633283794E+03  0.13485572074E+04  0.16018676498E+04  0.10100000352E+00 0. -1.
</event>
<event>
 5   0  0.2345143E-05  0.2506042E+04  0.7818609E-02  0.8400836E-01
        2   -1    0    0  501    0  0.00000000000E+00  0.00000000000E+00  0.96286154891E+03  0.96286154891E+03  0.25500000920E-02 0.  1.
       -2   -1    0    0    0  501  0.00000000000E+00  0.00000000000E+00 -0.16306207686E+04  0.16306207686E+04  0.25500000920E-02 0. -1.
    10030    2    1    2    0    0  0.00000000000E+00  0.00000000000E+00 -0.66775921971E+03  0.25934823175E+04  0.25060423292E+04 0.  0.
        5    1    3    3  502    0  0.11537918170E+04  0.20989812940E+03 -0.79057903365E+03  0.14143302585E+04  0.46999998093E+01 0.  1.
       -5    1    3    3    0  502 -0.11537918170E+04 -0.20989812940E+03  0.12281981394E+03  0.11791520590E+04  0.46999998093E+01 0. -1.
</event>
<event>
 5   0  0.1015327E-05  0.2511928E+04  0.7818609E-02  0.8398749E-01
        1   -1    0    0  501    0  0.00000000000E+00  0.00000000000E+00  0.15410546267E+04  0.15410546267E+04  0.50400001928E-02 0. -1.
       -1   -1    0    0    0  501  0.00000000000E+00  0.00000000000E+00 -0.10236140693E+04  0.10236140693E+04  0.50400001928E-02 0.  1.
    10030    2    1    2    0    0  0.00000000000E+00  0.00000000000E+00  0.51744055748E+03  0.25646686960E+04  0.25119277039E+04 0.  0.
        4    1    3    3  502    0  0.12074410880E+04 -0.76627723821E+02 -0.85489931912E+02  0.12128874352E+04  0.12699999809E+01 0.  1.
       -4    1    3    3    0  502 -0.12074410880E+04  0.76627723821E+02  0.60293048939E+03  0.13517812608E+04  0.12699999809E+01 0. -1.
</event>
<event>
 5   0  0.2441340E-05  0.2033677E+04  0.7818609E-02  0.8591035E-01
        2   -1    0    0  501    0  0.00000000000E+00  0.00000000000E+00  0.79018054664E+03  0.79018054665E+03  0.25500000920E-02 0. -1.
       -2   -1    0    0    0  501  0.00000000000E+00  0.00000000000E+00 -0.13085121178E+04  0.13085121178E+04  0.25500000920E-02 0.  1.
    10030    2    1    2    0    0  0.00000000000E+00  0.00000000000E+00 -0.51833157114E+03  0.20986926644E+04  0.20336772807E+04 0.  0.
        3    1    3    3  502    0 -0.10927870169E+03 -0.15588644024E+03  0.77162563921E+03  0.79476320636E+03  0.10100000352E+00 0. -1.
       -3    1    3    3    0  502  0.10927870169E+03  0.15588644024E+03 -0.12899572104E+04  0.13039294581E+04  0.10100000352E+00 0.  1.
</event>
<event>
 5   0  0.2388326E-05  0.2491598E+04  0.7818609E-02  0.8405985E-01
        2   -1    0    0  501    0  0.00000000000E+00  0.00000000000E+00  0.16856645732E+04  0.16856645732E+04  0.25500000920E-02 0. -1.
       -2   -1    0    0    0  501  0.00000000000E+00  0.00000000000E+00 -0.92071375884E+03  0.92071375884E+03  0.25500000920E-02 0.  1.
    10030    2    1    2    0    0  0.00000000000E+00  0.00000000000E+00  0.76495081436E+03  0.26063783320E+04  0.24915975320E+04 0.  0.
        2    1    3    3  502    0  0.15171216337E+03  0.76693622807E+03 -0.63215947753E+03  0.10054020904E+04  0.25500000920E-02 0.  1.
       -2    1    3    3    0  502 -0.15171216337E+03 -0.76693622807E+03  0.13971102919E+04  0.16009762416E+04  0.25500000920E-02 0. -1.
</event>
<event>
 5   0  0.2432309E-05  0.2501003E+04  0.7818609E-02  0.8402628E-01
        2   -1    0    0  501    0  0.00000000000E+00  0.00000000000E+00  0.17904274426E+04  0.17904274426E+04  0.25500000920E-02 0.  1.
       -2   -1    0    0    0  501  0.00000000000E+00  0.00000000000E+00 -0.87339731251E+03  0.87339731252E+03  0.25500000920E-02 0. -1.
    10030    2    1    2    0    0  0.00000000000E+00  0.00000000000E+00  0.91703013012E+03  0.26638247551E+04  0.25010034119E+04 0.  0.
        4    1    3    3  502    0  0.64096915005E+03 -0.94263705527E+03  0.10061339585E+04  0.15204319205E+04  0.12699999809E+01 0.  1.
       -4    1    3    3    0  502 -0.64096915005E+03  0.94263705527E+03 -0.89103828428E+02  0.11433928347E+04  0.12699999809E+01 0. -1.
</event>
<event>
 5   0  0.2345143E-05  0.2499695E+04  0.7818609E-02  0.8403094E-01
        2   -1    0    0  501    0  0.00000000000E+00  0.00000000000E+00  0.93273933901E+03  0.93273933901E+03  0.25500000920E-02 0. -1.
       -2   -1    0    0    0  501  0.00000000000E+00  0.00000000000E+00 -0.16747644611E+04  0.16747644611E+04  0.25500000920E-02 0.  1.
    10030    2    1    2    0    0  0.00000000000E+00  0.00000000000E+00 -0.74202512206E+03  0.26075038001E+04  0.24996949385E+04 0.  0.
        5    1    3    3  502    0  0.10351901543E+03  0.12290683756E+04 -0.16038486616E+03  0.12438129496E+04  0.46999998093E+01 0.  1.
       -5    1    3    3    0  502 -0.10351901543E+03 -0.12290683756E+04 -0.58164025590E+03  0.13636908505E+04  0.46999998093E+01 0. -1.
</event>
<event>
 5   0  0.2452457E-05  0.2498817E+04  0.7818609E-02  0.8403407E-01
        2   -1    0    0  501    0  0.00000000000E+00  0.00000000000E+00  0.14628461446E+04  0.14628461446E+04  0.25500000920E-02 0. -1.
       -2   -1    0    0    0  501  0.00000000000E+00  0.00000000000E+00 -0.10671128445E+04  0.10671128445E+04  0.25500000920E-02 0.  1.
    10030    2    1    2    0    0  0.00000000000E+00  0.00000000000E+00  0.39573330010E+03  0.25299589890E+04  0.24988172485E+04 0.  0.
        1    1    3    3  502    0 -0.33767689357E+03  0.10764484024E+04  0.74145164269E+03  0.13500064392E+04  0.50400001928E-02 0. -1.
       -1    1    3    3    0  502  0.33767689357E+03 -0.10764484024E+04 -0.34571834260E+03  0.11799525498E+04  0.50400001928E-02 0.  1.
</event>
<event>
 5   0  0.2452457E-05  0.2500208E+04  0.7818609E-02  0.8402911E-01
       -2   -1    0    0    0  501  0.00000000000E+00  0.00000000000E+00  0.93174991271E+03  0.93174991272E+03  0.25500000920E-02 0. -1.
        2   -1    0    0  501    0  0.00000000000E+00  0.00000000000E+00 -0.16772312356E+04  0.16772312356E+04  0.25500000920E-02 0.  1.
    10030    2    1    2    0    0  0.00000000000E+00  0.00000000000E+00 -0.74548132289E+03  0.26089811483E+04  0.25002080373E+04 0.  0.
        1    1    3    3  502    0  0.71356420956E+03 -0.85720945879E+03  0.21642719747E+03  0.11361437714E+04  0.50400001928E-02 0. -1.
       -1    1    3    3    0  502 -0.71356420956E+03  0.85720945879E+03 -0.96190852036E+03  0.14728373770E+04  0.50400001928E-02 0.  1.
</event>
<event>
 5   0  0.1008073E-05  0.2490323E+04  0.7818609E-02  0.8406441E-01
        1   -1    0    0  501    0  0.00000000000E+00  0.00000000000E+00  0.12528841164E+04  0.12528841164E+04  0.50400001928E-02 0. -1.
       -1   -1    0    0    0  501  0.00000000000E+00  0.00000000000E+00 -0.12374868283E+04  0.12374868283E+04  0.50400001928E-02 0.  1.
    10030    2    1    2    0    0  0.00000000000E+00  0.00000000000E+00  0.15397288096E+02  0.24903709448E+04  0.24903233457E+04 0.  0.
        1    1    3    3  502    0 -0.77603491227E+03  0.16218824755E+03  0.96786926457E+03  0.12511219469E+04  0.50400001928E-02 0. -1.
       -1    1    3    3    0  502  0.77603491227E+03 -0.16218824755E+03 -0.95247197648E+03  0.12392489979E+04  0.50400001928E-02 0.  1.
</event>
<event>
 5   0  0.1010338E-05  0.2507088E+04  0.7818609E-02  0.8400465E-01
       -1   -1    0    0    0  501  0.00000000000E+00  0.00000000000E+00  0.10494084031E+04  0.10494084031E+04  0.50400001928E-02 0.  1.
        1   -1    0    0  501    0  0.00000000000E+00  0.00000000000E+00 -0.14973887654E+04  0.14973887654E+04  0.50400001928E-02 0. -1.
    10030    2    1    2    0    0  0.00000000000E+00  0.00000000000E+00 -0.44798036230E+03  0.25467971685E+04  0.25070878350E+04 0.  0.
        2    1    3    3  502    0  0.75966645689E+03 -0.83182290211E+03  0.33458252921E+03  0.11751459208E+04  0.25500000920E-02 0.  1.
       -2    1    3    3    0  502 -0.75966645689E+03  0.83182290211E+03 -0.78256289150E+03  0.13716512477E+04  0.25500000920E-02 0. -1.
</event>
<event>
 5   0  0.2452457E-05  0.2498753E+04  0.7818609E-02  0.8403430E-01
        2   -1    0    0  501    0  0.00000000000E+00  0.00000000000E+00  0.15775677465E+04  0.15775677465E+04  0.25500000920E-02 0.  1.
       -2   -1    0    0    0  501  0.00000000000E+00  0.00000000000E+00 -0.98946102232E+03  0.98946102232E+03  0.25500000920E-02 0. -1.
    10030    2    1    2    0    0  0.00000000000E+00  0.00000000000E+00  0.58810672417E+03  0.25670287688E+04  0.24987531252E+04 0.  0.
        1    1    3    3  502    0  0.11192164737E+04  0.81509816642E+02  0.85828937197E+03  0.14127809495E+04  0.50400001928E-02 0.  1.
       -1    1    3    3    0  502 -0.11192164737E+04 -0.81509816642E+02 -0.27018264780E+03  0.11542478193E+04  0.50400001928E-02 0. -1.
</event>
<event>
 5   0  0.1002753E-05  0.2490249E+04  0.7818609E-02  0.8406468E-01
        1   -1    0    0  501    0  0.00000000000E+00  0.00000000000E+00  0.14066306100E+04  0.14066306100E+04  0.50400001928E-02 0. -1.
       -1   -1    0    0    0  501  0.00000000000E+00  0.00000000000E+00 -0.11021621435E+04  0.11021621435E+04  0.50400001928E-02 0.  1.
    10030    2    1    2    0    0  0.00000000000E+00  0.00000000000E+00  0.30446846654E+03  0.25087927535E+04  0.24902489901E+04 0.  0.
        5    1    3    3  502    0  0.72523428596E+02  0.10329890019E+04  0.84874855864E+03  0.13389257378E+04  0.46999998093E+01 0. -1.
       -5    1    3    3    0  502 -0.72523428596E+02 -0.10329890019E+04 -0.54428009209E+03  0.11698670156E+04  0.46999998093E+01 0.  1.
</event>
<event>
 5   0  0.2345143E-05  0.2367721E+04  0.7818609E-02  0.8451688E-01
        2   -1    0    0  501    0  0.00000000000E+00  0.00000000000E+00  0.21971619553E+04  0.21971619553E+04  0.25500000920E-02 0. -1.
       -2   -1    0    0    0  501  0.00000000000E+00  0.00000000000E+00 -0.63788016348E+03  0.63788016348E+03  0.25500000920E-02 0.  1.
    10030    2    1    2    0    0  0.00000000000E+00  0.00000000000E+00  0.15592817919E+04  0.28350421188E+04  0.23677212904E+04 0.  0.
        5    1    3    3  502    0  0.49919438784E+03  0.22339860453E+03  0.20368251275E+04  0.21089762122E+04  0.46999998093E+01 0. -1.
       -5    1    3    3    0  502 -0.49919438784E+03 -0.22339860453E+03 -0.47754333567E+03  0.72606590665E+03  0.46999998093E+01 0.  1.
</event>
<event>
 5   0  0.1039688E-05  0.2528013E+04  0.7818609E-02  0.8393073E-01
       -1   -1    0    0    0  501  0.00000000000E+00  0.00000000000E+00  0.11964971592E+04  0.11964971592E+04  0.50400001928E-02 0.  1.
        1   -1    0    0  501    0  0.00000000000E+00  0.00000000000E+00 -0.13353246859E+04  0.13353246859E+04  0.50400001928E-02 0. -1.
    10030    2    1    2    0    0  0.00000000000E+00  0.00000000000E+00 -0.13882752666E+03  0.25318218451E+04  0.25280128112E+04 0.  0.
        3    1    3    3  502    0  0.35806385197E+03 -0.98126777658E+03  0.64342831555E+03  0.12268236136E+04  0.10100000352E+00 0.  1.
       -3    1    3    3    0  502 -0.35806385197E+03  0.98126777658E+03 -0.78225584221E+03  0.13049982315E+04  0.10100000352E+00 0. -1.
</event>
<event>
 5   0  0.2388326E-05  0.2495031E+04  0.7818609E-02  0.8404758E-01
       -2   -1    0    0    0  501  0.00000000000E+00  0.00000000000E+00  0.74609495679E+03  0.74609495680E+03  0.25500000920E-02 0.  1.
        2   -1    0    0  501    0  0.00000000000E+00  0.00000000000E+00 -0.20859212946E+04  0.20859212946E+04  0.25500000920E-02 0. -1.
    10030    2    1    2    0    0  0.00000000000E+00  0.00000000000E+00 -0.13398263378E+04  0.28320162514E+04  0.24950313490E+04 0.  0.
        2    1    3    3  502    0 -0.61891722212E+03 -0.54986367825E+03  0.38934197073E+03  0.91487472513E+03  0.25500000920E-02 0.  1.
       -2    1    3    3    0  502  0.61891722212E+03  0.54986367825E+03 -0.17291683086E+04  0.19171415263E+04  0.25500000920E-02 0. -1.
</event>
<event>
 5   0  0.1015327E-05  0.2515516E+04  0.7818609E-02  0.8397479E-01
        1   -1    0    0  501    0  0.00000000000E+00  0.00000000000E+00  0.12848623399E+04  0.12848623399E+04  0.50400001928E-02 0.  1.
       -1   -1    0    0    0  501  0.00000000000E+00  0.00000000000E+00 -0.12312252670E+04  0.12312252670E+04  0.50400001928E-02 0. -1.
    10030    2    1    2    0    0  0.00000000000E+00  0.00000000000E+00  0.53637072905E+02  0.25160876070E+04  0.25155158339E+04 0.  0.
        4    1    3    3  502    0 -0.17689451551E+03 -0.65934943078E+03 -0.10297927331E+04  0.12355193351E+04  0.12699999809E+01 0. -1.
       -4    1    3    3    0  502  0.17689451551E+03  0.65934943078E+03  0.10834298060E+04  0.12805682719E+04  0.12699999809E+01 0.  1.
</event>
<event>
 5   0  0.1002753E-05  0.2215839E+04  0.7818609E-02  0.8511864E-01
       -1   -1    0    0    0  501  0.00000000000E+00  0.00000000000E+00  0.50978826064E+03  0.50978826067E+03  0.50400001928E-02 0.  1.
        1   -1    0    0  501    0  0.00000000000E+00  0.00000000000E+00 -0.24078346131E+04  0.24078346131E+04  0.50400001928E-02 0. -1.
    10030    2    1    2    0    0  0.00000000000E+00  0.00000000000E+00 -0.18980463525E+04  0.29176228738E+04  0.22158391813E+04 0.  0.
        5    1    3    3  502    0 -0.17154284032E+03  0.36857964749E+03 -0.23060585506E+04  0.23416246564E+04  0.46999998093E+01 0. -1.
       -5    1    3    3    0  502  0.17154284032E+03 -0.36857964749E+03  0.40801219814E+03  0.57599821739E+03  0.46999998093E+01 0.  1.
</event>
<event>
 5   0  0.1039688E-05  0.2563813E+04  0.7818609E-02  0.8380598E-01
        1   -1    0    0  501    0  0.00000000000E+00  0.00000000000E+00  0.19821374872E+04  0.19821374872E+04  0.50400001928E-02 0.  1.
       -1   -1    0    0    0  501  0.00000000000E+00  0.00000000000E+00 -0.82904644788E+03  0.82904644790E+03  0.50400001928E-02 0. -1.
    10030    2    1    2    0    0  0.00000000000E+00  0.00000000000E+00  0.11530910393E+04  0.28111839351E+04  0.25638128192E+04 0.  0.
        3    1    3    3  502    0  0.92415695100E+03  0.88248641690E+03  0.46453380017E+03  0.13596470159E+04  0.10100000352E+00 0.  1.
       -3    1    3    3    0  502 -0.92415695100E+03 -0.88248641690E+03  0.68855723916E+03  0.14515369192E+04  0.10100000352E+00 0. -1.
</event>
<event>
 5   0  0.1010338E-05  0.2552070E+04  0.7818609E-02  0.8384667E-01
        1   -1    0    0  501    0  0.00000000000E+00  0.00000000000E+00  0.19779874602E+04  0.19779874602E+04  0.50400001928E-02 0.  1.
       -1   -1    0    0    0  501  0.00000000000E+00  0.00000000000E+00 -0.82319280860E+03  0.82319280861E+03  0.50400001928E-02 0. -1.
    10030    2    1    2    0    0  0.00000000000E+00  0.00000000000E+00  0.11547946516E+04  0.28011802688E+04  0.25520697896E+04 0.  0.
        2    1    3    3  502    0  0.43414715031E+03  0.10315231826E+04  0.12502080999E+04  0.16779583181E+04  0.25500000920E-02 0.  1.
       -2    1    3    3    0  502 -0.43414715031E+03 -0.10315231826E+04 -0.95413448312E+02  0.11232219507E+04  0.25500000920E-02 0. -1.
</event>
<event>
 5   0  0.2441340E-05  0.2526727E+04  0.7818609E-02  0.8393525E-01
        2   -1    0    0  501    0  0.00000000000E+00  0.00000000000E+00  0.14608337842E+04  0.14608337843E+04  0.25500000920E-02 0.  1.
       -2   -1    0    0    0  501  0.00000000000E+00  0.00000000000E+00 -0.10925867339E+04  0.10925867339E+04  0.25500000920E-02 0. -1.
    10030    2    1    2    0    0  0.00000000000E+00  0.00000000000E+00  0.36824705037E+03  0.25534205181E+04  0.25267272216E+04 0.  0.
        3    1    3    3  502    0 -0.62142394643E+03 -0.43411233299E+03 -0.83722982965E+03  0.11294135809E+04  0.10100000352E+00 0. -1.
       -3    1    3    3    0  502  0.62142394643E+03  0.43411233299E+03  0.12054768800E+04  0.14240069372E+04  0.10100000352E+00 0.  1.
</event>
<event>
 5   0  0.2452457E-05  0.2466882E+04  0.7818609E-02  0.8414880E-01
       -2   -1    0    0    0  501  0.00000000000E+00  0.00000000000E+00  0.16400219409E+04  0.16400219409E+04  0.25500000920E-02 0. -1.
        2   -1    0    0  501    0  0.00000000000E+00  0.00000000000E+00 -0.92765620674E+03  0.92765620674E+03  0.25500000920E-02 0.  1.
    10030    2    1    2    0    0  0.00000000000E+00  0.00000000000E+00  0.71236573415E+03  0.25676781476E+04  0.24668818639E+04 0.  0.
        1    1    3    3  502    0  0.14455310343E+03 -0.10852776367E+04 -0.23505241842E+03  0.11198092640E+04  0.50400001928E-02 0.  1.
       -1    1    3    3    0  502 -0.14455310343E+03  0.10852776367E+04  0.94741815257E+03  0.14478688836E+04  0.50400001928E-02 0. -1.
</event>
<event>
 5   0  0.1010338E-05  0.2461728E+04  0.7818609E-02  0.8416748E-01
        1   -1    0    0  501    0  0.00000000000E+00  0.00000000000E+00  0.14341057227E+04  0.14341057227E+04  0.50400001928E-02 0. -1.
       -1   -1    0    0    0  501  0.00000000000E+00  0.00000000000E+00 -0.10564257542E+04  0.10564257543E+04  0.50400001928E-02 0.  1.
    10030    2    1    2    0    0  0.00000000000E+00  0.00000000000E+00  0.37767996848E+03  0.24905314770E+04  0.24617280271E+04 0.  0.
        2    1    3    3  502    0 -0.29189306050E+02  0.22870083562E+03  0.14120650203E+04  0.14307633310E+04  0.25500000920E-02 0. -1.
       -2    1    3    3    0  502  0.29189306050E+02 -0.22870083562E+03 -0.10343850518E+04  0.10597681460E+04  0.25500000920E-02 0.  1.
</event>
<event>
 5   0  0.1015327E-05  0.2477617E+04  0.7818609E-02  0.8411003E-01
       -1   -1    0    0    0  501  0.00000000000E+00  0.00000000000E+00  0.79082152483E+03  0.79082152485E+03  0.50400001928E-02 0.  1.
        1   -1    0    0  501    0  0.00000000000E+00  0.00000000000E+00 -0.19405721949E+04  0.19405721949E+04  0.50400001928E-02 0. -1.
    10030    2    1    2    0    0  0.00000000000E+00  0.00000000000E+00 -0.11497506700E+04  0.27313937197E+04  0.24776168083E+04 0.  0.
        4    1    3    3  502    0 -0.46423336769E+03 -0.71205625151E+03  0.41859989162E+03  0.94750419901E+03  0.12699999809E+01 0.  1.
       -4    1    3    3    0  502  0.46423336769E+03  0.71205625151E+03 -0.15683505617E+04  0.17838895207E+04  0.12699999809E+01 0. -1.
</event>
<event>
 5   0  0.1039688E-05  0.2532113E+04  0.7818609E-02  0.8391633E-01
       -1   -1    0    0    0  501  0.00000000000E+00  0.00000000000E+00  0.64035968257E+03  0.64035968259E+03  0.50400001928E-02 0.  1.
        1   -1    0    0  501    0  0.00000000000E+00  0.00000000000E+00 -0.25031239085E+04  0.25031239085E+04  0.50400001928E-02 0. -1.
    10030    2    1    2    0    0  0.00000000000E+00  0.00000000000E+00 -0.18627642260E+04  0.31434835911E+04  0.25321134505E+04 0.  0.
        3    1    3    3  502    0 -0.88232963674E+03  0.32813161055E+03  0.11962078639E+03  0.94893892557E+03  0.10100000352E+00 0.  1.
       -3    1    3    3    0  502  0.88232963674E+03 -0.32813161055E+03 -0.19823850124E+04  0.21945446656E+04  0.10100000352E+00 0. -1.
</event>
<event>
 5   0  0.1015327E-05  0.2506838E+04  0.7818609E-02  0.8400553E-01
        1   -1    0    0  501    0  0.00000000000E+00  0.00000000000E+00  0.16188376277E+04  0.16188376277E+04  0.50400001928E-02 0.  1.
       -1   -1    0    0    0  501  0.00000000000E+00  0.00000000000E+00 -0.97048633213E+03  0.97048633214E+03  0.50400001928E-02 0. -1.
    10030    2    1    2    0    0  0.00000000000E+00  0.00000000000E+00  0.64835129553E+03  0.25893239598E+04  0.25068384803E+04 0.  0.
        4    1    3    3  502    0 -0.10665738490E+04  0.52310380636E+03  0.73713173746E+03  0.13980637249E+04  0.12699999809E+01 0. -1.
       -4    1    3    3    0  502  0.10665738490E+04 -0.52310380636E+03 -0.88780441932E+02  0.11912602349E+04  0.12699999809E+01 0.  1.
</event>
<event>
 5   0  0.2388326E-05  0.2487592E+04  0.7818609E-02  0.8407419E-01
       -2   -1    0    0    0  501  0.00000000000E+00  0.00000000000E+00  0.12727869574E+04  0.12727869574E+04  0.25500000920E-02 0. -1.
        2   -1    0    0  501    0  0.00000000000E+00  0.00000000000E+00 -0.12154657766E+04  0.12154657766E+04  0.25500000920E-02 0.  1.
    10030    2    1    2    0    0  0.00000000000E+00  0.00000000000E+00  0.57321180728E+02  0.24882527340E+04  0.24875924004E+04 0.  0.
        2    1    3    3  502    0  0.62883182276E+03 -0.10020168928E+04  0.41290013021E+03  0.12529779856E+04  0.25500000920E-02 0. -1.
       -2    1    3    3    0  502 -0.62883182276E+03  0.10020168928E+04 -0.35557894948E+03  0.12352747484E+04  0.25500000920E-02 0.  1.
</event>
<event>
 5   0  0.2452457E-05  0.2456854E+04  0.7818609E-02  0.8418520E-01
       -2   -1    0    0    0  501  0.00000000000E+00  0.00000000000E+00  0.95099468787E+03  0.95099468787E+03  0.25500000920E-02 0. -1.
        2   -1    0    0  501    0  0.00000000000E+00  0.00000000000E+00 -0.15867942605E+04  0.15867942605E+04  0.25500000920E-02 0.  1.
    10030    2    1    2    0    0  0.00000000000E+00  0.00000000000E+00 -0.63579957268E+03  0.25377889484E+04  0.24568540148E+04 0.  0.
        1    1    3    3  502    0  0.38335286481E+03 -0.11172082337E+04 -0.66653778540E+03  0.13562397560E+04  0.50400001928E-02 0.  1.
       -1    1    3    3    0  502 -0.38335286481E+03  0.11172082337E+04  0.30738212729E+02  0.11815491924E+04  0.50400001928E-02 0. -1.
</event>
<event>
 5   0  0.1008073E-05  0.2316679E+04  0.7818609E-02  0.8471374E-01
       -1   -1    0    0    0  501  0.00000000000E+00  0.00000000000E+00  0.12998933998E+04  0.12998933998E+04  0.50400001928E-02 0. -1.
        1   -1    0    0  501    0  0.00000000000E+00  0.00000000000E+00 -0.10322007122E+04  0.10322007122E+04  0.50400001928E-02 0.  1.
    10030    2    1    2    0    0  0.00000000000E+00  0.00000000000E+00  0.26769268761E+03  0.23320941120E+04  0.23166794280E+04 0.  0.
        1    1    3    3  502    0  0.28553461673E+02 -0.92881113484E+03  0.83000072740E+03  0.12459561115E+04  0.50400001928E-02 0. -1.
       -1    1    3    3    0  502 -0.28553461673E+02  0.92881113484E+03 -0.56230803979E+03  0.10861380004E+04  0.50400001928E-02 0.  1.
</event>
<event>
 5   0  0.2388326E-05  0.2473365E+04  0.7818609E-02  0.8412536E-01
       -2   -1    0    0    0  501  0.00000000000E+00  0.00000000000E+00  0.99804414584E+03  0.99804414584E+03  0.25500000920E-02 0.  1.
        2   -1    0    0  501    0  0.00000000000E+00  0.00000000000E+00 -0.15323809002E+04  0.15323809002E+04  0.25500000920E-02 0. -1.
    10030    2    1    2    0    0  0.00000000000E+00  0.00000000000E+00 -0.53433675440E+03  0.25304250461E+04  0.24733651463E+04 0.  0.
        2    1    3    3  502    0 -0.11180059458E+04 -0.20268589656E+03  0.23232117760E+03  0.11597379001E+04  0.25500000920E-02 0.  1.
       -2    1    3    3    0  502  0.11180059458E+04  0.20268589656E+03 -0.76665793200E+03  0.13706871460E+04  0.25500000920E-02 0. -1.
</event>
<event>
 5   0  0.1039688E-05  0.2759449E+04  0.7818609E-02  0.8315969E-01
       -1   -1    0    0    0  501  0.00000000000E+00  0.00000000000E+00  0.12704751074E+04  0.12704751074E+04  0.50400001928E-02 0.  1.
        1   -1    0    0  501    0  0.00000000000E+00  0.00000000000E+00 -0.14983687331E+04  0.14983687331E+04  0.50400001928E-02 0. -1.
    10030    2    1    2    0    0  0.00000000000E+00  0.00000000000E+00 -0.22789362571E+03  0.27688438405E+04  0.27594493487E+04 0.  0.
        3    1    3    3  502    0  0.39916783684E+03 -0.72528766851E+03  0.99356040090E+03  0.12932669657E+04  0.10100000352E+00 0.  1.
       -3    1    3    3    0  502 -0.39916783684E+03  0.72528766851E+03 -0.12214540266E+04  0.14755768748E+04  0.10100000352E+00 0. -1.
</event>
<event>
 5   0  0.2452457E-05  0.2505136E+04  0.7818609E-02  0.8401158E-01
       -2   -1    0    0    0  501  0.00000000000E+00  0.00000000000E+00  0.84670152069E+03  0.84670152069E+03  0.25500000920E-02 0.  1.
        2   -1    0    0  501    0  0.00000000000E+00  0.00000000000E+00 -0.18529869155E+04  0.18529869155E+04  0.25500000920E-02 0. -1.
    10030    2    1    2    0    0  0.00000000000E+00  0.00000000000E+00 -0.10062853948E+04  0.26996884362E+04  0.25051361952E+04 0.  0.
        1    1    3    3  502    0 -0.74874183117E+02 -0.74992394974E+03 -0.15813076029E+04  0.17517208136E+04  0.50400001928E-02 0. -1.
       -1    1    3    3    0  502  0.74874183117E+02  0.74992394974E+03  0.57502220810E+03  0.94796762261E+03  0.50400001928E-02 0.  1.
</event>
<event>
 5   0  0.1039688E-05  0.2496591E+04  0.7818609E-02  0.8404201E-01
        1   -1    0    0  501    0  0.00000000000E+00  0.00000000000E+00  0.21792165462E+04  0.21792165462E+04  0.50400001928E-02 0.  1.
       -1   -1    0    0    0  501  0.00000000000E+00  0.00000000000E+00 -0.71504644331E+03  0.71504644333E+03  0.50400001928E-02 0. -1.
    10030    2    1    2    0    0  0.00000000000E+00  0.00000000000E+00  0.14641701029E+04  0.28942629895E+04  0.24965905075E+04 0.  0.
        3    1    3    3  502    0  0.25622536727E+03  0.87141279709E+03 -0.26059796159E+03  0.94494603526E+03  0.10100000352E+00 0. -1.
       -3    1    3    3    0  502 -0.25622536727E+03 -0.87141279709E+03  0.17247680645E+04  0.19493169543E+04  0.10100000352E+00 0.  1.
</event>
<event>
 5   0  0.2345143E-05  0.2613849E+04  0.7818609E-02  0.8363512E-01
        2   -1    0    0  501    0  0.00000000000E+00  0.00000000000E+00  0.16078495459E+04  0.16078495459E+04  0.25500000920E-02 0.  1.
       -2   -1    0    0    0  501  0.00000000000E+00  0.00000000000E+00 -0.10623207668E+04  0.10623207668E+04  0.25500000920E-02 0. -1.
    10030    2    1    2    0    0  0.00000000000E+00  0.00000000000E+00  0.54552877911E+03  0.26701703127E+04  0.26138492401E+04 0.  0.
        5    1    3    3  502    0  0.76570278752E+03 -0.49305398191E+03  0.12303126507E+04  0.15307169224E+04  0.46999998093E+01 0.  1.
       -5    1    3    3    0  502 -0.76570278752E+03  0.49305398191E+03 -0.68478387162E+03  0.11394533903E+04  0.46999998093E+01 0. -1.
</event>
<event>
 5   0  0.2452457E-05  0.2493166E+04  0.7818609E-02  0.8405424E-01
       -2   -1    0    0    0  501  0.00000000000E+00  0.00000000000E+00  0.79065719453E+03  0.79065719453E+03  0.25500000920E-02 0.  1.
        2   -1    0    0  501    0  0.00000000000E+00  0.00000000000E+00 -0.19654138161E+04  0.19654138161E+04  0.25500000920E-02 0. -1.
    10030    2    1    2    0    0  0.00000000000E+00  0.00000000000E+00 -0.11747566215E+04  0.27560710106E+04  0.24931655171E+04 0.  0.
        1    1    3    3  502    0  0.72170642525E+03  0.47853590980E+03  0.40390434419E+03  0.95550798034E+03  0.50400001928E-02 0.  1.
       -1    1    3    3    0  502 -0.72170642525E+03 -0.47853590980E+03 -0.15786609657E+04  0.18005630303E+04  0.50400001928E-02 0. -1.
</event>
<event>
 5   0  0.1010338E-05  0.2503978E+04  0.7818609E-02  0.8401570E-01
        1   -1    0    0  501    0  0.00000000000E+00  0.00000000000E+00  0.18497912730E+04  0.18497912730E+04  0.50400001928E-02 0.  1.
       -1   -1    0    0    0  501  0.00000000000E+00  0.00000000000E+00 -0.84737994320E+03  0.84737994322E+03  0.50400001928E-02 0. -1.
    10030    2    1    2    0    0  0.00000000000E+00  0.00000000000E+00  0.10024113298E+04  0.26971712162E+04  0.25039776548E+04 0.  0.
        2    1    3    3  502    0 -0.10671053806E+04  0.51120734255E+03  0.94195701078E+03  0.15123920955E+04  0.25500000920E-02 0.  1.
       -2    1    3    3    0  502  0.10671053806E+04 -0.51120734255E+03  0.60454319034E+02  0.11847791208E+04  0.25500000920E-02 0. -1.
</event>
<event>
 5   0  0.2388326E-05  0.2505659E+04  0.7818609E-02  0.8400972E-01
        2   -1    0    0  501    0  0.00000000000E+00  0.00000000000E+00  0.79377006230E+03  0.79377006231E+03  0.25500000920E-02 0. -1.
       -2   -1    0    0    0  501  0.00000000000E+00  0.00000000000E+00 -0.19773761118E+04  0.19773761118E+04  0.25500000920E-02 0.  1.
    10030    2    1    2    0    0  0.00000000000E+00  0.00000000000E+00 -0.11836060495E+04  0.27711461741E+04  0.25056591624E+04 0.  0.
        2    1    3    3  502    0  0.18689179636E+03 -0.40641929823E+03  0.70243684658E+03  0.83278011081E+03  0.25500000920E-02 0. -1.
       -2    1    3    3    0  502 -0.18689179636E+03  0.40641929823E+03 -0.18860428961E+04  0.19383660633E+04  0.25500000920E-02 0.  1.
</event>
<event>
 5   0  0.2452457E-05  0.2404021E+04  0.7818609E-02  0.8438000E-01
        2   -1    0    0  501    0  0.00000000000E+00  0.00000000000E+00  0.96183651809E+03  0.96183651809E+03  0.25500000920E-02 0. -1.
       -2   -1    0    0    0  501  0.00000000000E+00  0.00000000000E+00 -0.15021571674E+04  0.15021571674E+04  0.25500000920E-02 0.  1.
    10030    2    1    2    0    0  0.00000000000E+00  0.00000000000E+00 -0.54032064927E+03  0.24639936855E+04  0.24040213140E+04 0.  0.
        1    1    3    3  502    0  0.67037561810E+01  0.38635374010E+03 -0.14367619518E+04  0.14878168768E+04  0.50400001928E-02 0.  1.
       -1    1    3    3    0  502 -0.67037561810E+01 -0.38635374010E+03  0.89644130251E+03  0.97617680863E+03  0.50400001928E-02 0. -1.
</event>
<event>
 5   0  0.1010338E-05  0.2413595E+04  0.7818609E-02  0.8434431E-01
        1   -1    0    0  501    0  0.00000000000E+00  0.00000000000E+00  0.14805961943E+04  0.14805961943E+04  0.50400001928E-02 0. -1.
       -1   -1    0    0    0  501  0.00000000000E+00  0.00000000000E+00 -0.98363112150E+03  0.98363112152E+03  0.50400001928E-02 0.  1.
    10030    2    1    2    0    0  0.00000000000E+00  0.00000000000E+00  0.49696507279E+03  0.24642273158E+04  0.24135952396E+04 0.  0.
        2    1    3    3  502    0  0.70501464247E+03  0.26887147067E+02  0.12480985646E+04  0.14337079869E+04  0.25500000920E-02 0. -1.
       -2    1    3    3    0  502 -0.70501464247E+03 -0.26887147067E+02 -0.75113349180E+03  0.10305193289E+04  0.25500000920E-02 0.  1.
</event>
<event>
 5   0  0.1015327E-05  0.2441546E+04  0.7818609E-02  0.8424111E-01
        1   -1    0    0  501    0  0.00000000000E+00  0.00000000000E+00  0.15229788564E+04  0.15229788564E+04  0.50400001928E-02 0. -1.
       -1   -1    0    0    0  501  0.00000000000E+00  0.00000000000E+00 -0.97853428958E+03  0.97853428959E+03  0.50400001928E-02 0.  1.
    10030    2    1    2    0    0  0.00000000000E+00  0.00000000000E+00  0.54444456687E+03  0.25015131460E+04  0.24415462587E+04 0.  0.
        4    1    3    3  502    0  0.84312853555E+03 -0.29416866408E+03  0.11250636403E+04  0.14363741637E+04  0.12699999809E+01 0. -1.
       -4    1    3    3    0  502 -0.84312853555E+03  0.29416866408E+03 -0.58061907346E+03  0.10651389824E+04  0.12699999809E+01 0.  1.
</event>
<event>
 5   0  0.2345143E-05  0.2439185E+04  0.7818609E-02  0.8424977E-01
       -2   -1    0    0    0  501  0.00000000000E+00  0.00000000000E+00  0.11777360510E+04  0.11777360510E+04  0.25500000920E-02 0. -1.
        2   -1    0    0  501    0  0.00000000000E+00  0.00000000000E+00 -0.12629366233E+04  0.12629366233E+04  0.25500000920E-02 0.  1.
    10030    2    1    2    0    0  0.00000000000E+00  0.00000000000E+00 -0.85200572354E+02  0.24406726743E+04  0.24391851027E+04 0.  0.
        5    1    3    3  502    0  0.52721791998E+02  0.12059245533E+04 -0.21691986692E+03  0.12264215972E+04  0.46999998093E+01 0. -1.
       -5    1    3    3    0  502 -0.52721791998E+02 -0.12059245533E+04  0.13171929457E+03  0.12142510770E+04  0.46999998093E+01 0.  1.
</event>
<event>
 5   0  0.1002753E-05  0.2496012E+04  0.7818609E-02  0.8404407E-01
        1   -1    0    0  501    0  0.00000000000E+00  0.00000000000E+00  0.80391081215E+03  0.80391081217E+03  0.50400001928E-02 0.  1.
       -1   -1    0    0    0  501  0.00000000000E+00  0.00000000000E+00 -0.19374283317E+04  0.19374283317E+04  0.50400001928E-02 0. -1.
    10030    2    1    2    0    0  0.00000000000E+00  0.00000000000E+00 -0.11335175196E+04  0.27413391439E+04  0.24960124869E+04 0.  0.
        5    1    3    3  502    0 -0.70387771884E+03 -0.98343124505E+03 -0.90512512379E+03  0.15105808275E+04  0.46999998093E+01 0. -1.
       -5    1    3    3    0  502  0.70387771884E+03  0.98343124505E+03 -0.22839239576E+03  0.12307583163E+04  0.46999998093E+01 0.  1.
</event>
<event>
 5   0  0.1039688E-05  0.2629184E+04  0.7818609E-02  0.8358355E-01
       -1   -1    0    0    0  501  0.00000000000E+00  0.00000000000E+00  0.63943180516E+03  0.63943180518E+03  0.50400001928E-02 0. -1.
        1   -1    0    0  501    0  0.00000000000E+00  0.00000000000E+00 -0.27026363957E+04  0.27026363957E+04  0.50400001928E-02 0.  1.
    10030    2    1    2    0    0  0.00000000000E+00  0.00000000000E+00 -0.20632045905E+04  0.33420682009E+04  0.26291836522E+04 0.  0.
        3    1    3    3  502    0 -0.50649893276E+03 -0.10789251300E+04 -0.17365207382E+04  0.21062110268E+04  0.10100000352E+00 0.  1.
       -3    1    3    3    0  502  0.50649893276E+03  0.10789251300E+04 -0.32668385235E+03  0.12358571741E+04  0.10100000352E+00 0. -1.
</event>
<event>
 5   0  0.2441340E-05  0.2507127E+04  0.7818609E-02  0.8400451E-01
       -2   -1    0    0    0  501  0.00000000000E+00  0.00000000000E+00  0.59470082638E+03  0.59470082639E+03  0.25500000920E-02 0. -1.
        2   -1    0    0  501    0  0.00000000000E+00  0.00000000000E+00 -0.26423722909E+04  0.26423722909E+04  0.25500000920E-02 0.  1.
    10030    2    1    2    0    0  0.00000000000E+00  0.00000000000E+00 -0.20476714645E+04  0.32370731173E+04  0.25071266302E+04 0.  0.
        3    1    3    3  502    0  0.98319195278E+03 -0.67073768530E+03 -0.51573057665E+03  0.12971250890E+04  0.10100000352E+00 0. -1.
       -3    1    3    3    0  502 -0.98319195278E+03  0.67073768530E+03 -0.15319408878E+04  0.19399480283E+04  0.10100000352E+00 0.  1.
</event>
<event>
 5   0  0.2345143E-05  0.2522014E+04  0.7818609E-02  0.8395185E-01
       -2   -1    0    0    0  501  0.00000000000E+00  0.00000000000E+00  0.14167306723E+04  0.14167306723E+04  0.25500000920E-02 0. -1.
        2   -1    0    0  501    0  0.00000000000E+00  0.00000000000E+00 -0.11224003321E+04  0.11224003321E+04  0.25500000920E-02 0.  1.
    10030    2    1    2    0    0  0.00000000000E+00  0.00000000000E+00  0.29433034021E+03  0.25391310044E+04  0.25220142561E+04 0.  0.
        5    1    3    3  502    0 -0.65834799467E+03  0.52818387396E+03  0.10903889198E+04  0.13789018723E+04  0.46999998093E+01 0. -1.
       -5    1    3    3    0  502  0.65834799467E+03 -0.52818387396E+03 -0.79605857963E+03  0.11602291321E+04  0.46999998093E+01 0.  1.
</event>
<event>
 5   0  0.1002753E-05  0.2524234E+04  0.7818609E-02  0.8394402E-01
        1   -1    0    0  501    0  0.00000000000E+00  0.00000000000E+00  0.11371643924E+04  0.11371643925E+04  0.50400001928E-02 0. -1.
       -1   -1    0    0    0  501  0.00000000000E+00  0.00000000000E+00 -0.14007998278E+04  0.14007998278E+04  0.50400001928E-02 0.  1.
    10030    2    1    2    0    0  0.00000000000E+00  0.00000000000E+00 -0.26363543537E+03  0.25379642203E+04  0.25242342880E+04 0.  0.
        5    1    3    3  502    0 -0.11097272975E+04 -0.41489860548E+03 -0.56924973648E+03  0.13144211198E+04  0.46999998093E+01 0.  1.
       -5    1    3    3    0  502  0.11097272975E+04  0.41489860548E+03  0.30561430111E+03  0.12235431005E+04  0.46999998093E+01 0. -1.
</event>
<event>
 5   0  0.1010338E-05  0.2488888E+04  0.7818609E-02  0.8406955E-01
        1   -1    0    0  501    0  0.00000000000E+00  0.00000000000E+00  0.11487690516E+04  0.11487690516E+04  0.50400001928E-02 0.  1.
       -1   -1    0    0    0  501  0.00000000000E+00  0.00000000000E+00 -0.13480871173E+04  0.13480871173E+04  0.50400001928E-02 0. -1.
    10030    2    1    2    0    0  0.00000000000E+00  0.00000000000E+00 -0.19931806568E+03  0.24968561688E+04  0.24888879116E+04 0.  0.
        2    1    3    3  502    0  0.46299285867E+03 -0.10144750781E+04  0.45448491107E+03  0.12041920966E+04  0.25500000920E-02 0.  1.
       -2    1    3    3    0  502 -0.46299285867E+03  0.10144750781E+04 -0.65380297674E+03  0.12926640722E+04  0.25500000920E-02 0. -1.
</event>
<event>
 5   0  0.2432309E-05  0.2436126E+04  0.7818609E-02  0.8426101E-01
        2   -1    0    0  501    0  0.00000000000E+00  0.00000000000E+00  0.13593410997E+04  0.13593410997E+04  0.25500000920E-02 0.  1.
       -2   -1    0    0    0  501  0.00000000000E+00  0.00000000000E+00 -0.10914678843E+04  0.10914678843E+04  0.25500000920E-02 0. -1.
    10030    2    1    2    0    0  0.00000000000E+00  0.00000000000E+00  0.26787321539E+03  0.24508089841E+04  0.24361257391E+04 0.  0.
        4    1    3    3  502    0  0.65140125375E+02  0.15677938540E+03  0.13473792427E+04  0.13580336698E+04  0.12699999809E+01 0.  1.
       -4    1    3    3    0  502 -0.65140125375E+02 -0.15677938540E+03 -0.10795060273E+04  0.10927753143E+04  0.12699999809E+01 0. -1.
</event>
<event>
 5   0  0.2345143E-05  0.2509472E+04  0.7818609E-02  0.8399619E-01
       -2   -1    0    0    0  501  0.00000000000E+00  0.00000000000E+00  0.11103542719E+04  0.11103542719E+04  0.25500000920E-02 0.  1.
        2   -1    0    0  501    0  0.00000000000E+00  0.00000000000E+00 -0.14178915853E+04  0.14178915853E+04  0.25500000920E-02 0. -1.
    10030    2    1    2    0    0  0.00000000000E+00  0.00000000000E+00 -0.30753731346E+03  0.25282458572E+04  0.25094716406E+04 0.  0.
        5    1    3    3  502    0 -0.59651916347E+03 -0.21437874304E+02  0.95813898098E+03  0.11288698294E+04  0.46999998093E+01 0.  1.
       -5    1    3    3    0  502  0.59651916347E+03  0.21437874304E+02 -0.12656762944E+04  0.13993760278E+04  0.46999998093E+01 0. -1.
</event>
<event>
 5   0  0.1008073E-05  0.2530759E+04  0.7818609E-02  0.8392109E-01
        1   -1    0    0  501    0  0.00000000000E+00  0.00000000000E+00  0.16760339856E+04  0.16760339856E+04  0.50400001928E-02 0.  1.
       -1   -1    0    0    0  501  0.00000000000E+00  0.00000000000E+00 -0.95534144370E+03  0.95534144372E+03  0.50400001928E-02 0. -1.
    10030    2    1    2    0    0  0.00000000000E+00  0.00000000000E+00  0.72069254188E+03  0.26313754293E+04  0.25307585642E+04 0.  0.
        1    1    3    3  502    0  0.91583869082E+03  0.76498658517E+03 -0.77365426454E+02  0.11958053321E+04  0.50400001928E-02 0. -1.
       -1    1    3    3    0  502 -0.91583869082E+03 -0.76498658517E+03  0.79805796834E+03  0.14355700972E+04  0.50400001928E-02 0.  1.
</event>
<event>
 5   0  0.2388326E-05  0.2503116E+04  0.7818609E-02  0.8401876E-01
        2   -1    0    0  501    0  0.00000000000E+00  0.00000000000E+00  0.14576289481E+04  0.14576289481E+04  0.25500000920E-02 0.  1.
       -2   -1    0    0    0  501  0.00000000000E+00  0.00000000000E+00 -0.10746200915E+04  0.10746200915E+04  0.25500000920E-02 0. -1.
    10030    2    1    2    0    0  0.00000000000E+00  0.00000000000E+00  0.38300885659E+03  0.25322490396E+04  0.25031159411E+04 0.  0.
        2    1    3    3  502    0  0.98257729222E+03  0.52598499353E+03  0.76758717021E+03  0.13532584426E+04  0.25500000920E-02 0.  1.
       -2    1    3    3    0  502 -0.98257729222E+03 -0.52598499353E+03 -0.38457831361E+03  0.11789905970E+04  0.25500000920E-02 0. -1.
</event>
<event>
 5   0  0.1010338E-05  0.2479830E+04  0.7818609E-02  0.8410206E-01
        1   -1    0    0  501    0  0.00000000000E+00  0.00000000000E+00  0.13169316707E+04  0.13169316707E+04  0.50400001928E-02 0.  1.
       -1   -1    0    0    0  501  0.00000000000E+00  0.00000000000E+00 -0.11674028697E+04  0.11674028697E+04  0.50400001928E-02 0. -1.
    10030    2    1    2    0    0  0.00000000000E+00  0.00000000000E+00  0.14952880099E+03  0.24843345404E+04  0.24798304875E+04 0.  0.
        2    1    3    3  502    0 -0.81923034130E+02 -0.77602810227E+03  0.10400801766E+04  0.13002683465E+04  0.25500000920E-02 0.  1.
       -2    1    3    3    0  502  0.81923034130E+02  0.77602810227E+03 -0.89055137564E+03  0.11840661940E+04  0.25500000920E-02 0. -1.
</event>
<event>
 5   0  0.2452457E-05  0.2362709E+04  0.7818609E-02  0.8453598E-01
        2   -1    0    0  501    0  0.00000000000E+00  0.00000000000E+00  0.13766444509E+04  0.13766444509E+04  0.25500000920E-02 0. -1.
       -2   -1    0    0    0  501  0.00000000000E+00  0.00000000000E+00 -0.10137681786E+04  0.10137681786E+04  0.25500000920E-02 0.  1.
    10030    2    1    2    0    0  0.00000000000E+00  0.00000000000E+00  0.36287627234E+03  0.23904126295E+04  0.23627089008E+04 0.  0.
        1    1    3    3  502    0  0.40557860573E+03 -0.10112994811E+03 -0.93645071542E+03  0.10255053458E+04  0.50400001928E-02 0.  1.
       -1    1    3    3    0  502 -0.40557860573E+03  0.10112994811E+03  0.12993269878E+04  0.13649072837E+04  0.50400001928E-02 0. -1.
</event>
<event>
 5   0  0.1039688E-05  0.2401425E+04  0.7818609E-02  0.8438970E-01
       -1   -1    0    0    0  501  0.00000000000E+00  0.00000000000E+00  0.66684117542E+03  0.66684117544E+03  0.50400001928E-02 0.  1.
        1   -1    0    0  501    0  0.00000000000E+00  0.00000000000E+00 -0.21620006167E+04  0.21620006167E+04  0.50400001928E-02 0. -1.
    10030    2    1    2    0    0  0.00000000000E+00  0.00000000000E+00 -0.14951594413E+04  0.28288417921E+04  0.24014254371E+04 0.  0.
        3    1    3    3  502    0 -0.10447924882E+04  0.49318544155E+03 -0.36245302762E+03  0.12108655708E+04  0.10100000352E+00 0.  1.
       -3    1    3    3    0  502  0.10447924882E+04 -0.49318544155E+03 -0.11327064137E+04  0.16179762213E+04  0.10100000352E+00 0. -1.
</event>
<event>
 5   0  0.1039688E-05  0.2521040E+04  0.7818609E-02  0.8395528E-01
        1   -1    0    0  501    0  0.00000000000E+00  0.00000000000E+00  0.21924967635E+04  0.21924967636E+04  0.50400001928E-02 0.  1.
       -1   -1    0    0    0  501  0.00000000000E+00  0.00000000000E+00 -0.72470381032E+03  0.72470381034E+03  0.50400001928E-02 0. -1.
    10030    2    1    2    0    0  0.00000000000E+00  0.00000000000E+00  0.14677929532E+04  0.29172005739E+04  0.25210400700E+04 0.  0.
        3    1    3    3  502    0 -0.63409859257E+03 -0.56194325386E+03 -0.34606424504E+03  0.91521675987E+03  0.10100000352E+00 0. -1.
       -3    1    3    3    0  502  0.63409859257E+03  0.56194325386E+03  0.18138571983E+04  0.20019838140E+04  0.10100000352E+00 0.  1.
</event>
<event>
 5   0  0.2432309E-05  0.2496774E+04  0.7818609E-02  0.8404136E-01
       -2   -1    0    0    0  501  0.00000000000E+00  0.00000000000E+00  0.15715110408E+04  0.15715110408E+04  0.25500000920E-02 0.  1.
        2   -1    0    0  501    0  0.00000000000E+00  0.00000000000E+00 -0.99170162981E+03  0.99170162981E+03  0.25500000920E-02 0. -1.
    10030    2    1    2    0    0  0.00000000000E+00  0.00000000000E+00  0.57980941097E+03  0.25632126706E+04  0.24967739669E+04 0.  0.
        4    1    3    3  502    0 -0.10890339444E+04  0.88733190380E+02 -0.32998397795E+03  0.11413849262E+04  0.12699999809E+01 0.  1.
       -4    1    3    3    0  502  0.10890339444E+04 -0.88733190380E+02  0.90979338892E+03  0.14218277444E+04  0.12699999809E+01 0. -1.
</event>
<event>
 5   0  0.2452457E-05  0.2528043E+04  0.7818609E-02  0.8393063E-01
       -2   -1    0    0    0  501  0.00000000000E+00  0.00000000000E+00  0.16502476291E+04  0.16502476291E+04  0.25500000920E-02 0.  1.
        2   -1    0    0  501    0  0.00000000000E+00  0.00000000000E+00 -0.96818796878E+03  0.96818796878E+03  0.25500000920E-02 0. -1.
    10030    2    1    2    0    0  0.00000000000E+00  0.00000000000E+00  0.68205966034E+03  0.26184355979E+04  0.25280426421E+04 0.  0.
        1    1    3    3  502    0 -0.12330049480E+04 -0.89989141886E+02  0.61379114625E+03  0.13802676620E+04  0.50400001928E-02 0.  1.
       -1    1    3    3    0  502  0.12330049480E+04  0.89989141886E+02  0.68268514095E+02  0.12381679359E+04  0.50400001928E-02 0. -1.
</event>
<event>
 5   0  0.1010338E-05  0.2530014E+04  0.7818609E-02  0.8392370E-01
       -1   -1    0    0    0  501  0.00000000000E+00  0.00000000000E+00  0.13883136089E+04  0.13883136089E+04  0.50400001928E-02 0.  1.
        1   -1    0    0  501    0  0.00000000000E+00  0.00000000000E+00 -0.11526518896E+04  0.11526518896E+04  0.50400001928E-02 0. -1.
    10030    2    1    2    0    0  0.00000000000E+00  0.00000000000E+00  0.23566171932E+03  0.25409654985E+04  0.25300136796E+04 0.  0.
        2    1    3    3  502    0 -0.12428333048E+04  0.89911270081E+02 -0.10111199133E+03  0.12501769054E+04  0.25500000920E-02 0.  1.
       -2    1    3    3    0  502  0.12428333048E+04 -0.89911270081E+02  0.33677371065E+03  0.12907885931E+04  0.25500000920E-02 0. -1.
</event>
<event>
 5   0  0.1015327E-05  0.2490399E+04  0.7818609E-02  0.8406414E-01
        1   -1    0    0  501    0  0.00000000000E+00  0.00000000000E+00  0.21432667996E+04  0.21432667996E+04  0.50400001928E-02 0. -1.
       -1   -1    0    0    0  501  0.00000000000E+00  0.00000000000E+00 -0.72343866444E+03  0.72343866445E+03  0.50400001928E-02 0.  1.
    10030    2    1    2    0    0  0.00000000000E+00  0.00000000000E+00  0.14198281351E+04  0.28667054640E+04  0.24903992218E+04 0.  0.
        4    1    3    3  502    0 -0.94589134017E+03  0.36286375138E+03 -0.12345566834E+03  0.10205995515E+04  0.12699999809E+01 0.  1.
       -4    1    3    3    0  502  0.94589134017E+03 -0.36286375138E+03  0.15432838035E+04  0.18461059126E+04  0.12699999809E+01 0. -1.
</event>
<event>
 5   0  0.1002753E-05  0.2499499E+04  0.7818609E-02  0.8403164E-01
        1   -1    0    0  501    0  0.00000000000E+00  0.00000000000E+00  0.16214976246E+04  0.16214976246E+04  0.50400001928E-02 0.  1.
       -1   -1    0    0    0  501  0.00000000000E+00  0.00000000000E+00 -0.96322890344E+03  0.96322890345E+03  0.50400001928E-02 0. -1.
    10030    2    1    2    0    0  0.00000000000E+00  0.00000000000E+00  0.65826872112E+03  0.25847265280E+04  0.24994986528E+04 0.  0.
        5    1    3    3  502    0 -0.98228917079E+02  0.49478315117E+03 -0.85326614048E+03  0.99123381869E+03  0.46999998093E+01 0. -1.
       -5    1    3    3    0  502  0.98228917079E+02 -0.49478315117E+03  0.15115348616E+04  0.15934927093E+04  0.46999998093E+01 0.  1.
</event>
<event>
 5   0  0.2388326E-05  0.2551423E+04  0.7818609E-02  0.8384891E-01
       -2   -1    0    0    0  501  0.00000000000E+00  0.00000000000E+00  0.96334563423E+03  0.96334563423E+03  0.25500000920E-02 0.  1.
        2   -1    0    0  501    0  0.00000000000E+00  0.00000000000E+00 -0.16893622336E+04  0.16893622336E+04  0.25500000920E-02 0. -1.
    10030    2    1    2    0    0  0.00000000000E+00  0.00000000000E+00 -0.72601659938E+03  0.26527078678E+04  0.25514229225E+04 0.  0.
        2    1    3    3  502    0  0.65514169589E+03  0.92597728189E+03  0.24394277431E+03  0.11602381848E+04  0.25500000920E-02 0.  1.
       -2    1    3    3    0  502 -0.65514169589E+03 -0.92597728189E+03 -0.96995937368E+03  0.14924696831E+04  0.25500000920E-02 0. -1.
</event>
<event>
 5   0  0.1015327E-05  0.2509838E+04  0.7818609E-02  0.8399489E-01
        1   -1    0    0  501    0  0.00000000000E+00  0.00000000000E+00  0.19142671109E+04  0.19142671109E+04  0.50400001928E-02 0. -1.
       -1   -1    0    0    0  501  0.00000000000E+00  0.00000000000E+00 -0.82267601604E+03  0.82267601606E+03  0.50400001928E-02 0.  1.
    10030    2    1    2    0    0  0.00000000000E+00  0.00000000000E+00  0.10915910949E+04  0.27369431270E+04  0.25098379553E+04 0.  0.
        4    1    3    3  502    0  0.85661876564E+03 -0.74494834386E+03 -0.37462873034E+02  0.11358471836E+04  0.12699999809E+01 0.  1.
       -4    1    3    3    0  502 -0.85661876564E+03  0.74494834386E+03  0.11290539679E+04  0.16010959434E+04  0.12699999809E+01 0. -1.
</event>
<event>
 5   0  0.2345143E-05  0.2505360E+04  0.7818609E-02  0.8401079E-01
        2   -1    0    0  501    0  0.00000000000E+00  0.00000000000E+00  0.15998797914E+04  0.15998797914E+04  0.25500000920E-02 0.  1.
       -2   -1    0    0    0  501  0.00000000000E+00  0.00000000000E+00 -0.98082797539E+03  0.98082797539E+03  0.25500000920E-02 0. -1.
    10030    2    1    2    0    0  0.00000000000E+00  0.00000000000E+00  0.61905181604E+03  0.25807077668E+04  0.25053597400E+04 0.  0.
        5    1    3    3  502    0 -0.82787174672E+03  0.28301083396E+02  0.12774740338E+04  0.15225421431E+04  0.46999998093E+01 0.  1.
       -5    1    3    3    0  502  0.82787174672E+03 -0.28301083396E+02 -0.65842221781E+03  0.10581656237E+04  0.46999998093E+01 0. -1.
</event>
<event>
 5   0  0.1002753E-05  0.2473347E+04  0.7818609E-02  0.8412543E-01
        1   -1    0    0  501    0  0.00000000000E+00  0.00000000000E+00  0.95040711273E+03  0.95040711275E+03  0.50400001928E-02 0.  1.
       -1   -1    0    0    0  501  0.00000000000E+00  0.00000000000E+00 -0.16091642929E+04  0.16091642929E+04  0.50400001928E-02 0. -1.
    10030    2    1    2    0    0  0.00000000000E+00  0.00000000000E+00 -0.65875718014E+03  0.25595714056E+04  0.24733468738E+04 0.  0.
        5    1    3    3  502    0 -0.80523434120E+03 -0.40131520962E+03 -0.12074162380E+04  0.15057663509E+04  0.46999998093E+01 0. -1.
       -5    1    3    3    0  502  0.80523434120E+03  0.40131520962E+03  0.54865905782E+03  0.10538050548E+04  0.46999998093E+01 0.  1.
</event>
<event>
 5   0  0.1008073E-05  0.2495758E+04  0.7818609E-02  0.8404498E-01
        1   -1    0    0  501    0  0.00000000000E+00  0.00000000000E+00  0.12304558422E+04  0.12304558422E+04  0.50400001928E-02 0.  1.
       -1   -1    0    0    0  501  0.00000000000E+00  0.00000000000E+00 -0.12655488922E+04  0.12655488922E+04  0.50400001928E-02 0. -1.
    10030    2    1    2    0    0  0.00000000000E+00  0.00000000000E+00 -0.35093049994E+02  0.24960047343E+04  0.24957580235E+04 0.  0.
        1    1    3    3  502    0 -0.10351366675E+04  0.69164560503E+03  0.68021645881E+02  0.12467993053E+04  0.50400001928E-02 0.  1.
       -1    1    3    3    0  502  0.10351366675E+04 -0.69164560503E+03 -0.10311469588E+03  0.12492054290E+04  0.50400001928E-02 0. -1.
</event>
<event>
 5   0  0.2388326E-05  0.2435376E+04  0.7818609E-02  0.8426377E-01
       -2   -1    0    0    0  501  0.00000000000E+00  0.00000000000E+00  0.14899455436E+04  0.14899455436E+04  0.25500000920E-02 0. -1.
        2   -1    0    0  501    0  0.00000000000E+00  0.00000000000E+00 -0.99517967086E+03  0.99517967086E+03  0.25500000920E-02 0.  1.
    10030    2    1    2    0    0  0.00000000000E+00  0.00000000000E+00  0.49476587274E+03  0.24851252145E+04  0.24353755486E+04 0.  0.
        2    1    3    3  502    0  0.78065556674E+03 -0.69916091920E+03 -0.38537652094E+03  0.11165859428E+04  0.25500000920E-02 0.  1.
       -2    1    3    3    0  502 -0.78065556674E+03  0.69916091920E+03  0.88014239368E+03  0.13685392716E+04  0.25500000920E-02 0. -1.
</event>
<event>
 5   0  0.1002753E-05  0.2550240E+04  0.7818609E-02  0.8385303E-01
        1   -1    0    0  501    0  0.00000000000E+00  0.00000000000E+00  0.18158517186E+04  0.18158517186E+04  0.50400001928E-02 0. -1.
       -1   -1    0    0    0  501  0.00000000000E+00  0.00000000000E+00 -0.89540945954E+03  0.89540945955E+03  0.50400001928E-02 0.  1.
    10030    2    1    2    0    0  0.00000000000E+00  0.00000000000E+00  0.92044225909E+03  0.27112611782E+04  0.25502398366E+04 0.  0.
        5    1    3    3  502    0 -0.46507334562E+03 -0.29556352891E+03  0.16827197633E+04  0.17706549376E+04  0.46999998093E+01 0. -1.
       -5    1    3    3    0  502  0.46507334562E+03  0.29556352891E+03 -0.76227750417E+03  0.94060624057E+03  0.46999998093E+01 0.  1.
</event>
<event>
 5   0  0.2452457E-05  0.2513996E+04  0.7818609E-02  0.8398016E-01
        2   -1    0    0  501    0  0.00000000000E+00  0.00000000000E+00  0.13270841970E+04  0.13270841970E+04  0.25500000920E-02 0. -1.
       -2   -1    0    0    0  501  0.00000000000E+00  0.00000000000E+00 -0.11906130165E+04  0.11906130165E+04  0.25500000920E-02 0.  1.
    10030    2    1    2    0    0  0.00000000000E+00  0.00000000000E+00  0.13647118056E+03  0.25176972135E+04  0.25139957987E+04 0.  0.
        1    1    3    3  502    0  0.60290719036E+02 -0.66550101520E+03  0.11344707481E+04  0.13166436307E+04  0.50400001928E-02 0. -1.
       -1    1    3    3    0  502 -0.60290719036E+02  0.66550101520E+03 -0.99799956752E+03  0.12010535828E+04  0.50400001928E-02 0.  1.
</event>
<event>
 5   0  0.1008073E-05  0.2543134E+04  0.7818609E-02  0.8387778E-01
        1   -1    0    0  501    0  0.00000000000E+00  0.00000000000E+00  0.15960720018E+04  0.15960720018E+04  0.50400001928E-02 0. -1.
       -1   -1    0    0    0  501  0.00000000000E+00  0.00000000000E+00 -0.10130387312E+04  0.10130387312E+04  0.50400001928E-02 0.  1.
    10030    2    1    2    0    0  0.00000000000E+00  0.00000000000E+00  0.58303327057E+03  0.26091107330E+04  0.25431340945E+04 0.  0.
        1    1    3    3  502    0  0.78623789865E+03 -0.99902375191E+03  0.26507464935E+03  0.12986466263E+04  0.50400001928E-02 0. -1.
       -1    1    3    3    0  502 -0.78623789865E+03  0.99902375191E+03  0.31795862122E+03  0.13104641067E+04  0.50400001928E-02 0.  1.
</event>
<event>
 5   0  0.1010338E-05  0.2505055E+04  0.7818609E-02  0.8401187E-01
        1   -1    0    0  501    0  0.00000000000E+00  0.00000000000E+00  0.10174107573E+04  0.10174107574E+04  0.50400001928E-02 0.  1.
       -1   -1    0    0    0  501  0.00000000000E+00  0.00000000000E+00 -0.15419784046E+04  0.15419784046E+04  0.50400001928E-02 0. -1.
    10030    2    1    2    0    0  0.00000000000E+00  0.00000000000E+00 -0.52456764721E+03  0.25593891619E+04  0.25050552221E+04 0.  0.
        2    1    3    3  502    0 -0.41217735218E+03 -0.77898871406E+03 -0.11715944624E+04  0.14660652000E+04  0.25500000920E-02 0. -1.
       -2    1    3    3    0  502  0.41217735218E+03  0.77898871406E+03  0.64702681516E+03  0.10933239620E+04  0.25500000920E-02 0.  1.
</event>
<event>
 5   0  0.2432309E-05  0.2488537E+04  0.7818609E-02  0.8407081E-01
        2   -1    0    0  501    0  0.00000000000E+00  0.00000000000E+00  0.14559028025E+04  0.14559028025E+04  0.25500000920E-02 0.  1.
       -2   -1    0    0    0  501  0.00000000000E+00  0.00000000000E+00 -0.10633984037E+04  0.10633984037E+04  0.25500000920E-02 0. -1.
    10030    2    1    2    0    0  0.00000000000E+00  0.00000000000E+00  0.39250439880E+03  0.25193012062E+04  0.24885374951E+04 0.  0.
        4    1    3    3  502    0 -0.11325054859E+04  0.50628738150E+03  0.98584091091E+02  0.12444340176E+04  0.12699999809E+01 0.  1.
       -4    1    3    3    0  502  0.11325054859E+04 -0.50628738150E+03  0.29392030771E+03  0.12748671886E+04  0.12699999809E+01 0. -1.
</event>
<event>
 5   0  0.2388326E-05  0.2502261E+04  0.7818609E-02  0.8402181E-01
       -2   -1    0    0    0  501  0.00000000000E+00  0.00000000000E+00  0.64002853186E+03  0.64002853186E+03  0.25500000920E-02 0.  1.
        2   -1    0    0  501    0  0.00000000000E+00  0.00000000000E+00 -0.24457143859E+04  0.24457143859E+04  0.25500000920E-02 0. -1.
    10030    2    1    2    0    0  0.00000000000E+00  0.00000000000E+00 -0.18056858541E+04  0.30857429178E+04  0.25022605682E+04 0.  0.
        2    1    3    3  502    0  0.72989103071E+03  0.68480711808E+03  0.22968296907E+02  0.10011140037E+04  0.25500000920E-02 0.  1.
       -2    1    3    3    0  502 -0.72989103071E+03 -0.68480711808E+03 -0.18286541510E+04  0.20846289141E+04  0.25500000920E-02 0. -1.
</event>
<event>
 5   0  0.2432309E-05  0.2507561E+04  0.7818609E-02  0.8400297E-01
       -2   -1    0    0    0  501  0.00000000000E+00  0.00000000000E+00  0.19862872317E+04  0.19862872317E+04  0.25500000920E-02 0.  1.
        2   -1    0    0  501    0  0.00000000000E+00  0.00000000000E+00 -0.79140886944E+03  0.79140886944E+03  0.25500000920E-02 0. -1.
    10030    2    1    2    0    0  0.00000000000E+00  0.00000000000E+00  0.11948783622E+04  0.27776961011E+04  0.25075608327E+04 0.  0.
        4    1    3    3  502    0 -0.10570613035E+04 -0.66885305708E+03  0.50331024577E+03  0.13483567138E+04  0.12699999809E+01 0. -1.
       -4    1    3    3    0  502  0.10570613035E+04  0.66885305708E+03  0.69156811645E+03  0.14293393873E+04  0.12699999809E+01 0.  1.
</event>
<event>
 5   0  0.1010338E-05  0.2495707E+04  0.7818609E-02  0.8404517E-01
       -1   -1    0    0    0  501  0.00000000000E+00  0.00000000000E+00  0.95317747406E+03  0.95317747408E+03  0.50400001928E-02 0. -1.
        1   -1    0    0  501    0  0.00000000000E+00  0.00000000000E+00 -0.16336283852E+04  0.16336283852E+04  0.50400001928E-02 0.  1.
    10030    2    1    2    0    0  0.00000000000E+00  0.00000000000E+00 -0.68045091117E+03  0.25868058593E+04  0.24957065355E+04 0.  0.
        2    1    3    3  502    0  0.10697672144E+04  0.31867590698E+03  0.23797341666E+03  0.11413095872E+04  0.25500000920E-02 0. -1.
       -2    1    3    3    0  502 -0.10697672144E+04 -0.31867590698E+03 -0.91842432783E+03  0.14454962721E+04  0.25500000920E-02 0.  1.
</event>
<event>
 5   0  0.2452457E-05  0.2500449E+04  0.7818609E-02  0.8402826E-01
        2   -1    0    0  501    0  0.00000000000E+00  0.00000000000E+00  0.13203532731E+04  0.13203532731E+04  0.25500000920E-02 0. -1.
       -2   -1    0    0    0  501  0.00000000000E+00  0.00000000000E+00 -0.11838203284E+04  0.11838203284E+04  0.25500000920E-02 0.  1.
    10030    2    1    2    0    0  0.00000000000E+00  0.00000000000E+00  0.13653294474E+03  0.25041736015E+04  0.25004487960E+04 0.  0.
        1    1    3    3  502    0  0.93247624134E+03  0.81654653714E+03  0.23222001720E+03  0.12610259016E+04  0.50400001928E-02 0. -1.
       -1    1    3    3    0  502 -0.93247624134E+03 -0.81654653714E+03 -0.95687072460E+02  0.12431476999E+04  0.50400001928E-02 0.  1.
</event>
<event>
 5   0  0.1015327E-05  0.2627131E+04  0.7818609E-02  0.8359043E-01
        1   -1    0    0  501    0  0.00000000000E+00  0.00000000000E+00  0.10519391103E+04  0.10519391103E+04  0.50400001928E-02 0.  1.
       -1   -1    0    0    0  501  0.00000000000E+00  0.00000000000E+00 -0.16402607817E+04  0.16402607817E+04  0.50400001928E-02 0. -1.
    10030    2    1    2    0    0  0.00000000000E+00  0.00000000000E+00 -0.58832167140E+03  0.26921998921E+04  0.26271311101E+04 0.  0.
        4    1    3    3  502    0  0.47221377028E+03  0.54487777096E+03  0.83102099945E+03  0.11002159536E+04  0.12699999809E+01 0.  1.
       -4    1    3    3    0  502 -0.47221377028E+03 -0.54487777096E+03 -0.14193426708E+04  0.15919839385E+04  0.12699999809E+01 0. -1.
</event>
<event>
 5   0  0.1010338E-05  0.2500255E+04  0.7818609E-02  0.8402895E-01
       -1   -1    0    0    0  501  0.00000000000E+00  0.00000000000E+00  0.17678748660E+04  0.17678748660E+04  0.50400001928E-02 0.  1.
        1   -1    0    0  501    0  0.00000000000E+00  0.00000000000E+00 -0.88400990871E+03  0.88400990873E+03  0.50400001928E-02 0. -1.
    10030    2    1    2    0    0  0.00000000000E+00  0.00000000000E+00  0.88386495733E+03  0.26518847748E+04  0.25002551062E+04 0.  0.
        2    1    3    3  502    0 -0.29556438573E+03  0.35880507074E+03 -0.78892821627E+03  0.91570034145E+03  0.25500000920E-02 0. -1.
       -2    1    3    3    0  502  0.29556438573E+03 -0.35880507074E+03  0.16727931736E+04  0.17361844333E+04  0.25500000920E-02 0.  1.
</event>
<event>
 5   0  0.1008073E-05  0.2500730E+04  0.7818609E-02  0.8402725E-01
       -1   -1    0    0    0  501  0.00000000000E+00  0.00000000000E+00  0.75993876281E+03  0.75993876283E+03  0.50400001928E-02 0. -1.
        1   -1    0    0  501    0  0.00000000000E+00  0.00000000000E+00 -0.20572878640E+04  0.20572878641E+04  0.50400001928E-02 0.  1.
    10030    2    1    2    0    0  0.00000000000E+00  0.00000000000E+00 -0.12973491012E+04  0.28172266269E+04  0.25007301287E+04 0.  0.
        1    1    3    3  502    0  0.72374228443E+03  0.81767973667E+03  0.37520558495E+02  0.10926165102E+04  0.50400001928E-02 0. -1.
       -1    1    3    3    0  502 -0.72374228443E+03 -0.81767973667E+03 -0.13348696597E+04  0.17246101167E+04  0.50400001928E-02 0.  1.
</event>
<event>
 5   0  0.2452457E-05  0.2423986E+04  0.7818609E-02  0.8430578E-01
        2   -1    0    0  501    0  0.00000000000E+00  0.00000000000E+00  0.10984446736E+04  0.10984446736E+04  0.25500000920E-02 0. -1.
       -2   -1    0    0    0  501  0.00000000000E+00  0.00000000000E+00 -0.13372786812E+04  0.13372786812E+04  0.25500000920E-02 0.  1.
    10030    2    1    2    0    0  0.00000000000E+00  0.00000000000E+00 -0.23883400760E+03  0.24357233547E+04  0.24239856802E+04 0.  0.
        1    1    3    3  502    0 -0.22063083075E+03  0.11096081431E+04  0.31745076941E+03  0.11750247596E+04  0.50400001928E-02 0. -1.
       -1    1    3    3    0  502  0.22063083075E+03 -0.11096081431E+04 -0.55628477701E+03  0.12606985951E+04  0.50400001928E-02 0.  1.
</event>
<event>
 5   0  0.1039688E-05  0.2518308E+04  0.7818609E-02  0.8396492E-01
       -1   -1    0    0    0  501  0.00000000000E+00  0.00000000000E+00  0.12272245671E+04  0.12272245671E+04  0.50400001928E-02 0.  1.
        1   -1    0    0  501    0  0.00000000000E+00  0.00000000000E+00 -0.12919137173E+04  0.12919137174E+04  0.50400001928E-02 0. -1.
    10030    2    1    2    0    0  0.00000000000E+00  0.00000000000E+00 -0.64689150245E+02  0.25191382845E+04  0.25183075686E+04 0.  0.
        3    1    3    3  502    0 -0.71184329858E+03 -0.65351722874E+03  0.77517792736E+03  0.12388327083E+04  0.10100000352E+00 0.  1.
       -3    1    3    3    0  502  0.71184329858E+03  0.65351722874E+03 -0.83986707761E+03  0.12803055761E+04  0.10100000352E+00 0. -1.
</event>
<event>
 5   0  0.1002753E-05  0.2491429E+04  0.7818609E-02  0.8406045E-01
        1   -1    0    0  501    0  0.00000000000E+00  0.00000000000E+00  0.16898247584E+04  0.16898247584E+04  0.50400001928E-02 0. -1.
       -1   -1    0    0    0  501  0.00000000000E+00  0.00000000000E+00 -0.91832257182E+03  0.91832257183E+03  0.50400001928E-02 0.  1.
    10030    2    1    2    0    0  0.00000000000E+00  0.00000000000E+00  0.77150218660E+03  0.26081473303E+04  0.24914286810E+04 0.  0.
        5    1    3    3  502    0 -0.65469340632E+03  0.26870331493E+02  0.14948354546E+04  0.16321460098E+04  0.46999998093E+01 0. -1.
       -5    1    3    3    0  502  0.65469340632E+03 -0.26870331493E+02 -0.72333326798E+03  0.97600132047E+03  0.46999998093E+01 0.  1.
</event>
<event>
 5   0  0.1039688E-05  0.2459388E+04  0.7818609E-02  0.8417598E-01
        1   -1    0    0  501    0  0.00000000000E+00  0.00000000000E+00  0.12163743074E+04  0.12163743074E+04  0.50400001928E-02 0. -1.
       -1   -1    0    0    0  501  0.00000000000E+00  0.00000000000E+00 -0.12431594641E+04  0.12431594641E+04  0.50400001928E-02 0.  1.
    10030    2    1    2    0    0  0.00000000000E+00  0.00000000000E+00 -0.26785156725E+02  0.24595337716E+04  0.24593879175E+04 0.  0.
        3    1    3    3  502    0 -0.24465351845E+03  0.10316655328E+04  0.60950719169E+03  0.12229832961E+04  0.10100000352E+00 0. -1.
       -3    1    3    3    0  502  0.24465351845E+03 -0.10316655328E+04 -0.63629234841E+03  0.12365504755E+04  0.10100000352E+00 0.  1.
</event>
<event>
 5   0  0.2388326E-05  0.2501250E+04  0.7818609E-02  0.8402540E-01
       -2   -1    0    0    0  501  0.00000000000E+00  0.00000000000E+00  0.10434981417E+04  0.10434981417E+04  0.25500000920E-02 0.  1.
        2   -1    0    0  501    0  0.00000000000E+00  0.00000000000E+00 -0.14988650739E+04  0.14988650739E+04  0.25500000920E-02 0. -1.
    10030    2    1    2    0    0  0.00000000000E+00  0.00000000000E+00 -0.45536693223E+03  0.25423632157E+04  0.25012500230E+04 0.  0.
        2    1    3    3  502    0 -0.10130678961E+04  0.73313692389E+03 -0.24427998764E+03  0.12741542386E+04  0.25500000920E-02 0.  1.
       -2    1    3    3    0  502  0.10130678961E+04 -0.73313692389E+03 -0.21108694459E+03  0.12682089771E+04  0.25500000920E-02 0. -1.
</event>
<event>
 5   0  0.2388326E-05  0.2389000E+04  0.7818609E-02  0.8443633E-01
        2   -1    0    0  501    0  0.00000000000E+00  0.00000000000E+00  0.25765615839E+04  0.25765615839E+04  0.25500000920E-02 0. -1.
       -2   -1    0    0    0  501  0.00000000000E+00  0.00000000000E+00 -0.55377291345E+03  0.55377291346E+03  0.25500000920E-02 0.  1.
    10030    2    1    2    0    0  0.00000000000E+00  0.00000000000E+00  0.20227886704E+04  0.31303344973E+04  0.23889998033E+04 0.  0.
        2    1    3    3  502    0  0.63179023380E+03 -0.83247336130E+03  0.17694062452E+04  0.20549864373E+04  0.25500000920E-02 0. -1.
       -2    1    3    3    0  502 -0.63179023380E+03  0.83247336130E+03  0.25338242518E+03  0.10753480600E+04  0.25500000920E-02 0.  1.
</event>
<event>
 5   0  0.2432309E-05  0.2494138E+04  0.7818609E-02  0.8405077E-01
        2   -1    0    0  501    0  0.00000000000E+00  0.00000000000E+00  0.16831762773E+04  0.16831762773E+04  0.25500000920E-02 0. -1.
       -2   -1    0    0    0  501  0.00000000000E+00  0.00000000000E+00 -0.92395586543E+03  0.92395586543E+03  0.25500000920E-02 0.  1.
    10030    2    1    2    0    0  0.00000000000E+00  0.00000000000E+00  0.75922041183E+03  0.26071321427E+04  0.24941376016E+04 0.  0.
        4    1    3    3  502    0 -0.19941612030E+03 -0.33514416439E+03 -0.85857465241E+03  0.94299546479E+03  0.12699999809E+01 0.  1.
       -4    1    3    3    0  502  0.19941612030E+03  0.33514416439E+03  0.16177950642E+04  0.16641366779E+04  0.12699999809E+01 0. -1.
</event>
<event>
 5   0  0.1039688E-05  0.2458352E+04  0.7818609E-02  0.8417975E-01
        1   -1    0    0  501    0  0.00000000000E+00  0.00000000000E+00  0.18920598642E+04  0.18920598642E+04  0.50400001928E-02 0.  1.
       -1   -1    0    0    0  501  0.00000000000E+00  0.00000000000E+00 -0.79853380992E+03  0.79853380993E+03  0.50400001928E-02 0. -1.
    10030    2    1    2    0    0  0.00000000000E+00  0.00000000000E+00  0.10935260543E+04  0.26905936741E+04  0.24583521082E+04 0.  0.
        3    1    3    3  502    0 -0.65701745879E+03 -0.67442402272E+03 -0.31804457671E+03  0.99381691803E+03  0.10100000352E+00 0. -1.
       -3    1    3    3    0  502  0.65701745879E+03  0.67442402272E+03  0.14115706310E+04  0.16967767561E+04  0.10100000352E+00 0.  1.
</event>
<event>
 5   0  0.1015327E-05  0.2496168E+04  0.7818609E-02  0.8404352E-01
        1   -1    0    0  501    0  0.00000000000E+00  0.00000000000E+00  0.18780169931E+04  0.18780169931E+04  0.50400001928E-02 0.  1.
       -1   -1    0    0    0  501  0.00000000000E+00  0.00000000000E+00 -0.82944572942E+03  0.82944572943E+03  0.50400001928E-02 0. -1.
    10030    2    1    2    0    0  0.00000000000E+00  0.00000000000E+00  0.10485712637E+04  0.27074627225E+04  0.24961676023E+04 0.  0.
        4    1    3    3  502    0  0.12245901176E+04  0.24098897314E+03  0.52009594495E+03  0.13521087405E+04  0.12699999809E+01 0. -1.
       -4    1    3    3    0  502 -0.12245901176E+04 -0.24098897314E+03  0.52847531871E+03  0.13553539820E+04  0.12699999809E+01 0.  1.
</event>
<event>
 5   0  0.2345143E-05  0.2498447E+04  0.7818609E-02  0.8403539E-01
       -2   -1    0    0    0  501  0.00000000000E+00  0.00000000000E+00  0.14841262486E+04  0.14841262486E+04  0.25500000920E-02 0. -1.
        2   -1    0    0  501    0  0.00000000000E+00  0.00000000000E+00 -0.10515005305E+04  0.10515005305E+04  0.25500000920E-02 0.  1.
    10030    2    1    2    0    0  0.00000000000E+00  0.00000000000E+00  0.43262571807E+03  0.25356267792E+04  0.24984471480E+04 0.  0.
        5    1    3    3  502    0 -0.53331084725E+03  0.32290712187E+03  0.13149412060E+04  0.14552600917E+04  0.46999998093E+01 0. -1.
       -5    1    3    3    0  502  0.53331084725E+03 -0.32290712187E+03 -0.88231548794E+03  0.10803666875E+04  0.46999998093E+01 0.  1.
</event>
<event>
 5   0  0.1002753E-05  0.2478636E+04  0.7818609E-02  0.8410636E-01
       -1   -1    0    0    0  501  0.00000000000E+00  0.00000000000E+00  0.90588215655E+03  0.90588215656E+03  0.50400001928E-02 0.  1.
        1   -1    0    0  501    0  0.00000000000E+00  0.00000000000E+00 -0.16954849486E+04  0.16954849486E+04  0.50400001928E-02 0. -1.
    10030    2    1    2    0    0  0.00000000000E+00  0.00000000000E+00 -0.78960279206E+03  0.26013671052E+04  0.24786363684E+04 0.  0.
        5    1    3    3  502    0  0.19354279343E+03  0.11535207456E+04 -0.82474234065E+03  0.14311851529E+04  0.46999998093E+01 0. -1.
       -5    1    3    3    0  502 -0.19354279343E+03 -0.11535207456E+04  0.35139548588E+02  0.11701819523E+04  0.46999998093E+01 0.  1.
</event>
<event>
 5   0  0.1010338E-05  0.2431777E+04  0.7818609E-02  0.8427702E-01
       -1   -1    0    0    0  501  0.00000000000E+00  0.00000000000E+00  0.11194417070E+04  0.11194417070E+04  0.50400001928E-02 0. -1.
        1   -1    0    0  501    0  0.00000000000E+00  0.00000000000E+00 -0.13206448946E+04  0.13206448946E+04  0.50400001928E-02 0.  1.
    10030    2    1    2    0    0  0.00000000000E+00  0.00000000000E+00 -0.20120318765E+03  0.24400866016E+04  0.24317771075E+04 0.  0.
        2    1    3    3  502    0 -0.99205403504E+01  0.52337780414E+03  0.10005827762E+04  0.11292425049E+04  0.25500000920E-02 0. -1.
       -2    1    3    3    0  502  0.99205403504E+01 -0.52337780414E+03 -0.12017859638E+04  0.13108440967E+04  0.25500000920E-02 0.  1.
</event>
<event>
 5   0  0.2345143E-05  0.2489972E+04  0.7818609E-02  0.8406567E-01
       -2   -1    0    0    0  501  0.00000000000E+00  0.00000000000E+00  0.95774056850E+03  0.95774056850E+03  0.25500000920E-02 0.  1.
        2   -1    0    0  501    0  0.00000000000E+00  0.00000000000E+00 -0.16183819931E+04  0.16183819931E+04  0.25500000920E-02 0. -1.
    10030    2    1    2    0    0  0.00000000000E+00  0.00000000000E+00 -0.66064142455E+03  0.25761225616E+04  0.24899719597E+04 0.  0.
        5    1    3    3  502    0  0.73537826145E+02  0.14855416518E+03  0.94626374577E+03  0.96068377649E+03  0.46999998093E+01 0.  1.
       -5    1    3    3    0  502 -0.73537826145E+02 -0.14855416518E+03 -0.16069051703E+04  0.16154387851E+04  0.46999998093E+01 0. -1.
</event>
<event>
 5   0  0.1039688E-05  0.2429831E+04  0.7818609E-02  0.8428419E-01
       -1   -1    0    0    0  501  0.00000000000E+00  0.00000000000E+00  0.57903323110E+03  0.57903323112E+03  0.50400001928E-02 0.  1.
        1   -1    0    0  501    0  0.00000000000E+00  0.00000000000E+00 -0.25491097355E+04  0.25491097355E+04  0.50400001928E-02 0. -1.
    10030    2    1    2    0    0  0.00000000000E+00  0.00000000000E+00 -0.19700765044E+04  0.31281429667E+04  0.24298306498E+04 0.  0.
        3    1    3    3  502    0 -0.20602677608E+03 -0.11779674679E+04 -0.70902908667E+03  0.13902433758E+04  0.10100000352E+00 0.  1.
       -3    1    3    3    0  502  0.20602677608E+03  0.11779674679E+04 -0.12610474178E+04  0.17378995909E+04  0.10100000352E+00 0. -1.
</event>
<event>
 5   0  0.1039688E-05  0.2516925E+04  0.7818609E-02  0.8396981E-01
        1   -1    0    0  501    0  0.00000000000E+00  0.00000000000E+00  0.87203261516E+03  0.87203261517E+03  0.50400001928E-02 0. -1.
       -1   -1    0    0    0  501  0.00000000000E+00  0.00000000000E+00 -0.18161338299E+04  0.18161338299E+04  0.50400001928E-02 0.  1.
    10030    2    1    2    0    0  0.00000000000E+00  0.00000000000E+00 -0.94410121470E+03  0.26881664450E+04  0.25169250550E+04 0.  0.
        3    1    3    3  502    0 -0.44149416983E+03  0.32402161484E+03  0.73809625173E+03  0.91907192096E+03  0.10100000352E+00 0. -1.
       -3    1    3    3    0  502  0.44149416983E+03 -0.32402161484E+03 -0.16821974664E+04  0.17690945241E+04  0.10100000352E+00 0.  1.
</event>
<event>
 5   0  0.1039688E-05  0.2479998E+04  0.7818609E-02  0.8410146E-01
       -1   -1    0    0    0  501  0.00000000000E+00  0.00000000000E+00  0.62130462165E+03  0.62130462167E+03  0.50400001928E-02 0. -1.
        1   -1    0    0  501    0  0.00000000000E+00  0.00000000000E+00 -0.24747878781E+04  0.24747878781E+04  0.50400001928E-02 0.  1.
    10030    2    1    2    0    0  0.00000000000E+00  0.00000000000E+00 -0.18534832565E+04  0.30960924998E+04  0.24799976986E+04 0.  0.
        3    1    3    3  502    0  0.94160061336E+03  0.31821489383E+03 -0.11162018709E+01  0.99391835170E+03  0.10100000352E+00 0. -1.
       -3    1    3    3    0  502 -0.94160061336E+03 -0.31821489383E+03 -0.18523670546E+04  0.21021741481E+04  0.10100000352E+00 0.  1.
</event>
<event>
 5   0  0.1010338E-05  0.2495897E+04  0.7818609E-02  0.8404449E-01
       -1   -1    0    0    0  501  0.00000000000E+00  0.00000000000E+00  0.83676227710E+03  0.83676227712E+03  0.50400001928E-02 0.  1.
        1   -1    0    0  501    0  0.00000000000E+00  0.00000000000E+00 -0.18611929206E+04  0.18611929206E+04  0.50400001928E-02 0. -1.
    10030    2    1    2    0    0  0.00000000000E+00  0.00000000000E+00 -0.10244306435E+04  0.26979551977E+04  0.24958974549E+04 0.  0.
        2    1    3    3  502    0 -0.35102536874E+03 -0.81515295072E+01 -0.18066982149E+04  0.18405009363E+04  0.25500000920E-02 0. -1.
       -2    1    3    3    0  502  0.35102536874E+03  0.81515295072E+01  0.78226757145E+03  0.85745426134E+03  0.25500000920E-02 0.  1.
</event>
<event>
 5   0  0.1015327E-05  0.2322799E+04  0.7818609E-02  0.8468986E-01
        1   -1    0    0  501    0  0.00000000000E+00  0.00000000000E+00  0.15610607010E+04  0.15610607010E+04  0.50400001928E-02 0. -1.
       -1   -1    0    0    0  501  0.00000000000E+00  0.00000000000E+00 -0.86405895870E+03  0.86405895872E+03  0.50400001928E-02 0.  1.
    10030    2    1    2    0    0  0.00000000000E+00  0.00000000000E+00  0.69700174229E+03  0.24251196597E+04  0.23227987289E+04 0.  0.
        4    1    3    3  502    0 -0.30411648042E+03  0.70711436772E+03 -0.55949275439E+03  0.95159409299E+03  0.12699999809E+01 0.  1.
       -4    1    3    3    0  502  0.30411648042E+03 -0.70711436772E+03  0.12564944967E+04  0.14735255667E+04  0.12699999809E+01 0. -1.
</event>
<event>
 5   0  0.1015327E-05  0.2528582E+04  0.7818609E-02  0.8392873E-01
       -1   -1    0    0    0  501  0.00000000000E+00  0.00000000000E+00  0.12941463195E+04  0.12941463196E+04  0.50400001928E-02 0. -1.
        1   -1    0    0  501    0  0.00000000000E+00  0.00000000000E+00 -0.12351243955E+04  0.12351243955E+04  0.50400001928E-02 0.  1.
    10030    2    1    2    0    0  0.00000000000E+00  0.00000000000E+00  0.59021924089E+02  0.25292707150E+04  0.25285819667E+04 0.  0.
        4    1    3    3  502    0 -0.45418419344E+03  0.76720318455E+03 -0.86714051845E+03  0.12437115018E+04  0.12699999809E+01 0.  1.
       -4    1    3    3    0  502  0.45418419344E+03 -0.76720318455E+03  0.92616244254E+03  0.12855592133E+04  0.12699999809E+01 0. -1.
</event>
<event>
 5   0  0.2441340E-05  0.2499161E+04  0.7818609E-02  0.8403285E-01
        2   -1    0    0  501    0  0.00000000000E+00  0.00000000000E+00  0.17780928142E+04  0.17780928142E+04  0.25500000920E-02 0. -1.
       -2   -1    0    0    0  501  0.00000000000E+00  0.00000000000E+00 -0.87816045925E+03  0.87816045925E+03  0.25500000920E-02 0.  1.
    10030    2    1    2    0    0  0.00000000000E+00  0.00000000000E+00  0.89993235490E+03  0.26562532734E+04  0.24991605009E+04 0.  0.
        3    1    3    3  502    0 -0.53921667152E+03  0.60428150142E+03 -0.56144829447E+03  0.98546179498E+03  0.10100000352E+00 0.  1.
       -3    1    3    3    0  502  0.53921667152E+03 -0.60428150142E+03  0.14613806494E+04  0.16707914784E+04  0.10100000352E+00 0. -1.
</event>
<event>
 5   0  0.2432309E-05  0.2430160E+04  0.7818609E-02  0.8428298E-01
        2   -1    0    0  501    0  0.00000000000E+00  0.00000000000E+00  0.14172489057E+04  0.14172489057E+04  0.25500000920E-02 0. -1.
       -2   -1    0    0    0  501  0.00000000000E+00  0.00000000000E+00 -0.10417504999E+04  0.10417504999E+04  0.25500000920E-02 0.  1.
    10030    2    1    2    0    0  0.00000000000E+00  0.00000000000E+00  0.37549840581E+03  0.24589994055E+04  0.24301602876E+04 0.  0.
        4    1    3    3  502    0  0.12885473391E+03  0.42290254087E+03  0.13329790327E+04  0.14043805809E+04  0.12699999809E+01 0. -1.
       -4    1    3    3    0  502 -0.12885473391E+03 -0.42290254087E+03 -0.95748062687E+03  0.10546188246E+04  0.12699999809E+01 0.  1.
</event>
<event>
 5   0  0.2432309E-05  0.2511985E+04  0.7818609E-02  0.8398728E-01
        2   -1    0    0  501    0  0.00000000000E+00  0.00000000000E+00  0.11838915661E+04  0.11838915661E+04  0.25500000920E-02 0. -1.
       -2   -1    0    0    0  501  0.00000000000E+00  0.00000000000E+00 -0.13324848638E+04  0.13324848638E+04  0.25500000920E-02 0.  1.
    10030    2    1    2    0    0  0.00000000000E+00  0.00000000000E+00 -0.14859329777E+03  0.25163764299E+04  0.25119853441E+04 0.  0.
        4    1    3    3  502    0  0.28027229078E+03 -0.11932380296E+04 -0.34890432662E+03  0.12744039369E+04  0.12699999809E+01 0.  1.
       -4    1    3    3    0  502 -0.28027229078E+03  0.11932380296E+04  0.20031102886E+03  0.12419724930E+04  0.12699999809E+01 0. -1.
</event>
<event>
 5   0  0.1002753E-05  0.2483340E+04  0.7818609E-02  0.8408945E-01
       -1   -1    0    0    0  501  0.00000000000E+00  0.00000000000E+00  0.11975376314E+04  0.11975376315E+04  0.50400001928E-02 0.  1.
        1   -1    0    0  501    0  0.00000000000E+00  0.00000000000E+00 -0.12874289835E+04  0.12874289835E+04  0.50400001928E-02 0. -1.
    10030    2    1    2    0    0  0.00000000000E+00  0.00000000000E+00 -0.89891352006E+02  0.24849666149E+04  0.24833402147E+04 0.  0.
        5    1    3    3  502    0 -0.10289439261E+04 -0.56753371339E+03  0.35644350364E+03  0.12279634279E+04  0.46999998093E+01 0.  1.
       -5    1    3    3    0  502  0.10289439261E+04  0.56753371339E+03 -0.44633485565E+03  0.12570031871E+04  0.46999998093E+01 0. -1.
</event>
<event>
 5   0  0.1039688E-05  0.2482548E+04  0.7818609E-02  0.8409230E-01
        1   -1    0    0  501    0  0.00000000000E+00  0.00000000000E+00  0.15228910523E+04  0.15228910523E+04  0.50400001928E-02 0. -1.
       -1   -1    0    0    0  501  0.00000000000E+00  0.00000000000E+00 -0.10117340494E+04  0.10117340495E+04  0.50400001928E-02 0.  1.
    10030    2    1    2    0    0  0.00000000000E+00  0.00000000000E+00  0.51115700288E+03  0.25346251018E+04  0.24825476682E+04 0.  0.
        3    1    3    3  502    0 -0.10161209257E+04 -0.26830611454E+03  0.92994224919E+03  0.14033112640E+04  0.10100000352E+00 0. -1.
       -3    1    3    3    0  502  0.10161209257E+04  0.26830611454E+03 -0.41878524631E+03  0.11313138377E+04  0.10100000352E+00 0.  1.
</event>
<event>
 5   0  0.2432309E-05  0.2497348E+04  0.7818609E-02  0.8403931E-01
        2   -1    0    0  501    0  0.00000000000E+00  0.00000000000E+00  0.13284138784E+04  0.13284138784E+04  0.25500000920E-02 0. -1.
       -2   -1    0    0    0  501  0.00000000000E+00  0.00000000000E+00 -0.11737208305E+04  0.11737208305E+04  0.25500000920E-02 0.  1.
    10030    2    1    2    0    0  0.00000000000E+00  0.00000000000E+00  0.15469304792E+03  0.25021347089E+04  0.24973482261E+04 0.  0.
        4    1    3    3  502    0  0.88217865196E+03 -0.88276102019E+03  0.11840353331E+03  0.12536056806E+04  0.12699999809E+01 0. -1.
       -4    1    3    3    0  502 -0.88217865196E+03  0.88276102019E+03  0.36289514604E+02  0.12485290283E+04  0.12699999809E+01 0.  1.
</event>
<event>
 5   0  0.2345143E-05  0.2501989E+04  0.7818609E-02  0.8402277E-01
       -2   -1    0    0    0  501  0.00000000000E+00  0.00000000000E+00  0.11788723855E+04  0.11788723855E+04  0.25500000920E-02 0.  1.
        2   -1    0    0  501    0  0.00000000000E+00  0.00000000000E+00 -0.13275285004E+04  0.13275285004E+04  0.25500000920E-02 0. -1.
    10030    2    1    2    0    0  0.00000000000E+00  0.00000000000E+00 -0.14865611488E+03  0.25064008859E+04  0.25019885611E+04 0.  0.
        5    1    3    3  502    0 -0.81122298713E+03  0.25347552592E+03  0.84524067431E+03  0.11986602791E+04  0.46999998093E+01 0.  1.
       -5    1    3    3    0  502  0.81122298713E+03 -0.25347552592E+03 -0.99389678919E+03  0.13077406068E+04  0.46999998093E+01 0. -1.
</event>
<event>
 5   0  0.1002753E-05  0.2527248E+04  0.7818609E-02  0.8393342E-01
       -1   -1    0    0    0  501  0.00000000000E+00  0.00000000000E+00  0.60607519681E+03  0.60607519683E+03  0.50400001928E-02 0. -1.
        1   -1    0    0  501    0  0.00000000000E+00  0.00000000000E+00 -0.26345666408E+04  0.26345666408E+04  0.50400001928E-02 0.  1.
    10030    2    1    2    0    0  0.00000000000E+00  0.00000000000E+00 -0.20284914440E+04  0.32406418376E+04  0.25272479066E+04 0.  0.
        5    1    3    3  502    0 -0.13598584545E+03  0.92344030708E+03  0.77945498680E+02  0.93665988580E+03  0.46999998093E+01 0. -1.
       -5    1    3    3    0  502  0.13598584545E+03 -0.92344030708E+03 -0.21064369426E+04  0.23039819518E+04  0.46999998093E+01 0.  1.
</event>
<event>
 5   0  0.1039688E-05  0.2486245E+04  0.7818609E-02  0.8407902E-01
       -1   -1    0    0    0  501  0.00000000000E+00  0.00000000000E+00  0.11443000046E+04  0.11443000046E+04  0.50400001928E-02 0. -1.
        1   -1    0    0  501    0  0.00000000000E+00  0.00000000000E+00 -0.13504793292E+04  0.13504793292E+04  0.50400001928E-02 0.  1.
    10030    2    1    2    0    0  0.00000000000E+00  0.00000000000E+00 -0.20617932463E+03  0.24947793338E+04  0.24862449619E+04 0.  0.
        3    1    3    3  502    0 -0.73031135841E+03 -0.72690986760E+03 -0.80089092736E+03  0.13050589732E+04  0.10100000352E+00 0.  1.
       -3    1    3    3    0  502  0.73031135841E+03  0.72690986760E+03  0.59471160272E+03  0.11897203606E+04  0.10100000352E+00 0. -1.
</event>
<event>
 5   0  0.2388326E-05  0.2514695E+04  0.7818609E-02  0.8397769E-01
       -2   -1    0    0    0  501  0.00000000000E+00  0.00000000000E+00  0.10410482130E+04  0.10410482130E+04  0.25500000920E-02 0. -1.
        2   -1    0    0  501    0  0.00000000000E+00  0.00000000000E+00 -0.15185874318E+04  0.15185874318E+04  0.25500000920E-02 0.  1.
    10030    2    1    2    0    0  0.00000000000E+00  0.00000000000E+00 -0.47753921877E+03  0.25596356449E+04  0.25146949972E+04 0.  0.
        2    1    3    3  502    0 -0.17526954804E+03 -0.54012300815E+03  0.90309429197E+03  0.10667856292E+04  0.25500000920E-02 0. -1.
       -2    1    3    3    0  502  0.17526954804E+03  0.54012300815E+03 -0.13806335107E+04  0.14928500157E+04  0.25500000920E-02 0.  1.
</event>
<event>
 5   0  0.2345143E-05  0.2448907E+04  0.7818609E-02  0.8421417E-01
        2   -1    0    0  501    0  0.00000000000E+00  0.00000000000E+00  0.69912833393E+03  0.69912833394E+03  0.25500000920E-02 0.  1.
       -2   -1    0    0    0  501  0.00000000000E+00  0.00000000000E+00 -0.21445089131E+04  0.21445089131E+04  0.25500000920E-02 0. -1.
    10030    2    1    2    0    0  0.00000000000E+00  0.00000000000E+00 -0.14453805791E+04  0.28436372470E+04  0.24489074654E+04 0.  0.
        5    1    3    3  502    0  0.59078531784E+03  0.21095317987E+03  0.49834328561E+03  0.80118453317E+03  0.46999998093E+01 0.  1.
       -5    1    3    3    0  502 -0.59078531784E+03 -0.21095317987E+03 -0.19437238647E+04  0.20424527138E+04  0.46999998093E+01 0. -1.
</event>
<event>
 5   0  0.2452457E-05  0.2507895E+04  0.7818609E-02  0.8400178E-01
        2   -1    0    0  501    0  0.00000000000E+00  0.00000000000E+00  0.97531017235E+03  0.97531017235E+03  0.25500000920E-02 0.  1.
       -2   -1    0    0    0  501  0.00000000000E+00  0.00000000000E+00 -0.16121896296E+04  0.16121896296E+04  0.25500000920E-02 0. -1.
    10030    2    1    2    0    0  0.00000000000E+00  0.00000000000E+00 -0.63687945729E+03  0.25874998020E+04  0.25078954887E+04 0.  0.
        1    1    3    3  502    0  0.31444886661E+03  0.16618506066E+03  0.92217926302E+03  0.98838765536E+03  0.50400001928E-02 0.  1.
       -1    1    3    3    0  502 -0.31444886661E+03 -0.16618506066E+03 -0.15590587203E+04  0.15991121466E+04  0.50400001928E-02 0. -1.
</event>
<event>
 5   0  0.2432309E-05  0.2535724E+04  0.7818609E-02  0.8390368E-01
       -2   -1    0    0    0  501  0.00000000000E+00  0.00000000000E+00  0.80204576555E+03  0.80204576555E+03  0.25500000920E-02 0.  1.
        2   -1    0    0  501    0  0.00000000000E+00  0.00000000000E+00 -0.20042167991E+04  0.20042167991E+04  0.25500000920E-02 0. -1.
    10030    2    1    2    0    0  0.00000000000E+00  0.00000000000E+00 -0.12021710336E+04  0.28062625647E+04  0.25357236419E+04 0.  0.
        4    1    3    3  502    0  0.11152424619E+04  0.54756049736E+03 -0.88080424148E+03  0.15229596094E+04  0.12699999809E+01 0.  1.
       -4    1    3    3    0  502 -0.11152424619E+04 -0.54756049736E+03 -0.32136679212E+03  0.12833029553E+04  0.12699999809E+01 0. -1.
</event>
<event>
 5   0  0.2345143E-05  0.2510280E+04  0.7818609E-02  0.8399332E-01
       -2   -1    0    0    0  501  0.00000000000E+00  0.00000000000E+00  0.91792835974E+03  0.91792835975E+03  0.25500000920E-02 0.  1.
        2   -1    0    0  501    0  0.00000000000E+00  0.00000000000E+00 -0.17162302897E+04  0.17162302897E+04  0.25500000920E-02 0. -1.
    10030    2    1    2    0    0  0.00000000000E+00  0.00000000000E+00 -0.79830192992E+03  0.26341586494E+04  0.25102800280E+04 0.  0.
        5    1    3    3  502    0  0.31651354151E+03 -0.11013773878E+04 -0.93641473857E+03  0.14799012213E+04  0.46999998093E+01 0. -1.
       -5    1    3    3    0  502 -0.31651354151E+03  0.11013773878E+04  0.13811280866E+03  0.11542574281E+04  0.46999998093E+01 0.  1.
</event>
<event>
 5   0  0.2441340E-05  0.2484660E+04  0.7818609E-02  0.8408471E-01
       -2   -1    0    0    0  501  0.00000000000E+00  0.00000000000E+00  0.16391041562E+04  0.16391041562E+04  0.25500000920E-02 0.  1.
        2   -1    0    0  501    0  0.00000000000E+00  0.00000000000E+00 -0.94160202618E+03  0.94160202618E+03  0.25500000920E-02 0. -1.
    10030    2    1    2    0    0  0.00000000000E+00  0.00000000000E+00  0.69750213000E+03  0.25807061824E+04  0.24846599724E+04 0.  0.
        3    1    3    3  502    0  0.98074740981E+02 -0.11457962828E+04 -0.13943479017E+03  0.11584083250E+04  0.10100000352E+00 0. -1.
       -3    1    3    3    0  502 -0.98074740981E+02  0.11457962828E+04  0.83693692017E+03  0.14222978574E+04  0.10100000352E+00 0.  1.
</event>
<event>
 5   0  0.1015327E-05  0.2498811E+04  0.7818609E-02  0.8403409E-01
       -1   -1    0    0    0  501  0.00000000000E+00  0.00000000000E+00  0.13228403283E+04  0.13228403283E+04  0.50400001928E-02 0. -1.
        1   -1    0    0  501    0  0.00000000000E+00  0.00000000000E+00 -0.11800468023E+04  0.11800468023E+04  0.50400001928E-02 0.  1.
    10030    2    1    2    0    0  0.00000000000E+00  0.00000000000E+00  0.14279352603E+03  0.25028871306E+04  0.24988105165E+04 0.  0.
        4    1    3    3  502    0 -0.11748430283E+02  0.51353220525E+03 -0.10693899888E+04  0.11863599422E+04  0.12699999809E+01 0.  1.
       -4    1    3    3    0  502  0.11748430283E+02 -0.51353220525E+03  0.12121835148E+04  0.13165271884E+04  0.12699999809E+01 0. -1.
</event>
<event>
 5   0  0.2345143E-05  0.2434033E+04  0.7818609E-02  0.8426871E-01
        2   -1    0    0  501    0  0.00000000000E+00  0.00000000000E+00  0.14162570280E+04  0.14162570280E+04  0.25500000920E-02 0.  1.
       -2   -1    0    0    0  501  0.00000000000E+00  0.00000000000E+00 -0.10458055202E+04  0.10458055202E+04  0.25500000920E-02 0. -1.
    10030    2    1    2    0    0  0.00000000000E+00  0.00000000000E+00  0.37045150783E+03  0.24620625482E+04  0.24340332109E+04 0.  0.
        5    1    3    3  502    0 -0.60546127158E+03  0.95785455839E+03  0.63422774049E+03  0.12985898595E+04  0.46999998093E+01 0.  1.
       -5    1    3    3    0  502  0.60546127158E+03 -0.95785455839E+03 -0.26377623266E+03  0.11634726887E+04  0.46999998093E+01 0. -1.
</event>
<event>
 5   0  0.1002753E-05  0.2405703E+04  0.7818609E-02  0.8437372E-01
        1   -1    0    0  501    0  0.00000000000E+00  0.00000000000E+00  0.92041802924E+03  0.92041802925E+03  0.50400001928E-02 0.  1.
       -1   -1    0    0    0  501  0.00000000000E+00  0.00000000000E+00 -0.15719502236E+04  0.15719502236E+04  0.50400001928E-02 0. -1.
    10030    2    1    2    0    0  0.00000000000E+00  0.00000000000E+00 -0.65153219435E+03  0.24923682528E+04  0.24057026640E+04 0.  0.
        5    1    3    3  502    0  0.73106787184E+03  0.74981161002E+03 -0.93881947559E+03  0.14064429535E+04  0.46999998093E+01 0. -1.
       -5    1    3    3    0  502 -0.73106787184E+03 -0.74981161002E+03  0.28728728125E+03  0.10859252993E+04  0.46999998093E+01 0.  1.
</event>
<event>
 5   0  0.1002753E-05  0.2480012E+04  0.7818609E-02  0.8410141E-01
        1   -1    0    0  501    0  0.00000000000E+00  0.00000000000E+00  0.16937835615E+04  0.16937835615E+04  0.50400001928E-02 0. -1.
       -1   -1    0    0    0  501  0.00000000000E+00  0.00000000000E+00 -0.90779864209E+03  0.90779864211E+03  0.50400001928E-02 0.  1.
    10030    2    1    2    0    0  0.00000000000E+00  0.00000000000E+00  0.78598491943E+03  0.26015822036E+04  0.24800116267E+04 0.  0.
        5    1    3    3  502    0  0.11912260011E+04  0.20444444463E+03  0.10232600735E+03  0.12129755226E+04  0.46999998093E+01 0. -1.
       -5    1    3    3    0  502 -0.11912260011E+04 -0.20444444463E+03  0.68365891208E+03  0.13886066811E+04  0.46999998093E+01 0.  1.
</event>
<event>
 5   0  0.1002753E-05  0.2487940E+04  0.7818609E-02  0.8407295E-01
       -1   -1    0    0    0  501  0.00000000000E+00  0.00000000000E+00  0.20407521005E+04  0.20407521006E+04  0.50400001928E-02 0. -1.
        1   -1    0    0  501    0  0.00000000000E+00  0.00000000000E+00 -0.75827972577E+03  0.75827972579E+03  0.50400001928E-02 0.  1.
    10030    2    1    2    0    0  0.00000000000E+00  0.00000000000E+00  0.12824723748E+04  0.27990318263E+04  0.24879396642E+04 0.  0.
        5    1    3    3  502    0 -0.46805960113E+03  0.63876468297E+03 -0.43806298733E+03  0.90499800071E+03  0.46999998093E+01 0.  1.
       -5    1    3    3    0  502  0.46805960113E+03 -0.63876468297E+03  0.17205353621E+04  0.18940338256E+04  0.46999998093E+01 0. -1.
</event>
<event>
 5   0  0.1008073E-05  0.2535264E+04  0.7818609E-02  0.8390529E-01
       -1   -1    0    0    0  501  0.00000000000E+00  0.00000000000E+00  0.13820049946E+04  0.13820049946E+04  0.50400001928E-02 0. -1.
        1   -1    0    0  501    0  0.00000000000E+00  0.00000000000E+00 -0.11627243909E+04  0.11627243909E+04  0.50400001928E-02 0.  1.
    10030    2    1    2    0    0  0.00000000000E+00  0.00000000000E+00  0.21928060374E+03  0.25447293855E+04  0.25352640222E+04 0.  0.
        1    1    3    3  502    0  0.28058198517E+03 -0.11697324100E+04 -0.29171600059E+03  0.12377796195E+04  0.50400001928E-02 0.  1.
       -1    1    3    3    0  502 -0.28058198517E+03  0.11697324100E+04  0.51099660433E+03  0.13069497661E+04  0.50400001928E-02 0. -1.
</event>
<event>
 5   0  0.2441340E-05  0.2496371E+04  0.7818609E-02  0.8404279E-01
       -2   -1    0    0    0  501  0.00000000000E+00  0.00000000000E+00  0.11462363107E+04  0.11462363107E+04  0.25500000920E-02 0.  1.
        2   -1    0    0  501    0  0.00000000000E+00  0.00000000000E+00 -0.13592023668E+04  0.13592023668E+04  0.25500000920E-02 0. -1.
    10030    2    1    2    0    0  0.00000000000E+00  0.00000000000E+00 -0.21296605608E+03  0.25054386775E+04  0.24963710513E+04 0.  0.
        3    1    3    3  502    0 -0.15040931871E+03  0.87330682874E+03  0.77573165805E+03  0.11777297635E+04  0.10100000352E+00 0.  1.
       -3    1    3    3    0  502  0.15040931871E+03 -0.87330682874E+03 -0.98869771413E+03  0.13277089140E+04  0.10100000352E+00 0. -1.
</event>
<event>
 5   0  0.1010338E-05  0.2515758E+04  0.7818609E-02  0.8397393E-01
       -1   -1    0    0    0  501  0.00000000000E+00  0.00000000000E+00  0.10976054840E+04  0.10976054840E+04  0.50400001928E-02 0. -1.
        1   -1    0    0  501    0  0.00000000000E+00  0.00000000000E+00 -0.14415563669E+04  0.14415563669E+04  0.50400001928E-02 0.  1.
    10030    2    1    2    0    0  0.00000000000E+00  0.00000000000E+00 -0.34395088287E+03  0.25391618510E+04  0.25157584732E+04 0.  0.
        2    1    3    3  502    0 -0.10503749979E+04 -0.66787519812E+03  0.11137933997E+02  0.12447766748E+04  0.25500000920E-02 0. -1.
       -2    1    3    3    0  502  0.10503749979E+04  0.66787519812E+03 -0.35508881686E+03  0.12943851762E+04  0.25500000920E-02 0.  1.
</event>
<event>
 5   0  0.1015327E-05  0.2437742E+04  0.7818609E-02  0.8425507E-01
       -1   -1    0    0    0  501  0.00000000000E+00  0.00000000000E+00  0.52353727070E+03  0.52353727073E+03  0.50400001928E-02 0.  1.
        1   -1    0    0  501    0  0.00000000000E+00  0.00000000000E+00 -0.28377080525E+04  0.28377080525E+04  0.50400001928E-02 0. -1.
    10030    2    1    2    0    0  0.00000000000E+00  0.00000000000E+00 -0.23141707818E+04  0.33612453233E+04  0.24377415195E+04 0.  0.
        4    1    3    3  502    0 -0.50982985478E+03  0.20748789566E+03 -0.26565759102E+04  0.27130010850E+04  0.12699999809E+01 0. -1.
       -4    1    3    3    0  502  0.50982985478E+03 -0.20748789566E+03  0.34240512833E+03  0.64824423830E+03  0.12699999809E+01 0.  1.
</event>
<event>
 5   0  0.2388326E-05  0.2451320E+04  0.7818609E-02  0.8420536E-01
        2   -1    0    0  501    0  0.00000000000E+00  0.00000000000E+00  0.11280085983E+04  0.11280085983E+04  0.25500000920E-02 0.  1.
       -2   -1    0    0    0  501  0.00000000000E+00  0.00000000000E+00 -0.13317650171E+04  0.13317650171E+04  0.25500000920E-02 0. -1.
    10030    2    1    2    0    0  0.00000000000E+00  0.00000000000E+00 -0.20375641884E+03  0.24597736154E+04  0.24513199629E+04 0.  0.
        2    1    3    3  502    0 -0.78828575148E+03  0.88871826288E+03 -0.40462684326E+03  0.12549651226E+04  0.25500000920E-02 0. -1.
       -2    1    3    3    0  502  0.78828575148E+03 -0.88871826288E+03  0.20087042442E+03  0.12048084927E+04  0.25500000920E-02 0.  1.
</event>
<event>
 5   0  0.2388326E-05  0.2464521E+04  0.7818609E-02  0.8415735E-01
        2   -1    0    0  501    0  0.00000000000E+00  0.00000000000E+00  0.18054059159E+04  0.18054059159E+04  0.25500000920E-02 0.  1.
       -2   -1    0    0    0  501  0.00000000000E+00  0.00000000000E+00 -0.84106621091E+03  0.84106621091E+03  0.25500000920E-02 0. -1.
    10030    2    1    2    0    0  0.00000000000E+00  0.00000000000E+00  0.96433970501E+03  0.26464721268E+04  0.24645209781E+04 0.  0.
        2    1    3    3  502    0 -0.26582723378E+03 -0.60255687528E+02 -0.80828888339E+03  0.85300983882E+03  0.25500000920E-02 0. -1.
       -2    1    3    3    0  502  0.26582723378E+03  0.60255687528E+02  0.17726285884E+04  0.17934622880E+04  0.25500000920E-02 0.  1.
</event>
<event>
 5   0  0.1008073E-05  0.2512336E+04  0.7818609E-02  0.8398604E-01
        1   -1    0    0  501    0  0.00000000000E+00  0.00000000000E+00  0.17926587460E+04  0.17926587460E+04  0.50400001928E-02 0. -1.
       -1   -1    0    0    0  501  0.00000000000E+00  0.00000000000E+00 -0.88023315368E+03  0.88023315370E+03  0.50400001928E-02 0.  1.
    10030    2    1    2    0    0  0.00000000000E+00  0.00000000000E+00  0.91242559234E+03  0.26728918997E+04  0.25123356953E+04 0.  0.
        1    1    3    3  502    0 -0.55952844277E+03  0.98030190778E+03 -0.13028260649E+03  0.11362382964E+04  0.50400001928E-02 0.  1.
       -1    1    3    3    0  502  0.55952844277E+03 -0.98030190778E+03  0.10427081988E+04  0.15366536033E+04  0.50400001928E-02 0. -1.
</event>
<event>
 5   0  0.2345143E-05  0.2506340E+04  0.7818609E-02  0.8400730E-01
       -2   -1    0    0    0  501  0.00000000000E+00  0.00000000000E+00  0.55005824849E+03  0.55005824850E+03  0.25500000920E-02 0. -1.
        2   -1    0    0  501    0  0.00000000000E+00  0.00000000000E+00 -0.28550333317E+04  0.28550333317E+04  0.25500000920E-02 0.  1.
    10030    2    1    2    0    0  0.00000000000E+00  0.00000000000E+00 -0.23049750832E+04  0.34050915801E+04  0.25063396688E+04 0.  0.
        5    1    3    3  502    0  0.67060199219E+03  0.72098173335E+03 -0.99346191459E+02  0.98965319558E+03  0.46999998093E+01 0. -1.
       -5    1    3    3    0  502 -0.67060199219E+03 -0.72098173335E+03 -0.22056288917E+04  0.24154383846E+04  0.46999998093E+01 0.  1.
</event>
<event>
 5   0  0.1039688E-05  0.2508891E+04  0.7818609E-02  0.8399825E-01
        1   -1    0    0  501    0  0.00000000000E+00  0.00000000000E+00  0.12251312169E+04  0.12251312169E+04  0.50400001928E-02 0.  1.
       -1   -1    0    0    0  501  0.00000000000E+00  0.00000000000E+00 -0.12844611821E+04  0.12844611821E+04  0.50400001928E-02 0. -1.
    10030    2    1    2    0    0  0.00000000000E+00  0.00000000000E+00 -0.59329965235E+02  0.25095923990E+04  0.25088909829E+04 0.  0.
        3    1    3    3  502    0 -0.28127664340E+03 -0.42204423276E+03 -0.11773285894E+04  0.12819284310E+04  0.10100000352E+00 0. -1.
       -3    1    3    3    0  502  0.28127664340E+03  0.42204423276E+03  0.11179986241E+04  0.12276639680E+04  0.10100000352E+00 0.  1.
</event>
<event>
 5   0  0.2432309E-05  0.2488264E+04  0.7818609E-02  0.8407178E-01
        2   -1    0    0  501    0  0.00000000000E+00  0.00000000000E+00  0.16892140980E+04  0.16892140980E+04  0.25500000920E-02 0. -1.
       -2   -1    0    0    0  501  0.00000000000E+00  0.00000000000E+00 -0.91632259465E+03  0.91632259465E+03  0.25500000920E-02 0.  1.
    10030    2    1    2    0    0  0.00000000000E+00  0.00000000000E+00  0.77289150332E+03  0.26055366926E+04  0.24882644917E+04 0.  0.
        4    1    3    3  502    0 -0.22226927422E+02 -0.91970641035E+03  0.12634817799E+04  0.15629272979E+04  0.12699999809E+01 0. -1.
       -4    1    3    3    0  502  0.22226927422E+02  0.91970641035E+03 -0.49059027658E+03  0.10426093947E+04  0.12699999809E+01 0.  1.
</event>
<event>
 5   0  0.1010338E-05  0.2476365E+04  0.7818609E-02  0.8411454E-01
       -1   -1    0    0    0  501  0.00000000000E+00  0.00000000000E+00  0.95257120557E+03  0.95257120559E+03  0.50400001928E-02 0.  1.
        1   -1    0    0  501    0  0.00000000000E+00  0.00000000000E+00 -0.16094290692E+04  0.16094290693E+04  0.50400001928E-02 0. -1.
    10030    2    1    2    0    0  0.00000000000E+00  0.00000000000E+00 -0.65685786367E+03  0.25620002748E+04  0.24763649075E+04 0.  0.
        2    1    3    3  502    0  0.94878043079E+03  0.77086599865E+03 -0.12496311562E+03  0.12288345999E+04  0.25500000920E-02 0.  1.
       -2    1    3    3    0  502 -0.94878043079E+03 -0.77086599865E+03 -0.53189474806E+03  0.13331656749E+04  0.25500000920E-02 0. -1.
</event>
<event>
 5   0  0.1039688E-05  0.2492544E+04  0.7818609E-02  0.8405647E-01
       -1   -1    0    0    0  501  0.00000000000E+00  0.00000000000E+00  0.62695008661E+03  0.62695008663E+03  0.50400001928E-02 0. -1.
        1   -1    0    0  501    0  0.00000000000E+00  0.00000000000E+00 -0.24773799687E+04  0.24773799687E+04  0.50400001928E-02 0.  1.
    10030    2    1    2    0    0  0.00000000000E+00  0.00000000000E+00 -0.18504298821E+04  0.31043300554E+04  0.24925437497E+04 0.  0.
        3    1    3    3  502    0  0.20671044116E+03 -0.73129172325E+03 -0.21554216342E+04  0.22854669594E+04  0.10100000352E+00 0.  1.
       -3    1    3    3    0  502 -0.20671044116E+03  0.73129172325E+03  0.30499175207E+03  0.81886309601E+03  0.10100000352E+00 0. -1.
</event>
<event>
 5   0  0.1008073E-05  0.2497382E+04  0.7818609E-02  0.8403919E-01
        1   -1    0    0  501    0  0.00000000000E+00  0.00000000000E+00  0.11446548051E+04  0.11446548052E+04  0.50400001928E-02 0. -1.
       -1   -1    0    0    0  501  0.00000000000E+00  0.00000000000E+00 -0.13621828023E+04  0.13621828023E+04  0.50400001928E-02 0.  1.
    10030    2    1    2    0    0  0.00000000000E+00  0.00000000000E+00 -0.21752799717E+03  0.25068376075E+04  0.24973819013E+04 0.  0.
        1    1    3    3  502    0  0.91489677443E+03  0.13066864203E+03  0.73412882053E+03  0.11802777330E+04  0.50400001928E-02 0. -1.
       -1    1    3    3    0  502 -0.91489677443E+03 -0.13066864203E+03 -0.95165681770E+03  0.13265598745E+04  0.50400001928E-02 0.  1.
</event>
<event>
 5   0  0.1039688E-05  0.2492402E+04  0.7818609E-02  0.8405697E-01
        1   -1    0    0  501    0  0.00000000000E+00  0.00000000000E+00  0.19425132356E+04  0.19425132356E+04  0.50400001928E-02 0. -1.
       -1   -1    0    0    0  501  0.00000000000E+00  0.00000000000E+00 -0.79948837288E+03  0.79948837289E+03  0.50400001928E-02 0.  1.
    10030    2    1    2    0    0  0.00000000000E+00  0.00000000000E+00  0.11430248628E+04  0.27420016085E+04  0.24924018505E+04 0.  0.
        3    1    3    3  502    0 -0.56296359535E+03 -0.79126745799E+03 -0.28771681842E+03  0.10128243567E+04  0.10100000352E+00 0.  1.
       -3    1    3    3    0  502  0.56296359535E+03  0.79126745799E+03  0.14307416812E+04  0.17291772518E+04  0.10100000352E+00 0. -1.
</event>
<event>
 5   0  0.2432309E-05  0.2477399E+04  0.7818609E-02  0.8411082E-01
        2   -1    0    0  501    0  0.00000000000E+00  0.00000000000E+00  0.21173404920E+04  0.21173404920E+04  0.25500000920E-02 0. -1.
       -2   -1    0    0    0  501  0.00000000000E+00  0.00000000000E+00 -0.72467141313E+03  0.72467141313E+03  0.25500000920E-02 0.  1.
    10030    2    1    2    0    0  0.00000000000E+00  0.00000000000E+00  0.13926690789E+04  0.28420119052E+04  0.24773987377E+04 0.  0.
        4    1    3    3  502    0  0.31350859400E+03  0.11845026133E+04  0.48781207289E+03  0.13188238361E+04  0.12699999809E+01 0.  1.
       -4    1    3    3    0  502 -0.31350859400E+03 -0.11845026133E+04  0.90485700602E+03  0.15231880690E+04  0.12699999809E+01 0. -1.
</event>
<event>
 5   0  0.2452457E-05  0.2487426E+04  0.7818609E-02  0.8407479E-01
       -2   -1    0    0    0  501  0.00000000000E+00  0.00000000000E+00  0.98038659188E+03  0.98038659188E+03  0.25500000920E-02 0.  1.
        2   -1    0    0  501    0  0.00000000000E+00  0.00000000000E+00 -0.15777677167E+04  0.15777677167E+04  0.25500000920E-02 0. -1.
    10030    2    1    2    0    0  0.00000000000E+00  0.00000000000E+00 -0.59738112485E+03  0.25581543086E+04  0.24874262317E+04 0.  0.
        1    1    3    3  502    0  0.73409579976E+03 -0.95870967946E+03  0.77783925873E+01  0.12075104124E+04  0.50400001928E-02 0.  1.
       -1    1    3    3    0  502 -0.73409579976E+03  0.95870967946E+03 -0.60515951744E+03  0.13506438962E+04  0.50400001928E-02 0. -1.
</event>
<event>
 5   0  0.1010338E-05  0.2424650E+04  0.7818609E-02  0.8430332E-01
        1   -1    0    0  501    0  0.00000000000E+00  0.00000000000E+00  0.12873712291E+04  0.12873712291E+04  0.50400001928E-02 0.  1.
       -1   -1    0    0    0  501  0.00000000000E+00  0.00000000000E+00 -0.11416531251E+04  0.11416531251E+04  0.50400001928E-02 0. -1.
    10030    2    1    2    0    0  0.00000000000E+00  0.00000000000E+00  0.14571810397E+03  0.24290243542E+04  0.24246495721E+04 0.  0.
        2    1    3    3  502    0 -0.60117782518E+03 -0.56478871675E+03  0.96290469871E+03  0.12679063573E+04  0.25500000920E-02 0.  1.
       -2    1    3    3    0  502  0.60117782518E+03  0.56478871675E+03 -0.81718659474E+03  0.11611179969E+04  0.25500000920E-02 0. -1.
</event>
<event>
 5   0  0.1010338E-05  0.2526816E+04  0.7818609E-02  0.8393494E-01
       -1   -1    0    0    0  501  0.00000000000E+00  0.00000000000E+00  0.17549334176E+04  0.17549334176E+04  0.50400001928E-02 0.  1.
        1   -1    0    0  501    0  0.00000000000E+00  0.00000000000E+00 -0.90955009458E+03  0.90955009460E+03  0.50400001928E-02 0. -1.
    10030    2    1    2    0    0  0.00000000000E+00  0.00000000000E+00  0.84538332303E+03  0.26644835122E+04  0.25268160645E+04 0.  0.
        2    1    3    3  502    0 -0.29606539846E+03  0.93246862406E+03  0.12656496764E+04  0.15996942078E+04  0.25500000920E-02 0.  1.
       -2    1    3    3    0  502  0.29606539846E+03 -0.93246862406E+03 -0.42026635339E+03  0.10647893044E+04  0.25500000920E-02 0. -1.
</event>
<event>
 5   0  0.8166500E-06  0.2511094E+04  0.7818609E-02  0.8399044E-01
        3   -1    0    0  501    0  0.00000000000E+00  0.00000000000E+00  0.20169113919E+04  0.20169113944E+04  0.10100000352E+00 0.  1.
       -3   -1    0    0    0  501  0.00000000000E+00  0.00000000000E+00 -0.78159034828E+03  0.78159035480E+03  0.10100000352E+00 0. -1.
    10030    2    1    2    0    0  0.00000000000E+00  0.00000000000E+00  0.12353210436E+04  0.27985017492E+04  0.25110941758E+04 0.  0.
        3    1    3    3  502    0  0.10744383470E+04  0.14298519843E+03  0.13238557842E+04  0.17109812027E+04  0.10100000352E+00 0.  1.
       -3    1    3    3    0  502 -0.10744383470E+04 -0.14298519843E+03 -0.88534740611E+02  0.10875205465E+04  0.10100000352E+00 0. -1.
</event>
<event>
 5   0  0.2432309E-05  0.2527178E+04  0.7818609E-02  0.8393367E-01
       -2   -1    0    0    0  501  0.00000000000E+00  0.00000000000E+00  0.73683036141E+03  0.73683036141E+03  0.25500000920E-02 0. -1.
        2   -1    0    0  501    0  0.00000000000E+00  0.00000000000E+00 -0.21669265866E+04  0.21669265866E+04  0.25500000920E-02 0.  1.
    10030    2    1    2    0    0  0.00000000000E+00  0.00000000000E+00 -0.14300962252E+04  0.29037569480E+04  0.25271781100E+04 0.  0.
        4    1    3    3  502    0 -0.23642087388E+03  0.58348305431E+02 -0.21397095906E+04  0.21535222542E+04  0.12699999809E+01 0.  1.
       -4    1    3    3    0  502  0.23642087388E+03 -0.58348305431E+02  0.70961336547E+03  0.75023469375E+03  0.12699999809E+01 0. -1.
</event>
<event>
 5   0  0.1039688E-05  0.2501673E+04  0.7818609E-02  0.8402390E-01
       -1   -1    0    0    0  501  0.00000000000E+00  0.00000000000E+00  0.10125337399E+04  0.10125337399E+04  0.50400001928E-02 0. -1.
        1   -1    0    0  501    0  0.00000000000E+00  0.00000000000E+00 -0.15452248209E+04  0.15452248209E+04  0.50400001928E-02 0.  1.
    10030    2    1    2    0    0  0.00000000000E+00  0.00000000000E+00 -0.53269108096E+03  0.25577585608E+04  0.25016732536E+04 0.  0.
        3    1    3    3  502    0 -0.18705875916E+03 -0.10403297764E+04 -0.95015610462E+03  0.14212929523E+04  0.10100000352E+00 0.  1.
       -3    1    3    3    0  502  0.18705875916E+03  0.10403297764E+04  0.41746502366E+03  0.11364656084E+04  0.10100000352E+00 0. -1.
</event>
<event>
 5   0  0.2432309E-05  0.2482656E+04  0.7818609E-02  0.8409191E-01
       -2   -1    0    0    0  501  0.00000000000E+00  0.00000000000E+00  0.70406179250E+03  0.70406179250E+03  0.25500000920E-02 0.  1.
        2   -1    0    0  501    0  0.00000000000E+00  0.00000000000E+00 -0.21885792878E+04  0.21885792878E+04  0.25500000920E-02 0. -1.
    10030    2    1    2    0    0  0.00000000000E+00  0.00000000000E+00 -0.14845174953E+04  0.28926410803E+04  0.24826558815E+04 0.  0.
        4    1    3    3  502    0  0.46283474166E+03 -0.25497597511E+03 -0.20509885694E+04  0.21179670608E+04  0.12699999809E+01 0. -1.
       -4    1    3    3    0  502 -0.46283474166E+03  0.25497597511E+03  0.56647107403E+03  0.77467401956E+03  0.12699999809E+01 0.  1.
</event>
<event>
 5   0  0.1039688E-05  0.2548956E+04  0.7818609E-02  0.8385750E-01
        1   -1    0    0  501    0  0.00000000000E+00  0.00000000000E+00  0.19437712458E+04  0.19437712458E+04  0.50400001928E-02 0.  1.
       -1   -1    0    0    0  501  0.00000000000E+00  0.00000000000E+00 -0.83564029414E+03  0.83564029416E+03  0.50400001928E-02 0. -1.
    10030    2    1    2    0    0  0.00000000000E+00  0.00000000000E+00  0.11081309516E+04  0.27794115399E+04  0.25489555317E+04 0.  0.
        3    1    3    3  502    0 -0.12594241981E+04 -0.25325512079E+02  0.76523092833E+03  0.14738958838E+04  0.10100000352E+00 0. -1.
       -3    1    3    3    0  502  0.12594241981E+04  0.25325512079E+02  0.34290002329E+03  0.13055156562E+04  0.10100000352E+00 0.  1.
</event>
<event>
 5   0  0.1039688E-05  0.2532301E+04  0.7818609E-02  0.8391568E-01
       -1   -1    0    0    0  501  0.00000000000E+00  0.00000000000E+00  0.10142415773E+04  0.10142415773E+04  0.50400001928E-02 0.  1.
        1   -1    0    0  501    0  0.00000000000E+00  0.00000000000E+00 -0.15806264549E+04  0.15806264549E+04  0.50400001928E-02 0. -1.
    10030    2    1    2    0    0  0.00000000000E+00  0.00000000000E+00 -0.56638487754E+03  0.25948680322E+04  0.25323009843E+04 0.  0.
        3    1    3    3  502    0  0.67307285204E+03 -0.81358237294E+03  0.43277957175E+03  0.11411579687E+04  0.10100000352E+00 0.  1.
       -3    1    3    3    0  502 -0.67307285204E+03  0.81358237294E+03 -0.99916444929E+03  0.14537100635E+04  0.10100000352E+00 0. -1.
</event>
<event>
 5   0  0.2432309E-05  0.2464614E+04  0.7818609E-02  0.8415702E-01
       -2   -1    0    0    0  501  0.00000000000E+00  0.00000000000E+00  0.15574704418E+04  0.15574704418E+04  0.25500000920E-02 0. -1.
        2   -1    0    0  501    0  0.00000000000E+00  0.00000000000E+00 -0.97502998961E+03  0.97502998961E+03  0.25500000920E-02 0.  1.
    10030    2    1    2    0    0  0.00000000000E+00  0.00000000000E+00  0.58244045221E+03  0.25325004314E+04  0.24646138754E+04 0.  0.
        4    1    3    3  502    0  0.20376009195E+03 -0.70849623629E+03  0.13058878674E+04  0.14996098916E+04  0.12699999809E+01 0. -1.
       -4    1    3    3    0  502 -0.20376009195E+03  0.70849623629E+03 -0.72344741516E+03  0.10328905398E+04  0.12699999809E+01 0.  1.
</event>
<event>
 5   0  0.2452457E-05  0.2481178E+04  0.7818609E-02  0.8409722E-01
        2   -1    0    0  501    0  0.00000000000E+00  0.00000000000E+00  0.24844501035E+04  0.24844501035E+04  0.25500000920E-02 0. -1.
       -2   -1    0    0    0  501  0.00000000000E+00  0.00000000000E+00 -0.61947779702E+03  0.61947779702E+03  0.25500000920E-02 0.  1.
    10030    2    1    2    0    0  0.00000000000E+00  0.00000000000E+00  0.18649723065E+04  0.31039279005E+04  0.24811784917E+04 0.  0.
        1    1    3    3  502    0  0.10318174268E+04 -0.61115191351E+02  0.17907409042E+04  0.20676400206E+04  0.50400001928E-02 0. -1.
       -1    1    3    3    0  502 -0.10318174268E+04  0.61115191351E+02  0.74231402303E+02  0.10362878799E+04  0.50400001928E-02 0.  1.
</event>
<event>
 5   0  0.2388326E-05  0.2511161E+04  0.7818609E-02  0.8399020E-01
       -2   -1    0    0    0  501  0.00000000000E+00  0.00000000000E+00  0.95346104328E+03  0.95346104328E+03  0.25500000920E-02 0.  1.
        2   -1    0    0  501    0  0.00000000000E+00  0.00000000000E+00 -0.16534311681E+04  0.16534311681E+04  0.25500000920E-02 0. -1.
    10030    2    1    2    0    0  0.00000000000E+00  0.00000000000E+00 -0.69997012486E+03  0.26068922114E+04  0.25111608523E+04 0.  0.
        2    1    3    3  502    0  0.61658871388E+03  0.65370517683E+02  0.78343693144E+03  0.99911379343E+03  0.25500000920E-02 0.  1.
       -2    1    3    3    0  502 -0.61658871388E+03 -0.65370517683E+02 -0.14834070563E+04  0.16077784180E+04  0.25500000920E-02 0. -1.
</event>
<event>
 5   0  0.2432309E-05  0.2528478E+04  0.7818609E-02  0.8392910E-01
       -2   -1    0    0    0  501  0.00000000000E+00  0.00000000000E+00  0.82783299504E+03  0.82783299504E+03  0.25500000920E-02 0.  1.
        2   -1    0    0  501    0  0.00000000000E+00  0.00000000000E+00 -0.19307031845E+04  0.19307031845E+04  0.25500000920E-02 0. -1.
    10030    2    1    2    0    0  0.00000000000E+00  0.00000000000E+00 -0.11028701895E+04  0.27585361796E+04  0.25284776446E+04 0.  0.
        4    1    3    3  502    0  0.18764897591E+03  0.10722634266E+04  0.14997467190E+03  0.10988425772E+04  0.12699999809E+01 0.  1.
       -4    1    3    3    0  502 -0.18764897591E+03 -0.10722634266E+04 -0.12528448614E+04  0.16596936024E+04  0.12699999809E+01 0. -1.
</event>
<event>
 5   0  0.1008073E-05  0.2429601E+04  0.7818609E-02  0.8428504E-01
       -1   -1    0    0    0  501  0.00000000000E+00  0.00000000000E+00  0.70310956153E+03  0.70310956155E+03  0.50400001928E-02 0.  1.
        1   -1    0    0  501    0  0.00000000000E+00  0.00000000000E+00 -0.20988773397E+04  0.20988773397E+04  0.50400001928E-02 0. -1.
    10030    2    1    2    0    0  0.00000000000E+00  0.00000000000E+00 -0.13957677782E+04  0.28019869012E+04  0.24296013879E+04 0.  0.
        1    1    3    3  502    0 -0.44197128149E+03  0.14226369056E+01 -0.20028640864E+04  0.20510497766E+04  0.50400001928E-02 0. -1.
       -1    1    3    3    0  502  0.44197128149E+03 -0.14226369056E+01  0.60709630827E+03  0.75093712459E+03  0.50400001928E-02 0.  1.
</event>
<event>
 5   0  0.1039688E-05  0.2443814E+04  0.7818609E-02  0.8423280E-01
       -1   -1    0    0    0  501  0.00000000000E+00  0.00000000000E+00  0.74406252246E+03  0.74406252248E+03  0.50400001928E-02 0. -1.
        1   -1    0    0  501    0  0.00000000000E+00  0.00000000000E+00 -0.20066275437E+04  0.20066275437E+04  0.50400001928E-02 0.  1.
    10030    2    1    2    0    0  0.00000000000E+00  0.00000000000E+00 -0.12625650213E+04  0.27506900662E+04  0.24438137015E+04 0.  0.
        3    1    3    3  502    0 -0.77973478124E+03 -0.27494382379E+03  0.38140517049E+03  0.91052202038E+03  0.10100000352E+00 0. -1.
       -3    1    3    3    0  502  0.77973478124E+03  0.27494382379E+03 -0.16439701917E+04  0.18401680458E+04  0.10100000352E+00 0.  1.
</event>
<event>
 5   0  0.2388326E-05  0.2520062E+04  0.7818609E-02  0.8395873E-01
        2   -1    0    0  501    0  0.00000000000E+00  0.00000000000E+00  0.12800285282E+04  0.12800285282E+04  0.25500000920E-02 0. -1.
       -2   -1    0    0    0  501  0.00000000000E+00  0.00000000000E+00 -0.12403454511E+04  0.12403454511E+04  0.25500000920E-02 0.  1.
    10030    2    1    2    0    0  0.00000000000E+00  0.00000000000E+00  0.39683077087E+02  0.25203739793E+04  0.25200615565E+04 0.  0.
        2    1    3    3  502    0  0.95640317354E+03  0.30870791746E+03 -0.74029870824E+03  0.12482186451E+04  0.25500000920E-02 0.  1.
       -2    1    3    3    0  502 -0.95640317354E+03 -0.30870791746E+03  0.77998178533E+03  0.12721553341E+04  0.25500000920E-02 0. -1.
</event>
<event>
 5   0  0.1010338E-05  0.2407046E+04  0.7818609E-02  0.8436871E-01
       -1   -1    0    0    0  501  0.00000000000E+00  0.00000000000E+00  0.48487195326E+03  0.48487195329E+03  0.50400001928E-02 0.  1.
        1   -1    0    0  501    0  0.00000000000E+00  0.00000000000E+00 -0.29873187302E+04  0.29873187302E+04  0.50400001928E-02 0. -1.
    10030    2    1    2    0    0  0.00000000000E+00  0.00000000000E+00 -0.25024467769E+04  0.34721906835E+04  0.24070455482E+04 0.  0.
        2    1    3    3  502    0  0.93029256495E+03 -0.60224767251E+03 -0.57413281921E+03  0.12481085728E+04  0.25500000920E-02 0. -1.
       -2    1    3    3    0  502 -0.93029256495E+03  0.60224767251E+03 -0.19283139577E+04  0.22240821106E+04  0.25500000920E-02 0.  1.
</event>
<event>
 5   0  0.1015327E-05  0.2509071E+04  0.7818609E-02  0.8399761E-01
       -1   -1    0    0    0  501  0.00000000000E+00  0.00000000000E+00  0.13597678862E+04  0.13597678862E+04  0.50400001928E-02 0. -1.
        1   -1    0    0  501    0  0.00000000000E+00  0.00000000000E+00 -0.11574475023E+04  0.11574475023E+04  0.50400001928E-02 0.  1.
    10030    2    1    2    0    0  0.00000000000E+00  0.00000000000E+00  0.20232038392E+03  0.25172153886E+04  0.25090714965E+04 0.  0.
        4    1    3    3  502    0  0.11435936478E+04  0.37483881821E+03 -0.25431706913E+03  0.12300363228E+04  0.12699999809E+01 0.  1.
       -4    1    3    3    0  502 -0.11435936478E+04 -0.37483881821E+03  0.45663745305E+03  0.12871790658E+04  0.12699999809E+01 0. -1.
</event>
<event>
 5   0  0.1015327E-05  0.2511137E+04  0.7818609E-02  0.8399028E-01
       -1   -1    0    0    0  501  0.00000000000E+00  0.00000000000E+00  0.82559562589E+03  0.82559562591E+03  0.50400001928E-02 0. -1.
        1   -1    0    0  501    0  0.00000000000E+00  0.00000000000E+00 -0.19094733946E+04  0.19094733946E+04  0.50400001928E-02 0.  1.
    10030    2    1    2    0    0  0.00000000000E+00  0.00000000000E+00 -0.10838777687E+04  0.27350690205E+04  0.25111374971E+04 0.  0.
        4    1    3    3  502    0 -0.59744885708E+02  0.48417324579E+03 -0.18020248807E+04  0.18668927304E+04  0.12699999809E+01 0.  1.
       -4    1    3    3    0  502  0.59744885708E+02 -0.48417324579E+03  0.71814711200E+03  0.86817629009E+03  0.12699999809E+01 0. -1.
</event>
<event>
 5   0  0.2388326E-05  0.2519617E+04  0.7818609E-02  0.8396030E-01
       -2   -1    0    0    0  501  0.00000000000E+00  0.00000000000E+00  0.13784410305E+04  0.13784410305E+04  0.25500000920E-02 0. -1.
        2   -1    0    0  501    0  0.00000000000E+00  0.00000000000E+00 -0.11513859337E+04  0.11513859337E+04  0.25500000920E-02 0.  1.
    10030    2    1    2    0    0  0.00000000000E+00  0.00000000000E+00  0.22705509676E+03  0.25298269642E+04  0.25196171240E+04 0.  0.
        2    1    3    3  502    0  0.79316831878E+03  0.97659137242E+03  0.47910437994E+02  0.12590242653E+04  0.25500000920E-02 0.  1.
       -2    1    3    3    0  502 -0.79316831878E+03 -0.97659137242E+03  0.17914465876E+03  0.12708026988E+04  0.25500000920E-02 0. -1.
</event>
<event>
 5   0  0.1008073E-05  0.2512318E+04  0.7818609E-02  0.8398610E-01
        1   -1    0    0  501    0  0.00000000000E+00  0.00000000000E+00  0.13626727213E+04  0.13626727213E+04  0.50400001928E-02 0.  1.
       -1   -1    0    0    0  501  0.00000000000E+00  0.00000000000E+00 -0.11579712729E+04  0.11579712730E+04  0.50400001928E-02 0. -1.
    10030    2    1    2    0    0  0.00000000000E+00  0.00000000000E+00  0.20470144832E+03  0.25206439942E+04  0.25123183442E+04 0.  0.
        1    1    3    3  502    0 -0.10889341109E+03 -0.40369204699E+03 -0.10861045154E+04  0.11638075709E+04  0.50400001928E-02 0. -1.
       -1    1    3    3    0  502  0.10889341109E+03  0.40369204699E+03  0.12908059637E+04  0.13568364233E+04  0.50400001928E-02 0.  1.
</event>
<event>
 5   0  0.2388326E-05  0.2522531E+04  0.7818609E-02  0.8395002E-01
       -2   -1    0    0    0  501  0.00000000000E+00  0.00000000000E+00  0.10925249086E+04  0.10925249086E+04  0.25500000920E-02 0.  1.
        2   -1    0    0  501    0  0.00000000000E+00  0.00000000000E+00 -0.14560683968E+04  0.14560683968E+04  0.25500000920E-02 0. -1.
    10030    2    1    2    0    0  0.00000000000E+00  0.00000000000E+00 -0.36354348817E+03  0.25485933054E+04  0.25225312622E+04 0.  0.
        2    1    3    3  502    0  0.58976428403E+03 -0.40263458269E+03 -0.12321545236E+04  0.14241282554E+04  0.25500000920E-02 0. -1.
       -2    1    3    3    0  502 -0.58976428403E+03  0.40263458269E+03  0.86861103540E+03  0.11244650500E+04  0.25500000920E-02 0.  1.
</event>
<event>
 5   0  0.2388326E-05  0.2494199E+04  0.7818609E-02  0.8405055E-01
       -2   -1    0    0    0  501  0.00000000000E+00  0.00000000000E+00  0.14455353609E+04  0.14455353609E+04  0.25500000920E-02 0. -1.
        2   -1    0    0  501    0  0.00000000000E+00  0.00000000000E+00 -0.10759037472E+04  0.10759037472E+04  0.25500000920E-02 0.  1.
    10030    2    1    2    0    0  0.00000000000E+00  0.00000000000E+00  0.36963161378E+03  0.25214391081E+04  0.24941987984E+04 0.  0.
        2    1    3    3  502    0 -0.88750000261E+02  0.19414529110E+03 -0.10572969264E+04  0.10786314233E+04  0.25500000920E-02 0.  1.
       -2    1    3    3    0  502  0.88750000261E+02 -0.19414529110E+03  0.14269285402E+04  0.14428076848E+04  0.25500000920E-02 0. -1.
</event>
<event>
 5   0  0.2388326E-05  0.2526134E+04  0.7818609E-02  0.8393734E-01
        2   -1    0    0  501    0  0.00000000000E+00  0.00000000000E+00  0.15770101037E+04  0.15770101037E+04  0.25500000920E-02 0. -1.
       -2   -1    0    0    0  501  0.00000000000E+00  0.00000000000E+00 -0.10116223248E+04  0.10116223248E+04  0.25500000920E-02 0.  1.
    10030    2    1    2    0    0  0.00000000000E+00  0.00000000000E+00  0.56538777889E+03  0.25886324286E+04  0.25261343016E+04 0.  0.
        2    1    3    3  502    0  0.99125804473E+03  0.51972614345E+03 -0.31713473162E+03  0.11633065862E+04  0.25500000920E-02 0.  1.
       -2    1    3    3    0  502 -0.99125804473E+03 -0.51972614345E+03  0.88252251051E+03  0.14253258424E+04  0.25500000920E-02 0. -1.
</event>
<event>
 5   0  0.2452457E-05  0.2548786E+04  0.7818609E-02  0.8385809E-01
        2   -1    0    0  501    0  0.00000000000E+00  0.00000000000E+00  0.13534255761E+04  0.13534255761E+04  0.25500000920E-02 0. -1.
       -2   -1    0    0    0  501  0.00000000000E+00  0.00000000000E+00 -0.11999752072E+04  0.11999752072E+04  0.25500000920E-02 0.  1.
    10030    2    1    2    0    0  0.00000000000E+00  0.00000000000E+00  0.15345036891E+03  0.25534007833E+04  0.25487857000E+04 0.  0.
        1    1    3    3  502    0 -0.37199058570E+03  0.25578608356E+03  0.12706354205E+04  0.13484501801E+04  0.50400001928E-02 0. -1.
       -1    1    3    3    0  502  0.37199058570E+03 -0.25578608356E+03 -0.11171850516E+04  0.12049506031E+04  0.50400001928E-02 0.  1.
</event>
<event>
 5   0  0.1010338E-05  0.2504317E+04  0.7818609E-02  0.8401449E-01
        1   -1    0    0  501    0  0.00000000000E+00  0.00000000000E+00  0.98677965484E+03  0.98677965485E+03  0.50400001928E-02 0.  1.
       -1   -1    0    0    0  501  0.00000000000E+00  0.00000000000E+00 -0.15889066705E+04  0.15889066705E+04  0.50400001928E-02 0. -1.
    10030    2    1    2    0    0  0.00000000000E+00  0.00000000000E+00 -0.60212701562E+03  0.25756863253E+04  0.25043168936E+04 0.  0.
        2    1    3    3  502    0 -0.86306736084E+03  0.87932756530E+03 -0.53057899265E+03  0.13414977838E+04  0.25500000920E-02 0. -1.
       -2    1    3    3    0  502  0.86306736084E+03 -0.87932756530E+03 -0.71548022966E+02  0.12341885415E+04  0.25500000920E-02 0.  1.
</event>
<event>
 5   0  0.2432309E-05  0.2495866E+04  0.7818609E-02  0.8404460E-01
       -2   -1    0    0    0  501  0.00000000000E+00  0.00000000000E+00  0.24179472620E+04  0.24179472620E+04  0.25500000920E-02 0. -1.
        2   -1    0    0  501    0  0.00000000000E+00  0.00000000000E+00 -0.64407396900E+03  0.64407396900E+03  0.25500000920E-02 0.  1.
    10030    2    1    2    0    0  0.00000000000E+00  0.00000000000E+00  0.17738732930E+04  0.30620212310E+04  0.24958660941E+04 0.  0.
        4    1    3    3  502    0  0.66002530312E+03 -0.13039112559E+03  0.21764002831E+04  0.22780155951E+04  0.12699999809E+01 0. -1.
       -4    1    3    3    0  502 -0.66002530312E+03  0.13039112559E+03 -0.40252699012E+03  0.78400563587E+03  0.12699999809E+01 0.  1.
</event>
<event>
 5   0  0.2345143E-05  0.2537574E+04  0.7818609E-02  0.8389720E-01
       -2   -1    0    0    0  501  0.00000000000E+00  0.00000000000E+00  0.92334868811E+03  0.92334868811E+03  0.25500000920E-02 0.  1.
        2   -1    0    0  501    0  0.00000000000E+00  0.00000000000E+00 -0.17434592482E+04  0.17434592482E+04  0.25500000920E-02 0. -1.
    10030    2    1    2    0    0  0.00000000000E+00  0.00000000000E+00 -0.82011056005E+03  0.26668079363E+04  0.25375742823E+04 0.  0.
        5    1    3    3  502    0 -0.17174930349E+03  0.55368526797E+03 -0.15961305853E+04  0.16981519763E+04  0.46999998093E+01 0. -1.
       -5    1    3    3    0  502  0.17174930349E+03 -0.55368526797E+03  0.77602002525E+03  0.96865595998E+03  0.46999998093E+01 0.  1.
</event>
<event>
 5   0  0.1002753E-05  0.2501764E+04  0.7818609E-02  0.8402357E-01
        1   -1    0    0  501    0  0.00000000000E+00  0.00000000000E+00  0.11152622092E+04  0.11152622092E+04  0.50400001928E-02 0. -1.
       -1   -1    0    0    0  501  0.00000000000E+00  0.00000000000E+00 -0.14029935060E+04  0.14029935060E+04  0.50400001928E-02 0.  1.
    10030    2    1    2    0    0  0.00000000000E+00  0.00000000000E+00 -0.28773129682E+03  0.25182557152E+04  0.25017638874E+04 0.  0.
        5    1    3    3  502    0 -0.14116657998E+03 -0.11495175544E+04 -0.61959616180E+03  0.13134839568E+04  0.46999998093E+01 0.  1.
       -5    1    3    3    0  502  0.14116657998E+03  0.11495175544E+04  0.33186486498E+03  0.12047717584E+04  0.46999998093E+01 0. -1.
</event>
<event>
 5   0  0.2345143E-05  0.2463677E+04  0.7818609E-02  0.8416041E-01
       -2   -1    0    0    0  501  0.00000000000E+00  0.00000000000E+00  0.86178206192E+03  0.86178206192E+03  0.25500000920E-02 0. -1.
        2   -1    0    0  501    0  0.00000000000E+00  0.00000000000E+00 -0.17607998218E+04  0.17607998218E+04  0.25500000920E-02 0.  1.
    10030    2    1    2    0    0  0.00000000000E+00  0.00000000000E+00 -0.89901775989E+03  0.26225818837E+04  0.24636766842E+04 0.  0.
        5    1    3    3  502    0  0.84232807319E+02 -0.46178213588E+03  0.76283641566E+03  0.89570050458E+03  0.46999998093E+01 0. -1.
       -5    1    3    3    0  502 -0.84232807319E+02  0.46178213588E+03 -0.16618541755E+04  0.17268813791E+04  0.46999998093E+01 0.  1.
</event>
<event>
 5   0  0.1002753E-05  0.2494953E+04  0.7818609E-02  0.8404786E-01
       -1   -1    0    0    0  501  0.00000000000E+00  0.00000000000E+00  0.12210939095E+04  0.12210939095E+04  0.50400001928E-02 0.  1.
        1   -1    0    0  501    0  0.00000000000E+00  0.00000000000E+00 -0.12744294754E+04  0.12744294754E+04  0.50400001928E-02 0. -1.
    10030    2    1    2    0    0  0.00000000000E+00  0.00000000000E+00 -0.53335565885E+02  0.24955233850E+04  0.24949533627E+04 0.  0.
        5    1    3    3  502    0  0.86452209889E+03 -0.65869915174E+03 -0.63909269411E+03  0.12608507420E+04  0.46999998093E+01 0. -1.
       -5    1    3    3    0  502 -0.86452209889E+03  0.65869915174E+03  0.58575712823E+03  0.12346726429E+04  0.46999998093E+01 0.  1.
</event>
<event>
 5   0  0.2345143E-05  0.2592142E+04  0.7818609E-02  0.8370875E-01
        2   -1    0    0  501    0  0.00000000000E+00  0.00000000000E+00  0.12120830424E+04  0.12120830425E+04  0.25500000920E-02 0. -1.
       -2   -1    0    0    0  501  0.00000000000E+00  0.00000000000E+00 -0.13858788632E+04  0.13858788632E+04  0.25500000920E-02 0.  1.
    10030    2    1    2    0    0  0.00000000000E+00  0.00000000000E+00 -0.17379582075E+03  0.25979619057E+04  0.25921421790E+04 0.  0.
        5    1    3    3  502    0 -0.10424122811E+04 -0.25270539638E+03 -0.81605780340E+03  0.13477595518E+04  0.46999998093E+01 0.  1.
       -5    1    3    3    0  502  0.10424122811E+04  0.25270539638E+03  0.64226198265E+03  0.12502023538E+04  0.46999998093E+01 0. -1.
</event>
<event>
 5   0  0.2388326E-05  0.2502197E+04  0.7818609E-02  0.8402203E-01
        2   -1    0    0  501    0  0.00000000000E+00  0.00000000000E+00  0.22076160944E+04  0.22076160944E+04  0.25500000920E-02 0. -1.
       -2   -1    0    0    0  501  0.00000000000E+00  0.00000000000E+00 -0.70902154224E+03  0.70902154224E+03  0.25500000920E-02 0.  1.
    10030    2    1    2    0    0  0.00000000000E+00  0.00000000000E+00  0.14985945522E+04  0.29166376366E+04  0.25021969290E+04 0.  0.
        2    1    3    3  502    0  0.97150394650E+03  0.18608617623E+02 -0.16932118689E+03  0.98632442079E+03  0.25500000920E-02 0.  1.
       -2    1    3    3    0  502 -0.97150394650E+03 -0.18608617623E+02  0.16679157390E+04  0.19303132159E+04  0.25500000920E-02 0. -1.
</event>
<event>
 5   0  0.1008073E-05  0.2369052E+04  0.7818609E-02  0.8451182E-01
       -1   -1    0    0    0  501  0.00000000000E+00  0.00000000000E+00  0.94455151067E+03  0.94455151069E+03  0.50400001928E-02 0. -1.
        1   -1    0    0  501    0  0.00000000000E+00  0.00000000000E+00 -0.14854683562E+04  0.14854683562E+04  0.50400001928E-02 0.  1.
    10030    2    1    2    0    0  0.00000000000E+00  0.00000000000E+00 -0.54091684552E+03  0.24300198669E+04  0.23690516077E+04 0.  0.
        1    1    3    3  502    0  0.82099826394E+03  0.46572348018E+02  0.60406393803E+03  0.10203432629E+04  0.50400001928E-02 0. -1.
       -1    1    3    3    0  502 -0.82099826394E+03 -0.46572348018E+02 -0.11449807836E+04  0.14096766039E+04  0.50400001928E-02 0.  1.
</event>
<event>
 5   0  0.1039688E-05  0.2510066E+04  0.7818609E-02  0.8399408E-01
       -1   -1    0    0    0  501  0.00000000000E+00  0.00000000000E+00  0.85622543196E+03  0.85622543197E+03  0.50400001928E-02 0.  1.
        1   -1    0    0  501    0  0.00000000000E+00  0.00000000000E+00 -0.18395948278E+04  0.18395948278E+04  0.50400001928E-02 0. -1.
    10030    2    1    2    0    0  0.00000000000E+00  0.00000000000E+00 -0.98336939582E+03  0.26958202598E+04  0.25100660358E+04 0.  0.
        3    1    3    3  502    0  0.83318486472E+03  0.91678063367E+03 -0.70762119683E+03  0.14266784913E+04  0.10100000352E+00 0.  1.
       -3    1    3    3    0  502 -0.83318486472E+03 -0.91678063367E+03 -0.27574819900E+03  0.12691417685E+04  0.10100000352E+00 0. -1.
</event>
<event>
 5   0  0.2432309E-05  0.2427398E+04  0.7818609E-02  0.8429317E-01
       -2   -1    0    0    0  501  0.00000000000E+00  0.00000000000E+00  0.14099084361E+04  0.14099084361E+04  0.25500000920E-02 0. -1.
        2   -1    0    0  501    0  0.00000000000E+00  0.00000000000E+00 -0.10447951283E+04  0.10447951283E+04  0.25500000920E-02 0.  1.
    10030    2    1    2    0    0  0.00000000000E+00  0.00000000000E+00  0.36511330776E+03  0.24547035644E+04  0.24273981671E+04 0.  0.
        4    1    3    3  502    0 -0.10240702580E+04 -0.64863064675E+03  0.24341873979E+03  0.12364044262E+04  0.12699999809E+01 0. -1.
       -4    1    3    3    0  502  0.10240702580E+04  0.64863064675E+03  0.12169456797E+03  0.12182991382E+04  0.12699999809E+01 0.  1.
</event>
<event>
 5   0  0.2432309E-05  0.2497036E+04  0.7818609E-02  0.8404042E-01
       -2   -1    0    0    0  501  0.00000000000E+00  0.00000000000E+00  0.98426277246E+03  0.98426277247E+03  0.25500000920E-02 0. -1.
        2   -1    0    0  501    0  0.00000000000E+00  0.00000000000E+00 -0.15837211178E+04  0.15837211178E+04  0.25500000920E-02 0.  1.
    10030    2    1    2    0    0  0.00000000000E+00  0.00000000000E+00 -0.59945834533E+03  0.25679838903E+04  0.24970364340E+04 0.  0.
        4    1    3    3  502    0 -0.35411723198E+03  0.10821402502E+04 -0.82650297004E+03  0.14069595970E+04  0.12699999809E+01 0.  1.
       -4    1    3    3    0  502  0.35411723198E+03 -0.10821402502E+04  0.22704462471E+03  0.11610242933E+04  0.12699999809E+01 0. -1.
</event>
<event>
 5   0  0.2452457E-05  0.2514689E+04  0.7818609E-02  0.8397771E-01
       -2   -1    0    0    0  501  0.00000000000E+00  0.00000000000E+00  0.99199016491E+03  0.99199016491E+03  0.25500000920E-02 0.  1.
        2   -1    0    0  501    0  0.00000000000E+00  0.00000000000E+00 -0.15936797837E+04  0.15936797837E+04  0.25500000920E-02 0. -1.
    10030    2    1    2    0    0  0.00000000000E+00  0.00000000000E+00 -0.60168961881E+03  0.25856699486E+04  0.25146885863E+04 0.  0.
        1    1    3    3  502    0  0.14499928980E+03  0.62952986267E+03  0.80829777527E+03  0.10347356839E+04  0.50400001928E-02 0.  1.
       -1    1    3    3    0  502 -0.14499928980E+03 -0.62952986267E+03 -0.14099873941E+04  0.15509342647E+04  0.50400001928E-02 0. -1.
</event>
<event>
 5   0  0.8166500E-06  0.2490681E+04  0.7818609E-02  0.8406313E-01
       -4   -1    0    0    0  501  0.00000000000E+00  0.00000000000E+00  0.14579458448E+04  0.14579463979E+04  0.12699999809E+01 0. -1.
        4   -1    0    0  501    0  0.00000000000E+00  0.00000000000E+00 -0.10637371215E+04  0.10637378796E+04  0.12699999809E+01 0.  1.
    10030    2    1    2    0    0  0.00000000000E+00  0.00000000000E+00  0.39420872329E+03  0.25216842775E+04  0.24906808463E+04 0.  0.
        4    1    3    3  502    0 -0.97894773354E+02  0.50326030527E+03 -0.95193101353E+03  0.10812162545E+04  0.12699999809E+01 0.  1.
       -4    1    3    3    0  502  0.97894773354E+02 -0.50326030527E+03  0.13461397368E+04  0.14404680231E+04  0.12699999809E+01 0. -1.
</event>
<event>
 5   0  0.1039688E-05  0.2221510E+04  0.7818609E-02  0.8509528E-01
       -1   -1    0    0    0  501  0.00000000000E+00  0.00000000000E+00  0.74414455538E+03  0.74414455540E+03  0.50400001928E-02 0.  1.
        1   -1    0    0  501    0  0.00000000000E+00  0.00000000000E+00 -0.16579805461E+04  0.16579805461E+04  0.50400001928E-02 0. -1.
    10030    2    1    2    0    0  0.00000000000E+00  0.00000000000E+00 -0.91383599076E+03  0.24021251016E+04  0.22215104739E+04 0.  0.
        3    1    3    3  502    0  0.43355744863E+03 -0.20876868304E+03  0.62558461921E+03  0.78924809171E+03  0.10100000352E+00 0.  1.
       -3    1    3    3    0  502 -0.43355744863E+03  0.20876868304E+03 -0.15394206100E+04  0.16128770098E+04  0.10100000352E+00 0. -1.
</event>
<event>
 5   0  0.1008073E-05  0.2502522E+04  0.7818609E-02  0.8402088E-01
        1   -1    0    0  501    0  0.00000000000E+00  0.00000000000E+00  0.18335278014E+04  0.18335278014E+04  0.50400001928E-02 0.  1.
       -1   -1    0    0    0  501  0.00000000000E+00  0.00000000000E+00 -0.85390252808E+03  0.85390252810E+03  0.50400001928E-02 0. -1.
    10030    2    1    2    0    0  0.00000000000E+00  0.00000000000E+00  0.97962527328E+03  0.26874303295E+04  0.25025219479E+04 0.  0.
        1    1    3    3  502    0 -0.68080585885E+03 -0.10113326124E+04  0.18728126110E+03  0.12334360709E+04  0.50400001928E-02 0.  1.
       -1    1    3    3    0  502  0.68080585885E+03  0.10113326124E+04  0.79234401217E+03  0.14539942586E+04  0.50400001928E-02 0. -1.
</event>
<event>
 5   0  0.2388326E-05  0.2470479E+04  0.7818609E-02  0.8413579E-01
       -2   -1    0    0    0  501  0.00000000000E+00  0.00000000000E+00  0.10223082625E+04  0.10223082625E+04  0.25500000920E-02 0.  1.
        2   -1    0    0  501    0  0.00000000000E+00  0.00000000000E+00 -0.14925212572E+04  0.14925212572E+04  0.25500000920E-02 0. -1.
    10030    2    1    2    0    0  0.00000000000E+00  0.00000000000E+00 -0.47021299465E+03  0.25148295197E+04  0.24704791545E+04 0.  0.
        2    1    3    3  502    0  0.46089664556E+03  0.29110271343E+03  0.89323744671E+03  0.10464414192E+04  0.25500000920E-02 0.  1.
       -2    1    3    3    0  502 -0.46089664556E+03 -0.29110271343E+03 -0.13634504414E+04  0.14683881005E+04  0.25500000920E-02 0. -1.
</event>
<event>
 5   0  0.1002753E-05  0.2401745E+04  0.7818609E-02  0.8438850E-01
       -1   -1    0    0    0  501  0.00000000000E+00  0.00000000000E+00  0.98400877206E+03  0.98400877207E+03  0.50400001928E-02 0.  1.
        1   -1    0    0  501    0  0.00000000000E+00  0.00000000000E+00 -0.14655306429E+04  0.14655306429E+04  0.50400001928E-02 0. -1.
    10030    2    1    2    0    0  0.00000000000E+00  0.00000000000E+00 -0.48152187087E+03  0.24495394150E+04  0.24017452058E+04 0.  0.
        5    1    3    3  502    0  0.10824926901E+04  0.33839647548E+03  0.16177054912E+03  0.11456414794E+04  0.46999998093E+01 0.  1.
       -5    1    3    3    0  502 -0.10824926901E+04 -0.33839647548E+03 -0.64329242000E+03  0.13038979356E+04  0.46999998093E+01 0. -1.
</event>
<event>
 5   0  0.1039688E-05  0.2461869E+04  0.7818609E-02  0.8416697E-01
       -1   -1    0    0    0  501  0.00000000000E+00  0.00000000000E+00  0.14113251856E+04  0.14113251856E+04  0.50400001928E-02 0.  1.
        1   -1    0    0  501    0  0.00000000000E+00  0.00000000000E+00 -0.10736010648E+04  0.10736010648E+04  0.50400001928E-02 0. -1.
    10030    2    1    2    0    0  0.00000000000E+00  0.00000000000E+00  0.33772412079E+03  0.24849262504E+04  0.24618693889E+04 0.  0.
        3    1    3    3  502    0  0.65275035699E+03 -0.77914788637E+02 -0.88157985038E+03  0.10996984976E+04  0.10100000352E+00 0. -1.
       -3    1    3    3    0  502 -0.65275035699E+03  0.77914788637E+02  0.12193039712E+04  0.13852277528E+04  0.10100000352E+00 0.  1.
</event>
<event>
 5   0  0.1010338E-05  0.2489927E+04  0.7818609E-02  0.8406583E-01
       -1   -1    0    0    0  501  0.00000000000E+00  0.00000000000E+00  0.12631129391E+04  0.12631129391E+04  0.50400001928E-02 0.  1.
        1   -1    0    0  501    0  0.00000000000E+00  0.00000000000E+00 -0.12270752622E+04  0.12270752622E+04  0.50400001928E-02 0. -1.
    10030    2    1    2    0    0  0.00000000000E+00  0.00000000000E+00  0.36037676903E+02  0.24901882012E+04  0.24899274213E+04 0.  0.
        2    1    3    3  502    0  0.77850116464E+03  0.64946453578E+01 -0.95359122180E+03  0.12310330873E+04  0.25500000920E-02 0. -1.
       -2    1    3    3    0  502 -0.77850116464E+03 -0.64946453578E+01  0.98962889870E+03  0.12591551139E+04  0.25500000920E-02 0.  1.
</event>
<event>
 5   0  0.2388326E-05  0.2501364E+04  0.7818609E-02  0.8402500E-01
        2   -1    0    0  501    0  0.00000000000E+00  0.00000000000E+00  0.11304399714E+04  0.11304399714E+04  0.25500000920E-02 0. -1.
       -2   -1    0    0    0  501  0.00000000000E+00  0.00000000000E+00 -0.13837136443E+04  0.13837136443E+04  0.25500000920E-02 0.  1.
    10030    2    1    2    0    0  0.00000000000E+00  0.00000000000E+00 -0.25327367289E+03  0.25141536157E+04  0.25013637980E+04 0.  0.
        2    1    3    3  502    0 -0.10611085180E+04  0.18857685199E+03  0.51118858712E+03  0.11928228233E+04  0.25500000920E-02 0. -1.
       -2    1    3    3    0  502  0.10611085180E+04 -0.18857685199E+03 -0.76446226001E+03  0.13213307925E+04  0.25500000920E-02 0.  1.
</event>
<event>
 5   0  0.2441340E-05  0.2389350E+04  0.7818609E-02  0.8443502E-01
        2   -1    0    0  501    0  0.00000000000E+00  0.00000000000E+00  0.23021643332E+04  0.23021643332E+04  0.25500000920E-02 0. -1.
       -2   -1    0    0    0  501  0.00000000000E+00  0.00000000000E+00 -0.61995913644E+03  0.61995913644E+03  0.25500000920E-02 0.  1.
    10030    2    1    2    0    0  0.00000000000E+00  0.00000000000E+00  0.16822051968E+04  0.29221234697E+04  0.23893495449E+04 0.  0.
        3    1    3    3  502    0 -0.36181290684E+03 -0.65474157563E+03 -0.29807604090E+03  0.80526048380E+03  0.10100000352E+00 0.  1.
       -3    1    3    3    0  502  0.36181290684E+03  0.65474157563E+03  0.19802812377E+04  0.21168629859E+04  0.10100000352E+00 0. -1.
</event>
<event>
 5   0  0.1002753E-05  0.2530130E+04  0.7818609E-02  0.8392330E-01
       -1   -1    0    0    0  501  0.00000000000E+00  0.00000000000E+00  0.84193725425E+03  0.84193725427E+03  0.50400001928E-02 0.  1.
        1   -1    0    0  501    0  0.00000000000E+00  0.00000000000E+00 -0.19008410853E+04  0.19008410853E+04  0.50400001928E-02 0. -1.
    10030    2    1    2    0    0  0.00000000000E+00  0.00000000000E+00 -0.10589038310E+04  0.27427783396E+04  0.25301295810E+04 0.  0.
        5    1    3    3  502    0 -0.36552310126E+03 -0.53406375566E+03 -0.17077939027E+04  0.18263114019E+04  0.46999998093E+01 0. -1.
       -5    1    3    3    0  502  0.36552310126E+03  0.53406375566E+03  0.64889007167E+03  0.91646693764E+03  0.46999998093E+01 0.  1.
</event>
<event>
 5   0  0.1008073E-05  0.2517727E+04  0.7818609E-02  0.8396697E-01
        1   -1    0    0  501    0  0.00000000000E+00  0.00000000000E+00  0.12209165273E+04  0.12209165273E+04  0.50400001928E-02 0.  1.
       -1   -1    0    0    0  501  0.00000000000E+00  0.00000000000E+00 -0.12979896031E+04  0.12979896031E+04  0.50400001928E-02 0. -1.
    10030    2    1    2    0    0  0.00000000000E+00  0.00000000000E+00 -0.77073075738E+02  0.25189061304E+04  0.25177267196E+04 0.  0.
        1    1    3    3  502    0 -0.33530234210E+02 -0.61066253805E+03  0.10622988282E+04  0.12257698856E+04  0.50400001928E-02 0.  1.
       -1    1    3    3    0  502  0.33530234210E+02  0.61066253805E+03 -0.11393719040E+04  0.12931362448E+04  0.50400001928E-02 0. -1.
</event>
<event>
 5   0  0.1002753E-05  0.2496661E+04  0.7818609E-02  0.8404176E-01
        1   -1    0    0  501    0  0.00000000000E+00  0.00000000000E+00  0.13922746545E+04  0.13922746545E+04  0.50400001928E-02 0.  1.
       -1   -1    0    0    0  501  0.00000000000E+00  0.00000000000E+00 -0.11192682966E+04  0.11192682966E+04  0.50400001928E-02 0. -1.
    10030    2    1    2    0    0  0.00000000000E+00  0.00000000000E+00  0.27300635793E+03  0.25115429511E+04  0.24966608748E+04 0.  0.
        5    1    3    3  502    0  0.49642377965E+03 -0.64123803498E+02  0.12868924075E+04  0.13808195355E+04  0.46999998093E+01 0.  1.
       -5    1    3    3    0  502 -0.49642377965E+03  0.64123803498E+02 -0.10138860495E+04  0.11307234156E+04  0.46999998093E+01 0. -1.
</event>
<event>
 5   0  0.2345143E-05  0.2543123E+04  0.7818609E-02  0.8387782E-01
        2   -1    0    0  501    0  0.00000000000E+00  0.00000000000E+00  0.13319196676E+04  0.13319196676E+04  0.25500000920E-02 0. -1.
       -2   -1    0    0    0  501  0.00000000000E+00  0.00000000000E+00 -0.12139382223E+04  0.12139382223E+04  0.25500000920E-02 0.  1.
    10030    2    1    2    0    0  0.00000000000E+00  0.00000000000E+00  0.11798144533E+03  0.25458578899E+04  0.25431226424E+04 0.  0.
        5    1    3    3  502    0  0.96734796258E+02  0.65395356649E+03 -0.10283788154E+04  0.12225375110E+04  0.46999998093E+01 0.  1.
       -5    1    3    3    0  502 -0.96734796258E+02 -0.65395356649E+03  0.11463602607E+04  0.13233203789E+04  0.46999998093E+01 0. -1.
</event>
<event>
 5   0  0.2388326E-05  0.2458975E+04  0.7818609E-02  0.8417748E-01
       -2   -1    0    0    0  501  0.00000000000E+00  0.00000000000E+00  0.92097589763E+03  0.92097589763E+03  0.25500000920E-02 0. -1.
        2   -1    0    0  501    0  0.00000000000E+00  0.00000000000E+00 -0.16413458402E+04  0.16413458402E+04  0.25500000920E-02 0.  1.
    10030    2    1    2    0    0  0.00000000000E+00  0.00000000000E+00 -0.72036994260E+03  0.25623217379E+04  0.24589753626E+04 0.  0.
        2    1    3    3  502    0  0.59599383678E+03  0.91562023114E+03 -0.94786570159E+03  0.14463811563E+04  0.25500000920E-02 0.  1.
       -2    1    3    3    0  502 -0.59599383678E+03 -0.91562023114E+03  0.22749575898E+03  0.11159405815E+04  0.25500000920E-02 0. -1.
</event>
<event>
 5   0  0.2388326E-05  0.2507907E+04  0.7818609E-02  0.8400174E-01
       -2   -1    0    0    0  501  0.00000000000E+00  0.00000000000E+00  0.13058702467E+04  0.13058702467E+04  0.25500000920E-02 0.  1.
        2   -1    0    0  501    0  0.00000000000E+00  0.00000000000E+00 -0.12041003229E+04  0.12041003229E+04  0.25500000920E-02 0. -1.
    10030    2    1    2    0    0  0.00000000000E+00  0.00000000000E+00  0.10176992380E+03  0.25099705696E+04  0.25079065260E+04 0.  0.
        2    1    3    3  502    0 -0.81854548345E+03 -0.50173202730E+02 -0.89850775985E+03  0.12164909590E+04  0.25500000920E-02 0. -1.
       -2    1    3    3    0  502  0.81854548345E+03  0.50173202730E+02  0.10002776836E+04  0.12934796106E+04  0.25500000920E-02 0.  1.
</event>
<event>
 5   0  0.2345143E-05  0.2565494E+04  0.7818609E-02  0.8380018E-01
        2   -1    0    0  501    0  0.00000000000E+00  0.00000000000E+00  0.14255617365E+04  0.14255617365E+04  0.25500000920E-02 0.  1.
       -2   -1    0    0    0  501  0.00000000000E+00  0.00000000000E+00 -0.11542393398E+04  0.11542393398E+04  0.25500000920E-02 0. -1.
    10030    2    1    2    0    0  0.00000000000E+00  0.00000000000E+00  0.27132239670E+03  0.25798010763E+04  0.25654936660E+04 0.  0.
        5    1    3    3  502    0  0.83783638886E+03  0.25303992191E+03 -0.80734170501E+03  0.11907231984E+04  0.46999998093E+01 0. -1.
       -5    1    3    3    0  502 -0.83783638886E+03 -0.25303992191E+03  0.10786641017E+04  0.13890778779E+04  0.46999998093E+01 0.  1.
</event>
<event>
 5   0  0.2452457E-05  0.2511280E+04  0.7818609E-02  0.8398978E-01
        2   -1    0    0  501    0  0.00000000000E+00  0.00000000000E+00  0.15878295819E+04  0.15878295819E+04  0.25500000920E-02 0. -1.
       -2   -1    0    0    0  501  0.00000000000E+00  0.00000000000E+00 -0.99294796905E+03  0.99294796905E+03  0.25500000920E-02 0.  1.
    10030    2    1    2    0    0  0.00000000000E+00  0.00000000000E+00  0.59488161282E+03  0.25807775509E+04  0.25112802779E+04 0.  0.
        1    1    3    3  502    0  0.10638427259E+03  0.27013413234E+03  0.15528623618E+04  0.15797694698E+04  0.50400001928E-02 0. -1.
       -1    1    3    3    0  502 -0.10638427259E+03 -0.27013413234E+03 -0.95798074902E+03  0.10010080811E+04  0.50400001928E-02 0.  1.
</event>
<event>
 5   0  0.2388326E-05  0.2568399E+04  0.7818609E-02  0.8379015E-01
       -2   -1    0    0    0  501  0.00000000000E+00  0.00000000000E+00  0.12806939809E+04  0.12806939809E+04  0.25500000920E-02 0.  1.
        2   -1    0    0  501    0  0.00000000000E+00  0.00000000000E+00 -0.12877145215E+04  0.12877145215E+04  0.25500000920E-02 0. -1.
    10030    2    1    2    0    0  0.00000000000E+00  0.00000000000E+00 -0.70205406301E+01  0.25684085024E+04  0.25683989073E+04 0.  0.
        2    1    3    3  502    0  0.12617602454E+04  0.70907493850E+02 -0.23176853740E+03  0.12848281770E+04  0.25500000920E-02 0.  1.
       -2    1    3    3    0  502 -0.12617602454E+04 -0.70907493850E+02  0.22474799677E+03  0.12835803253E+04  0.25500000920E-02 0. -1.
</event>
<event>
 5   0  0.2452457E-05  0.2497000E+04  0.7818609E-02  0.8404055E-01
       -2   -1    0    0    0  501  0.00000000000E+00  0.00000000000E+00  0.71868828905E+03  0.71868828905E+03  0.25500000920E-02 0. -1.
        2   -1    0    0  501    0  0.00000000000E+00  0.00000000000E+00 -0.21688854996E+04  0.21688854996E+04  0.25500000920E-02 0.  1.
    10030    2    1    2    0    0  0.00000000000E+00  0.00000000000E+00 -0.14501972105E+04  0.28875737886E+04  0.24970002874E+04 0.  0.
        1    1    3    3  502    0 -0.32178762960E+02  0.83970157041E+03  0.34270615148E+03  0.90751402547E+03  0.50400001928E-02 0. -1.
       -1    1    3    3    0  502  0.32178762960E+02 -0.83970157041E+03 -0.17929033620E+04  0.19800597631E+04  0.50400001928E-02 0.  1.
</event>
<event>
 5   0  0.1015327E-05  0.2543697E+04  0.7818609E-02  0.8387581E-01
        1   -1    0    0  501    0  0.00000000000E+00  0.00000000000E+00  0.22188154379E+04  0.22188154379E+04  0.50400001928E-02 0. -1.
       -1   -1    0    0    0  501  0.00000000000E+00  0.00000000000E+00 -0.72903718765E+03  0.72903718767E+03  0.50400001928E-02 0.  1.
    10030    2    1    2    0    0  0.00000000000E+00  0.00000000000E+00  0.14897782502E+04  0.29478526255E+04  0.25436972829E+04 0.  0.
        4    1    3    3  502    0 -0.15128381870E+03  0.91613288324E+03 -0.26234869099E+03  0.96489103121E+03  0.12699999809E+01 0.  1.
       -4    1    3    3    0  502  0.15128381870E+03 -0.91613288324E+03  0.17521269412E+04  0.19829615943E+04  0.12699999809E+01 0. -1.
</event>
<event>
 5   0  0.1008073E-05  0.2504091E+04  0.7818609E-02  0.8401530E-01
        1   -1    0    0  501    0  0.00000000000E+00  0.00000000000E+00  0.21315088241E+04  0.21315088241E+04  0.50400001928E-02 0.  1.
       -1   -1    0    0    0  501  0.00000000000E+00  0.00000000000E+00 -0.73544975033E+03  0.73544975035E+03  0.50400001928E-02 0. -1.
    10030    2    1    2    0    0  0.00000000000E+00  0.00000000000E+00  0.13960590738E+04  0.28669585745E+04  0.25040907592E+04 0.  0.
        1    1    3    3  502    0  0.63322308015E+03 -0.35694324782E+03 -0.46912616166E+03  0.86513542696E+03  0.50400001928E-02 0. -1.
       -1    1    3    3    0  502 -0.63322308015E+03  0.35694324782E+03  0.18651852355E+04  0.20018231475E+04  0.50400001928E-02 0.  1.
</event>
<event>
 5   0  0.1015327E-05  0.2554889E+04  0.7818609E-02  0.8383688E-01
       -1   -1    0    0    0  501  0.00000000000E+00  0.00000000000E+00  0.86791394938E+03  0.86791394940E+03  0.50400001928E-02 0. -1.
        1   -1    0    0  501    0  0.00000000000E+00  0.00000000000E+00 -0.18802143192E+04  0.18802143192E+04  0.50400001928E-02 0.  1.
    10030    2    1    2    0    0  0.00000000000E+00  0.00000000000E+00 -0.10123003698E+04  0.27481282686E+04  0.25548888316E+04 0.  0.
        4    1    3    3  502    0 -0.79109482918E+03  0.66624547773E+03  0.30032413294E+03  0.10769913013E+04  0.12699999809E+01 0. -1.
       -4    1    3    3    0  502  0.79109482918E+03 -0.66624547773E+03 -0.13126245027E+04  0.16711369673E+04  0.12699999809E+01 0.  1.
</event>
<event>
 5   0  0.2432309E-05  0.2489207E+04  0.7818609E-02  0.8406841E-01
       -2   -1    0    0    0  501  0.00000000000E+00  0.00000000000E+00  0.20082514744E+04  0.20082514744E+04  0.25500000920E-02 0.  1.
        2   -1    0    0  501    0  0.00000000000E+00  0.00000000000E+00 -0.77133630690E+03  0.77133630690E+03  0.25500000920E-02 0. -1.
    10030    2    1    2    0    0  0.00000000000E+00  0.00000000000E+00  0.12369151675E+04  0.27795877813E+04  0.24892065207E+04 0.  0.
        4    1    3    3  502    0 -0.31941679115E+02 -0.31192912288E+03  0.19634214187E+04  0.19883021221E+04  0.12699999809E+01 0.  1.
       -4    1    3    3    0  502  0.31941679115E+02  0.31192912288E+03 -0.72650625117E+03  0.79128565920E+03  0.12699999809E+01 0. -1.
</event>
<event>
 5   0  0.1002753E-05  0.2535290E+04  0.7818609E-02  0.8390520E-01
       -1   -1    0    0    0  501  0.00000000000E+00  0.00000000000E+00  0.58937861387E+03  0.58937861389E+03  0.50400001928E-02 0.  1.
        1   -1    0    0  501    0  0.00000000000E+00  0.00000000000E+00 -0.27264714922E+04  0.27264714922E+04  0.50400001928E-02 0. -1.
    10030    2    1    2    0    0  0.00000000000E+00  0.00000000000E+00 -0.21370928784E+04  0.33158501061E+04  0.25352901127E+04 0.  0.
        5    1    3    3  502    0  0.24848479321E+03  0.42489150989E+03 -0.25963720830E+04  0.26426213446E+04  0.46999998093E+01 0. -1.
       -5    1    3    3    0  502 -0.24848479321E+03 -0.42489150989E+03  0.45927920458E+03  0.67322876156E+03  0.46999998093E+01 0.  1.
</event>
<event>
 5   0  0.1010338E-05  0.2579541E+04  0.7818609E-02  0.8375184E-01
       -1   -1    0    0    0  501  0.00000000000E+00  0.00000000000E+00  0.20981817560E+04  0.20981817560E+04  0.50400001928E-02 0.  1.
        1   -1    0    0  501    0  0.00000000000E+00  0.00000000000E+00 -0.79283327588E+03  0.79283327590E+03  0.50400001928E-02 0. -1.
    10030    2    1    2    0    0  0.00000000000E+00  0.00000000000E+00  0.13053484801E+04  0.28910150319E+04  0.25795412887E+04 0.  0.
        2    1    3    3  502    0 -0.33477421372E+03 -0.10910453708E+04  0.13261070492E+04  0.17495752860E+04  0.25500000920E-02 0.  1.
       -2    1    3    3    0  502  0.33477421372E+03  0.10910453708E+04 -0.20758569065E+02  0.11414397459E+04  0.25500000920E-02 0. -1.
</event>
<event>
 5   0  0.1015327E-05  0.2495132E+04  0.7818609E-02  0.8404722E-01
       -1   -1    0    0    0  501  0.00000000000E+00  0.00000000000E+00  0.11843570011E+04  0.11843570011E+04  0.50400001928E-02 0.  1.
        1   -1    0    0  501    0  0.00000000000E+00  0.00000000000E+00 -0.13141486150E+04  0.13141486150E+04  0.50400001928E-02 0. -1.
    10030    2    1    2    0    0  0.00000000000E+00  0.00000000000E+00 -0.12979161386E+03  0.24985056162E+04  0.24951321510E+04 0.  0.
        4    1    3    3  502    0  0.34437807718E+02 -0.58118500292E+03  0.10399805688E+04  0.11918570244E+04  0.12699999809E+01 0.  1.
       -4    1    3    3    0  502 -0.34437807718E+02  0.58118500292E+03 -0.11697721826E+04  0.13066485918E+04  0.12699999809E+01 0. -1.
</event>
<event>
 5   0  0.1008073E-05  0.2494167E+04  0.7818609E-02  0.8405067E-01
        1   -1    0    0  501    0  0.00000000000E+00  0.00000000000E+00  0.16144671762E+04  0.16144671762E+04  0.50400001928E-02 0. -1.
       -1   -1    0    0    0  501  0.00000000000E+00  0.00000000000E+00 -0.96330034683E+03  0.96330034685E+03  0.50400001928E-02 0.  1.
    10030    2    1    2    0    0  0.00000000000E+00  0.00000000000E+00  0.65116682933E+03  0.25777675230E+04  0.24941666270E+04 0.  0.
        1    1    3    3  502    0  0.65914401588E+03  0.10586261232E+04  0.31780187774E+03  0.12869180766E+04  0.50400001928E-02 0.  1.
       -1    1    3    3    0  502 -0.65914401588E+03 -0.10586261232E+04  0.33336495159E+03  0.12908494464E+04  0.50400001928E-02 0. -1.
</event>
<event>
 5   0  0.2441340E-05  0.2669325E+04  0.7818609E-02  0.8345027E-01
       -2   -1    0    0    0  501  0.00000000000E+00  0.00000000000E+00  0.19477911825E+04  0.19477911825E+04  0.25500000920E-02 0. -1.
        2   -1    0    0  501    0  0.00000000000E+00  0.00000000000E+00 -0.91453507089E+03  0.91453507090E+03  0.25500000920E-02 0.  1.
    10030    2    1    2    0    0  0.00000000000E+00  0.00000000000E+00  0.10332561116E+04  0.28623262534E+04  0.26693245192E+04 0.  0.
        3    1    3    3  502    0  0.11290499173E+04  0.26956539739E+03 -0.18971331523E+03  0.11761846673E+04  0.10100000352E+00 0. -1.
       -3    1    3    3    0  502 -0.11290499173E+04 -0.26956539739E+03  0.12229694268E+04  0.16861415861E+04  0.10100000352E+00 0.  1.
</event>
<event>
 5   0  0.1010338E-05  0.2458839E+04  0.7818609E-02  0.8417798E-01
       -1   -1    0    0    0  501  0.00000000000E+00  0.00000000000E+00  0.10042832939E+04  0.10042832939E+04  0.50400001928E-02 0.  1.
        1   -1    0    0  501    0  0.00000000000E+00  0.00000000000E+00 -0.15050252713E+04  0.15050252714E+04  0.50400001928E-02 0. -1.
    10030    2    1    2    0    0  0.00000000000E+00  0.00000000000E+00 -0.50074197749E+03  0.25093085652E+04  0.24588385363E+04 0.  0.
        2    1    3    3  502    0  0.27920576454E+03 -0.32047396584E+03  0.92691632340E+03  0.10197221643E+04  0.25500000920E-02 0.  1.
       -2    1    3    3    0  502 -0.27920576454E+03  0.32047396584E+03 -0.14276583009E+04  0.14895864009E+04  0.25500000920E-02 0. -1.
</event>
<event>
 5   0  0.2441340E-05  0.2499031E+04  0.7818609E-02  0.8403331E-01
        2   -1    0    0  501    0  0.00000000000E+00  0.00000000000E+00  0.15509630992E+04  0.15509630992E+04  0.25500000920E-02 0.  1.
       -2   -1    0    0    0  501  0.00000000000E+00  0.00000000000E+00 -0.10066573781E+04  0.10066573781E+04  0.25500000920E-02 0. -1.
    10030    2    1    2    0    0  0.00000000000E+00  0.00000000000E+00  0.54430572107E+03  0.25576204772E+04  0.24990305696E+04 0.  0.
        3    1    3    3  502    0  0.78847690209E+03  0.15303922270E+03 -0.70745654471E+03  0.10703324725E+04  0.10100000352E+00 0. -1.
       -3    1    3    3    0  502 -0.78847690209E+03 -0.15303922270E+03  0.12517622658E+04  0.14872880047E+04  0.10100000352E+00 0.  1.
</event>
<event>
 5   0  0.8166500E-06  0.2492708E+04  0.7818609E-02  0.8405588E-01
        3   -1    0    0  501    0  0.00000000000E+00  0.00000000000E+00  0.21453880125E+04  0.21453880149E+04  0.10100000352E+00 0. -1.
       -3   -1    0    0    0  501  0.00000000000E+00  0.00000000000E+00 -0.72406426882E+03  0.72406427587E+03  0.10100000352E+00 0.  1.
    10030    2    1    2    0    0  0.00000000000E+00  0.00000000000E+00  0.14213237437E+04  0.28694522908E+04  0.24927084195E+04 0.  0.
        2    1    3    3  502    0 -0.29305729934E+03 -0.12107515122E+04  0.75666437974E+03  0.14575125346E+04  0.25500000920E-02 0. -1.
       -2    1    3    3    0  502  0.29305729934E+03  0.12107515122E+04  0.66465936397E+03  0.14119397562E+04  0.25500000920E-02 0.  1.
</event>
<event>
 5   0  0.2441340E-05  0.2450291E+04  0.7818609E-02  0.8420912E-01
       -2   -1    0    0    0  501  0.00000000000E+00  0.00000000000E+00  0.12290881186E+04  0.12290881186E+04  0.25500000920E-02 0.  1.
        2   -1    0    0  501    0  0.00000000000E+00  0.00000000000E+00 -0.12212155045E+04  0.12212155045E+04  0.25500000920E-02 0. -1.
    10030    2    1    2    0    0  0.00000000000E+00  0.00000000000E+00  0.78726140875E+01  0.24503036231E+04  0.24502909760E+04 0.  0.
        3    1    3    3  502    0  0.36396257457E+03 -0.39574886613E+02 -0.11652346130E+04  0.12213953663E+04  0.10100000352E+00 0. -1.
       -3    1    3    3    0  502 -0.36396257457E+03  0.39574886613E+02  0.11731072270E+04  0.12289082568E+04  0.10100000352E+00 0.  1.
</event>
<event>
 5   0  0.1039688E-05  0.2485371E+04  0.7818609E-02  0.8408216E-01
        1   -1    0    0  501    0  0.00000000000E+00  0.00000000000E+00  0.14137896006E+04  0.14137896006E+04  0.50400001928E-02 0. -1.
       -1   -1    0    0    0  501  0.00000000000E+00  0.00000000000E+00 -0.10922893607E+04  0.10922893607E+04  0.50400001928E-02 0.  1.
    10030    2    1    2    0    0  0.00000000000E+00  0.00000000000E+00  0.32150023992E+03  0.25060789613E+04  0.24853710701E+04 0.  0.
        3    1    3    3  502    0 -0.17263594215E+03  0.48732180269E+03 -0.97870135554E+03  0.11068613560E+04  0.10100000352E+00 0.  1.
       -3    1    3    3    0  502  0.17263594215E+03 -0.48732180269E+03  0.13002015955E+04  0.13992176053E+04  0.10100000352E+00 0. -1.
</event>
<event>
 5   0  0.1002753E-05  0.2535898E+04  0.7818609E-02  0.8390307E-01
       -1   -1    0    0    0  501  0.00000000000E+00  0.00000000000E+00  0.70419976963E+03  0.70419976965E+03  0.50400001928E-02 0.  1.
        1   -1    0    0  501    0  0.00000000000E+00  0.00000000000E+00 -0.22830090277E+04  0.22830090277E+04  0.50400001928E-02 0. -1.
    10030    2    1    2    0    0  0.00000000000E+00  0.00000000000E+00 -0.15788092580E+04  0.29872087973E+04  0.25358978145E+04 0.  0.
        5    1    3    3  502    0  0.95197271694E+03 -0.83147210570E+03 -0.90763905991E+03  0.15560940426E+04  0.46999998093E+01 0. -1.
       -5    1    3    3    0  502 -0.95197271694E+03  0.83147210570E+03 -0.67117019814E+03  0.14311147547E+04  0.46999998093E+01 0.  1.
</event>
<event>
 5   0  0.2345143E-05  0.2497633E+04  0.7818609E-02  0.8403829E-01
        2   -1    0    0  501    0  0.00000000000E+00  0.00000000000E+00  0.14189313529E+04  0.14189313530E+04  0.25500000920E-02 0. -1.
       -2   -1    0    0    0  501  0.00000000000E+00  0.00000000000E+00 -0.10990965385E+04  0.10990965385E+04  0.25500000920E-02 0.  1.
    10030    2    1    2    0    0  0.00000000000E+00  0.00000000000E+00  0.31983481448E+03  0.25180278914E+04  0.24976329101E+04 0.  0.
        5    1    3    3  502    0  0.84881065879E+03 -0.47079422309E+02 -0.76233353239E+03  0.11418714950E+04  0.46999998093E+01 0.  1.
       -5    1    3    3    0  502 -0.84881065879E+03  0.47079422309E+02  0.10821683469E+04  0.13761563964E+04  0.46999998093E+01 0. -1.
</event>
<event>
 5   0  0.1039688E-05  0.2511008E+04  0.7818609E-02  0.8399074E-01
       -1   -1    0    0    0  501  0.00000000000E+00  0.00000000000E+00  0.15332390843E+04  0.15332390843E+04  0.50400001928E-02 0. -1.
        1   -1    0    0  501    0  0.00000000000E+00  0.00000000000E+00 -0.10280789361E+04  0.10280789361E+04  0.50400001928E-02 0.  1.
    10030    2    1    2    0    0  0.00000000000E+00  0.00000000000E+00  0.50516014817E+03  0.25613180204E+04  0.25110084082E+04 0.  0.
        3    1    3    3  502    0 -0.10378294962E+04 -0.20419732546E+03  0.94252253563E+03  0.14167340440E+04  0.10100000352E+00 0. -1.
       -3    1    3    3    0  502  0.10378294962E+04  0.20419732546E+03 -0.43736238746E+03  0.11445839764E+04  0.10100000352E+00 0.  1.
</event>
<event>
 5   0  0.1010338E-05  0.2472237E+04  0.7818609E-02  0.8412944E-01
       -1   -1    0    0    0  501  0.00000000000E+00  0.00000000000E+00  0.94496109373E+03  0.94496109374E+03  0.50400001928E-02 0. -1.
        1   -1    0    0  501    0  0.00000000000E+00  0.00000000000E+00 -0.16169854611E+04  0.16169854611E+04  0.50400001928E-02 0.  1.
    10030    2    1    2    0    0  0.00000000000E+00  0.00000000000E+00 -0.67202436735E+03  0.25619465548E+04  0.24722365177E+04 0.  0.
        2    1    3    3  502    0 -0.59988483894E+03  0.40755294651E+03 -0.13733489901E+04  0.15530771625E+04  0.25500000920E-02 0.  1.
       -2    1    3    3    0  502  0.59988483894E+03 -0.40755294651E+03  0.70132462275E+03  0.10088693923E+04  0.25500000920E-02 0. -1.
</event>
<event>
 5   0  0.2388326E-05  0.2531099E+04  0.7818609E-02  0.8391989E-01
        2   -1    0    0  501    0  0.00000000000E+00  0.00000000000E+00  0.14286667089E+04  0.14286667089E+04  0.25500000920E-02 0. -1.
       -2   -1    0    0    0  501  0.00000000000E+00  0.00000000000E+00 -0.11210558662E+04  0.11210558662E+04  0.25500000920E-02 0.  1.
    10030    2    1    2    0    0  0.00000000000E+00  0.00000000000E+00  0.30761084271E+03  0.25497225750E+04  0.25310987296E+04 0.  0.
        2    1    3    3  502    0  0.76716116343E+03 -0.65072765979E+02 -0.85799755868E+03  0.11527924905E+04  0.25500000920E-02 0.  1.
       -2    1    3    3    0  502 -0.76716116343E+03  0.65072765979E+02  0.11656084014E+04  0.13969300845E+04  0.25500000920E-02 0. -1.
</event>
<event>
 5   0  0.2388326E-05  0.2488553E+04  0.7818609E-02  0.8407075E-01
        2   -1    0    0  501    0  0.00000000000E+00  0.00000000000E+00  0.84381386156E+03  0.84381386156E+03  0.25500000920E-02 0. -1.
       -2   -1    0    0    0  501  0.00000000000E+00  0.00000000000E+00 -0.18347934295E+04  0.18347934295E+04  0.25500000920E-02 0.  1.
    10030    2    1    2    0    0  0.00000000000E+00  0.00000000000E+00 -0.99097956795E+03  0.26786072911E+04  0.24885530968E+04 0.  0.
        2    1    3    3  502    0 -0.46148672609E+03 -0.39120283918E+03 -0.16658249918E+04  0.17722817392E+04  0.25500000920E-02 0.  1.
       -2    1    3    3    0  502  0.46148672609E+03  0.39120283918E+03  0.67484542390E+03  0.90632555183E+03  0.25500000920E-02 0. -1.
</event>
<event>
 5   0  0.2432309E-05  0.2494018E+04  0.7818609E-02  0.8405120E-01
        2   -1    0    0  501    0  0.00000000000E+00  0.00000000000E+00  0.15121277735E+04  0.15121277735E+04  0.25500000920E-02 0. -1.
       -2   -1    0    0    0  501  0.00000000000E+00  0.00000000000E+00 -0.10283728226E+04  0.10283728226E+04  0.25500000920E-02 0.  1.
    10030    2    1    2    0    0  0.00000000000E+00  0.00000000000E+00  0.48375495092E+03  0.25405005961E+04  0.24940177278E+04 0.  0.
        4    1    3    3  502    0 -0.37871233636E+03  0.10523141189E+04 -0.31998361771E+03  0.11632622950E+04  0.12699999809E+01 0.  1.
       -4    1    3    3    0  502  0.37871233636E+03 -0.10523141189E+04  0.80373856863E+03  0.13772383011E+04  0.12699999809E+01 0. -1.
</event>
<event>
 5   0  0.2452457E-05  0.2481220E+04  0.7818609E-02  0.8409707E-01
        2   -1    0    0  501    0  0.00000000000E+00  0.00000000000E+00  0.79648295810E+03  0.79648295811E+03  0.25500000920E-02 0.  1.
       -2   -1    0    0    0  501  0.00000000000E+00  0.00000000000E+00 -0.19323869435E+04  0.19323869435E+04  0.25500000920E-02 0. -1.
    10030    2    1    2    0    0  0.00000000000E+00  0.00000000000E+00 -0.11359039854E+04  0.27288699016E+04  0.24812200781E+04 0.  0.
        1    1    3    3  502    0 -0.42311455737E+03  0.11569239821E+04 -0.72964361839E+03  0.14317397944E+04  0.50400001928E-02 0. -1.
       -1    1    3    3    0  502  0.42311455737E+03 -0.11569239821E+04 -0.40626036697E+03  0.12971301071E+04  0.50400001928E-02 0.  1.
</event>
<event>
 5   0  0.1010338E-05  0.2301456E+04  0.7818609E-02  0.8477347E-01
        1   -1    0    0  501    0  0.00000000000E+00  0.00000000000E+00  0.77651189382E+03  0.77651189383E+03  0.50400001928E-02 0.  1.
       -1   -1    0    0    0  501  0.00000000000E+00  0.00000000000E+00 -0.17052867311E+04  0.17052867311E+04  0.50400001928E-02 0. -1.
    10030    2    1    2    0    0  0.00000000000E+00  0.00000000000E+00 -0.92877483731E+03  0.24817986250E+04  0.23014564338E+04 0.  0.
        2    1    3    3  502    0 -0.28694918580E+03  0.25251351728E+03 -0.16348291390E+04  0.16789190645E+04  0.25500000920E-02 0. -1.
       -2    1    3    3    0  502  0.28694918580E+03 -0.25251351728E+03  0.70605430166E+03  0.80287956042E+03  0.25500000920E-02 0.  1.
</event>
<event>
 5   0  0.2432309E-05  0.2533533E+04  0.7818609E-02  0.8391136E-01
       -2   -1    0    0    0  501  0.00000000000E+00  0.00000000000E+00  0.12089559176E+04  0.12089559176E+04  0.25500000920E-02 0. -1.
        2   -1    0    0  501    0  0.00000000000E+00  0.00000000000E+00 -0.13273419800E+04  0.13273419800E+04  0.25500000920E-02 0.  1.
    10030    2    1    2    0    0  0.00000000000E+00  0.00000000000E+00 -0.11838606243E+03  0.25362978977E+04  0.25335334547E+04 0.  0.
        4    1    3    3  502    0  0.21536114040E+03  0.66449465901E+03  0.99873001772E+03  0.12187685727E+04  0.12699999809E+01 0. -1.
       -4    1    3    3    0  502 -0.21536114040E+03 -0.66449465901E+03 -0.11171160801E+04  0.13175293249E+04  0.12699999809E+01 0.  1.
</event>
<event>
 5   0  0.2441340E-05  0.2408032E+04  0.7818609E-02  0.8436503E-01
        2   -1    0    0  501    0  0.00000000000E+00  0.00000000000E+00  0.15353526081E+04  0.15353526081E+04  0.25500000920E-02 0.  1.
       -2   -1    0    0    0  501  0.00000000000E+00  0.00000000000E+00 -0.94418366894E+03  0.94418366894E+03  0.25500000920E-02 0. -1.
    10030    2    1    2    0    0  0.00000000000E+00  0.00000000000E+00  0.59116893919E+03  0.24795362771E+04  0.24080322744E+04 0.  0.
        3    1    3    3  502    0  0.10797377228E+04  0.24755022711E+03 -0.19016505500E+03  0.11239561483E+04  0.10100000352E+00 0. -1.
       -3    1    3    3    0  502 -0.10797377228E+04 -0.24755022711E+03  0.78133399418E+03  0.13555801288E+04  0.10100000352E+00 0.  1.
</event>
<event>
 5   0  0.1039688E-05  0.2460679E+04  0.7818609E-02  0.8417129E-01
       -1   -1    0    0    0  501  0.00000000000E+00  0.00000000000E+00  0.25346026598E+04  0.25346026598E+04  0.50400001928E-02 0.  1.
        1   -1    0    0  501    0  0.00000000000E+00  0.00000000000E+00 -0.59722774134E+03  0.59722774136E+03  0.50400001928E-02 0. -1.
    10030    2    1    2    0    0  0.00000000000E+00  0.00000000000E+00  0.19373749184E+04  0.31318304011E+04  0.24606787858E+04 0.  0.
        3    1    3    3  502    0 -0.11074658541E+04 -0.27460017839E+03  0.38287762422E+03  0.12035286292E+04  0.10100000352E+00 0. -1.
       -3    1    3    3    0  502  0.11074658541E+04  0.27460017839E+03  0.15544972942E+04  0.19283017720E+04  0.10100000352E+00 0.  1.
</event>
<event>
 5   0  0.2345143E-05  0.2558575E+04  0.7818609E-02  0.8382410E-01
        2   -1    0    0  501    0  0.00000000000E+00  0.00000000000E+00  0.92337875455E+03  0.92337875456E+03  0.25500000920E-02 0. -1.
       -2   -1    0    0    0  501  0.00000000000E+00  0.00000000000E+00 -0.17723783806E+04  0.17723783806E+04  0.25500000920E-02 0.  1.
    10030    2    1    2    0    0  0.00000000000E+00  0.00000000000E+00 -0.84899962601E+03  0.26957571351E+04  0.25585750266E+04 0.  0.
        5    1    3    3  502    0 -0.48983488745E+03 -0.23846468843E+03  0.79503618350E+03  0.96379886266E+03  0.46999998093E+01 0. -1.
       -5    1    3    3    0  502  0.48983488745E+03  0.23846468843E+03 -0.16440358095E+04  0.17319582725E+04  0.46999998093E+01 0.  1.
</event>
<event>
 5   0  0.1015327E-05  0.2489839E+04  0.7818609E-02  0.8406614E-01
       -1   -1    0    0    0  501  0.00000000000E+00  0.00000000000E+00  0.11463820910E+04  0.11463820910E+04  0.50400001928E-02 0.  1.
        1   -1    0    0  501    0  0.00000000000E+00  0.00000000000E+00 -0.13519269586E+04  0.13519269586E+04  0.50400001928E-02 0. -1.
    10030    2    1    2    0    0  0.00000000000E+00  0.00000000000E+00 -0.20554486757E+03  0.24983090496E+04  0.24898392348E+04 0.  0.
        4    1    3    3  502    0 -0.23469429406E+03  0.93128507633E+03 -0.89758439542E+03  0.13145465625E+04  0.12699999809E+01 0. -1.
       -4    1    3    3    0  502  0.23469429406E+03 -0.93128507633E+03  0.69203952786E+03  0.11837624872E+04  0.12699999809E+01 0.  1.
</event>
<event>
 5   0  0.2452457E-05  0.2329899E+04  0.7818609E-02  0.8466225E-01
       -2   -1    0    0    0  501  0.00000000000E+00  0.00000000000E+00  0.80860537776E+03  0.80860537776E+03  0.25500000920E-02 0.  1.
        2   -1    0    0  501    0  0.00000000000E+00  0.00000000000E+00 -0.16783302155E+04  0.16783302155E+04  0.25500000920E-02 0. -1.
    10030    2    1    2    0    0  0.00000000000E+00  0.00000000000E+00 -0.86972483776E+03  0.24869355933E+04  0.23298985711E+04 0.  0.
        1    1    3    3  502    0 -0.10432463884E+04  0.22845217940E+03  0.61855742252E+02  0.10697567752E+04  0.50400001928E-02 0.  1.
       -1    1    3    3    0  502  0.10432463884E+04 -0.22845217940E+03 -0.93158058001E+03  0.14171788181E+04  0.50400001928E-02 0. -1.
</event>
<event>
 5   0  0.2388326E-05  0.2501779E+04  0.7818609E-02  0.8402352E-01
        2   -1    0    0  501    0  0.00000000000E+00  0.00000000000E+00  0.85982313505E+03  0.85982313505E+03  0.25500000920E-02 0.  1.
       -2   -1    0    0    0  501  0.00000000000E+00  0.00000000000E+00 -0.18198219283E+04  0.18198219283E+04  0.25500000920E-02 0. -1.
    10030    2    1    2    0    0  0.00000000000E+00  0.00000000000E+00 -0.95999879327E+03  0.26796450634E+04  0.25017793633E+04 0.  0.
        2    1    3    3  502    0 -0.83094990636E+03 -0.53297806904E+02  0.51985943609E+03  0.98161715368E+03  0.25500000920E-02 0.  1.
       -2    1    3    3    0  502  0.83094990636E+03  0.53297806904E+02 -0.14798582294E+04  0.16980279097E+04  0.25500000920E-02 0. -1.
</event>
<event>
 5   0  0.1002753E-05  0.2489016E+04  0.7818609E-02  0.8406909E-01
        1   -1    0    0  501    0  0.00000000000E+00  0.00000000000E+00  0.21306358217E+04  0.21306358217E+04  0.50400001928E-02 0. -1.
       -1   -1    0    0    0  501  0.00000000000E+00  0.00000000000E+00 -0.72691914443E+03  0.72691914445E+03  0.50400001928E-02 0.  1.
    10030    2    1    2    0    0  0.00000000000E+00  0.00000000000E+00  0.14037166773E+04  0.28575549662E+04  0.24890158446E+04 0.  0.
        5    1    3    3  502    0 -0.11892259183E+04 -0.11302242196E+03  0.11024421892E+04  0.16255562812E+04  0.46999998093E+01 0. -1.
       -5    1    3    3    0  502  0.11892259183E+04  0.11302242196E+03  0.30127448807E+03  0.12319986850E+04  0.46999998093E+01 0.  1.
</event>
<event>
 5   0  0.2432309E-05  0.2162998E+04  0.7818609E-02  0.8533989E-01
        2   -1    0    0  501    0  0.00000000000E+00  0.00000000000E+00  0.97195449807E+03  0.97195449807E+03  0.25500000920E-02 0. -1.
       -2   -1    0    0    0  501  0.00000000000E+00  0.00000000000E+00 -0.12033901138E+04  0.12033901138E+04  0.25500000920E-02 0.  1.
    10030    2    1    2    0    0  0.00000000000E+00  0.00000000000E+00 -0.23143561574E+03  0.21753446119E+04  0.21629983209E+04 0.  0.
        4    1    3    3  502    0 -0.49848756411E+03  0.95577487312E+01 -0.10809132976E+04  0.11903597658E+04  0.12699999809E+01 0.  1.
       -4    1    3    3    0  502  0.49848756411E+03 -0.95577487312E+01  0.84947768188E+03  0.98498484610E+03  0.12699999809E+01 0. -1.
</event>
<event>
 5   0  0.2345143E-05  0.2492824E+04  0.7818609E-02  0.8405546E-01
       -2   -1    0    0    0  501  0.00000000000E+00  0.00000000000E+00  0.70137354352E+03  0.70137354353E+03  0.25500000920E-02 0. -1.
        2   -1    0    0  501    0  0.00000000000E+00  0.00000000000E+00 -0.22150006663E+04  0.22150006663E+04  0.25500000920E-02 0.  1.
    10030    2    1    2    0    0  0.00000000000E+00  0.00000000000E+00 -0.15136271228E+04  0.29163742098E+04  0.24928239940E+04 0.  0.
        5    1    3    3  502    0  0.38172153555E+03  0.22430275150E+03  0.60626594221E+03  0.75073533134E+03  0.46999998093E+01 0. -1.
       -5    1    3    3    0  502 -0.38172153555E+03 -0.22430275150E+03 -0.21198930650E+04  0.21656388785E+04  0.46999998093E+01 0.  1.
</event>
<event>
 5   0  0.1015327E-05  0.2490441E+04  0.7818609E-02  0.8406399E-01
        1   -1    0    0  501    0  0.00000000000E+00  0.00000000000E+00  0.16476189761E+04  0.16476189761E+04  0.50400001928E-02 0.  1.
       -1   -1    0    0    0  501  0.00000000000E+00  0.00000000000E+00 -0.94109984600E+03  0.94109984602E+03  0.50400001928E-02 0. -1.
    10030    2    1    2    0    0  0.00000000000E+00  0.00000000000E+00  0.70651913006E+03  0.25887188221E+04  0.24904408964E+04 0.  0.
        4    1    3    3  502    0  0.25703848521E+03 -0.78909274053E+03  0.13182455633E+04  0.15577256222E+04  0.12699999809E+01 0.  1.
       -4    1    3    3    0  502 -0.25703848521E+03  0.78909274053E+03 -0.61172643328E+03  0.10309931998E+04  0.12699999809E+01 0. -1.
</event>
<event>
 5   0  0.2441340E-05  0.2526213E+04  0.7818609E-02  0.8393706E-01
       -2   -1    0    0    0  501  0.00000000000E+00  0.00000000000E+00  0.11552392366E+04  0.11552392366E+04  0.25500000920E-02 0. -1.
        2   -1    0    0  501    0  0.00000000000E+00  0.00000000000E+00 -0.13810452394E+04  0.13810452394E+04  0.25500000920E-02 0.  1.
    10030    2    1    2    0    0  0.00000000000E+00  0.00000000000E+00 -0.22580600277E+03  0.25362844760E+04  0.25262126974E+04 0.  0.
        3    1    3    3  502    0 -0.10629527658E+02 -0.10703619572E+04  0.56032987460E+03  0.12082041569E+04  0.10100000352E+00 0. -1.
       -3    1    3    3    0  502  0.10629527658E+02  0.10703619572E+04 -0.78613587737E+03  0.13280803191E+04  0.10100000352E+00 0.  1.
</event>
<event>
 5   0  0.8166500E-06  0.2509581E+04  0.7818609E-02  0.8399580E-01
       -3   -1    0    0    0  501  0.00000000000E+00  0.00000000000E+00  0.20149680376E+04  0.20149680402E+04  0.10100000352E+00 0.  1.
        3   -1    0    0  501    0  0.00000000000E+00  0.00000000000E+00 -0.78140133596E+03  0.78140134248E+03  0.10100000352E+00 0. -1.
    10030    2    1    2    0    0  0.00000000000E+00  0.00000000000E+00  0.12335667017E+04  0.27963693827E+04  0.25095806257E+04 0.  0.
        1    1    3    3  502    0 -0.18329748266E+03  0.10464533707E+04  0.13607971723E+04  0.17263926461E+04  0.50400001928E-02 0.  1.
       -1    1    3    3    0  502  0.18329748266E+03 -0.10464533707E+04 -0.12723047063E+03  0.10699767366E+04  0.50400001928E-02 0. -1.
</event>
<event>
 5   0  0.1039688E-05  0.2518277E+04  0.7818609E-02  0.8396503E-01
       -1   -1    0    0    0  501  0.00000000000E+00  0.00000000000E+00  0.11294563805E+04  0.11294563805E+04  0.50400001928E-02 0. -1.
        1   -1    0    0  501    0  0.00000000000E+00  0.00000000000E+00 -0.14037104163E+04  0.14037104164E+04  0.50400001928E-02 0.  1.
    10030    2    1    2    0    0  0.00000000000E+00  0.00000000000E+00 -0.27425403585E+03  0.25331667969E+04  0.25182769396E+04 0.  0.
        3    1    3    3  502    0  0.51671058179E+03  0.47120396024E+03  0.91615855232E+03  0.11525491316E+04  0.10100000352E+00 0. -1.
       -3    1    3    3    0  502 -0.51671058179E+03 -0.47120396024E+03 -0.11904125882E+04  0.13806176653E+04  0.10100000352E+00 0.  1.
</event>
<event>
 5   0  0.1039688E-05  0.2495011E+04  0.7818609E-02  0.8404765E-01
        1   -1    0    0  501    0  0.00000000000E+00  0.00000000000E+00  0.18801789122E+04  0.18801789122E+04  0.50400001928E-02 0.  1.
       -1   -1    0    0    0  501  0.00000000000E+00  0.00000000000E+00 -0.82772457164E+03  0.82772457166E+03  0.50400001928E-02 0. -1.
    10030    2    1    2    0    0  0.00000000000E+00  0.00000000000E+00  0.10524543406E+04  0.27079034839E+04  0.24950112503E+04 0.  0.
        3    1    3    3  502    0 -0.10081107225E+03  0.65775162125E+03 -0.61902196710E+03  0.90883897006E+03  0.10100000352E+00 0. -1.
       -3    1    3    3    0  502  0.10081107225E+03 -0.65775162125E+03  0.16714763077E+04  0.17990645138E+04  0.10100000352E+00 0.  1.
</event>
<event>
 5   0  0.1008073E-05  0.2499317E+04  0.7818609E-02  0.8403229E-01
       -1   -1    0    0    0  501  0.00000000000E+00  0.00000000000E+00  0.13179157235E+04  0.13179157235E+04  0.50400001928E-02 0. -1.
        1   -1    0    0  501    0  0.00000000000E+00  0.00000000000E+00 -0.11849366441E+04  0.11849366441E+04  0.50400001928E-02 0.  1.
    10030    2    1    2    0    0  0.00000000000E+00  0.00000000000E+00  0.13297907934E+03  0.25028523676E+04  0.24993172145E+04 0.  0.
        1    1    3    3  502    0 -0.77917023993E+03 -0.40233712886E+03 -0.82508724287E+03  0.12040558070E+04  0.50400001928E-02 0.  1.
       -1    1    3    3    0  502  0.77917023993E+03  0.40233712886E+03  0.95806632221E+03  0.12987965606E+04  0.50400001928E-02 0. -1.
</event>
<event>
 5   0  0.2441340E-05  0.2670492E+04  0.7818609E-02  0.8344643E-01
       -2   -1    0    0    0  501  0.00000000000E+00  0.00000000000E+00  0.95628433689E+03  0.95628433689E+03  0.25500000920E-02 0.  1.
        2   -1    0    0  501    0  0.00000000000E+00  0.00000000000E+00 -0.18643853145E+04  0.18643853145E+04  0.25500000920E-02 0. -1.
    10030    2    1    2    0    0  0.00000000000E+00  0.00000000000E+00 -0.90810097761E+03  0.28206696514E+04  0.26704924446E+04 0.  0.
        3    1    3    3  502    0 -0.12551772797E+03  0.13015178332E+04 -0.16832144623E+03  0.13183457398E+04  0.10100000352E+00 0.  1.
       -3    1    3    3    0  502  0.12551772797E+03 -0.13015178332E+04 -0.73977953138E+03  0.15023239116E+04  0.10100000352E+00 0. -1.
</event>
<event>
 5   0  0.2441340E-05  0.2487799E+04  0.7818609E-02  0.8407345E-01
       -2   -1    0    0    0  501  0.00000000000E+00  0.00000000000E+00  0.63473258851E+03  0.63473258852E+03  0.25500000920E-02 0.  1.
        2   -1    0    0  501    0  0.00000000000E+00  0.00000000000E+00 -0.24376978805E+04  0.24376978805E+04  0.25500000920E-02 0. -1.
    10030    2    1    2    0    0  0.00000000000E+00  0.00000000000E+00 -0.18029652920E+04  0.30724304690E+04  0.24877992569E+04 0.  0.
        3    1    3    3  502    0 -0.64039569720E+03 -0.82611897456E+03 -0.17342670460E+04  0.20249102218E+04  0.10100000352E+00 0. -1.
       -3    1    3    3    0  502  0.64039569720E+03  0.82611897456E+03 -0.68698245934E+02  0.10475202472E+04  0.10100000352E+00 0.  1.
</event>
<event>
 5   0  0.2345143E-05  0.2547322E+04  0.7818609E-02  0.8386318E-01
       -2   -1    0    0    0  501  0.00000000000E+00  0.00000000000E+00  0.12765694519E+04  0.12765694519E+04  0.25500000920E-02 0.  1.
        2   -1    0    0  501    0  0.00000000000E+00  0.00000000000E+00 -0.12707595068E+04  0.12707595068E+04  0.25500000920E-02 0. -1.
    10030    2    1    2    0    0  0.00000000000E+00  0.00000000000E+00  0.58099450298E+01  0.25473289587E+04  0.25473223330E+04 0.  0.
        5    1    3    3  502    0 -0.80771765576E+02  0.12710887001E+04  0.25651833996E+01  0.12736637044E+04  0.46999998093E+01 0.  1.
       -5    1    3    3    0  502  0.80771765576E+02 -0.12710887001E+04  0.32447616301E+01  0.12736652543E+04  0.46999998093E+01 0. -1.
</event>
<event>
 5   0  0.1015327E-05  0.2503854E+04  0.7818609E-02  0.8401614E-01
       -1   -1    0    0    0  501  0.00000000000E+00  0.00000000000E+00  0.97772904341E+03  0.97772904343E+03  0.50400001928E-02 0.  1.
        1   -1    0    0  501    0  0.00000000000E+00  0.00000000000E+00 -0.16030223915E+04  0.16030223916E+04  0.50400001928E-02 0. -1.
    10030    2    1    2    0    0  0.00000000000E+00  0.00000000000E+00 -0.62529334813E+03  0.25807514350E+04  0.25038542685E+04 0.  0.
        4    1    3    3  502    0 -0.48734427016E+03  0.69532666718E+03  0.63557225333E+03  0.10606306208E+04  0.12699999809E+01 0.  1.
       -4    1    3    3    0  502  0.48734427016E+03 -0.69532666718E+03 -0.12608656015E+04  0.15201208141E+04  0.12699999809E+01 0. -1.
</event>
<event>
 5   0  0.1008073E-05  0.2058078E+04  0.7818609E-02  0.8579939E-01
       -1   -1    0    0    0  501  0.00000000000E+00  0.00000000000E+00  0.58517644554E+03  0.58517644556E+03  0.50400001928E-02 0.  1.
        1   -1    0    0  501    0  0.00000000000E+00  0.00000000000E+00 -0.18095761451E+04  0.18095761451E+04  0.50400001928E-02 0. -1.
    10030    2    1    2    0    0  0.00000000000E+00  0.00000000000E+00 -0.12243996996E+04  0.23947525907E+04  0.20580780710E+04 0.  0.
        1    1    3    3  502    0 -0.44363800617E+03  0.70806126109E+02  0.46504101095E+03  0.64659982207E+03  0.50400001928E-02 0.  1.
       -1    1    3    3    0  502  0.44363800617E+03 -0.70806126109E+02 -0.16894407105E+04  0.17481527686E+04  0.50400001928E-02 0. -1.
</event>
<event>
 5   0  0.2388326E-05  0.2489896E+04  0.7818609E-02  0.8406594E-01
        2   -1    0    0  501    0  0.00000000000E+00  0.00000000000E+00  0.13845070827E+04  0.13845070827E+04  0.25500000920E-02 0. -1.
       -2   -1    0    0    0  501  0.00000000000E+00  0.00000000000E+00 -0.11194563006E+04  0.11194563006E+04  0.25500000920E-02 0.  1.
    10030    2    1    2    0    0  0.00000000000E+00  0.00000000000E+00  0.26505078211E+03  0.25039633834E+04  0.24898957223E+04 0.  0.
        2    1    3    3  502    0  0.23292360071E+03 -0.30030195487E+03 -0.10596938820E+04  0.11257823020E+04  0.25500000920E-02 0.  1.
       -2    1    3    3    0  502 -0.23292360071E+03  0.30030195487E+03  0.13247446641E+04  0.13781810814E+04  0.25500000920E-02 0. -1.
</event>
<event>
 5   0  0.2441340E-05  0.2513803E+04  0.7818609E-02  0.8398084E-01
        2   -1    0    0  501    0  0.00000000000E+00  0.00000000000E+00  0.95821622177E+03  0.95821622178E+03  0.25500000920E-02 0. -1.
       -2   -1    0    0    0  501  0.00000000000E+00  0.00000000000E+00 -0.16486905266E+04  0.16486905266E+04  0.25500000920E-02 0.  1.
    10030    2    1    2    0    0  0.00000000000E+00  0.00000000000E+00 -0.69047430481E+03  0.26069067484E+04  0.25138034985E+04 0.  0.
        3    1    3    3  502    0  0.10124356406E+04  0.43770033245E+03 -0.97021380769E+03  0.14689868448E+04  0.10100000352E+00 0.  1.
       -3    1    3    3    0  502 -0.10124356406E+04 -0.43770033245E+03  0.27973950288E+03  0.11379199036E+04  0.10100000352E+00 0. -1.
</event>
<event>
 5   0  0.1008073E-05  0.2559836E+04  0.7818609E-02  0.8381974E-01
       -1   -1    0    0    0  501  0.00000000000E+00  0.00000000000E+00  0.79352743721E+03  0.79352743722E+03  0.50400001928E-02 0.  1.
        1   -1    0    0  501    0  0.00000000000E+00  0.00000000000E+00 -0.20644397755E+04  0.20644397755E+04  0.50400001928E-02 0. -1.
    10030    2    1    2    0    0  0.00000000000E+00  0.00000000000E+00 -0.12709123382E+04  0.28579672127E+04  0.25598356231E+04 0.  0.
        1    1    3    3  502    0  0.18047400524E+03  0.12650247789E+04 -0.55393856623E+03  0.13927334608E+04  0.50400001928E-02 0. -1.
       -1    1    3    3    0  502 -0.18047400524E+03 -0.12650247789E+04 -0.71697377202E+03  0.14652337518E+04  0.50400001928E-02 0.  1.
</event>
<event>
 5   0  0.2345143E-05  0.2184424E+04  0.7818609E-02  0.8524939E-01
        2   -1    0    0  501    0  0.00000000000E+00  0.00000000000E+00  0.88924673190E+03  0.88924673190E+03  0.25500000920E-02 0. -1.
       -2   -1    0    0    0  501  0.00000000000E+00  0.00000000000E+00 -0.13415032774E+04  0.13415032774E+04  0.25500000920E-02 0.  1.
    10030    2    1    2    0    0  0.00000000000E+00  0.00000000000E+00 -0.45225654553E+03  0.22307500093E+04  0.21844243226E+04 0.  0.
        5    1    3    3  502    0  0.27843536871E+03 -0.94097332401E+03  0.26357044599E+03  0.10160947402E+04  0.46999998093E+01 0. -1.
       -5    1    3    3    0  502 -0.27843536871E+03  0.94097332401E+03 -0.71582699151E+03  0.12146552691E+04  0.46999998093E+01 0.  1.
</event>
<event>
 5   0  0.1008073E-05  0.2450158E+04  0.7818609E-02  0.8420960E-01
        1   -1    0    0  501    0  0.00000000000E+00  0.00000000000E+00  0.88153314818E+03  0.88153314820E+03  0.50400001928E-02 0.  1.
       -1   -1    0    0    0  501  0.00000000000E+00  0.00000000000E+00 -0.17025093249E+04  0.17025093249E+04  0.50400001928E-02 0. -1.
    10030    2    1    2    0    0  0.00000000000E+00  0.00000000000E+00 -0.82097617672E+03  0.25840424731E+04  0.24501578766E+04 0.  0.
        1    1    3    3  502    0  0.83721303290E+03  0.77843868515E+03 -0.87492160001E+03  0.14395764152E+04  0.50400001928E-02 0. -1.
       -1    1    3    3    0  502 -0.83721303290E+03 -0.77843868515E+03  0.53945423284E+02  0.11444660579E+04  0.50400001928E-02 0.  1.
</event>
<event>
 5   0  0.1002753E-05  0.2538738E+04  0.7818609E-02  0.8389314E-01
       -1   -1    0    0    0  501  0.00000000000E+00  0.00000000000E+00  0.93945248596E+03  0.93945248598E+03  0.50400001928E-02 0. -1.
        1   -1    0    0  501    0  0.00000000000E+00  0.00000000000E+00 -0.17151452626E+04  0.17151452626E+04  0.50400001928E-02 0.  1.
    10030    2    1    2    0    0  0.00000000000E+00  0.00000000000E+00 -0.77569277664E+03  0.26545977486E+04  0.25387378603E+04 0.  0.
        5    1    3    3  502    0  0.14674326934E+03  0.10688345608E+04 -0.10872003699E+04  0.15316551961E+04  0.46999998093E+01 0.  1.
       -5    1    3    3    0  502 -0.14674326934E+03 -0.10688345608E+04  0.31150759326E+03  0.11229425525E+04  0.46999998093E+01 0. -1.
</event>
<event>
 5   0  0.2388326E-05  0.2271486E+04  0.7818609E-02  0.8489249E-01
        2   -1    0    0  501    0  0.00000000000E+00  0.00000000000E+00  0.90706705304E+03  0.90706705304E+03  0.25500000920E-02 0. -1.
       -2   -1    0    0    0  501  0.00000000000E+00  0.00000000000E+00 -0.14220691145E+04  0.14220691145E+04  0.25500000920E-02 0.  1.
    10030    2    1    2    0    0  0.00000000000E+00  0.00000000000E+00 -0.51500206147E+03  0.23291361676E+04  0.22714858934E+04 0.  0.
        2    1    3    3  502    0  0.12966034829E+03  0.58310817379E+03 -0.12479804610E+04  0.13835758668E+04  0.25500000920E-02 0.  1.
       -2    1    3    3    0  502 -0.12966034829E+03 -0.58310817379E+03  0.73297839948E+03  0.94556030076E+03  0.25500000920E-02 0. -1.
</event>
<event>
 5   0  0.1008073E-05  0.2451196E+04  0.7818609E-02  0.8420582E-01
       -1   -1    0    0    0  501  0.00000000000E+00  0.00000000000E+00  0.95775978406E+03  0.95775978407E+03  0.50400001928E-02 0.  1.
        1   -1    0    0  501    0  0.00000000000E+00  0.00000000000E+00 -0.15683369246E+04  0.15683369246E+04  0.50400001928E-02 0. -1.
    10030    2    1    2    0    0  0.00000000000E+00  0.00000000000E+00 -0.61057714051E+03  0.25260967087E+04  0.24511956546E+04 0.  0.
        1    1    3    3  502    0  0.32796255307E+03 -0.61477446527E+03  0.73377808178E+03  0.10118978964E+04  0.50400001928E-02 0.  1.
       -1    1    3    3    0  502 -0.32796255307E+03  0.61477446527E+03 -0.13443552223E+04  0.15141988123E+04  0.50400001928E-02 0. -1.
</event>
<event>
 5   0  0.1010338E-05  0.2516540E+04  0.7818609E-02  0.8397117E-01
       -1   -1    0    0    0  501  0.00000000000E+00  0.00000000000E+00  0.17397552964E+04  0.17397552964E+04  0.50400001928E-02 0. -1.
        1   -1    0    0  501    0  0.00000000000E+00  0.00000000000E+00 -0.91003811811E+03  0.91003811812E+03  0.50400001928E-02 0.  1.
    10030    2    1    2    0    0  0.00000000000E+00  0.00000000000E+00  0.82971717834E+03  0.26497934146E+04  0.25165401932E+04 0.  0.
        2    1    3    3  502    0 -0.37864294121E+03 -0.10355367458E+04 -0.22349097226E+03  0.11250133526E+04  0.25500000920E-02 0.  1.
       -2    1    3    3    0  502  0.37864294121E+03  0.10355367458E+04  0.10532081506E+04  0.15247800620E+04  0.25500000920E-02 0. -1.
</event>
<event>
 5   0  0.2345143E-05  0.2306553E+04  0.7818609E-02  0.8475342E-01
        2   -1    0    0  501    0  0.00000000000E+00  0.00000000000E+00  0.19616798119E+04  0.19616798119E+04  0.25500000920E-02 0. -1.
       -2   -1    0    0    0  501  0.00000000000E+00  0.00000000000E+00 -0.67801405705E+03  0.67801405706E+03  0.25500000920E-02 0.  1.
    10030    2    1    2    0    0  0.00000000000E+00  0.00000000000E+00  0.12836657549E+04  0.26396938690E+04  0.23065528287E+04 0.  0.
        5    1    3    3  502    0 -0.11224643306E+04  0.19040121284E+03  0.85237610841E+03  0.14222327220E+04  0.46999998093E+01 0.  1.
       -5    1    3    3    0  502  0.11224643306E+04 -0.19040121284E+03  0.43128964648E+03  0.12174611470E+04  0.46999998093E+01 0. -1.
</event>
<event>
 5   0  0.2432309E-05  0.2507662E+04  0.7818609E-02  0.8400261E-01
        2   -1    0    0  501    0  0.00000000000E+00  0.00000000000E+00  0.16033693439E+04  0.16033693439E+04  0.25500000920E-02 0.  1.
       -2   -1    0    0    0  501  0.00000000000E+00  0.00000000000E+00 -0.98049297192E+03  0.98049297193E+03  0.25500000920E-02 0. -1.
    10030    2    1    2    0    0  0.00000000000E+00  0.00000000000E+00  0.62287637194E+03  0.25838623158E+04  0.25076621567E+04 0.  0.
        4    1    3    3  502    0  0.37693158835E+03 -0.11842982700E+04  0.48215606074E+03  0.13330851040E+04  0.12699999809E+01 0.  1.
       -4    1    3    3    0  502 -0.37693158835E+03  0.11842982700E+04  0.14072031121E+03  0.12507772118E+04  0.12699999809E+01 0. -1.
</event>
<event>
 5   0  0.1010338E-05  0.2612742E+04  0.7818609E-02  0.8363886E-01
       -1   -1    0    0    0  501  0.00000000000E+00  0.00000000000E+00  0.81849534857E+03  0.81849534858E+03  0.50400001928E-02 0. -1.
        1   -1    0    0  501    0  0.00000000000E+00  0.00000000000E+00 -0.20850525429E+04  0.20850525429E+04  0.50400001928E-02 0.  1.
    10030    2    1    2    0    0  0.00000000000E+00  0.00000000000E+00 -0.12665571943E+04  0.29035478915E+04  0.26127424733E+04 0.  0.
        2    1    3    3  502    0 -0.11387846213E+04  0.57808273809E+03 -0.32772946393E+03  0.13184902985E+04  0.25500000920E-02 0.  1.
       -2    1    3    3    0  502  0.11387846213E+04 -0.57808273809E+03 -0.93882773041E+03  0.15850575930E+04  0.25500000920E-02 0. -1.
</event>
<event>
 5   0  0.1039688E-05  0.2486717E+04  0.7818609E-02  0.8407733E-01
       -1   -1    0    0    0  501  0.00000000000E+00  0.00000000000E+00  0.12839119914E+04  0.12839119914E+04  0.50400001928E-02 0.  1.
        1   -1    0    0  501    0  0.00000000000E+00  0.00000000000E+00 -0.12040863106E+04  0.12040863106E+04  0.50400001928E-02 0. -1.
    10030    2    1    2    0    0  0.00000000000E+00  0.00000000000E+00  0.79825680827E+02  0.24879983021E+04  0.24867173968E+04 0.  0.
        3    1    3    3  502    0 -0.64846510214E+03  0.55413160590E+03  0.94501798317E+03  0.12730388148E+04  0.10100000352E+00 0.  1.
       -3    1    3    3    0  502  0.64846510214E+03 -0.55413160590E+03 -0.86519230234E+03  0.12149594872E+04  0.10100000352E+00 0. -1.
</event>
<event>
 5   0  0.1010338E-05  0.2493555E+04  0.7818609E-02  0.8405285E-01
       -1   -1    0    0    0  501  0.00000000000E+00  0.00000000000E+00  0.53741869527E+03  0.53741869530E+03  0.50400001928E-02 0. -1.
        1   -1    0    0  501    0  0.00000000000E+00  0.00000000000E+00 -0.28924455099E+04  0.28924455099E+04  0.50400001928E-02 0.  1.
    10030    2    1    2    0    0  0.00000000000E+00  0.00000000000E+00 -0.23550268146E+04  0.34298642052E+04  0.24935551264E+04 0.  0.
        2    1    3    3  502    0 -0.99169210146E+03  0.75462116485E+03 -0.12316310166E+04  0.17520905477E+04  0.25500000920E-02 0.  1.
       -2    1    3    3    0  502  0.99169210146E+03 -0.75462116485E+03 -0.11233957981E+04  0.16777736574E+04  0.25500000920E-02 0. -1.
</event>
<event>
 5   0  0.2441340E-05  0.2503330E+04  0.7818609E-02  0.8401800E-01
        2   -1    0    0  501    0  0.00000000000E+00  0.00000000000E+00  0.18684657061E+04  0.18684657061E+04  0.25500000920E-02 0.  1.
       -2   -1    0    0    0  501  0.00000000000E+00  0.00000000000E+00 -0.83847708200E+03  0.83847708200E+03  0.25500000920E-02 0. -1.
    10030    2    1    2    0    0  0.00000000000E+00  0.00000000000E+00  0.10299886241E+04  0.27069427881E+04  0.25033303202E+04 0.  0.
        3    1    3    3  502    0  0.28734334428E+03  0.10884197701E+03 -0.79706094310E+03  0.85423587532E+03  0.10100000352E+00 0. -1.
       -3    1    3    3    0  502 -0.28734334428E+03 -0.10884197701E+03  0.18270495672E+04  0.18527069128E+04  0.10100000352E+00 0.  1.
</event>
<event>
 5   0  0.8166500E-06  0.2504411E+04  0.7818609E-02  0.8401416E-01
       -3   -1    0    0    0  501  0.00000000000E+00  0.00000000000E+00  0.22701480857E+04  0.22701480880E+04  0.10100000352E+00 0. -1.
        3   -1    0    0  501    0  0.00000000000E+00  0.00000000000E+00 -0.69071206726E+03  0.69071207464E+03  0.10100000352E+00 0.  1.
    10030    2    1    2    0    0  0.00000000000E+00  0.00000000000E+00  0.15794360185E+04  0.29608601626E+04  0.25044110617E+04 0.  0.
        3    1    3    3  502    0  0.83346202918E+03  0.91195812576E+03  0.54831693960E+03  0.13516575209E+04  0.10100000352E+00 0.  1.
       -3    1    3    3    0  502 -0.83346202918E+03 -0.91195812576E+03  0.10311190789E+04  0.16092026418E+04  0.10100000352E+00 0. -1.
</event>
<event>
 5   0  0.1015327E-05  0.2510547E+04  0.7818609E-02  0.8399238E-01
       -1   -1    0    0    0  501  0.00000000000E+00  0.00000000000E+00  0.10714934765E+04  0.10714934765E+04  0.50400001928E-02 0.  1.
        1   -1    0    0  501    0  0.00000000000E+00  0.00000000000E+00 -0.14705750442E+04  0.14705750442E+04  0.50400001928E-02 0. -1.
    10030    2    1    2    0    0  0.00000000000E+00  0.00000000000E+00 -0.39908156769E+03  0.25420685207E+04  0.25105470054E+04 0.  0.
        4    1    3    3  502    0 -0.35081455182E+03 -0.66556207984E+03  0.81789687691E+03  0.11113058292E+04  0.12699999809E+01 0.  1.
       -4    1    3    3    0  502  0.35081455182E+03  0.66556207984E+03 -0.12169784446E+04  0.14307626915E+04  0.12699999809E+01 0. -1.
</event>
<event>
 5   0  0.1039688E-05  0.2487077E+04  0.7818609E-02  0.8407604E-01
        1   -1    0    0  501    0  0.00000000000E+00  0.00000000000E+00  0.11102248391E+04  0.11102248391E+04  0.50400001928E-02 0. -1.
       -1   -1    0    0    0  501  0.00000000000E+00  0.00000000000E+00 -0.13928606665E+04  0.13928606665E+04  0.50400001928E-02 0.  1.
    10030    2    1    2    0    0  0.00000000000E+00  0.00000000000E+00 -0.28263582746E+03  0.25030855056E+04  0.24870774088E+04 0.  0.
        3    1    3    3  502    0 -0.10868945663E+04  0.60327087638E+03 -0.10774227349E+03  0.12477515603E+04  0.10100000352E+00 0. -1.
       -3    1    3    3    0  502  0.10868945663E+04 -0.60327087638E+03 -0.17489355397E+03  0.12553339452E+04  0.10100000352E+00 0.  1.
</event>
<event>
 5   0  0.2452457E-05  0.2490515E+04  0.7818609E-02  0.8406373E-01
        2   -1    0    0  501    0  0.00000000000E+00  0.00000000000E+00  0.99070401382E+03  0.99070401383E+03  0.25500000920E-02 0.  1.
       -2   -1    0    0    0  501  0.00000000000E+00  0.00000000000E+00 -0.15652159676E+04  0.15652159676E+04  0.25500000920E-02 0. -1.
    10030    2    1    2    0    0  0.00000000000E+00  0.00000000000E+00 -0.57451195374E+03  0.25559199814E+04  0.24905145987E+04 0.  0.
        1    1    3    3  502    0  0.56081610639E+02  0.12430964687E+04 -0.33573817487E+03  0.12888576724E+04  0.50400001928E-02 0.  1.
       -1    1    3    3    0  502 -0.56081610639E+02 -0.12430964687E+04 -0.23877377887E+03  0.12670623090E+04  0.50400001928E-02 0. -1.
</event>
<event>
 5   0  0.1008073E-05  0.2471657E+04  0.7818609E-02  0.8413153E-01
        1   -1    0    0  501    0  0.00000000000E+00  0.00000000000E+00  0.19725009925E+04  0.19725009925E+04  0.50400001928E-02 0.  1.
       -1   -1    0    0    0  501  0.00000000000E+00  0.00000000000E+00 -0.77428175697E+03  0.77428175698E+03  0.50400001928E-02 0. -1.
    10030    2    1    2    0    0  0.00000000000E+00  0.00000000000E+00  0.11982192356E+04  0.27467827495E+04  0.24716565572E+04 0.  0.
        1    1    3    3  502    0  0.80758542624E+03 -0.76770583916E+02 -0.43696717582E+03  0.92142729284E+03  0.50400001928E-02 0. -1.
       -1    1    3    3    0  502 -0.80758542624E+03  0.76770583916E+02  0.16351864114E+04  0.18253554567E+04  0.50400001928E-02 0.  1.
</event>
<event>
 5   0  0.2441340E-05  0.2241610E+04  0.7818609E-02  0.8501306E-01
       -2   -1    0    0    0  501  0.00000000000E+00  0.00000000000E+00  0.90646611981E+03  0.90646611981E+03  0.25500000920E-02 0.  1.
        2   -1    0    0  501    0  0.00000000000E+00  0.00000000000E+00 -0.13858260311E+04  0.13858260311E+04  0.25500000920E-02 0. -1.
    10030    2    1    2    0    0  0.00000000000E+00  0.00000000000E+00 -0.47935991124E+03  0.22922921509E+04  0.22416104435E+04 0.  0.
        3    1    3    3  502    0 -0.48928365560E+03  0.75461193761E+03  0.44429726016E+03  0.10031140202E+04  0.10100000352E+00 0.  1.
       -3    1    3    3    0  502  0.48928365560E+03 -0.75461193761E+03 -0.92365717140E+03  0.12891781306E+04  0.10100000352E+00 0. -1.
</event>
<event>
 5   0  0.2441340E-05  0.2469468E+04  0.7818609E-02  0.8413944E-01
        2   -1    0    0  501    0  0.00000000000E+00  0.00000000000E+00  0.14586483444E+04  0.14586483444E+04  0.25500000920E-02 0.  1.
       -2   -1    0    0    0  501  0.00000000000E+00  0.00000000000E+00 -0.10451919835E+04  0.10451919835E+04  0.25500000920E-02 0. -1.
    10030    2    1    2    0    0  0.00000000000E+00  0.00000000000E+00  0.41345636093E+03  0.25038403279E+04  0.24694675995E+04 0.  0.
        3    1    3    3  502    0  0.70223391544E+03 -0.28008309825E+03 -0.78307110272E+03  0.10884757122E+04  0.10100000352E+00 0. -1.
       -3    1    3    3    0  502 -0.70223391544E+03  0.28008309825E+03  0.11965274636E+04  0.14153646157E+04  0.10100000352E+00 0.  1.
</event>
<event>
 5   0  0.2432309E-05  0.2509159E+04  0.7818609E-02  0.8399730E-01
       -2   -1    0    0    0  501  0.00000000000E+00  0.00000000000E+00  0.76025428367E+03  0.76025428368E+03  0.25500000920E-02 0.  1.
        2   -1    0    0  501    0  0.00000000000E+00  0.00000000000E+00 -0.20703195810E+04  0.20703195810E+04  0.25500000920E-02 0. -1.
    10030    2    1    2    0    0  0.00000000000E+00  0.00000000000E+00 -0.13100652973E+04  0.28305738646E+04  0.25091586877E+04 0.  0.
        4    1    3    3  502    0  0.18325230609E+03 -0.80309611159E+03 -0.17225144342E+04  0.19093460559E+04  0.12699999809E+01 0. -1.
       -4    1    3    3    0  502 -0.18325230609E+03  0.80309611159E+03  0.41244913694E+03  0.92122780874E+03  0.12699999809E+01 0.  1.
</event>
<event>
 5   0  0.1002753E-05  0.2523472E+04  0.7818609E-02  0.8394671E-01
        1   -1    0    0  501    0  0.00000000000E+00  0.00000000000E+00  0.10800782833E+04  0.10800782833E+04  0.50400001928E-02 0.  1.
       -1   -1    0    0    0  501  0.00000000000E+00  0.00000000000E+00 -0.14739468447E+04  0.14739468448E+04  0.50400001928E-02 0. -1.
    10030    2    1    2    0    0  0.00000000000E+00  0.00000000000E+00 -0.39386856146E+03  0.25540251281E+04  0.25234721934E+04 0.  0.
        5    1    3    3  502    0 -0.20276560890E+03 -0.11330189509E+04  0.32615010776E+03  0.11963451918E+04  0.46999998093E+01 0. -1.
       -5    1    3    3    0  502  0.20276560890E+03  0.11330189509E+04 -0.72001866921E+03  0.13576799362E+04  0.46999998093E+01 0.  1.
</event>
<event>
 5   0  0.2432309E-05  0.2510307E+04  0.7818609E-02  0.8399323E-01
       -2   -1    0    0    0  501  0.00000000000E+00  0.00000000000E+00  0.88333882579E+03  0.88333882579E+03  0.25500000920E-02 0. -1.
        2   -1    0    0  501    0  0.00000000000E+00  0.00000000000E+00 -0.17834720736E+04  0.17834720736E+04  0.25500000920E-02 0.  1.
    10030    2    1    2    0    0  0.00000000000E+00  0.00000000000E+00 -0.90013324781E+03  0.26668108994E+04  0.25103068556E+04 0.  0.
        4    1    3    3  502    0 -0.68644445083E+03 -0.40389163602E+03  0.58050294539E+03  0.98555553889E+03  0.12699999809E+01 0. -1.
       -4    1    3    3    0  502  0.68644445083E+03  0.40389163602E+03 -0.14806361932E+04  0.16812553605E+04  0.12699999809E+01 0.  1.
</event>
<event>
 5   0  0.1002753E-05  0.2451498E+04  0.7818609E-02  0.8420471E-01
        1   -1    0    0  501    0  0.00000000000E+00  0.00000000000E+00  0.14977575588E+04  0.14977575588E+04  0.50400001928E-02 0.  1.
       -1   -1    0    0    0  501  0.00000000000E+00  0.00000000000E+00 -0.10031397509E+04  0.10031397509E+04  0.50400001928E-02 0. -1.
    10030    2    1    2    0    0  0.00000000000E+00  0.00000000000E+00  0.49461780790E+03  0.25008973096E+04  0.24514976193E+04 0.  0.
        5    1    3    3  502    0  0.72363584437E+03  0.23955372914E+03  0.12265491372E+04  0.14441190049E+04  0.46999998093E+01 0.  1.
       -5    1    3    3    0  502 -0.72363584437E+03 -0.23955372914E+03 -0.73193132933E+03  0.10567783047E+04  0.46999998093E+01 0. -1.
</event>
<event>
 5   0  0.2452457E-05  0.2511738E+04  0.7818609E-02  0.8398816E-01
        2   -1    0    0  501    0  0.00000000000E+00  0.00000000000E+00  0.13699239689E+04  0.13699239689E+04  0.25500000920E-02 0.  1.
       -2   -1    0    0    0  501  0.00000000000E+00  0.00000000000E+00 -0.11513102522E+04  0.11513102522E+04  0.25500000920E-02 0. -1.
    10030    2    1    2    0    0  0.00000000000E+00  0.00000000000E+00  0.21861371676E+03  0.25212342211E+04  0.25117384499E+04 0.  0.
        1    1    3    3  502    0  0.55034414315E+03 -0.71164243814E+03 -0.77030156775E+03  0.11843471370E+04  0.50400001928E-02 0. -1.
       -1    1    3    3    0  502 -0.55034414315E+03  0.71164243814E+03  0.98891528451E+03  0.13368870841E+04  0.50400001928E-02 0.  1.
</event>
<event>
 5   0  0.1010338E-05  0.2585760E+04  0.7818609E-02  0.8373054E-01
        1   -1    0    0  501    0  0.00000000000E+00  0.00000000000E+00  0.16213219694E+04  0.16213219694E+04  0.50400001928E-02 0.  1.
       -1   -1    0    0    0  501  0.00000000000E+00  0.00000000000E+00 -0.10309724150E+04  0.10309724150E+04  0.50400001928E-02 0. -1.
    10030    2    1    2    0    0  0.00000000000E+00  0.00000000000E+00  0.59034955435E+03  0.26522943844E+04  0.25857596380E+04 0.  0.
        2    1    3    3  502    0  0.60176808047E+03 -0.82962127918E+03  0.11035797933E+04  0.15060825507E+04  0.25500000920E-02 0.  1.
       -2    1    3    3    0  502 -0.60176808047E+03  0.82962127918E+03 -0.51323023890E+03  0.11462118337E+04  0.25500000920E-02 0. -1.
</event>
<event>
 5   0  0.2345143E-05  0.2456695E+04  0.7818609E-02  0.8418578E-01
        2   -1    0    0  501    0  0.00000000000E+00  0.00000000000E+00  0.22773291919E+04  0.22773291919E+04  0.25500000920E-02 0. -1.
       -2   -1    0    0    0  501  0.00000000000E+00  0.00000000000E+00 -0.66254695157E+03  0.66254695157E+03  0.25500000920E-02 0.  1.
    10030    2    1    2    0    0  0.00000000000E+00  0.00000000000E+00  0.16147822403E+04  0.29398761435E+04  0.24566949455E+04 0.  0.
        5    1    3    3  502    0 -0.57437861815E+03 -0.68059964963E+03 -0.20498034392E+03  0.91387401290E+03  0.46999998093E+01 0.  1.
       -5    1    3    3    0  502  0.57437861815E+03  0.68059964963E+03  0.18197625843E+04  0.20260021306E+04  0.46999998093E+01 0. -1.
</event>
<event>
 5   0  0.1039688E-05  0.2697093E+04  0.7818609E-02  0.8335949E-01
       -1   -1    0    0    0  501  0.00000000000E+00  0.00000000000E+00  0.20708234284E+04  0.20708234284E+04  0.50400001928E-02 0.  1.
        1   -1    0    0  501    0  0.00000000000E+00  0.00000000000E+00 -0.87819045180E+03  0.87819045182E+03  0.50400001928E-02 0. -1.
    10030    2    1    2    0    0  0.00000000000E+00  0.00000000000E+00  0.11926329766E+04  0.29490138803E+04  0.26970927772E+04 0.  0.
        3    1    3    3  502    0 -0.92400950722E+02 -0.24092492133E+03 -0.85094602127E+03  0.88920857774E+03  0.10100000352E+00 0. -1.
       -3    1    3    3    0  502  0.92400950722E+02  0.24092492133E+03  0.20435789979E+04  0.20598053025E+04  0.10100000352E+00 0.  1.
</event>
<event>
 5   0  0.1039688E-05  0.2517381E+04  0.7818609E-02  0.8396819E-01
        1   -1    0    0  501    0  0.00000000000E+00  0.00000000000E+00  0.16753047194E+04  0.16753047194E+04  0.50400001928E-02 0. -1.
       -1   -1    0    0    0  501  0.00000000000E+00  0.00000000000E+00 -0.94568008729E+03  0.94568008731E+03  0.50400001928E-02 0.  1.
    10030    2    1    2    0    0  0.00000000000E+00  0.00000000000E+00  0.72962463207E+03  0.26209848067E+04  0.25173814278E+04 0.  0.
        3    1    3    3  502    0  0.11689180424E+04 -0.22347759800E+02 -0.12067590661E+03  0.11753431400E+04  0.10100000352E+00 0.  1.
       -3    1    3    3    0  502 -0.11689180424E+04  0.22347759800E+02  0.85030053868E+03  0.14456416667E+04  0.10100000352E+00 0. -1.
</event>
<event>
 5   0  0.1039688E-05  0.2482132E+04  0.7818609E-02  0.8409379E-01
        1   -1    0    0  501    0  0.00000000000E+00  0.00000000000E+00  0.11193116837E+04  0.11193116838E+04  0.50400001928E-02 0.  1.
       -1   -1    0    0    0  501  0.00000000000E+00  0.00000000000E+00 -0.13760640152E+04  0.13760640152E+04  0.50400001928E-02 0. -1.
    10030    2    1    2    0    0  0.00000000000E+00  0.00000000000E+00 -0.25675233141E+03  0.24953756989E+04  0.24821317691E+04 0.  0.
        3    1    3    3  502    0 -0.29689894963E+03 -0.10359429190E+04  0.49047129449E+03  0.11840138591E+04  0.10100000352E+00 0.  1.
       -3    1    3    3    0  502  0.29689894963E+03  0.10359429190E+04 -0.74722362589E+03  0.13113618398E+04  0.10100000352E+00 0. -1.
</event>
<event>
 5   0  0.1010338E-05  0.2492438E+04  0.7818609E-02  0.8405685E-01
        1   -1    0    0  501    0  0.00000000000E+00  0.00000000000E+00  0.19234849830E+04  0.19234849830E+04  0.50400001928E-02 0. -1.
       -1   -1    0    0    0  501  0.00000000000E+00  0.00000000000E+00 -0.80742053462E+03  0.80742053463E+03  0.50400001928E-02 0.  1.
    10030    2    1    2    0    0  0.00000000000E+00  0.00000000000E+00  0.11160644484E+04  0.27309055176E+04  0.24924375806E+04 0.  0.
        2    1    3    3  502    0 -0.66920913853E+03 -0.45058452105E+03  0.15987485065E+04  0.17907719198E+04  0.25500000920E-02 0. -1.
       -2    1    3    3    0  502  0.66920913853E+03  0.45058452105E+03 -0.48268405816E+03  0.94013359780E+03  0.25500000920E-02 0.  1.
</event>
<event>
 5   0  0.1002753E-05  0.2502398E+04  0.7818609E-02  0.8402132E-01
       -1   -1    0    0    0  501  0.00000000000E+00  0.00000000000E+00  0.74348073825E+03  0.74348073826E+03  0.50400001928E-02 0.  1.
        1   -1    0    0  501    0  0.00000000000E+00  0.00000000000E+00 -0.21056352426E+04  0.21056352426E+04  0.50400001928E-02 0. -1.
    10030    2    1    2    0    0  0.00000000000E+00  0.00000000000E+00 -0.13621545043E+04  0.28491159808E+04  0.25023982454E+04 0.  0.
        5    1    3    3  502    0 -0.33101689801E+03  0.10980821051E+04 -0.12504917013E+04  0.16967934704E+04  0.46999998093E+01 0. -1.
       -5    1    3    3    0  502  0.33101689801E+03 -0.10980821051E+04 -0.11166280304E+03  0.11523225104E+04  0.46999998093E+01 0.  1.
</event>
<event>
 5   0  0.2345143E-05  0.2525322E+04  0.7818609E-02  0.8394020E-01
       -2   -1    0    0    0  501  0.00000000000E+00  0.00000000000E+00  0.88488384484E+03  0.88488384484E+03  0.25500000920E-02 0. -1.
        2   -1    0    0  501    0  0.00000000000E+00  0.00000000000E+00 -0.18017193666E+04  0.18017193666E+04  0.25500000920E-02 0.  1.
    10030    2    1    2    0    0  0.00000000000E+00  0.00000000000E+00 -0.91683552172E+03  0.26866032114E+04  0.25253216511E+04 0.  0.
        5    1    3    3  502    0  0.71326480047E+03 -0.68173132540E+03  0.37980178294E+03  0.10572491475E+04  0.46999998093E+01 0. -1.
       -5    1    3    3    0  502 -0.71326480047E+03  0.68173132540E+03 -0.12966373047E+04  0.16293540639E+04  0.46999998093E+01 0.  1.
</event>
<event>
 5   0  0.8166500E-06  0.2535425E+04  0.7818609E-02  0.8390473E-01
       -3   -1    0    0    0  501  0.00000000000E+00  0.00000000000E+00  0.63167744402E+03  0.63167745209E+03  0.10100000352E+00 0. -1.
        3   -1    0    0  501    0  0.00000000000E+00  0.00000000000E+00 -0.25441708273E+04  0.25441708293E+04  0.10100000352E+00 0.  1.
    10030    2    1    2    0    0  0.00000000000E+00  0.00000000000E+00 -0.19124933833E+04  0.31758482814E+04  0.25354252829E+04 0.  0.
        1    1    3    3  502    0  0.11797789025E+04 -0.43597940184E+03 -0.11548485495E+04  0.17075220261E+04  0.50400001928E-02 0. -1.
       -1    1    3    3    0  502 -0.11797789025E+04  0.43597940184E+03 -0.75764483381E+03  0.14683262552E+04  0.50400001928E-02 0.  1.
</event>
<event>
 5   0  0.2452457E-05  0.2466007E+04  0.7818609E-02  0.8415197E-01
        2   -1    0    0  501    0  0.00000000000E+00  0.00000000000E+00  0.15055720071E+04  0.15055720071E+04  0.25500000920E-02 0.  1.
       -2   -1    0    0    0  501  0.00000000000E+00  0.00000000000E+00 -0.10097808982E+04  0.10097808982E+04  0.25500000920E-02 0. -1.
    10030    2    1    2    0    0  0.00000000000E+00  0.00000000000E+00  0.49579110884E+03  0.25153529053E+04  0.24660071806E+04 0.  0.
        1    1    3    3  502    0 -0.78676778879E+03 -0.45474055612E+03 -0.60215034972E+03  0.10901273185E+04  0.50400001928E-02 0. -1.
       -1    1    3    3    0  502  0.78676778879E+03  0.45474055612E+03  0.10979414586E+04  0.14252255868E+04  0.50400001928E-02 0.  1.
</event>
<event>
 5   0  0.1008073E-05  0.2581152E+04  0.7818609E-02  0.8374632E-01
       -1   -1    0    0    0  501  0.00000000000E+00  0.00000000000E+00  0.11835389870E+04  0.11835389870E+04  0.50400001928E-02 0.  1.
        1   -1    0    0  501    0  0.00000000000E+00  0.00000000000E+00 -0.14072930960E+04  0.14072930960E+04  0.50400001928E-02 0. -1.
    10030    2    1    2    0    0  0.00000000000E+00  0.00000000000E+00 -0.22375410894E+03  0.25908320830E+04  0.25811518710E+04 0.  0.
        1    1    3    3  502    0 -0.81512268595E+03 -0.89519606435E+03  0.33677269316E+03  0.12566689435E+04  0.50400001928E-02 0.  1.
       -1    1    3    3    0  502  0.81512268595E+03  0.89519606435E+03 -0.56052680210E+03  0.13341631395E+04  0.50400001928E-02 0. -1.
</event>
<event>
 5   0  0.2432309E-05  0.2496913E+04  0.7818609E-02  0.8404086E-01
        2   -1    0    0  501    0  0.00000000000E+00  0.00000000000E+00  0.24641523721E+04  0.24641523721E+04  0.25500000920E-02 0. -1.
       -2   -1    0    0    0  501  0.00000000000E+00  0.00000000000E+00 -0.63252736509E+03  0.63252736510E+03  0.25500000920E-02 0.  1.
    10030    2    1    2    0    0  0.00000000000E+00  0.00000000000E+00  0.18316250070E+04  0.30966797372E+04  0.24969131400E+04 0.  0.
        4    1    3    3  502    0  0.34230586577E+03 -0.96673248763E+03  0.32828577638E+02  0.10260722863E+04  0.12699999809E+01 0.  1.
       -4    1    3    3    0  502 -0.34230586577E+03  0.96673248763E+03  0.17987964294E+04  0.20706074509E+04  0.12699999809E+01 0. -1.
</event>
<event>
 5   0  0.2441340E-05  0.2483786E+04  0.7818609E-02  0.8408785E-01
       -2   -1    0    0    0  501  0.00000000000E+00  0.00000000000E+00  0.10250659229E+04  0.10250659230E+04  0.25500000920E-02 0. -1.
        2   -1    0    0  501    0  0.00000000000E+00  0.00000000000E+00 -0.15045839149E+04  0.15045839149E+04  0.25500000920E-02 0.  1.
    10030    2    1    2    0    0  0.00000000000E+00  0.00000000000E+00 -0.47951799192E+03  0.25296498378E+04  0.24837855780E+04 0.  0.
        3    1    3    3  502    0 -0.98209576663E+03  0.32997881230E+03  0.45764788608E+03  0.11326251407E+04  0.10100000352E+00 0. -1.
       -3    1    3    3    0  502  0.98209576663E+03 -0.32997881230E+03 -0.93716587800E+03  0.13970246972E+04  0.10100000352E+00 0.  1.
</event>
<event>
 5   0  0.1039688E-05  0.2511483E+04  0.7818609E-02  0.8398906E-01
       -1   -1    0    0    0  501  0.00000000000E+00  0.00000000000E+00  0.12489868484E+04  0.12489868484E+04  0.50400001928E-02 0.  1.
        1   -1    0    0  501    0  0.00000000000E+00  0.00000000000E+00 -0.12625324646E+04  0.12625324646E+04  0.50400001928E-02 0. -1.
    10030    2    1    2    0    0  0.00000000000E+00  0.00000000000E+00 -0.13545616144E+02  0.25115193130E+04  0.25114827843E+04 0.  0.
        3    1    3    3  502    0  0.10248859317E+04 -0.45383208855E+03 -0.57293622992E+03  0.12588131996E+04  0.10100000352E+00 0. -1.
       -3    1    3    3    0  502 -0.10248859317E+04  0.45383208855E+03  0.55939061377E+03  0.12527061134E+04  0.10100000352E+00 0.  1.
</event>
<event>
 5   0  0.1002753E-05  0.2490879E+04  0.7818609E-02  0.8406242E-01
       -1   -1    0    0    0  501  0.00000000000E+00  0.00000000000E+00  0.10428150478E+04  0.10428150478E+04  0.50400001928E-02 0. -1.
        1   -1    0    0  501    0  0.00000000000E+00  0.00000000000E+00 -0.14874343967E+04  0.14874343967E+04  0.50400001928E-02 0.  1.
    10030    2    1    2    0    0  0.00000000000E+00  0.00000000000E+00 -0.44461934887E+03  0.25302494445E+04  0.24908785370E+04 0.  0.
        5    1    3    3  502    0 -0.10584190082E+04 -0.62519278907E+03 -0.19199109298E+02  0.12294338194E+04  0.46999998093E+01 0. -1.
       -5    1    3    3    0  502  0.10584190082E+04  0.62519278907E+03 -0.42542023957E+03  0.13008156252E+04  0.46999998093E+01 0.  1.
</event>
<event>
 5   0  0.1015327E-05  0.2476874E+04  0.7818609E-02  0.8411271E-01
       -1   -1    0    0    0  501  0.00000000000E+00  0.00000000000E+00  0.73555986284E+03  0.73555986286E+03  0.50400001928E-02 0. -1.
        1   -1    0    0  501    0  0.00000000000E+00  0.00000000000E+00 -0.20851135374E+04  0.20851135374E+04  0.50400001928E-02 0.  1.
    10030    2    1    2    0    0  0.00000000000E+00  0.00000000000E+00 -0.13495536745E+04  0.28206734003E+04  0.24768736969E+04 0.  0.
        4    1    3    3  502    0 -0.10017612208E+04  0.68908332255E+03 -0.94272954177E+03  0.15385389078E+04  0.12699999809E+01 0.  1.
       -4    1    3    3    0  502  0.10017612208E+04 -0.68908332255E+03 -0.40682413277E+03  0.12821344925E+04  0.12699999809E+01 0. -1.
</event>
<event>
 5   0  0.2345143E-05  0.2530914E+04  0.7818609E-02  0.8392054E-01
        2   -1    0    0  501    0  0.00000000000E+00  0.00000000000E+00  0.20692142929E+04  0.20692142929E+04  0.25500000920E-02 0. -1.
       -2   -1    0    0    0  501  0.00000000000E+00  0.00000000000E+00 -0.77390806693E+03  0.77390806694E+03  0.25500000920E-02 0.  1.
    10030    2    1    2    0    0  0.00000000000E+00  0.00000000000E+00  0.12953062260E+04  0.28431223598E+04  0.25309141696E+04 0.  0.
        5    1    3    3  502    0  0.19122961242E+03  0.96292904784E+03 -0.24931732314E+03  0.10129078603E+04  0.46999998093E+01 0.  1.
       -5    1    3    3    0  502 -0.19122961242E+03 -0.96292904784E+03  0.15446235491E+04  0.18302144995E+04  0.46999998093E+01 0. -1.
</event>
<event>
 5   0  0.2388326E-05  0.2468164E+04  0.7818609E-02  0.8414416E-01
        2   -1    0    0  501    0  0.00000000000E+00  0.00000000000E+00  0.13415400904E+04  0.13415400904E+04  0.25500000920E-02 0.  1.
       -2   -1    0    0    0  501  0.00000000000E+00  0.00000000000E+00 -0.11352311408E+04  0.11352311408E+04  0.25500000920E-02 0. -1.
    10030    2    1    2    0    0  0.00000000000E+00  0.00000000000E+00  0.20630894958E+03  0.24767712312E+04  0.24681637606E+04 0.  0.
        2    1    3    3  502    0  0.10686650941E+04  0.59436400907E+03 -0.63691499705E+02  0.12244877564E+04  0.25500000920E-02 0. -1.
       -2    1    3    3    0  502 -0.10686650941E+04 -0.59436400907E+03  0.27000044929E+03  0.12522834748E+04  0.25500000920E-02 0.  1.
</event>
<event>
 5   0  0.2441340E-05  0.2466061E+04  0.7818609E-02  0.8415177E-01
        2   -1    0    0  501    0  0.00000000000E+00  0.00000000000E+00  0.22303013534E+04  0.22303013534E+04  0.25500000920E-02 0. -1.
       -2   -1    0    0    0  501  0.00000000000E+00  0.00000000000E+00 -0.68168557378E+03  0.68168557379E+03  0.25500000920E-02 0.  1.
    10030    2    1    2    0    0  0.00000000000E+00  0.00000000000E+00  0.15486157796E+04  0.29119869272E+04  0.24660610356E+04 0.  0.
        3    1    3    3  502    0 -0.81451570173E+03 -0.46664573699E+03 -0.16973961926E+03  0.95394214749E+03  0.10100000352E+00 0.  1.
       -3    1    3    3    0  502  0.81451570173E+03  0.46664573699E+03  0.17183553989E+04  0.19580447797E+04  0.10100000352E+00 0. -1.
</event>
<event>
 5   0  0.2388326E-05  0.2493516E+04  0.7818609E-02  0.8405299E-01
        2   -1    0    0  501    0  0.00000000000E+00  0.00000000000E+00  0.18844415518E+04  0.18844415518E+04  0.25500000920E-02 0. -1.
       -2   -1    0    0    0  501  0.00000000000E+00  0.00000000000E+00 -0.82486262554E+03  0.82486262555E+03  0.25500000920E-02 0.  1.
    10030    2    1    2    0    0  0.00000000000E+00  0.00000000000E+00  0.10595789263E+04  0.27093041774E+04  0.24935159162E+04 0.  0.
        2    1    3    3  502    0  0.10200392865E+04  0.65352850419E+03  0.20962737437E+03  0.12294402335E+04  0.25500000920E-02 0.  1.
       -2    1    3    3    0  502 -0.10200392865E+04 -0.65352850419E+03  0.84995155190E+03  0.14798639438E+04  0.25500000920E-02 0. -1.
</event>
<event>
 5   0  0.2441340E-05  0.2490153E+04  0.7818609E-02  0.8406502E-01
        2   -1    0    0  501    0  0.00000000000E+00  0.00000000000E+00  0.15116204382E+04  0.15116204382E+04  0.25500000920E-02 0.  1.
       -2   -1    0    0    0  501  0.00000000000E+00  0.00000000000E+00 -0.10255326028E+04  0.10255326028E+04  0.25500000920E-02 0. -1.
    10030    2    1    2    0    0  0.00000000000E+00  0.00000000000E+00  0.48608783542E+03  0.25371530411E+04  0.24901534431E+04 0.  0.
        3    1    3    3  502    0  0.98530587714E+02 -0.44490027952E+03  0.14236071869E+04  0.14947581638E+04  0.10100000352E+00 0.  1.
       -3    1    3    3    0  502 -0.98530587714E+02  0.44490027952E+03 -0.93751935152E+03  0.10423948773E+04  0.10100000352E+00 0. -1.
</event>
<event>
 5   0  0.2345143E-05  0.2327658E+04  0.7818609E-02  0.8467095E-01
        2   -1    0    0  501    0  0.00000000000E+00  0.00000000000E+00  0.15182078277E+04  0.15182078277E+04  0.25500000920E-02 0.  1.
       -2   -1    0    0    0  501  0.00000000000E+00  0.00000000000E+00 -0.89216894288E+03  0.89216894289E+03  0.25500000920E-02 0. -1.
    10030    2    1    2    0    0  0.00000000000E+00  0.00000000000E+00  0.62603888480E+03  0.24103767706E+04  0.23276579411E+04 0.  0.
        5    1    3    3  502    0 -0.36678069384E+03 -0.63367085699E+03 -0.62378935208E+03  0.96187425277E+03  0.46999998093E+01 0. -1.
       -5    1    3    3    0  502  0.36678069384E+03  0.63367085699E+03  0.12498282369E+04  0.14485025178E+04  0.46999998093E+01 0.  1.
</event>
<event>
 5   0  0.2432309E-05  0.2492851E+04  0.7818609E-02  0.8405537E-01
        2   -1    0    0  501    0  0.00000000000E+00  0.00000000000E+00  0.17498329474E+04  0.17498329474E+04  0.25500000920E-02 0.  1.
       -2   -1    0    0    0  501  0.00000000000E+00  0.00000000000E+00 -0.88784243310E+03  0.88784243311E+03  0.25500000920E-02 0. -1.
    10030    2    1    2    0    0  0.00000000000E+00  0.00000000000E+00  0.86199051428E+03  0.26376753805E+04  0.24928505302E+04 0.  0.
        4    1    3    3  502    0  0.40516559738E+03 -0.11638093618E+04  0.23314844446E+03  0.12541814869E+04  0.12699999809E+01 0. -1.
       -4    1    3    3    0  502 -0.40516559738E+03  0.11638093618E+04  0.62884206982E+03  0.13834938936E+04  0.12699999809E+01 0.  1.
</event>
<event>
 5   0  0.2432309E-05  0.2518024E+04  0.7818609E-02  0.8396592E-01
       -2   -1    0    0    0  501  0.00000000000E+00  0.00000000000E+00  0.21827856801E+04  0.21827856801E+04  0.25500000920E-02 0. -1.
        2   -1    0    0  501    0  0.00000000000E+00  0.00000000000E+00 -0.72618719245E+03  0.72618719245E+03  0.25500000920E-02 0.  1.
    10030    2    1    2    0    0  0.00000000000E+00  0.00000000000E+00  0.14565984876E+04  0.29089728725E+04  0.25180238321E+04 0.  0.
        4    1    3    3  502    0 -0.56570882016E+02  0.11750523284E+04  0.21015355046E+03  0.11950373914E+04  0.12699999809E+01 0.  1.
       -4    1    3    3    0  502  0.56570882016E+02 -0.11750523284E+04  0.12464449372E+04  0.17139354811E+04  0.12699999809E+01 0. -1.
</event>
<event>
 5   0  0.1008073E-05  0.2471444E+04  0.7818609E-02  0.8413230E-01
        1   -1    0    0  501    0  0.00000000000E+00  0.00000000000E+00  0.14763156802E+04  0.14763156802E+04  0.50400001928E-02 0.  1.
       -1   -1    0    0    0  501  0.00000000000E+00  0.00000000000E+00 -0.10343373430E+04  0.10343373430E+04  0.50400001928E-02 0. -1.
    10030    2    1    2    0    0  0.00000000000E+00  0.00000000000E+00  0.44197833721E+03  0.25106530231E+04  0.24714436575E+04 0.  0.
        1    1    3    3  502    0 -0.30592851322E+03  0.11906479799E+02  0.14371770097E+04  0.14694256622E+04  0.50400001928E-02 0.  1.
       -1    1    3    3    0  502  0.30592851322E+03 -0.11906479799E+02 -0.99519867249E+03  0.10412273610E+04  0.50400001928E-02 0. -1.
</event>
<event>
 5   0  0.2388326E-05  0.2498664E+04  0.7818609E-02  0.8403462E-01
       -2   -1    0    0    0  501  0.00000000000E+00  0.00000000000E+00  0.10919870394E+04  0.10919870394E+04  0.25500000920E-02 0.  1.
        2   -1    0    0  501    0  0.00000000000E+00  0.00000000000E+00 -0.14293491200E+04  0.14293491200E+04  0.25500000920E-02 0. -1.
    10030    2    1    2    0    0  0.00000000000E+00  0.00000000000E+00 -0.33736208056E+03  0.25213361594E+04  0.24986642142E+04 0.  0.
        2    1    3    3  502    0 -0.31957575755E+03  0.91855014668E+03  0.62263323448E+03  0.11547879379E+04  0.25500000920E-02 0.  1.
       -2    1    3    3    0  502  0.31957575755E+03 -0.91855014668E+03 -0.95999531503E+03  0.13665482215E+04  0.25500000920E-02 0. -1.
</event>
<event>
 5   0  0.1002753E-05  0.2502677E+04  0.7818609E-02  0.8402033E-01
       -1   -1    0    0    0  501  0.00000000000E+00  0.00000000000E+00  0.11262594950E+04  0.11262594950E+04  0.50400001928E-02 0.  1.
        1   -1    0    0  501    0  0.00000000000E+00  0.00000000000E+00 -0.13903078945E+04  0.13903078945E+04  0.50400001928E-02 0. -1.
    10030    2    1    2    0    0  0.00000000000E+00  0.00000000000E+00 -0.26404839952E+03  0.25165673894E+04  0.25026765409E+04 0.  0.
        5    1    3    3  502    0 -0.78336982841E+03  0.61738905999E+03  0.62780725947E+03  0.11785591137E+04  0.46999998093E+01 0.  1.
       -5    1    3    3    0  502  0.78336982841E+03 -0.61738905999E+03 -0.89185565900E+03  0.13380082757E+04  0.46999998093E+01 0. -1.
</event>
<event>
 5   0  0.1008073E-05  0.2430153E+04  0.7818609E-02  0.8428300E-01
        1   -1    0    0  501    0  0.00000000000E+00  0.00000000000E+00  0.15941250222E+04  0.15941250223E+04  0.50400001928E-02 0. -1.
       -1   -1    0    0    0  501  0.00000000000E+00  0.00000000000E+00 -0.92615729344E+03  0.92615729345E+03  0.50400001928E-02 0.  1.
    10030    2    1    2    0    0  0.00000000000E+00  0.00000000000E+00  0.66796772880E+03  0.25202823157E+04  0.24301526833E+04 0.  0.
        1    1    3    3  502    0  0.76867739890E+03 -0.61053425053E+03  0.10766384856E+04  0.14569720119E+04  0.50400001928E-02 0. -1.
       -1    1    3    3    0  502 -0.76867739890E+03  0.61053425053E+03 -0.40867075684E+03  0.10633103038E+04  0.50400001928E-02 0.  1.
</event>
<event>
 5   0  0.1002753E-05  0.2480694E+04  0.7818609E-02  0.8409896E-01
       -1   -1    0    0    0  501  0.00000000000E+00  0.00000000000E+00  0.97416951718E+03  0.97416951720E+03  0.50400001928E-02 0.  1.
        1   -1    0    0  501    0  0.00000000000E+00  0.00000000000E+00 -0.15792532683E+04  0.15792532683E+04  0.50400001928E-02 0. -1.
    10030    2    1    2    0    0  0.00000000000E+00  0.00000000000E+00 -0.60508375113E+03  0.25534227855E+04  0.24806937690E+04 0.  0.
        5    1    3    3  502    0  0.47049590068E+03  0.24777129593E+03 -0.14559666792E+04  0.15500380862E+04  0.46999998093E+01 0. -1.
       -5    1    3    3    0  502 -0.47049590068E+03 -0.24777129593E+03  0.85088292806E+03  0.10033846994E+04  0.46999998093E+01 0.  1.
</event>
<event>
 5   0  0.2452457E-05  0.2507143E+04  0.7818609E-02  0.8400445E-01
        2   -1    0    0  501    0  0.00000000000E+00  0.00000000000E+00  0.90808117630E+03  0.90808117630E+03  0.25500000920E-02 0.  1.
       -2   -1    0    0    0  501  0.00000000000E+00  0.00000000000E+00 -0.17305081860E+04  0.17305081860E+04  0.25500000920E-02 0. -1.
    10030    2    1    2    0    0  0.00000000000E+00  0.00000000000E+00 -0.82242700966E+03  0.26385893623E+04  0.25071433219E+04 0.  0.
        1    1    3    3  502    0  0.59762212921E+03 -0.10228209437E+04 -0.84274390847E+03  0.14537992253E+04  0.50400001928E-02 0. -1.
       -1    1    3    3    0  502 -0.59762212921E+03  0.10228209437E+04  0.20316898803E+02  0.11847901370E+04  0.50400001928E-02 0.  1.
</event>
<event>
 5   0  0.2441340E-05  0.2670439E+04  0.7818609E-02  0.8344661E-01
       -2   -1    0    0    0  501  0.00000000000E+00  0.00000000000E+00  0.11837870153E+04  0.11837870153E+04  0.25500000920E-02 0. -1.
        2   -1    0    0  501    0  0.00000000000E+00  0.00000000000E+00 -0.15060232400E+04  0.15060232400E+04  0.25500000920E-02 0.  1.
    10030    2    1    2    0    0  0.00000000000E+00  0.00000000000E+00 -0.32223622462E+03  0.26898102553E+04  0.26704387327E+04 0.  0.
        3    1    3    3  502    0  0.11166055136E+03  0.69875275999E+03  0.97938852441E+03  0.12082737232E+04  0.10100000352E+00 0. -1.
       -3    1    3    3    0  502 -0.11166055136E+03 -0.69875275999E+03 -0.13016247490E+04  0.14815365321E+04  0.10100000352E+00 0.  1.
</event>
<event>
 5   0  0.2345143E-05  0.2730898E+04  0.7818609E-02  0.8325049E-01
       -2   -1    0    0    0  501  0.00000000000E+00  0.00000000000E+00  0.94638268544E+03  0.94638268545E+03  0.25500000920E-02 0.  1.
        2   -1    0    0  501    0  0.00000000000E+00  0.00000000000E+00 -0.19700817480E+04  0.19700817480E+04  0.25500000920E-02 0. -1.
    10030    2    1    2    0    0  0.00000000000E+00  0.00000000000E+00 -0.10236990625E+04  0.29164644334E+04  0.27308982077E+04 0.  0.
        5    1    3    3  502    0 -0.12579883144E+04 -0.34769402088E+03 -0.83331854685E+02  0.13078195668E+04  0.46999998093E+01 0.  1.
       -5    1    3    3    0  502  0.12579883144E+04  0.34769402088E+03 -0.94036720783E+03  0.16086448666E+04  0.46999998093E+01 0. -1.
</event>
<event>
 5   0  0.1002753E-05  0.2396905E+04  0.7818609E-02  0.8440663E-01
        1   -1    0    0  501    0  0.00000000000E+00  0.00000000000E+00  0.10797751853E+04  0.10797751853E+04  0.50400001928E-02 0.  1.
       -1   -1    0    0    0  501  0.00000000000E+00  0.00000000000E+00 -0.13301738706E+04  0.13301738706E+04  0.50400001928E-02 0. -1.
    10030    2    1    2    0    0  0.00000000000E+00  0.00000000000E+00 -0.25039868526E+03  0.24099490559E+04  0.23969052861E+04 0.  0.
        5    1    3    3  502    0 -0.70385551407E+03 -0.17123701699E+03  0.83473810932E+03  0.11052350437E+04  0.46999998093E+01 0.  1.
       -5    1    3    3    0  502  0.70385551407E+03  0.17123701699E+03 -0.10851367946E+04  0.13047140122E+04  0.46999998093E+01 0. -1.
</event>
<event>
 5   0  0.2441340E-05  0.2534993E+04  0.7818609E-02  0.8390624E-01
       -2   -1    0    0    0  501  0.00000000000E+00  0.00000000000E+00  0.11621362124E+04  0.11621362125E+04  0.25500000920E-02 0.  1.
        2   -1    0    0  501    0  0.00000000000E+00  0.00000000000E+00 -0.13824088628E+04  0.13824088628E+04  0.25500000920E-02 0. -1.
    10030    2    1    2    0    0  0.00000000000E+00  0.00000000000E+00 -0.22027265031E+03  0.25445450752E+04  0.25349930176E+04 0.  0.
        3    1    3    3  502    0  0.27609188859E+03 -0.18391532438E+03 -0.13380593249E+04  0.13785696735E+04  0.10100000352E+00 0. -1.
       -3    1    3    3    0  502 -0.27609188859E+03  0.18391532438E+03  0.11177866746E+04  0.11659754018E+04  0.10100000352E+00 0.  1.
</event>
<event>
 5   0  0.2432309E-05  0.2494990E+04  0.7818609E-02  0.8404773E-01
        2   -1    0    0  501    0  0.00000000000E+00  0.00000000000E+00  0.24198864121E+04  0.24198864121E+04  0.25500000920E-02 0.  1.
       -2   -1    0    0    0  501  0.00000000000E+00  0.00000000000E+00 -0.64310603818E+03  0.64310603818E+03  0.25500000920E-02 0. -1.
    10030    2    1    2    0    0  0.00000000000E+00  0.00000000000E+00  0.17767803740E+04  0.30629924503E+04  0.24949898303E+04 0.  0.
        4    1    3    3  502    0 -0.24586813683E+03 -0.89056858315E+03  0.19174851466E+04  0.21284535330E+04  0.12699999809E+01 0.  1.
       -4    1    3    3    0  502  0.24586813683E+03  0.89056858315E+03 -0.14070477263E+03  0.93453891729E+03  0.12699999809E+01 0. -1.
</event>
<event>
 5   0  0.2345143E-05  0.2530330E+04  0.7818609E-02  0.8392259E-01
       -2   -1    0    0    0  501  0.00000000000E+00  0.00000000000E+00  0.58155469538E+03  0.58155469538E+03  0.25500000920E-02 0. -1.
        2   -1    0    0  501    0  0.00000000000E+00  0.00000000000E+00 -0.27523513999E+04  0.27523513999E+04  0.25500000920E-02 0.  1.
    10030    2    1    2    0    0  0.00000000000E+00  0.00000000000E+00 -0.21707967045E+04  0.33339060952E+04  0.25303303183E+04 0.  0.
        5    1    3    3  502    0 -0.50138338269E+03  0.58946524119E+03  0.23334212323E+03  0.80828534780E+03  0.46999998093E+01 0. -1.
       -5    1    3    3    0  502  0.50138338269E+03 -0.58946524119E+03 -0.24041388277E+04  0.25256207474E+04  0.46999998093E+01 0.  1.
</event>
<event>
 5   0  0.1002753E-05  0.2490899E+04  0.7818609E-02  0.8406235E-01
       -1   -1    0    0    0  501  0.00000000000E+00  0.00000000000E+00  0.14584270018E+04  0.14584270018E+04  0.50400001928E-02 0. -1.
        1   -1    0    0  501    0  0.00000000000E+00  0.00000000000E+00 -0.10635734168E+04  0.10635734168E+04  0.50400001928E-02 0.  1.
    10030    2    1    2    0    0  0.00000000000E+00  0.00000000000E+00  0.39485358506E+03  0.25220004186E+04  0.24908987851E+04 0.  0.
        5    1    3    3  502    0  0.63241872374E+03  0.87364737882E+03 -0.43317318910E+03  0.11622711759E+04  0.46999998093E+01 0.  1.
       -5    1    3    3    0  502 -0.63241872374E+03 -0.87364737882E+03  0.82802677416E+03  0.13597292427E+04  0.46999998093E+01 0. -1.
</event>
<event>
 5   0  0.2441340E-05  0.2493514E+04  0.7818609E-02  0.8405300E-01
        2   -1    0    0  501    0  0.00000000000E+00  0.00000000000E+00  0.11512987562E+04  0.11512987562E+04  0.25500000920E-02 0.  1.
       -2   -1    0    0    0  501  0.00000000000E+00  0.00000000000E+00 -0.13501301319E+04  0.13501301319E+04  0.25500000920E-02 0. -1.
    10030    2    1    2    0    0  0.00000000000E+00  0.00000000000E+00 -0.19883137568E+03  0.25014288880E+04  0.24935140998E+04 0.  0.
        3    1    3    3  502    0  0.16093181035E+03 -0.97621895493E+03  0.66160986030E+03  0.11902227157E+04  0.10100000352E+00 0.  1.
       -3    1    3    3    0  502 -0.16093181035E+03  0.97621895493E+03 -0.86044123598E+03  0.13112061723E+04  0.10100000352E+00 0. -1.
</event>
<event>
 5   0  0.2452457E-05  0.2530637E+04  0.7818609E-02  0.8392152E-01
       -2   -1    0    0    0  501  0.00000000000E+00  0.00000000000E+00  0.11521991125E+04  0.11521991125E+04  0.25500000920E-02 0. -1.
        2   -1    0    0  501    0  0.00000000000E+00  0.00000000000E+00 -0.13895436476E+04  0.13895436476E+04  0.25500000920E-02 0.  1.
    10030    2    1    2    0    0  0.00000000000E+00  0.00000000000E+00 -0.23734453509E+03  0.25417427600E+04  0.25306370403E+04 0.  0.
        1    1    3    3  502    0 -0.21445408417E+03  0.12437707912E+04 -0.28419018837E+02  0.12624436525E+04  0.50400001928E-02 0. -1.
       -1    1    3    3    0  502  0.21445408417E+03 -0.12437707912E+04 -0.20892551626E+03  0.12792991075E+04  0.50400001928E-02 0.  1.
</event>
<event>
 5   0  0.2432309E-05  0.2328282E+04  0.7818609E-02  0.8466853E-01
        2   -1    0    0  501    0  0.00000000000E+00  0.00000000000E+00  0.16291369853E+04  0.16291369853E+04  0.25500000920E-02 0.  1.
       -2   -1    0    0    0  501  0.00000000000E+00  0.00000000000E+00 -0.83186623933E+03  0.83186623933E+03  0.25500000920E-02 0. -1.
    10030    2    1    2    0    0  0.00000000000E+00  0.00000000000E+00  0.79727074596E+03  0.24610032246E+04  0.23282818191E+04 0.  0.
        4    1    3    3  502    0 -0.10863458958E+04  0.13380012630E+03  0.81768456402E+03  0.13662574934E+04  0.12699999809E+01 0.  1.
       -4    1    3    3    0  502  0.10863458958E+04 -0.13380012630E+03 -0.20413818064E+02  0.10947457312E+04  0.12699999809E+01 0. -1.
</event>
<event>
 5   0  0.2452457E-05  0.2493186E+04  0.7818609E-02  0.8405417E-01
        2   -1    0    0  501    0  0.00000000000E+00  0.00000000000E+00  0.12164841978E+04  0.12164841978E+04  0.25500000920E-02 0. -1.
       -2   -1    0    0    0  501  0.00000000000E+00  0.00000000000E+00 -0.12774471321E+04  0.12774471321E+04  0.25500000920E-02 0.  1.
    10030    2    1    2    0    0  0.00000000000E+00  0.00000000000E+00 -0.60962934256E+02  0.24939313299E+04  0.24931861140E+04 0.  0.
        1    1    3    3  502    0 -0.11641698058E+03 -0.12380651658E+04  0.56928756067E+02  0.12448289647E+04  0.50400001928E-02 0. -1.
       -1    1    3    3    0  502  0.11641698058E+03  0.12380651658E+04 -0.11789169032E+03  0.12491023652E+04  0.50400001928E-02 0.  1.
</event>
<event>
 5   0  0.2441340E-05  0.2466326E+04  0.7818609E-02  0.8415081E-01
        2   -1    0    0  501    0  0.00000000000E+00  0.00000000000E+00  0.12212345881E+04  0.12212345881E+04  0.25500000920E-02 0.  1.
       -2   -1    0    0    0  501  0.00000000000E+00  0.00000000000E+00 -0.12452075024E+04  0.12452075024E+04  0.25500000920E-02 0. -1.
    10030    2    1    2    0    0  0.00000000000E+00  0.00000000000E+00 -0.23972914336E+02  0.24664420905E+04  0.24663255838E+04 0.  0.
        3    1    3    3  502    0  0.37003746877E+03  0.26210372929E+03 -0.11588031886E+04  0.12443676841E+04  0.10100000352E+00 0. -1.
       -3    1    3    3    0  502 -0.37003746877E+03 -0.26210372929E+03  0.11348302743E+04  0.12220744064E+04  0.10100000352E+00 0.  1.
</event>
<event>
 5   0  0.2388326E-05  0.2471427E+04  0.7818609E-02  0.8413236E-01
       -2   -1    0    0    0  501  0.00000000000E+00  0.00000000000E+00  0.65179315363E+03  0.65179315363E+03  0.25500000920E-02 0. -1.
        2   -1    0    0  501    0  0.00000000000E+00  0.00000000000E+00 -0.23427485714E+04  0.23427485714E+04  0.25500000920E-02 0.  1.
    10030    2    1    2    0    0  0.00000000000E+00  0.00000000000E+00 -0.16909554178E+04  0.29945417251E+04  0.24714266969E+04 0.  0.
        2    1    3    3  502    0  0.28313883965E+03 -0.11469992583E+04 -0.12843825491E+04  0.17451112954E+04  0.25500000920E-02 0. -1.
       -2    1    3    3    0  502 -0.28313883965E+03  0.11469992583E+04 -0.40657286868E+03  0.12494304296E+04  0.25500000920E-02 0.  1.
</event>
<event>
 5   0  0.2452457E-05  0.2523704E+04  0.7818609E-02  0.8394589E-01
       -2   -1    0    0    0  501  0.00000000000E+00  0.00000000000E+00  0.11177429768E+04  0.11177429768E+04  0.25500000920E-02 0. -1.
        2   -1    0    0  501    0  0.00000000000E+00  0.00000000000E+00 -0.14245411339E+04  0.14245411339E+04  0.25500000920E-02 0.  1.
    10030    2    1    2    0    0  0.00000000000E+00  0.00000000000E+00 -0.30679815714E+03  0.25422841107E+04  0.25237042993E+04 0.  0.
        1    1    3    3  502    0 -0.69541638266E+03  0.10507505854E+04 -0.22164821164E+03  0.12793782348E+04  0.50400001928E-02 0.  1.
       -1    1    3    3    0  502  0.69541638266E+03 -0.10507505854E+04 -0.85149945494E+02  0.12629058758E+04  0.50400001928E-02 0. -1.
</event>
<event>
 5   0  0.2388326E-05  0.2496232E+04  0.7818609E-02  0.8404329E-01
        2   -1    0    0  501    0  0.00000000000E+00  0.00000000000E+00  0.12876922489E+04  0.12876922489E+04  0.25500000920E-02 0. -1.
       -2   -1    0    0    0  501  0.00000000000E+00  0.00000000000E+00 -0.12097560772E+04  0.12097560772E+04  0.25500000920E-02 0.  1.
    10030    2    1    2    0    0  0.00000000000E+00  0.00000000000E+00  0.77936171770E+02  0.24974483261E+04  0.24962319793E+04 0.  0.
        2    1    3    3  502    0  0.94269082440E+03 -0.44209437035E+03 -0.64961149311E+03  0.12272361283E+04  0.25500000920E-02 0.  1.
       -2    1    3    3    0  502 -0.94269082440E+03  0.44209437035E+03  0.72754766488E+03  0.12702121978E+04  0.25500000920E-02 0. -1.
</event>
<event>
 5   0  0.1008073E-05  0.2492849E+04  0.7818609E-02  0.8405538E-01
       -1   -1    0    0    0  501  0.00000000000E+00  0.00000000000E+00  0.11215997167E+04  0.11215997167E+04  0.50400001928E-02 0.  1.
        1   -1    0    0  501    0  0.00000000000E+00  0.00000000000E+00 -0.13851410979E+04  0.13851410979E+04  0.50400001928E-02 0. -1.
    10030    2    1    2    0    0  0.00000000000E+00  0.00000000000E+00 -0.26354138128E+03  0.25067408146E+04  0.24928488627E+04 0.  0.
        1    1    3    3  502    0  0.11504262191E+04  0.47616787518E+03 -0.19003781249E+03  0.12594962093E+04  0.50400001928E-02 0.  1.
       -1    1    3    3    0  502 -0.11504262191E+04 -0.47616787518E+03 -0.73503568787E+02  0.12472446054E+04  0.50400001928E-02 0. -1.
</event>
<event>
 5   0  0.1010338E-05  0.2515124E+04  0.7818609E-02  0.8397617E-01
       -1   -1    0    0    0  501  0.00000000000E+00  0.00000000000E+00  0.83729918338E+03  0.83729918340E+03  0.50400001928E-02 0. -1.
        1   -1    0    0  501    0  0.00000000000E+00  0.00000000000E+00 -0.18887653916E+04  0.18887653916E+04  0.50400001928E-02 0.  1.
    10030    2    1    2    0    0  0.00000000000E+00  0.00000000000E+00 -0.10514662082E+04  0.27260645750E+04  0.25151236312E+04 0.  0.
        2    1    3    3  502    0  0.64309941887E+03 -0.79622028228E+03 -0.13177129526E+04  0.16685056266E+04  0.25500000920E-02 0.  1.
       -2    1    3    3    0  502 -0.64309941887E+03  0.79622028228E+03  0.26624674440E+03  0.10575589484E+04  0.25500000920E-02 0. -1.
</event>
<event>
 5   0  0.1015327E-05  0.2489721E+04  0.7818609E-02  0.8406657E-01
       -1   -1    0    0    0  501  0.00000000000E+00  0.00000000000E+00  0.82180577587E+03  0.82180577588E+03  0.50400001928E-02 0. -1.
        1   -1    0    0  501    0  0.00000000000E+00  0.00000000000E+00 -0.18856982244E+04  0.18856982244E+04  0.50400001928E-02 0.  1.
    10030    2    1    2    0    0  0.00000000000E+00  0.00000000000E+00 -0.10638924486E+04  0.27075040003E+04  0.24897210225E+04 0.  0.
        4    1    3    3  502    0  0.48548366631E+03  0.36948056675E+03  0.64808247940E+03  0.89006898186E+03  0.12699999809E+01 0. -1.
       -4    1    3    3    0  502 -0.48548366631E+03 -0.36948056675E+03 -0.17119749280E+04  0.18174350185E+04  0.12699999809E+01 0.  1.
</event>
<event>
 5   0  0.8166500E-06  0.2505578E+04  0.7818609E-02  0.8401001E-01
        3   -1    0    0  501    0  0.00000000000E+00  0.00000000000E+00  0.12775683236E+04  0.12775683276E+04  0.10100000352E+00 0.  1.
       -3   -1    0    0    0  501  0.00000000000E+00  0.00000000000E+00 -0.12284901258E+04  0.12284901300E+04  0.10100000352E+00 0. -1.
    10030    2    1    2    0    0  0.00000000000E+00  0.00000000000E+00  0.49078197751E+02  0.25060584575E+04  0.25055778421E+04 0.  0.
        4    1    3    3  502    0  0.10806369470E+04  0.42887569421E+03 -0.44220649264E+03  0.12438885671E+04  0.12699999809E+01 0. -1.
       -4    1    3    3    0  502 -0.10806369470E+04 -0.42887569421E+03  0.49128469040E+03  0.12621698904E+04  0.12699999809E+01 0.  1.
</event>
<event>
 5   0  0.2441340E-05  0.2477744E+04  0.7818609E-02  0.8410958E-01
        2   -1    0    0  501    0  0.00000000000E+00  0.00000000000E+00  0.18280624919E+04  0.18280624919E+04  0.25500000920E-02 0. -1.
       -2   -1    0    0    0  501  0.00000000000E+00  0.00000000000E+00 -0.83957921988E+03  0.83957921988E+03  0.25500000920E-02 0.  1.
    10030    2    1    2    0    0  0.00000000000E+00  0.00000000000E+00  0.98848327200E+03  0.26676417118E+04  0.24777435548E+04 0.  0.
        3    1    3    3  502    0 -0.11785185199E+04  0.20693155095E+03  0.83990344769E+03  0.14619043677E+04  0.10100000352E+00 0. -1.
       -3    1    3    3    0  502  0.11785185199E+04 -0.20693155095E+03  0.14857982431E+03  0.12057373441E+04  0.10100000352E+00 0.  1.
</event>
<event>
 5   0  0.2441340E-05  0.2520976E+04  0.7818609E-02  0.8395551E-01
        2   -1    0    0  501    0  0.00000000000E+00  0.00000000000E+00  0.95192375786E+03  0.95192375787E+03  0.25500000920E-02 0. -1.
       -2   -1    0    0    0  501  0.00000000000E+00  0.00000000000E+00 -0.16690730444E+04  0.16690730444E+04  0.25500000920E-02 0.  1.
    10030    2    1    2    0    0  0.00000000000E+00  0.00000000000E+00 -0.71714928658E+03  0.26209968023E+04  0.25209762273E+04 0.  0.
        3    1    3    3  502    0  0.21680195305E+03 -0.47426358105E+03 -0.15516677723E+04  0.16369489659E+04  0.10100000352E+00 0.  1.
       -3    1    3    3    0  502 -0.21680195305E+03  0.47426358105E+03  0.83451848572E+03  0.98404783642E+03  0.10100000352E+00 0. -1.
</event>
<event>
 5   0  0.1039688E-05  0.2499449E+04  0.7818609E-02  0.8403182E-01
       -1   -1    0    0    0  501  0.00000000000E+00  0.00000000000E+00  0.18619839796E+04  0.18619839796E+04  0.50400001928E-02 0.  1.
        1   -1    0    0  501    0  0.00000000000E+00  0.00000000000E+00 -0.83878850699E+03  0.83878850701E+03  0.50400001928E-02 0. -1.
    10030    2    1    2    0    0  0.00000000000E+00  0.00000000000E+00  0.10231954726E+04  0.27007724866E+04  0.24994485490E+04 0.  0.
        3    1    3    3  502    0 -0.20999654556E+03  0.35071265711E+03 -0.76450664058E+03  0.86693040707E+03  0.10100000352E+00 0. -1.
       -3    1    3    3    0  502  0.20999654556E+03 -0.35071265711E+03  0.17877021132E+04  0.18338420795E+04  0.10100000352E+00 0.  1.
</event>
<event>
 5   0  0.1015327E-05  0.2554309E+04  0.7818609E-02  0.8383889E-01
       -1   -1    0    0    0  501  0.00000000000E+00  0.00000000000E+00  0.12676582525E+04  0.12676582525E+04  0.50400001928E-02 0. -1.
        1   -1    0    0  501    0  0.00000000000E+00  0.00000000000E+00 -0.12867220257E+04  0.12867220257E+04  0.50400001928E-02 0.  1.
    10030    2    1    2    0    0  0.00000000000E+00  0.00000000000E+00 -0.19063773253E+02  0.25543802782E+04  0.25543091391E+04 0.  0.
        4    1    3    3  502    0 -0.24376090153E+03 -0.30294995133E+03 -0.12260870914E+04  0.12862694969E+04  0.12699999809E+01 0.  1.
       -4    1    3    3    0  502  0.24376090153E+03  0.30294995133E+03  0.12070233182E+04  0.12681107813E+04  0.12699999809E+01 0. -1.
</event>
<event>
 5   0  0.8166500E-06  0.2510374E+04  0.7818609E-02  0.8399299E-01
        3   -1    0    0  501    0  0.00000000000E+00  0.00000000000E+00  0.98562150777E+03  0.98562151294E+03  0.10100000352E+00 0.  1.
       -3   -1    0    0    0  501  0.00000000000E+00  0.00000000000E+00 -0.15984778062E+04  0.15984778094E+04  0.10100000352E+00 0. -1.
    10030    2    1    2    0    0  0.00000000000E+00  0.00000000000E+00 -0.61285629847E+03  0.25840993224E+04  0.25103737700E+04 0.  0.
        2    1    3    3  502    0  0.21710450960E+03  0.57035002940E+03 -0.14354817607E+04  0.15598209543E+04  0.25500000920E-02 0. -1.
       -2    1    3    3    0  502 -0.21710450960E+03 -0.57035002940E+03  0.82262546225E+03  0.10242783681E+04  0.25500000920E-02 0.  1.
</event>
<event>
 5   0  0.2432309E-05  0.2458275E+04  0.7818609E-02  0.8418003E-01
        2   -1    0    0  501    0  0.00000000000E+00  0.00000000000E+00  0.95043236179E+03  0.95043236180E+03  0.25500000920E-02 0. -1.
       -2   -1    0    0    0  501  0.00000000000E+00  0.00000000000E+00 -0.15895699473E+04  0.15895699473E+04  0.25500000920E-02 0.  1.
    10030    2    1    2    0    0  0.00000000000E+00  0.00000000000E+00 -0.63913758548E+03  0.25400023091E+04  0.24582747765E+04 0.  0.
        4    1    3    3  502    0 -0.77635898520E+03 -0.68309899478E+03  0.36691373917E+03  0.10972624187E+04  0.12699999809E+01 0. -1.
       -4    1    3    3    0  502  0.77635898520E+03  0.68309899478E+03 -0.10060513246E+04  0.14427398904E+04  0.12699999809E+01 0.  1.
</event>
<event>
 5   0  0.2432309E-05  0.2607371E+04  0.7818609E-02  0.8365702E-01
       -2   -1    0    0    0  501  0.00000000000E+00  0.00000000000E+00  0.12120010139E+04  0.12120010139E+04  0.25500000920E-02 0.  1.
        2   -1    0    0  501    0  0.00000000000E+00  0.00000000000E+00 -0.14023053966E+04  0.14023053966E+04  0.25500000920E-02 0. -1.
    10030    2    1    2    0    0  0.00000000000E+00  0.00000000000E+00 -0.19030438274E+03  0.26143064106E+04  0.26073707543E+04 0.  0.
        4    1    3    3  502    0 -0.51710061267E+03 -0.31138322922E+03  0.10634479872E+04  0.12228147012E+04  0.12699999809E+01 0.  1.
       -4    1    3    3    0  502  0.51710061267E+03  0.31138322922E+03 -0.12537523700E+04  0.13914917093E+04  0.12699999809E+01 0. -1.
</event>
<event>
 5   0  0.2441340E-05  0.2499409E+04  0.7818609E-02  0.8403196E-01
        2   -1    0    0  501    0  0.00000000000E+00  0.00000000000E+00  0.17619991827E+04  0.17619991827E+04  0.25500000920E-02 0.  1.
       -2   -1    0    0    0  501  0.00000000000E+00  0.00000000000E+00 -0.88635747581E+03  0.88635747581E+03  0.25500000920E-02 0. -1.
    10030    2    1    2    0    0  0.00000000000E+00  0.00000000000E+00  0.87564170691E+03  0.26483566585E+04  0.24994088485E+04 0.  0.
        3    1    3    3  502    0  0.98655557742E+03  0.66114604340E+03  0.25592598800E+02  0.11878808818E+04  0.10100000352E+00 0. -1.
       -3    1    3    3    0  502 -0.98655557742E+03 -0.66114604340E+03  0.85004910811E+03  0.14604757767E+04  0.10100000352E+00 0.  1.
</event>
<event>
 5   0  0.1008073E-05  0.2374342E+04  0.7818609E-02  0.8449173E-01
        1   -1    0    0  501    0  0.00000000000E+00  0.00000000000E+00  0.19100006894E+04  0.19100006894E+04  0.50400001928E-02 0.  1.
       -1   -1    0    0    0  501  0.00000000000E+00  0.00000000000E+00 -0.73789218159E+03  0.73789218161E+03  0.50400001928E-02 0. -1.
    10030    2    1    2    0    0  0.00000000000E+00  0.00000000000E+00  0.11721085078E+04  0.26478928711E+04  0.23743416566E+04 0.  0.
        1    1    3    3  502    0  0.72461732268E+03  0.28090497461E+02 -0.46219417389E+03  0.85993185473E+03  0.50400001928E-02 0. -1.
       -1    1    3    3    0  502 -0.72461732268E+03 -0.28090497461E+02  0.16343026817E+04  0.17879610163E+04  0.50400001928E-02 0.  1.
</event>
<event>
 5   0  0.2432309E-05  0.2490436E+04  0.7818609E-02  0.8406401E-01
        2   -1    0    0  501    0  0.00000000000E+00  0.00000000000E+00  0.12420998024E+04  0.12420998024E+04  0.25500000920E-02 0.  1.
       -2   -1    0    0    0  501  0.00000000000E+00  0.00000000000E+00 -0.12483438966E+04  0.12483438966E+04  0.25500000920E-02 0. -1.
    10030    2    1    2    0    0  0.00000000000E+00  0.00000000000E+00 -0.62440941848E+01  0.24904436990E+04  0.24904358713E+04 0.  0.
        4    1    3    3  502    0 -0.10860465700E+04  0.51498651607E+03 -0.32848107311E+03  0.12460375967E+04  0.12699999809E+01 0. -1.
       -4    1    3    3    0  502  0.10860465700E+04 -0.51498651607E+03  0.32223697892E+03  0.12444061023E+04  0.12699999809E+01 0.  1.
</event>
<event>
 5   0  0.1015327E-05  0.2457973E+04  0.7818609E-02  0.8418113E-01
       -1   -1    0    0    0  501  0.00000000000E+00  0.00000000000E+00  0.28624053478E+04  0.28624053478E+04  0.50400001928E-02 0.  1.
        1   -1    0    0  501    0  0.00000000000E+00  0.00000000000E+00 -0.52767080239E+03  0.52767080242E+03  0.50400001928E-02 0. -1.
    10030    2    1    2    0    0  0.00000000000E+00  0.00000000000E+00  0.23347345454E+04  0.33900761502E+04  0.24579729264E+04 0.  0.
        4    1    3    3  502    0 -0.80194007398E+02  0.39454521717E+03 -0.43413327910E+03  0.59208979398E+03  0.12699999809E+01 0. -1.
       -4    1    3    3    0  502  0.80194007398E+02 -0.39454521717E+03  0.27688678245E+04  0.27979863562E+04  0.12699999809E+01 0.  1.
</event>
<event>
 5   0  0.2452457E-05  0.2492573E+04  0.7818609E-02  0.8405636E-01
        2   -1    0    0  501    0  0.00000000000E+00  0.00000000000E+00  0.12229971653E+04  0.12229971653E+04  0.25500000920E-02 0. -1.
       -2   -1    0    0    0  501  0.00000000000E+00  0.00000000000E+00 -0.12700196900E+04  0.12700196900E+04  0.25500000920E-02 0.  1.
    10030    2    1    2    0    0  0.00000000000E+00  0.00000000000E+00 -0.47022524684E+02  0.24930168554E+04  0.24925733537E+04 0.  0.
        1    1    3    3  502    0 -0.77078084628E+03  0.96203506107E+03  0.15986777863E+03  0.12430495881E+04  0.50400001928E-02 0. -1.
       -1    1    3    3    0  502  0.77078084628E+03 -0.96203506107E+03 -0.20689030331E+03  0.12499672673E+04  0.50400001928E-02 0.  1.
</event>
<event>
 5   0  0.2345143E-05  0.2517628E+04  0.7818609E-02  0.8396732E-01
       -2   -1    0    0    0  501  0.00000000000E+00  0.00000000000E+00  0.12278943512E+04  0.12278943512E+04  0.25500000920E-02 0.  1.
        2   -1    0    0  501    0  0.00000000000E+00  0.00000000000E+00 -0.12905124950E+04  0.12905124950E+04  0.25500000920E-02 0. -1.
    10030    2    1    2    0    0  0.00000000000E+00  0.00000000000E+00 -0.62618143871E+02  0.25184068462E+04  0.25176282512E+04 0.  0.
        5    1    3    3  502    0 -0.84821818193E+03  0.41377020486E+03 -0.86457992031E+03  0.12799220270E+04  0.46999998093E+01 0.  1.
       -5    1    3    3    0  502  0.84821818193E+03 -0.41377020486E+03  0.80196177644E+03  0.12384848192E+04  0.46999998093E+01 0. -1.
</event>
<event>
 5   0  0.1008073E-05  0.2502515E+04  0.7818609E-02  0.8402090E-01
        1   -1    0    0  501    0  0.00000000000E+00  0.00000000000E+00  0.15103324182E+04  0.15103324182E+04  0.50400001928E-02 0. -1.
       -1   -1    0    0    0  501  0.00000000000E+00  0.00000000000E+00 -0.10366231087E+04  0.10366231087E+04  0.50400001928E-02 0.  1.
    10030    2    1    2    0    0  0.00000000000E+00  0.00000000000E+00  0.47370930955E+03  0.25469555269E+04  0.25025151241E+04 0.  0.
        1    1    3    3  502    0 -0.18718536310E+03  0.73659457105E+03  0.12485061773E+04  0.14616352476E+04  0.50400001928E-02 0. -1.
       -1    1    3    3    0  502  0.18718536310E+03 -0.73659457105E+03 -0.77479686780E+03  0.10853202793E+04  0.50400001928E-02 0.  1.
</event>
<event>
 5   0  0.1008073E-05  0.2522444E+04  0.7818609E-02  0.8395033E-01
       -1   -1    0    0    0  501  0.00000000000E+00  0.00000000000E+00  0.81698340845E+03  0.81698340846E+03  0.50400001928E-02 0.  1.
        1   -1    0    0  501    0  0.00000000000E+00  0.00000000000E+00 -0.19470175017E+04  0.19470175017E+04  0.50400001928E-02 0. -1.
    10030    2    1    2    0    0  0.00000000000E+00  0.00000000000E+00 -0.11300340932E+04  0.27640009101E+04  0.25224440488E+04 0.  0.
        1    1    3    3  502    0  0.67447732469E+02 -0.28519226935E+03 -0.19091914545E+04  0.19315527011E+04  0.50400001928E-02 0. -1.
       -1    1    3    3    0  502 -0.67447732469E+02  0.28519226935E+03  0.77915736127E+03  0.83244820906E+03  0.50400001928E-02 0.  1.
</event>
<event>
 5   0  0.1015327E-05  0.2483007E+04  0.7818609E-02  0.8409064E-01
       -1   -1    0    0    0  501  0.00000000000E+00  0.00000000000E+00  0.11587722424E+04  0.11587722424E+04  0.50400001928E-02 0. -1.
        1   -1    0    0  501    0  0.00000000000E+00  0.00000000000E+00 -0.13301418129E+04  0.13301418129E+04  0.50400001928E-02 0.  1.
    10030    2    1    2    0    0  0.00000000000E+00  0.00000000000E+00 -0.17136957046E+03  0.24889140554E+04  0.24830073792E+04 0.  0.
        4    1    3    3  502    0  0.11203857678E+03 -0.48342802349E+03  0.10550357675E+04  0.11659148254E+04  0.12699999809E+01 0. -1.
       -4    1    3    3    0  502 -0.11203857678E+03  0.48342802349E+03 -0.12264053379E+04  0.13229992299E+04  0.12699999809E+01 0.  1.
</event>
<event>
 5   0  0.2432309E-05  0.2494447E+04  0.7818609E-02  0.8404967E-01
       -2   -1    0    0    0  501  0.00000000000E+00  0.00000000000E+00  0.91597550834E+03  0.91597550834E+03  0.25500000920E-02 0. -1.
        2   -1    0    0  501    0  0.00000000000E+00  0.00000000000E+00 -0.16982619742E+04  0.16982619742E+04  0.25500000920E-02 0.  1.
    10030    2    1    2    0    0  0.00000000000E+00  0.00000000000E+00 -0.78228646585E+03  0.26142374825E+04  0.24944469328E+04 0.  0.
        4    1    3    3  502    0 -0.89313872324E+03  0.45049936423E+03 -0.11718452367E+04  0.15407366186E+04  0.12699999809E+01 0.  1.
       -4    1    3    3    0  502  0.89313872324E+03 -0.45049936423E+03  0.38955877084E+03  0.10735008640E+04  0.12699999809E+01 0. -1.
</event>
<event>
 5   0  0.1008073E-05  0.2686664E+04  0.7818609E-02  0.8339345E-01
        1   -1    0    0  501    0  0.00000000000E+00  0.00000000000E+00  0.22669995347E+04  0.22669995347E+04  0.50400001928E-02 0.  1.
       -1   -1    0    0    0  501  0.00000000000E+00  0.00000000000E+00 -0.79600412963E+03  0.79600412965E+03  0.50400001928E-02 0. -1.
    10030    2    1    2    0    0  0.00000000000E+00  0.00000000000E+00  0.14709954050E+04  0.30630036643E+04  0.26866640962E+04 0.  0.
        1    1    3    3  502    0 -0.76857907526E+03  0.67761953998E+03 -0.25489973926E+03  0.10558673747E+04  0.50400001928E-02 0. -1.
       -1    1    3    3    0  502  0.76857907526E+03 -0.67761953998E+03  0.17258951443E+04  0.20071362896E+04  0.50400001928E-02 0.  1.
</event>
<event>
 5   0  0.2452457E-05  0.2500708E+04  0.7818609E-02  0.8402733E-01
        2   -1    0    0  501    0  0.00000000000E+00  0.00000000000E+00  0.19806649295E+04  0.19806649295E+04  0.25500000920E-02 0.  1.
       -2   -1    0    0    0  501  0.00000000000E+00  0.00000000000E+00 -0.78932368057E+03  0.78932368058E+03  0.25500000920E-02 0. -1.
    10030    2    1    2    0    0  0.00000000000E+00  0.00000000000E+00  0.11913412489E+04  0.27699886101E+04  0.25007084853E+04 0.  0.
        1    1    3    3  502    0  0.11098896617E+04  0.28671530079E+03  0.11487632089E+04  0.16228732652E+04  0.50400001928E-02 0.  1.
       -1    1    3    3    0  502 -0.11098896617E+04 -0.28671530079E+03  0.42578040047E+02  0.11471153449E+04  0.50400001928E-02 0. -1.
</event>
<event>
 5   0  0.8166500E-06  0.2447222E+04  0.7818609E-02  0.8422033E-01
        3   -1    0    0  501    0  0.00000000000E+00  0.00000000000E+00  0.14892734568E+04  0.14892734603E+04  0.10100000352E+00 0.  1.
       -3   -1    0    0    0  501  0.00000000000E+00  0.00000000000E+00 -0.10053388006E+04  0.10053388057E+04  0.10100000352E+00 0. -1.
    10030    2    1    2    0    0  0.00000000000E+00  0.00000000000E+00  0.48393465622E+03  0.24946122660E+04  0.24472224267E+04 0.  0.
        4    1    3    3  502    0  0.45951451972E+03  0.11124036625E+04  0.17181137797E+02  0.12036994253E+04  0.12699999809E+01 0. -1.
       -4    1    3    3    0  502 -0.45951451972E+03 -0.11124036625E+04  0.46675351842E+03  0.12909128406E+04  0.12699999809E+01 0.  1.
</event>
<event>
 5   0  0.2441340E-05  0.2592946E+04  0.7818609E-02  0.8370601E-01
        2   -1    0    0  501    0  0.00000000000E+00  0.00000000000E+00  0.22557302757E+04  0.22557302757E+04  0.25500000920E-02 0.  1.
       -2   -1    0    0    0  501  0.00000000000E+00  0.00000000000E+00 -0.74514299833E+03  0.74514299833E+03  0.25500000920E-02 0. -1.
    10030    2    1    2    0    0  0.00000000000E+00  0.00000000000E+00  0.15105872774E+04  0.30008732740E+04  0.25929455228E+04 0.  0.
        3    1    3    3  502    0 -0.58439950602E+03  0.47561776737E+03 -0.46572596267E+03  0.88579666165E+03  0.10100000352E+00 0. -1.
       -3    1    3    3    0  502  0.58439950602E+03 -0.47561776737E+03  0.19763132401E+04  0.21150766124E+04  0.10100000352E+00 0.  1.
</event>
<event>
 5   0  0.1008073E-05  0.2503134E+04  0.7818609E-02  0.8401870E-01
        1   -1    0    0  501    0  0.00000000000E+00  0.00000000000E+00  0.17631567100E+04  0.17631567100E+04  0.50400001928E-02 0.  1.
       -1   -1    0    0    0  501  0.00000000000E+00  0.00000000000E+00 -0.88841789984E+03  0.88841789985E+03  0.50400001928E-02 0. -1.
    10030    2    1    2    0    0  0.00000000000E+00  0.00000000000E+00  0.87473881015E+03  0.26515746099E+04  0.25031340207E+04 0.  0.
        1    1    3    3  502    0  0.38238162369E+00  0.69031563254E+02 -0.88639964930E+03  0.88908370879E+03  0.50400001928E-02 0. -1.
       -1    1    3    3    0  502 -0.38238162369E+00 -0.69031563254E+02  0.17611384594E+04  0.17624909011E+04  0.50400001928E-02 0.  1.
</event>
<event>
 5   0  0.8166500E-06  0.2526945E+04  0.7818609E-02  0.8393449E-01
        3   -1    0    0  501    0  0.00000000000E+00  0.00000000000E+00  0.13668708638E+04  0.13668708676E+04  0.10100000352E+00 0.  1.
       -3   -1    0    0    0  501  0.00000000000E+00  0.00000000000E+00 -0.11678956610E+04  0.11678956654E+04  0.10100000352E+00 0. -1.
    10030    2    1    2    0    0  0.00000000000E+00  0.00000000000E+00  0.19897520279E+03  0.25347665330E+04  0.25269448442E+04 0.  0.
        1    1    3    3  502    0  0.56210385738E+03  0.37828791337E+03  0.11692312943E+04  0.13513564709E+04  0.50400001928E-02 0.  1.
       -1    1    3    3    0  502 -0.56210385738E+03 -0.37828791337E+03 -0.97025609151E+03  0.11834100621E+04  0.50400001928E-02 0. -1.
</event>
<event>
 5   0  0.2345143E-05  0.2620023E+04  0.7818609E-02  0.8361432E-01
        2   -1    0    0  501    0  0.00000000000E+00  0.00000000000E+00  0.13951899492E+04  0.13951899492E+04  0.25500000920E-02 0.  1.
       -2   -1    0    0    0  501  0.00000000000E+00  0.00000000000E+00 -0.12300331711E+04  0.12300331711E+04  0.25500000920E-02 0. -1.
    10030    2    1    2    0    0  0.00000000000E+00  0.00000000000E+00  0.16515677812E+03  0.26252231203E+04  0.26200228377E+04 0.  0.
        5    1    3    3  502    0 -0.95699724355E+02 -0.24286443016E+03 -0.12037009721E+04  0.12316897698E+04  0.46999998093E+01 0. -1.
       -5    1    3    3    0  502  0.95699724355E+02  0.24286443016E+03  0.13688577502E+04  0.13935333505E+04  0.46999998093E+01 0.  1.
</event>
<event>
 5   0  0.1008073E-05  0.2509861E+04  0.7818609E-02  0.8399481E-01
       -1   -1    0    0    0  501  0.00000000000E+00  0.00000000000E+00  0.95141104104E+03  0.95141104105E+03  0.50400001928E-02 0.  1.
        1   -1    0    0  501    0  0.00000000000E+00  0.00000000000E+00 -0.16552788951E+04  0.16552788951E+04  0.50400001928E-02 0. -1.
    10030    2    1    2    0    0  0.00000000000E+00  0.00000000000E+00 -0.70386785409E+03  0.26066899362E+04  0.25098610454E+04 0.  0.
        1    1    3    3  502    0  0.26009105275E+03  0.73053092929E+03  0.67280652619E+03  0.10266408408E+04  0.50400001928E-02 0.  1.
       -1    1    3    3    0  502 -0.26009105275E+03 -0.73053092929E+03 -0.13766743803E+04  0.15800490953E+04  0.50400001928E-02 0. -1.
</event>
<event>
 5   0  0.1002753E-05  0.2504014E+04  0.7818609E-02  0.8401557E-01
        1   -1    0    0  501    0  0.00000000000E+00  0.00000000000E+00  0.14322079082E+04  0.14322079082E+04  0.50400001928E-02 0. -1.
       -1   -1    0    0    0  501  0.00000000000E+00  0.00000000000E+00 -0.10944787711E+04  0.10944787711E+04  0.50400001928E-02 0.  1.
    10030    2    1    2    0    0  0.00000000000E+00  0.00000000000E+00  0.33772913714E+03  0.25266866793E+04  0.25040136991E+04 0.  0.
        5    1    3    3  502    0 -0.60430349824E+03 -0.70816148906E+03 -0.67586766108E+03  0.11504323526E+04  0.46999998093E+01 0.  1.
       -5    1    3    3    0  502  0.60430349824E+03  0.70816148906E+03  0.10135967982E+04  0.13762543268E+04  0.46999998093E+01 0. -1.
</event>
<event>
 5   0  0.1039688E-05  0.2505954E+04  0.7818609E-02  0.8400867E-01
        1   -1    0    0  501    0  0.00000000000E+00  0.00000000000E+00  0.13917912449E+04  0.13917912449E+04  0.50400001928E-02 0. -1.
       -1   -1    0    0    0  501  0.00000000000E+00  0.00000000000E+00 -0.11280079212E+04  0.11280079213E+04  0.50400001928E-02 0.  1.
    10030    2    1    2    0    0  0.00000000000E+00  0.00000000000E+00  0.26378332364E+03  0.25197991661E+04  0.25059541488E+04 0.  0.
        3    1    3    3  502    0  0.99109213821E+03  0.45138336343E+03  0.75494472735E+03  0.13251234353E+04  0.10100000352E+00 0. -1.
       -3    1    3    3    0  502 -0.99109213821E+03 -0.45138336343E+03 -0.49116140371E+03  0.11946757309E+04  0.10100000352E+00 0.  1.
</event>
<event>
 5   0  0.2432309E-05  0.2496252E+04  0.7818609E-02  0.8404322E-01
       -2   -1    0    0    0  501  0.00000000000E+00  0.00000000000E+00  0.74898564288E+03  0.74898564288E+03  0.25500000920E-02 0. -1.
        2   -1    0    0  501    0  0.00000000000E+00  0.00000000000E+00 -0.20799037546E+04  0.20799037546E+04  0.25500000920E-02 0.  1.
    10030    2    1    2    0    0  0.00000000000E+00  0.00000000000E+00 -0.13309181117E+04  0.28288893975E+04  0.24962516306E+04 0.  0.
        4    1    3    3  502    0  0.32297562732E+03 -0.80533681030E+03 -0.16821951216E+04  0.18927922955E+04  0.12699999809E+01 0.  1.
       -4    1    3    3    0  502 -0.32297562732E+03  0.80533681030E+03  0.35127700983E+03  0.93609710202E+03  0.12699999809E+01 0. -1.
</event>
<event>
 5   0  0.1010338E-05  0.2483775E+04  0.7818609E-02  0.8408789E-01
       -1   -1    0    0    0  501  0.00000000000E+00  0.00000000000E+00  0.96263088778E+03  0.96263088779E+03  0.50400001928E-02 0.  1.
        1   -1    0    0  501    0  0.00000000000E+00  0.00000000000E+00 -0.16021553132E+04  0.16021553133E+04  0.50400001928E-02 0. -1.
    10030    2    1    2    0    0  0.00000000000E+00  0.00000000000E+00 -0.63952442547E+03  0.25647862010E+04  0.24837747012E+04 0.  0.
        2    1    3    3  502    0 -0.40400075451E+03 -0.11118436524E+04 -0.71007378578E+03  0.13797165283E+04  0.25500000920E-02 0. -1.
       -2    1    3    3    0  502  0.40400075451E+03  0.11118436524E+04  0.70549360310E+02  0.11850696728E+04  0.25500000920E-02 0.  1.
</event>
<event>
 5   0  0.2452457E-05  0.2518067E+04  0.7818609E-02  0.8396577E-01
        2   -1    0    0  501    0  0.00000000000E+00  0.00000000000E+00  0.12386005401E+04  0.12386005401E+04  0.25500000920E-02 0. -1.
       -2   -1    0    0    0  501  0.00000000000E+00  0.00000000000E+00 -0.12798031204E+04  0.12798031204E+04  0.25500000920E-02 0.  1.
    10030    2    1    2    0    0  0.00000000000E+00  0.00000000000E+00 -0.41202580280E+02  0.25184036605E+04  0.25180665886E+04 0.  0.
        1    1    3    3  502    0  0.72011144259E+02 -0.11962374054E+04 -0.40665205528E+03  0.12655178501E+04  0.50400001928E-02 0.  1.
       -1    1    3    3    0  502 -0.72011144259E+02  0.11962374054E+04  0.36544947500E+03  0.12528858103E+04  0.50400001928E-02 0. -1.
</event>
<event>
 5   0  0.2432309E-05  0.2496073E+04  0.7818609E-02  0.8404386E-01
        2   -1    0    0  501    0  0.00000000000E+00  0.00000000000E+00  0.75625924983E+03  0.75625924984E+03  0.25500000920E-02 0.  1.
       -2   -1    0    0    0  501  0.00000000000E+00  0.00000000000E+00 -0.20596041546E+04  0.20596041546E+04  0.25500000920E-02 0. -1.
    10030    2    1    2    0    0  0.00000000000E+00  0.00000000000E+00 -0.13033449048E+04  0.28158634045E+04  0.24960726696E+04 0.  0.
        4    1    3    3  502    0  0.10446503063E+04 -0.32723576811E+03  0.24460238888E+02  0.10949782767E+04  0.12699999809E+01 0.  1.
       -4    1    3    3    0  502 -0.10446503063E+04  0.32723576811E+03 -0.13278051437E+04  0.17208851277E+04  0.12699999809E+01 0. -1.
</event>
<event>
 5   0  0.2432309E-05  0.2482223E+04  0.7818609E-02  0.8409346E-01
       -2   -1    0    0    0  501  0.00000000000E+00  0.00000000000E+00  0.78232774950E+03  0.78232774951E+03  0.25500000920E-02 0. -1.
        2   -1    0    0  501    0  0.00000000000E+00  0.00000000000E+00 -0.19689418334E+04  0.19689418334E+04  0.25500000920E-02 0.  1.
    10030    2    1    2    0    0  0.00000000000E+00  0.00000000000E+00 -0.11866140839E+04  0.27512695829E+04  0.24822230629E+04 0.  0.
        4    1    3    3  502    0  0.83721388382E+02 -0.86308058485E+03 -0.15774911528E+04  0.18001103624E+04  0.12699999809E+01 0.  1.
       -4    1    3    3    0  502 -0.83721388382E+02  0.86308058485E+03  0.39087706891E+03  0.95115922049E+03  0.12699999809E+01 0. -1.
</event>
<event>
 5   0  0.2388326E-05  0.2549148E+04  0.7818609E-02  0.8385683E-01
        2   -1    0    0  501    0  0.00000000000E+00  0.00000000000E+00  0.22840377998E+04  0.22840377998E+04  0.25500000920E-02 0. -1.
       -2   -1    0    0    0  501  0.00000000000E+00  0.00000000000E+00 -0.71125726797E+03  0.71125726798E+03  0.25500000920E-02 0.  1.
    10030    2    1    2    0    0  0.00000000000E+00  0.00000000000E+00  0.15727805319E+04  0.29952950678E+04  0.25491476893E+04 0.  0.
        2    1    3    3  502    0  0.18695551375E+03 -0.10078223416E+03  0.22630984307E+04  0.22730428790E+04  0.25500000920E-02 0. -1.
       -2    1    3    3    0  502 -0.18695551375E+03  0.10078223416E+03 -0.69031789880E+03  0.72225218882E+03  0.25500000920E-02 0.  1.
</event>
<event>
 5   0  0.2441340E-05  0.2475360E+04  0.7818609E-02  0.8411816E-01
       -2   -1    0    0    0  501  0.00000000000E+00  0.00000000000E+00  0.83513563040E+03  0.83513563040E+03  0.25500000920E-02 0.  1.
        2   -1    0    0  501    0  0.00000000000E+00  0.00000000000E+00 -0.18342558186E+04  0.18342558186E+04  0.25500000920E-02 0. -1.
    10030    2    1    2    0    0  0.00000000000E+00  0.00000000000E+00 -0.99912018824E+03  0.26693914490E+04  0.24753604905E+04 0.  0.
        3    1    3    3  502    0  0.92856704835E+03  0.52767556726E+03 -0.11740242320E+04  0.15871393055E+04  0.10100000352E+00 0. -1.
       -3    1    3    3    0  502 -0.92856704835E+03 -0.52767556726E+03  0.17490404372E+03  0.10822521436E+04  0.10100000352E+00 0.  1.
</event>
<event>
 5   0  0.1039688E-05  0.2540946E+04  0.7818609E-02  0.8388542E-01
        1   -1    0    0  501    0  0.00000000000E+00  0.00000000000E+00  0.18794808434E+04  0.18794808434E+04  0.50400001928E-02 0. -1.
       -1   -1    0    0    0  501  0.00000000000E+00  0.00000000000E+00 -0.85880159152E+03  0.85880159154E+03  0.50400001928E-02 0.  1.
    10030    2    1    2    0    0  0.00000000000E+00  0.00000000000E+00  0.10206792519E+04  0.27382824349E+04  0.25409456032E+04 0.  0.
        3    1    3    3  502    0 -0.24203026517E+03 -0.12359230071E+04  0.32995806410E+03  0.13019050130E+04  0.10100000352E+00 0. -1.
       -3    1    3    3    0  502  0.24203026517E+03  0.12359230071E+04  0.69072118776E+03  0.14363774219E+04  0.10100000352E+00 0.  1.
</event>
<event>
 5   0  0.1015327E-05  0.2492301E+04  0.7818609E-02  0.8405733E-01
       -1   -1    0    0    0  501  0.00000000000E+00  0.00000000000E+00  0.87630996583E+03  0.87630996584E+03  0.50400001928E-02 0. -1.
        1   -1    0    0  501    0  0.00000000000E+00  0.00000000000E+00 -0.17720801541E+04  0.17720801541E+04  0.50400001928E-02 0.  1.
    10030    2    1    2    0    0  0.00000000000E+00  0.00000000000E+00 -0.89577018828E+03  0.26483901200E+04  0.24923013456E+04 0.  0.
        4    1    3    3  502    0  0.10154834124E+04 -0.51287141543E+03 -0.98830892170E+03  0.15069836719E+04  0.12699999809E+01 0.  1.
       -4    1    3    3    0  502 -0.10154834124E+04  0.51287141543E+03  0.92538733416E+02  0.11414064481E+04  0.12699999809E+01 0. -1.
</event>
<event>
 5   0  0.2441340E-05  0.2504683E+04  0.7818609E-02  0.8401319E-01
       -2   -1    0    0    0  501  0.00000000000E+00  0.00000000000E+00  0.97000165921E+03  0.97000165921E+03  0.25500000920E-02 0. -1.
        2   -1    0    0  501    0  0.00000000000E+00  0.00000000000E+00 -0.16168618464E+04  0.16168618464E+04  0.25500000920E-02 0.  1.
    10030    2    1    2    0    0  0.00000000000E+00  0.00000000000E+00 -0.64686018716E+03  0.25868635056E+04  0.25046825537E+04 0.  0.
        3    1    3    3  502    0  0.89009378461E+03 -0.88001357065E+03 -0.36560918100E+03  0.13039788776E+04  0.10100000352E+00 0. -1.
       -3    1    3    3    0  502 -0.89009378461E+03  0.88001357065E+03 -0.28125100616E+03  0.12828846279E+04  0.10100000352E+00 0.  1.
</event>
<event>
 5   0  0.2388326E-05  0.2498709E+04  0.7818609E-02  0.8403446E-01
       -2   -1    0    0    0  501  0.00000000000E+00  0.00000000000E+00  0.74601829361E+03  0.74601829361E+03  0.25500000920E-02 0. -1.
        2   -1    0    0  501    0  0.00000000000E+00  0.00000000000E+00 -0.20922902821E+04  0.20922902821E+04  0.25500000920E-02 0.  1.
    10030    2    1    2    0    0  0.00000000000E+00  0.00000000000E+00 -0.13462719884E+04  0.28383085757E+04  0.24987091275E+04 0.  0.
        2    1    3    3  502    0 -0.94896066792E+02 -0.98331147704E+03  0.19565328462E+03  0.10070684843E+04  0.25500000920E-02 0. -1.
       -2    1    3    3    0  502  0.94896066792E+02  0.98331147704E+03 -0.15419252731E+04  0.18312400913E+04  0.25500000920E-02 0.  1.
</event>
<event>
 5   0  0.1008073E-05  0.2509993E+04  0.7818609E-02  0.8399434E-01
       -1   -1    0    0    0  501  0.00000000000E+00  0.00000000000E+00  0.12818900393E+04  0.12818900393E+04  0.50400001928E-02 0.  1.
        1   -1    0    0  501    0  0.00000000000E+00  0.00000000000E+00 -0.12286675018E+04  0.12286675018E+04  0.50400001928E-02 0. -1.
    10030    2    1    2    0    0  0.00000000000E+00  0.00000000000E+00  0.53222537501E+02  0.25105575411E+04  0.25099933324E+04 0.  0.
        1    1    3    3  502    0 -0.10886949214E+04  0.42587567807E+03 -0.42998877888E+03  0.12455990828E+04  0.50400001928E-02 0.  1.
       -1    1    3    3    0  502  0.10886949214E+04 -0.42587567807E+03  0.48321131638E+03  0.12649584583E+04  0.50400001928E-02 0. -1.
</event>
<event>
 5   0  0.2452457E-05  0.2490088E+04  0.7818609E-02  0.8406525E-01
       -2   -1    0    0    0  501  0.00000000000E+00  0.00000000000E+00  0.14463264094E+04  0.14463264094E+04  0.25500000920E-02 0. -1.
        2   -1    0    0  501    0  0.00000000000E+00  0.00000000000E+00 -0.10717739131E+04  0.10717739131E+04  0.25500000920E-02 0.  1.
    10030    2    1    2    0    0  0.00000000000E+00  0.00000000000E+00  0.37455249633E+03  0.25181003225E+04  0.24900882840E+04 0.  0.
        1    1    3    3  502    0 -0.47072320665E+03 -0.97658937316E+03  0.80639529620E+03  0.13511404497E+04  0.50400001928E-02 0. -1.
       -1    1    3    3    0  502  0.47072320665E+03  0.97658937316E+03 -0.43184279987E+03  0.11669598729E+04  0.50400001928E-02 0.  1.
</event>
<event>
 5   0  0.1010338E-05  0.2501031E+04  0.7818609E-02  0.8402618E-01
        1   -1    0    0  501    0  0.00000000000E+00  0.00000000000E+00  0.14337086517E+04  0.14337086517E+04  0.50400001928E-02 0.  1.
       -1   -1    0    0    0  501  0.00000000000E+00  0.00000000000E+00 -0.10907298234E+04  0.10907298234E+04  0.50400001928E-02 0. -1.
    10030    2    1    2    0    0  0.00000000000E+00  0.00000000000E+00  0.34297882828E+03  0.25244384751E+04  0.25010308151E+04 0.  0.
        2    1    3    3  502    0  0.91125919390E+03 -0.91974704310E+02 -0.68791111639E+03  0.11454581480E+04  0.25500000920E-02 0. -1.
       -2    1    3    3    0  502 -0.91125919390E+03  0.91974704310E+02  0.10308899447E+04  0.13789803272E+04  0.25500000920E-02 0.  1.
</event>
<event>
 5   0  0.2345143E-05  0.2458092E+04  0.7818609E-02  0.8418070E-01
       -2   -1    0    0    0  501  0.00000000000E+00  0.00000000000E+00  0.13206255746E+04  0.13206255746E+04  0.25500000920E-02 0.  1.
        2   -1    0    0  501    0  0.00000000000E+00  0.00000000000E+00 -0.11438166516E+04  0.11438166516E+04  0.25500000920E-02 0. -1.
    10030    2    1    2    0    0  0.00000000000E+00  0.00000000000E+00  0.17680892298E+03  0.24644422262E+04  0.24580915547E+04 0.  0.
        5    1    3    3  502    0  0.61463545910E+03  0.92738992489E+03  0.61196298703E+03  0.12697832917E+04  0.46999998093E+01 0.  1.
       -5    1    3    3    0  502 -0.61463545910E+03 -0.92738992489E+03 -0.43515406405E+03  0.11946589345E+04  0.46999998093E+01 0. -1.
</event>
<event>
 5   0  0.1010338E-05  0.2150943E+04  0.7818609E-02  0.8539129E-01
        1   -1    0    0  501    0  0.00000000000E+00  0.00000000000E+00  0.21083139629E+04  0.21083139629E+04  0.50400001928E-02 0. -1.
       -1   -1    0    0    0  501  0.00000000000E+00  0.00000000000E+00 -0.54860861313E+03  0.54860861315E+03  0.50400001928E-02 0.  1.
    10030    2    1    2    0    0  0.00000000000E+00  0.00000000000E+00  0.15597053497E+04  0.26569225760E+04  0.21509432343E+04 0.  0.
        2    1    3    3  502    0 -0.40391550437E+03  0.87054274546E+03  0.13794790352E+04  0.16804626788E+04  0.25500000920E-02 0.  1.
       -2    1    3    3    0  502  0.40391550437E+03 -0.87054274546E+03  0.18022631450E+03  0.97645989717E+03  0.25500000920E-02 0. -1.
</event>
<event>
 5   0  0.1039688E-05  0.2529873E+04  0.7818609E-02  0.8392420E-01
        1   -1    0    0  501    0  0.00000000000E+00  0.00000000000E+00  0.20459983900E+04  0.20459983900E+04  0.50400001928E-02 0.  1.
       -1   -1    0    0    0  501  0.00000000000E+00  0.00000000000E+00 -0.78204591031E+03  0.78204591033E+03  0.50400001928E-02 0. -1.
    10030    2    1    2    0    0  0.00000000000E+00  0.00000000000E+00  0.12639524797E+04  0.28280443003E+04  0.25298732565E+04 0.  0.
        3    1    3    3  502    0  0.11927491188E+04 -0.23794518667E+03  0.10204970128E+04  0.15876657506E+04  0.10100000352E+00 0. -1.
       -3    1    3    3    0  502 -0.11927491188E+04  0.23794518667E+03  0.24345546690E+03  0.12403785498E+04  0.10100000352E+00 0.  1.
</event>
<event>
 5   0  0.8166500E-06  0.2543932E+04  0.7818609E-02  0.8387499E-01
        3   -1    0    0  501    0  0.00000000000E+00  0.00000000000E+00  0.11542416901E+04  0.11542416945E+04  0.10100000352E+00 0. -1.
       -3   -1    0    0    0  501  0.00000000000E+00  0.00000000000E+00 -0.14016976898E+04  0.14016976934E+04  0.10100000352E+00 0.  1.
    10030    2    1    2    0    0  0.00000000000E+00  0.00000000000E+00 -0.24745599968E+03  0.25559393880E+04  0.25439323268E+04 0.  0.
        2    1    3    3  502    0  0.56889366044E+03  0.91441657510E+03 -0.80375359853E+03  0.13438070981E+04  0.25500000920E-02 0.  1.
       -2    1    3    3    0  502 -0.56889366044E+03 -0.91441657510E+03  0.55629759885E+03  0.12121322899E+04  0.25500000920E-02 0. -1.
</event>
<event>
 5   0  0.2452457E-05  0.2558797E+04  0.7818609E-02  0.8382333E-01
        2   -1    0    0  501    0  0.00000000000E+00  0.00000000000E+00  0.10905577098E+04  0.10905577098E+04  0.25500000920E-02 0.  1.
       -2   -1    0    0    0  501  0.00000000000E+00  0.00000000000E+00 -0.15009392393E+04  0.15009392393E+04  0.25500000920E-02 0. -1.
    10030    2    1    2    0    0  0.00000000000E+00  0.00000000000E+00 -0.41038152944E+03  0.25914969491E+04  0.25587972638E+04 0.  0.
        1    1    3    3  502    0  0.12118947428E+04 -0.15075344004E+03  0.18105595814E+03  0.12345836250E+04  0.50400001928E-02 0.  1.
       -1    1    3    3    0  502 -0.12118947428E+04  0.15075344004E+03 -0.59143748757E+03  0.13569133240E+04  0.50400001928E-02 0. -1.
</event>
<event>
 5   0  0.1039688E-05  0.2500120E+04  0.7818609E-02  0.8402943E-01
       -1   -1    0    0    0  501  0.00000000000E+00  0.00000000000E+00  0.52022037725E+03  0.52022037728E+03  0.50400001928E-02 0.  1.
        1   -1    0    0  501    0  0.00000000000E+00  0.00000000000E+00 -0.30038239257E+04  0.30038239257E+04  0.50400001928E-02 0. -1.
    10030    2    1    2    0    0  0.00000000000E+00  0.00000000000E+00 -0.24836035484E+04  0.35240443030E+04  0.25001203298E+04 0.  0.
        3    1    3    3  502    0  0.91873299243E+03  0.34721891777E+03 -0.15177295139E+03  0.99381403049E+03  0.10100000352E+00 0.  1.
       -3    1    3    3    0  502 -0.91873299243E+03 -0.34721891777E+03 -0.23318305970E+04  0.25302302725E+04  0.10100000352E+00 0. -1.
</event>
<event>
 5   0  0.2388326E-05  0.2421328E+04  0.7818609E-02  0.8431562E-01
       -2   -1    0    0    0  501  0.00000000000E+00  0.00000000000E+00  0.94249332172E+03  0.94249332173E+03  0.25500000920E-02 0.  1.
        2   -1    0    0  501    0  0.00000000000E+00  0.00000000000E+00 -0.15551377037E+04  0.15551377037E+04  0.25500000920E-02 0. -1.
    10030    2    1    2    0    0  0.00000000000E+00  0.00000000000E+00 -0.61264438193E+03  0.24976310254E+04  0.24213276524E+04 0.  0.
        2    1    3    3  502    0  0.54843012984E+03  0.77998096007E+03  0.46321763704E+03  0.10600549442E+04  0.25500000920E-02 0.  1.
       -2    1    3    3    0  502 -0.54843012984E+03 -0.77998096007E+03 -0.10758620190E+04  0.14375760812E+04  0.25500000920E-02 0. -1.
</event>
<event>
 5   0  0.1015327E-05  0.2506144E+04  0.7818609E-02  0.8400800E-01
       -1   -1    0    0    0  501  0.00000000000E+00  0.00000000000E+00  0.93561319751E+03  0.93561319752E+03  0.50400001928E-02 0. -1.
        1   -1    0    0  501    0  0.00000000000E+00  0.00000000000E+00 -0.16782465234E+04  0.16782465234E+04  0.50400001928E-02 0.  1.
    10030    2    1    2    0    0  0.00000000000E+00  0.00000000000E+00 -0.74263332585E+03  0.26138597209E+04  0.25061441267E+04 0.  0.
        4    1    3    3  502    0 -0.15320362068E+03 -0.10390102549E+04 -0.10841954897E+04  0.15094684932E+04  0.12699999809E+01 0.  1.
       -4    1    3    3    0  502  0.15320362068E+03  0.10390102549E+04  0.34156216381E+03  0.11043912277E+04  0.12699999809E+01 0. -1.
</event>
<event>
 5   0  0.1002753E-05  0.2497417E+04  0.7818609E-02  0.8403906E-01
       -1   -1    0    0    0  501  0.00000000000E+00  0.00000000000E+00  0.98562279309E+03  0.98562279311E+03  0.50400001928E-02 0. -1.
        1   -1    0    0  501    0  0.00000000000E+00  0.00000000000E+00 -0.15820181825E+04  0.15820181825E+04  0.50400001928E-02 0.  1.
    10030    2    1    2    0    0  0.00000000000E+00  0.00000000000E+00 -0.59639538941E+03  0.25676409756E+04  0.24974172097E+04 0.  0.
        5    1    3    3  502    0  0.53621103747E+03  0.53038549532E+02 -0.14563337634E+04  0.15528250014E+04  0.46999998093E+01 0.  1.
       -5    1    3    3    0  502 -0.53621103747E+03 -0.53038549532E+02  0.85993837402E+03  0.10148159742E+04  0.46999998093E+01 0. -1.
</event>
<event>
 5   0  0.2345143E-05  0.2558192E+04  0.7818609E-02  0.8382543E-01
        2   -1    0    0  501    0  0.00000000000E+00  0.00000000000E+00  0.15362395395E+04  0.15362395395E+04  0.25500000920E-02 0.  1.
       -2   -1    0    0    0  501  0.00000000000E+00  0.00000000000E+00 -0.10649941945E+04  0.10649941945E+04  0.25500000920E-02 0. -1.
    10030    2    1    2    0    0  0.00000000000E+00  0.00000000000E+00  0.47124534503E+03  0.26012337340E+04  0.25581916980E+04 0.  0.
        5    1    3    3  502    0 -0.80729806185E+03  0.74720825551E+03 -0.42805637535E+03  0.11803832802E+04  0.46999998093E+01 0. -1.
       -5    1    3    3    0  502  0.80729806185E+03 -0.74720825551E+03  0.89930172038E+03  0.14208504538E+04  0.46999998093E+01 0.  1.
</event>
<event>
 5   0  0.1002753E-05  0.2579692E+04  0.7818609E-02  0.8375132E-01
        1   -1    0    0  501    0  0.00000000000E+00  0.00000000000E+00  0.12716773141E+04  0.12716773142E+04  0.50400001928E-02 0. -1.
       -1   -1    0    0    0  501  0.00000000000E+00  0.00000000000E+00 -0.13082739031E+04  0.13082739031E+04  0.50400001928E-02 0.  1.
    10030    2    1    2    0    0  0.00000000000E+00  0.00000000000E+00 -0.36596588929E+02  0.25799512172E+04  0.25796916430E+04 0.  0.
        5    1    3    3  502    0  0.13141139628E+03 -0.11421593832E+04 -0.60306486941E+03  0.12982705182E+04  0.46999998093E+01 0.  1.
       -5    1    3    3    0  502 -0.13141139628E+03  0.11421593832E+04  0.56646828048E+03  0.12816806991E+04  0.46999998093E+01 0. -1.
</event>
<event>
 5   0  0.1010338E-05  0.2497575E+04  0.7818609E-02  0.8403850E-01
        1   -1    0    0  501    0  0.00000000000E+00  0.00000000000E+00  0.22696758686E+04  0.22696758686E+04  0.50400001928E-02 0. -1.
       -1   -1    0    0    0  501  0.00000000000E+00  0.00000000000E+00 -0.68708953869E+03  0.68708953870E+03  0.50400001928E-02 0.  1.
    10030    2    1    2    0    0  0.00000000000E+00  0.00000000000E+00  0.15825863299E+04  0.29567654073E+04  0.24975752606E+04 0.  0.
        2    1    3    3  502    0 -0.80629436818E+03 -0.46236191286E+03  0.17786457430E+04  0.20068557063E+04  0.25500000920E-02 0. -1.
       -2    1    3    3    0  502  0.80629436818E+03  0.46236191286E+03 -0.19605941312E+03  0.94990970103E+03  0.25500000920E-02 0.  1.
</event>
<event>
 5   0  0.2452457E-05  0.2454902E+04  0.7818609E-02  0.8419230E-01
        2   -1    0    0  501    0  0.00000000000E+00  0.00000000000E+00  0.20820127691E+04  0.20820127691E+04  0.25500000920E-02 0.  1.
       -2   -1    0    0    0  501  0.00000000000E+00  0.00000000000E+00 -0.72364422745E+03  0.72364422745E+03  0.25500000920E-02 0. -1.
    10030    2    1    2    0    0  0.00000000000E+00  0.00000000000E+00  0.13583685417E+04  0.28056569966E+04  0.24549024599E+04 0.  0.
        1    1    3    3  502    0  0.52301015680E+03  0.17978249139E+03  0.19315500181E+04  0.20091657077E+04  0.50400001928E-02 0.  1.
       -1    1    3    3    0  502 -0.52301015680E+03 -0.17978249139E+03 -0.57318147645E+03  0.79649128890E+03  0.50400001928E-02 0. -1.
</event>
<event>
 5   0  0.1008073E-05  0.2499317E+04  0.7818609E-02  0.8403229E-01
       -1   -1    0    0    0  501  0.00000000000E+00  0.00000000000E+00  0.12642526900E+04  0.12642526900E+04  0.50400001928E-02 0. -1.
        1   -1    0    0  501    0  0.00000000000E+00  0.00000000000E+00 -0.12352330174E+04  0.12352330174E+04  0.50400001928E-02 0.  1.
    10030    2    1    2    0    0  0.00000000000E+00  0.00000000000E+00  0.29019672597E+02  0.24994857075E+04  0.24993172389E+04 0.  0.
        1    1    3    3  502    0 -0.85067549097E+03  0.87921976744E+03 -0.24040041023E+03  0.12467832801E+04  0.50400001928E-02 0.  1.
       -1    1    3    3    0  502  0.85067549097E+03 -0.87921976744E+03  0.26942008282E+03  0.12527024273E+04  0.50400001928E-02 0. -1.
</event>
<event>
 5   0  0.2452457E-05  0.2494114E+04  0.7818609E-02  0.8405085E-01
        2   -1    0    0  501    0  0.00000000000E+00  0.00000000000E+00  0.13218372135E+04  0.13218372135E+04  0.25500000920E-02 0.  1.
       -2   -1    0    0    0  501  0.00000000000E+00  0.00000000000E+00 -0.11765076114E+04  0.11765076114E+04  0.25500000920E-02 0. -1.
    10030    2    1    2    0    0  0.00000000000E+00  0.00000000000E+00  0.14532960203E+03  0.24983448249E+04  0.24941143059E+04 0.  0.
        1    1    3    3  502    0  0.24249125077E+02  0.78988857745E+03 -0.89366813268E+03  0.11929604839E+04  0.50400001928E-02 0. -1.
       -1    1    3    3    0  502 -0.24249125077E+02 -0.78988857745E+03  0.10389977347E+04  0.13053843410E+04  0.50400001928E-02 0.  1.
</event>
<event>
 5   0  0.2452457E-05  0.2537690E+04  0.7818609E-02  0.8389680E-01
       -2   -1    0    0    0  501  0.00000000000E+00  0.00000000000E+00  0.59737090260E+03  0.59737090260E+03  0.25500000920E-02 0.  1.
        2   -1    0    0  501    0  0.00000000000E+00  0.00000000000E+00 -0.26950892792E+04  0.26950892792E+04  0.25500000920E-02 0. -1.
    10030    2    1    2    0    0  0.00000000000E+00  0.00000000000E+00 -0.20977183766E+04  0.32924601818E+04  0.25376902217E+04 0.  0.
        1    1    3    3  502    0  0.75731571034E+03  0.15559297573E+02 -0.23695569895E+04  0.24876835617E+04  0.50400001928E-02 0. -1.
       -1    1    3    3    0  502 -0.75731571034E+03 -0.15559297573E+02  0.27183861282E+03  0.80477662013E+03  0.50400001928E-02 0.  1.
</event>
<event>
 5   0  0.1015327E-05  0.2463157E+04  0.7818609E-02  0.8416230E-01
        1   -1    0    0  501    0  0.00000000000E+00  0.00000000000E+00  0.12587729667E+04  0.12587729667E+04  0.50400001928E-02 0. -1.
       -1   -1    0    0    0  501  0.00000000000E+00  0.00000000000E+00 -0.12049714987E+04  0.12049714987E+04  0.50400001928E-02 0.  1.
    10030    2    1    2    0    0  0.00000000000E+00  0.00000000000E+00  0.53801468017E+02  0.24637444654E+04  0.24631569566E+04 0.  0.
        4    1    3    3  502    0  0.64875916517E+03  0.10346060321E+04 -0.13278019282E+03  0.12283852362E+04  0.12699999809E+01 0.  1.
       -4    1    3    3    0  502 -0.64875916517E+03 -0.10346060321E+04  0.18658166084E+03  0.12353592292E+04  0.12699999809E+01 0. -1.
</event>
<event>
 5   0  0.1002753E-05  0.2494016E+04  0.7818609E-02  0.8405121E-01
        1   -1    0    0  501    0  0.00000000000E+00  0.00000000000E+00  0.10844216377E+04  0.10844216377E+04  0.50400001928E-02 0.  1.
       -1   -1    0    0    0  501  0.00000000000E+00  0.00000000000E+00 -0.14339705253E+04  0.14339705253E+04  0.50400001928E-02 0. -1.
    10030    2    1    2    0    0  0.00000000000E+00  0.00000000000E+00 -0.34954888760E+03  0.25183921631E+04  0.24940157702E+04 0.  0.
        5    1    3    3  502    0  0.96030021310E+03 -0.77895785308E+03 -0.33776690985E+03  0.12818191805E+04  0.46999998093E+01 0.  1.
       -5    1    3    3    0  502 -0.96030021310E+03  0.77895785308E+03 -0.11781977753E+02  0.12365729825E+04  0.46999998093E+01 0. -1.
</event>
<event>
 5   0  0.2432309E-05  0.2471592E+04  0.7818609E-02  0.8413176E-01
        2   -1    0    0  501    0  0.00000000000E+00  0.00000000000E+00  0.12870858280E+04  0.12870858280E+04  0.25500000920E-02 0.  1.
       -2   -1    0    0    0  501  0.00000000000E+00  0.00000000000E+00 -0.11865503387E+04  0.11865503387E+04  0.25500000920E-02 0. -1.
    10030    2    1    2    0    0  0.00000000000E+00  0.00000000000E+00  0.10053548939E+03  0.24736361667E+04  0.24715923006E+04 0.  0.
        4    1    3    3  502    0  0.69860491429E+00  0.10633669124E+04  0.68042389435E+03  0.12624293910E+04  0.12699999809E+01 0.  1.
       -4    1    3    3    0  502 -0.69860491429E+00 -0.10633669124E+04 -0.57988840496E+03  0.12112067757E+04  0.12699999809E+01 0. -1.
</event>
<event>
 5   0  0.1015327E-05  0.2466753E+04  0.7818609E-02  0.8414926E-01
       -1   -1    0    0    0  501  0.00000000000E+00  0.00000000000E+00  0.55990988613E+03  0.55990988615E+03  0.50400001928E-02 0.  1.
        1   -1    0    0  501    0  0.00000000000E+00  0.00000000000E+00 -0.27168978883E+04  0.27168978883E+04  0.50400001928E-02 0. -1.
    10030    2    1    2    0    0  0.00000000000E+00  0.00000000000E+00 -0.21569880022E+04  0.32768077745E+04  0.24667533215E+04 0.  0.
        4    1    3    3  502    0  0.10032469771E+03 -0.86732729819E+02 -0.27073982498E+04  0.27106446664E+04  0.12699999809E+01 0. -1.
       -4    1    3    3    0  502 -0.10032469771E+03  0.86732729819E+02  0.55041024761E+03  0.56616310810E+03  0.12699999809E+01 0.  1.
</event>
<event>
 5   0  0.1008073E-05  0.2503236E+04  0.7818609E-02  0.8401834E-01
       -1   -1    0    0    0  501  0.00000000000E+00  0.00000000000E+00  0.15502259271E+04  0.15502259271E+04  0.50400001928E-02 0.  1.
        1   -1    0    0  501    0  0.00000000000E+00  0.00000000000E+00 -0.10105281890E+04  0.10105281890E+04  0.50400001928E-02 0. -1.
    10030    2    1    2    0    0  0.00000000000E+00  0.00000000000E+00  0.53969773814E+03  0.25607541161E+04  0.25032355052E+04 0.  0.
        1    1    3    3  502    0 -0.67824814248E+03 -0.27562065148E+03 -0.76864216095E+03  0.10615074460E+04  0.50400001928E-02 0. -1.
       -1    1    3    3    0  502  0.67824814248E+03  0.27562065148E+03  0.13083398991E+04  0.14992466701E+04  0.50400001928E-02 0.  1.
</event>
<event>
 5   0  0.1002753E-05  0.2445973E+04  0.7818609E-02  0.8422490E-01
       -1   -1    0    0    0  501  0.00000000000E+00  0.00000000000E+00  0.10013040736E+04  0.10013040736E+04  0.50400001928E-02 0. -1.
        1   -1    0    0  501    0  0.00000000000E+00  0.00000000000E+00 -0.14937479871E+04  0.14937479871E+04  0.50400001928E-02 0.  1.
    10030    2    1    2    0    0  0.00000000000E+00  0.00000000000E+00 -0.49244391350E+03  0.24950520607E+04  0.24459729716E+04 0.  0.
        5    1    3    3  502    0  0.40232839007E+03  0.77696774363E+03 -0.11178418163E+04  0.14195560659E+04  0.46999998093E+01 0.  1.
       -5    1    3    3    0  502 -0.40232839007E+03 -0.77696774363E+03  0.62539790277E+03  0.10754959948E+04  0.46999998093E+01 0. -1.
</event>
<event>
 5   0  0.2432309E-05  0.2495063E+04  0.7818609E-02  0.8404746E-01
        2   -1    0    0  501    0  0.00000000000E+00  0.00000000000E+00  0.19205051704E+04  0.19205051704E+04  0.25500000920E-02 0. -1.
       -2   -1    0    0    0  501  0.00000000000E+00  0.00000000000E+00 -0.81037802993E+03  0.81037802994E+03  0.25500000920E-02 0.  1.
    10030    2    1    2    0    0  0.00000000000E+00  0.00000000000E+00  0.11101271405E+04  0.27308832003E+04  0.24950632829E+04 0.  0.
        4    1    3    3  502    0  0.65896115038E+03 -0.84767941286E+02 -0.60063096461E+03  0.89564198770E+03  0.12699999809E+01 0.  1.
       -4    1    3    3    0  502 -0.65896115038E+03  0.84767941286E+02  0.17107581051E+04  0.18352412126E+04  0.12699999809E+01 0. -1.
</event>
<event>
 5   0  0.2388326E-05  0.2486911E+04  0.7818609E-02  0.8407663E-01
       -2   -1    0    0    0  501  0.00000000000E+00  0.00000000000E+00  0.12380765065E+04  0.12380765065E+04  0.25500000920E-02 0. -1.
        2   -1    0    0  501    0  0.00000000000E+00  0.00000000000E+00 -0.12488581430E+04  0.12488581430E+04  0.25500000920E-02 0.  1.
    10030    2    1    2    0    0  0.00000000000E+00  0.00000000000E+00 -0.10781636447E+02  0.24869346495E+04  0.24869112785E+04 0.  0.
        2    1    3    3  502    0 -0.30974653668E+03 -0.25949571010E+03 -0.11813699755E+04  0.12485655608E+04  0.25500000920E-02 0.  1.
       -2    1    3    3    0  502  0.30974653668E+03  0.25949571010E+03  0.11705883390E+04  0.12383690888E+04  0.25500000920E-02 0. -1.
</event>
<event>
 5   0  0.1002753E-05  0.2489439E+04  0.7818609E-02  0.8406758E-01
       -1   -1    0    0    0  501  0.00000000000E+00  0.00000000000E+00  0.16908882380E+04  0.16908882380E+04  0.50400001928E-02 0. -1.
        1   -1    0    0  501    0  0.00000000000E+00  0.00000000000E+00 -0.91627958170E+03  0.91627958171E+03  0.50400001928E-02 0.  1.
    10030    2    1    2    0    0  0.00000000000E+00  0.00000000000E+00  0.77460865629E+03  0.26071678197E+04  0.24894387861E+04 0.  0.
        5    1    3    3  502    0  0.73297661087E+03  0.78233088730E+03 -0.27506748910E+03  0.11067883912E+04  0.46999998093E+01 0.  1.
       -5    1    3    3    0  502 -0.73297661087E+03 -0.78233088730E+03  0.10496761454E+04  0.15003794285E+04  0.46999998093E+01 0. -1.
</event>
<event>
 5   0  0.1008073E-05  0.2428471E+04  0.7818609E-02  0.8428921E-01
       -1   -1    0    0    0  501  0.00000000000E+00  0.00000000000E+00  0.16564635756E+04  0.16564635756E+04  0.50400001928E-02 0.  1.
        1   -1    0    0  501    0  0.00000000000E+00  0.00000000000E+00 -0.89006990538E+03  0.89006990539E+03  0.50400001928E-02 0. -1.
    10030    2    1    2    0    0  0.00000000000E+00  0.00000000000E+00  0.76639367025E+03  0.25465334810E+04  0.24284714353E+04 0.  0.
        1    1    3    3  502    0 -0.10894391002E+04  0.46895706955E+03  0.65577662106E+03  0.13553011705E+04  0.50400001928E-02 0. -1.
       -1    1    3    3    0  502  0.10894391002E+04 -0.46895706955E+03  0.11061704919E+03  0.11912323105E+04  0.50400001928E-02 0.  1.
</event>
<event>
 5   0  0.2441340E-05  0.2631393E+04  0.7818609E-02  0.8357615E-01
       -2   -1    0    0    0  501  0.00000000000E+00  0.00000000000E+00  0.11632659927E+04  0.11632659927E+04  0.25500000920E-02 0.  1.
        2   -1    0    0  501    0  0.00000000000E+00  0.00000000000E+00 -0.14881005914E+04  0.14881005914E+04  0.25500000920E-02 0. -1.
    10030    2    1    2    0    0  0.00000000000E+00  0.00000000000E+00 -0.32483459873E+03  0.26513665841E+04  0.26313926440E+04 0.  0.
        3    1    3    3  502    0  0.74453209359E+03  0.99131749851E+03  0.28140136235E+03  0.12713084434E+04  0.10100000352E+00 0.  1.
       -3    1    3    3    0  502 -0.74453209359E+03 -0.99131749851E+03 -0.60623596108E+03  0.13800581408E+04  0.10100000352E+00 0. -1.
</event>
<event>
 5   0  0.2432309E-05  0.2502816E+04  0.7818609E-02  0.8401983E-01
        2   -1    0    0  501    0  0.00000000000E+00  0.00000000000E+00  0.22042613508E+04  0.22042613508E+04  0.25500000920E-02 0. -1.
       -2   -1    0    0    0  501  0.00000000000E+00  0.00000000000E+00 -0.71045205242E+03  0.71045205243E+03  0.25500000920E-02 0.  1.
    10030    2    1    2    0    0  0.00000000000E+00  0.00000000000E+00  0.14938092984E+04  0.29147134032E+04  0.25028160146E+04 0.  0.
        4    1    3    3  502    0  0.63156103259E+03 -0.10746081598E+04  0.61738881479E+03  0.13909790065E+04  0.12699999809E+01 0.  1.
       -4    1    3    3    0  502 -0.63156103259E+03  0.10746081598E+04  0.87642048357E+03  0.15237343967E+04  0.12699999809E+01 0. -1.
</event>
<event>
 5   0  0.2432309E-05  0.2498729E+04  0.7818609E-02  0.8403438E-01
        2   -1    0    0  501    0  0.00000000000E+00  0.00000000000E+00  0.21691653186E+04  0.21691653186E+04  0.25500000920E-02 0. -1.
       -2   -1    0    0    0  501  0.00000000000E+00  0.00000000000E+00 -0.71959101639E+03  0.71959101639E+03  0.25500000920E-02 0.  1.
    10030    2    1    2    0    0  0.00000000000E+00  0.00000000000E+00  0.14495743022E+04  0.28887563350E+04  0.24987291781E+04 0.  0.
        4    1    3    3  502    0 -0.15195002781E+03  0.93147132584E+03 -0.22164242528E+03  0.96946099426E+03  0.12699999809E+01 0.  1.
       -4    1    3    3    0  502  0.15195002781E+03 -0.93147132584E+03  0.16712167275E+04  0.19192953407E+04  0.12699999809E+01 0. -1.
</event>
<event>
 5   0  0.1039688E-05  0.2501405E+04  0.7818609E-02  0.8402485E-01
       -1   -1    0    0    0  501  0.00000000000E+00  0.00000000000E+00  0.89095354730E+03  0.89095354731E+03  0.50400001928E-02 0. -1.
        1   -1    0    0  501    0  0.00000000000E+00  0.00000000000E+00 -0.17557109486E+04  0.17557109486E+04  0.50400001928E-02 0.  1.
    10030    2    1    2    0    0  0.00000000000E+00  0.00000000000E+00 -0.86475740132E+03  0.26466644959E+04  0.25014051233E+04 0.  0.
        3    1    3    3  502    0  0.10922395035E+04  0.56496952718E+03 -0.67383968039E+03  0.14022259535E+04  0.10100000352E+00 0.  1.
       -3    1    3    3    0  502 -0.10922395035E+04 -0.56496952718E+03 -0.19091772093E+03  0.12444385424E+04  0.10100000352E+00 0. -1.
</event>
<event>
 5   0  0.1002753E-05  0.2528211E+04  0.7818609E-02  0.8393004E-01
        1   -1    0    0  501    0  0.00000000000E+00  0.00000000000E+00  0.15267691608E+04  0.15267691608E+04  0.50400001928E-02 0.  1.
       -1   -1    0    0    0  501  0.00000000000E+00  0.00000000000E+00 -0.10466301296E+04  0.10466301296E+04  0.50400001928E-02 0. -1.
    10030    2    1    2    0    0  0.00000000000E+00  0.00000000000E+00  0.48013903121E+03  0.25733992903E+04  0.25282109125E+04 0.  0.
        5    1    3    3  502    0  0.48109090410E+03  0.26671450635E+03  0.13985490076E+04  0.15028461340E+04  0.46999998093E+01 0.  1.
       -5    1    3    3    0  502 -0.48109090410E+03 -0.26671450635E+03 -0.91840997635E+03  0.10705531563E+04  0.46999998093E+01 0. -1.
</event>
<event>
 5   0  0.1039688E-05  0.2455076E+04  0.7818609E-02  0.8419167E-01
        1   -1    0    0  501    0  0.00000000000E+00  0.00000000000E+00  0.17825887183E+04  0.17825887183E+04  0.50400001928E-02 0. -1.
       -1   -1    0    0    0  501  0.00000000000E+00  0.00000000000E+00 -0.84531542872E+03  0.84531542873E+03  0.50400001928E-02 0.  1.
    10030    2    1    2    0    0  0.00000000000E+00  0.00000000000E+00  0.93727328955E+03  0.26279041470E+04  0.24550761672E+04 0.  0.
        3    1    3    3  502    0  0.38867426959E+03  0.56724673725E+03 -0.61981111225E+03  0.92574422700E+03  0.10100000352E+00 0.  1.
       -3    1    3    3    0  502 -0.38867426959E+03 -0.56724673725E+03  0.15570844018E+04  0.17021599200E+04  0.10100000352E+00 0. -1.
</event>
<event>
 5   0  0.1010338E-05  0.2704618E+04  0.7818609E-02  0.8333508E-01
       -1   -1    0    0    0  501  0.00000000000E+00  0.00000000000E+00  0.88581609404E+03  0.88581609405E+03  0.50400001928E-02 0. -1.
        1   -1    0    0  501    0  0.00000000000E+00  0.00000000000E+00 -0.20644683007E+04  0.20644683007E+04  0.50400001928E-02 0.  1.
    10030    2    1    2    0    0  0.00000000000E+00  0.00000000000E+00 -0.11786522067E+04  0.29502843948E+04  0.27046177153E+04 0.  0.
        2    1    3    3  502    0 -0.52180495997E+03  0.11253788142E+04 -0.11767383964E+04  0.17098161145E+04  0.25500000920E-02 0. -1.
       -2    1    3    3    0  502  0.52180495997E+03 -0.11253788142E+04 -0.19138103067E+01  0.12404682803E+04  0.25500000920E-02 0.  1.
</event>
<event>
 5   0  0.2441340E-05  0.2489964E+04  0.7818609E-02  0.8406570E-01
       -2   -1    0    0    0  501  0.00000000000E+00  0.00000000000E+00  0.11248276890E+04  0.11248276890E+04  0.25500000920E-02 0.  1.
        2   -1    0    0  501    0  0.00000000000E+00  0.00000000000E+00 -0.13779714831E+04  0.13779714831E+04  0.25500000920E-02 0. -1.
    10030    2    1    2    0    0  0.00000000000E+00  0.00000000000E+00 -0.25314379411E+03  0.25027991721E+04  0.24899642397E+04 0.  0.
        3    1    3    3  502    0 -0.11335663545E+04 -0.50641615538E+03 -0.21951727290E+03  0.12608004782E+04  0.10100000352E+00 0.  1.
       -3    1    3    3    0  502  0.11335663545E+04  0.50641615538E+03 -0.33626521209E+02  0.12419986939E+04  0.10100000352E+00 0. -1.
</event>
<event>
 5   0  0.2441340E-05  0.2512426E+04  0.7818609E-02  0.8398572E-01
        2   -1    0    0  501    0  0.00000000000E+00  0.00000000000E+00  0.20975655614E+04  0.20975655614E+04  0.25500000920E-02 0. -1.
       -2   -1    0    0    0  501  0.00000000000E+00  0.00000000000E+00 -0.75233451462E+03  0.75233451462E+03  0.25500000920E-02 0.  1.
    10030    2    1    2    0    0  0.00000000000E+00  0.00000000000E+00  0.13452310468E+04  0.28499000760E+04  0.25124258942E+04 0.  0.
        3    1    3    3  502    0 -0.92968864572E+02  0.21226143398E+03  0.20731118439E+04  0.20860227356E+04  0.10100000352E+00 0. -1.
       -3    1    3    3    0  502  0.92968864572E+02 -0.21226143398E+03 -0.72788079711E+03  0.76387734037E+03  0.10100000352E+00 0.  1.
</event>
<event>
 5   0  0.1039688E-05  0.2498092E+04  0.7818609E-02  0.8403666E-01
       -1   -1    0    0    0  501  0.00000000000E+00  0.00000000000E+00  0.14376903202E+04  0.14376903202E+04  0.50400001928E-02 0. -1.
        1   -1    0    0  501    0  0.00000000000E+00  0.00000000000E+00 -0.10851543665E+04  0.10851543665E+04  0.50400001928E-02 0.  1.
    10030    2    1    2    0    0  0.00000000000E+00  0.00000000000E+00  0.35253595372E+03  0.25228446867E+04  0.24980920148E+04 0.  0.
        3    1    3    3  502    0  0.55043775657E+03 -0.11185371454E+04  0.97983125748E+02  0.12504830157E+04  0.10100000352E+00 0. -1.
       -3    1    3    3    0  502 -0.55043775657E+03  0.11185371454E+04  0.25455282798E+03  0.12723616710E+04  0.10100000352E+00 0.  1.
</event>
<event>
 5   0  0.2388326E-05  0.2389440E+04  0.7818609E-02  0.8443468E-01
        2   -1    0    0  501    0  0.00000000000E+00  0.00000000000E+00  0.21419840393E+04  0.21419840393E+04  0.25500000920E-02 0.  1.
       -2   -1    0    0    0  501  0.00000000000E+00  0.00000000000E+00 -0.66637067956E+03  0.66637067956E+03  0.25500000920E-02 0. -1.
    10030    2    1    2    0    0  0.00000000000E+00  0.00000000000E+00  0.14756133598E+04  0.28083547189E+04  0.23894395660E+04 0.  0.
        2    1    3    3  502    0 -0.36416024983E+02 -0.13718938836E+03  0.21320388714E+04  0.21367584805E+04  0.25500000920E-02 0.  1.
       -2    1    3    3    0  502  0.36416024983E+02  0.13718938836E+03 -0.65642551157E+03  0.67159623837E+03  0.25500000920E-02 0. -1.
</event>
<event>
 5   0  0.2452457E-05  0.2501815E+04  0.7818609E-02  0.8402339E-01
        2   -1    0    0  501    0  0.00000000000E+00  0.00000000000E+00  0.92820365221E+03  0.92820365222E+03  0.25500000920E-02 0.  1.
       -2   -1    0    0    0  501  0.00000000000E+00  0.00000000000E+00 -0.16858045082E+04  0.16858045082E+04  0.25500000920E-02 0. -1.
    10030    2    1    2    0    0  0.00000000000E+00  0.00000000000E+00 -0.75760085597E+03  0.26140081604E+04  0.25018152621E+04 0.  0.
        1    1    3    3  502    0  0.38322849477E+03  0.11097650140E+04  0.72213657264E+02  0.11762896233E+04  0.50400001928E-02 0.  1.
       -1    1    3    3    0  502 -0.38322849477E+03 -0.11097650140E+04 -0.82981451324E+03  0.14377185371E+04  0.50400001928E-02 0. -1.
</event>
<event>
 5   0  0.2432309E-05  0.2513208E+04  0.7818609E-02  0.8398295E-01
        2   -1    0    0  501    0  0.00000000000E+00  0.00000000000E+00  0.14825731091E+04  0.14825731091E+04  0.25500000920E-02 0. -1.
       -2   -1    0    0    0  501  0.00000000000E+00  0.00000000000E+00 -0.10650764878E+04  0.10650764878E+04  0.25500000920E-02 0.  1.
    10030    2    1    2    0    0  0.00000000000E+00  0.00000000000E+00  0.41749662131E+03  0.25476495969E+04  0.25132081171E+04 0.  0.
        4    1    3    3  502    0  0.16043055591E+03  0.86913705352E+03 -0.69675396637E+03  0.11254354196E+04  0.12699999809E+01 0.  1.
       -4    1    3    3    0  502 -0.16043055591E+03 -0.86913705352E+03  0.11142505877E+04  0.14222141773E+04  0.12699999809E+01 0. -1.
</event>
<event>
 5   0  0.1002753E-05  0.2190984E+04  0.7818609E-02  0.8522190E-01
        1   -1    0    0  501    0  0.00000000000E+00  0.00000000000E+00  0.15743496029E+04  0.15743496029E+04  0.50400001928E-02 0. -1.
       -1   -1    0    0    0  501  0.00000000000E+00  0.00000000000E+00 -0.76228479809E+03  0.76228479811E+03  0.50400001928E-02 0.  1.
    10030    2    1    2    0    0  0.00000000000E+00  0.00000000000E+00  0.81206480483E+03  0.23366344010E+04  0.21909840430E+04 0.  0.
        5    1    3    3  502    0 -0.70923219754E+03 -0.58472000481E+02 -0.48219094266E+03  0.85962752402E+03  0.46999998093E+01 0.  1.
       -5    1    3    3    0  502  0.70923219754E+03  0.58472000481E+02  0.12942557475E+04  0.14770068770E+04  0.46999998093E+01 0. -1.
</event>
<event>
 5   0  0.2452457E-05  0.2511347E+04  0.7818609E-02  0.8398954E-01
        2   -1    0    0  501    0  0.00000000000E+00  0.00000000000E+00  0.74451737158E+03  0.74451737159E+03  0.25500000920E-02 0.  1.
       -2   -1    0    0    0  501  0.00000000000E+00  0.00000000000E+00 -0.21177684585E+04  0.21177684585E+04  0.25500000920E-02 0. -1.
    10030    2    1    2    0    0  0.00000000000E+00  0.00000000000E+00 -0.13732510869E+04  0.28622858301E+04  0.25113465761E+04 0.  0.
        1    1    3    3  502    0  0.83160553578E+03  0.66293117175E+03  0.74248907433E+02  0.10660949329E+04  0.50400001928E-02 0.  1.
       -1    1    3    3    0  502 -0.83160553578E+03 -0.66293117175E+03 -0.14474999944E+04  0.17961908972E+04  0.50400001928E-02 0. -1.
</event>
<event>
 5   0  0.2441340E-05  0.2616956E+04  0.7818609E-02  0.8362464E-01
        2   -1    0    0  501    0  0.00000000000E+00  0.00000000000E+00  0.16996197365E+04  0.16996197365E+04  0.25500000920E-02 0. -1.
       -2   -1    0    0    0  501  0.00000000000E+00  0.00000000000E+00 -0.10073515027E+04  0.10073515027E+04  0.25500000920E-02 0.  1.
    10030    2    1    2    0    0  0.00000000000E+00  0.00000000000E+00  0.69226823385E+03  0.27069712392E+04  0.26169558617E+04 0.  0.
        3    1    3    3  502    0 -0.47870325113E+03  0.11859153456E+04  0.63235098713E+03  0.14266813907E+04  0.10100000352E+00 0.  1.
       -3    1    3    3    0  502  0.47870325113E+03 -0.11859153456E+04  0.59917246716E+02  0.12802898485E+04  0.10100000352E+00 0. -1.
</event>
<event>
 5   0  0.1015327E-05  0.2486382E+04  0.7818609E-02  0.8407853E-01
        1   -1    0    0  501    0  0.00000000000E+00  0.00000000000E+00  0.15385216781E+04  0.15385216781E+04  0.50400001928E-02 0.  1.
       -1   -1    0    0    0  501  0.00000000000E+00  0.00000000000E+00 -0.10045514241E+04  0.10045514241E+04  0.50400001928E-02 0. -1.
    10030    2    1    2    0    0  0.00000000000E+00  0.00000000000E+00  0.53397025407E+03  0.25430731022E+04  0.24863822254E+04 0.  0.
        4    1    3    3  502    0  0.10941839238E+04  0.50652963097E+03  0.57672960255E+03  0.13365737441E+04  0.12699999809E+01 0. -1.
       -4    1    3    3    0  502 -0.10941839238E+04 -0.50652963097E+03 -0.42759348477E+02  0.12064993581E+04  0.12699999809E+01 0.  1.
</event>
<event>
 5   0  0.2345143E-05  0.2487597E+04  0.7818609E-02  0.8407417E-01
        2   -1    0    0  501    0  0.00000000000E+00  0.00000000000E+00  0.99920826374E+03  0.99920826374E+03  0.25500000920E-02 0. -1.
       -2   -1    0    0    0  501  0.00000000000E+00  0.00000000000E+00 -0.15482609977E+04  0.15482609977E+04  0.25500000920E-02 0.  1.
    10030    2    1    2    0    0  0.00000000000E+00  0.00000000000E+00 -0.54905273399E+03  0.25474692615E+04  0.24875973817E+04 0.  0.
        5    1    3    3  502    0  0.92146155513E+03  0.80613756720E+02  0.57700531220E+03  0.10902051163E+04  0.46999998093E+01 0. -1.
       -5    1    3    3    0  502 -0.92146155513E+03 -0.80613756720E+02 -0.11260580462E+04  0.14572641452E+04  0.46999998093E+01 0.  1.
</event>
<event>
 5   0  0.2388326E-05  0.2474598E+04  0.7818609E-02  0.8412091E-01
        2   -1    0    0  501    0  0.00000000000E+00  0.00000000000E+00  0.20713180805E+04  0.20713180805E+04  0.25500000920E-02 0. -1.
       -2   -1    0    0    0  501  0.00000000000E+00  0.00000000000E+00 -0.73909902972E+03  0.73909902973E+03  0.25500000920E-02 0.  1.
    10030    2    1    2    0    0  0.00000000000E+00  0.00000000000E+00  0.13322190507E+04  0.28104171102E+04  0.24745982975E+04 0.  0.
        2    1    3    3  502    0  0.30108019139E+03 -0.10741651648E+04  0.58290008879E+02  0.11170845125E+04  0.25500000920E-02 0.  1.
       -2    1    3    3    0  502 -0.30108019139E+03  0.10741651648E+04  0.12739290418E+04  0.16933325977E+04  0.25500000920E-02 0. -1.
</event>
<event>
 5   0  0.2388326E-05  0.2479043E+04  0.7818609E-02  0.8410490E-01
       -2   -1    0    0    0  501  0.00000000000E+00  0.00000000000E+00  0.71976496589E+03  0.71976496590E+03  0.25500000920E-02 0.  1.
        2   -1    0    0  501    0  0.00000000000E+00  0.00000000000E+00 -0.21346039042E+04  0.21346039042E+04  0.25500000920E-02 0. -1.
    10030    2    1    2    0    0  0.00000000000E+00  0.00000000000E+00 -0.14148389383E+04  0.28543688701E+04  0.24790426429E+04 0.  0.
        2    1    3    3  502    0  0.92808213533E+03 -0.30619823172E+03 -0.15852960625E+04  0.18623258074E+04  0.25500000920E-02 0. -1.
       -2    1    3    3    0  502 -0.92808213533E+03  0.30619823172E+03  0.17045712424E+03  0.99204306269E+03  0.25500000920E-02 0.  1.
</event>
<event>
 5   0  0.1039688E-05  0.2579370E+04  0.7818609E-02  0.8375243E-01
       -1   -1    0    0    0  501  0.00000000000E+00  0.00000000000E+00  0.27006939681E+04  0.27006939681E+04  0.50400001928E-02 0. -1.
        1   -1    0    0  501    0  0.00000000000E+00  0.00000000000E+00 -0.61587422176E+03  0.61587422178E+03  0.50400001928E-02 0.  1.
    10030    2    1    2    0    0  0.00000000000E+00  0.00000000000E+00  0.20848197464E+04  0.33165681899E+04  0.25793703075E+04 0.  0.
        3    1    3    3  502    0 -0.11318807520E+04 -0.10528285341E+03  0.18256429600E+04  0.21506303130E+04  0.10100000352E+00 0. -1.
       -3    1    3    3    0  502  0.11318807520E+04  0.10528285341E+03  0.25917678638E+03  0.11659378769E+04  0.10100000352E+00 0.  1.
</event>
<event>
 5   0  0.1010338E-05  0.2497760E+04  0.7818609E-02  0.8403784E-01
        1   -1    0    0  501    0  0.00000000000E+00  0.00000000000E+00  0.19609377262E+04  0.19609377262E+04  0.50400001928E-02 0. -1.
       -1   -1    0    0    0  501  0.00000000000E+00  0.00000000000E+00 -0.79538543048E+03  0.79538543049E+03  0.50400001928E-02 0.  1.
    10030    2    1    2    0    0  0.00000000000E+00  0.00000000000E+00  0.11655522957E+04  0.27563231567E+04  0.24977600345E+04 0.  0.
        2    1    3    3  502    0  0.70888287805E+03  0.42738305072E+03  0.16147455008E+04  0.18145451880E+04  0.25500000920E-02 0. -1.
       -2    1    3    3    0  502 -0.70888287805E+03 -0.42738305072E+03 -0.44919320510E+03  0.94177796871E+03  0.25500000920E-02 0.  1.
</event>
<event>
 5   0  0.2452457E-05  0.2571051E+04  0.7818609E-02  0.8378102E-01
        2   -1    0    0  501    0  0.00000000000E+00  0.00000000000E+00  0.13645404405E+04  0.13645404405E+04  0.25500000920E-02 0.  1.
       -2   -1    0    0    0  501  0.00000000000E+00  0.00000000000E+00 -0.12110855693E+04  0.12110855693E+04  0.25500000920E-02 0. -1.
    10030    2    1    2    0    0  0.00000000000E+00  0.00000000000E+00  0.15345487128E+03  0.25756260098E+04  0.25710505528E+04 0.  0.
        1    1    3    3  502    0 -0.11644071169E+04 -0.40884589279E+03  0.43733517044E+03  0.13092978840E+04  0.50400001928E-02 0.  1.
       -1    1    3    3    0  502  0.11644071169E+04  0.40884589279E+03 -0.28388029916E+03  0.12663281258E+04  0.50400001928E-02 0. -1.
</event>
<event>
 5   0  0.1010338E-05  0.2448608E+04  0.7818609E-02  0.8421527E-01
        1   -1    0    0  501    0  0.00000000000E+00  0.00000000000E+00  0.10723050463E+04  0.10723050464E+04  0.50400001928E-02 0.  1.
       -1   -1    0    0    0  501  0.00000000000E+00  0.00000000000E+00 -0.13978481984E+04  0.13978481984E+04  0.50400001928E-02 0. -1.
    10030    2    1    2    0    0  0.00000000000E+00  0.00000000000E+00 -0.32554315208E+03  0.24701532448E+04  0.24486075041E+04 0.  0.
        2    1    3    3  502    0 -0.48636066344E+03  0.11075062617E+04  0.28109817422E+02  0.12099202356E+04  0.25500000920E-02 0.  1.
       -2    1    3    3    0  502  0.48636066344E+03 -0.11075062617E+04 -0.35365296950E+03  0.12602330092E+04  0.25500000920E-02 0. -1.
</event>
<event>
 5   0  0.1002753E-05  0.2485640E+04  0.7818609E-02  0.8408119E-01
       -1   -1    0    0    0  501  0.00000000000E+00  0.00000000000E+00  0.11987176092E+04  0.11987176092E+04  0.50400001928E-02 0.  1.
        1   -1    0    0  501    0  0.00000000000E+00  0.00000000000E+00 -0.12885447580E+04  0.12885447580E+04  0.50400001928E-02 0. -1.
    10030    2    1    2    0    0  0.00000000000E+00  0.00000000000E+00 -0.89827148834E+02  0.24872623673E+04  0.24856397903E+04 0.  0.
        5    1    3    3  502    0 -0.11537977306E+04  0.11736403179E+03  0.40209459068E+03  0.12274875433E+04  0.46999998093E+01 0.  1.
       -5    1    3    3    0  502  0.11537977306E+04 -0.11736403179E+03 -0.49192173952E+03  0.12597748239E+04  0.46999998093E+01 0. -1.
</event>
<event>
 5   0  0.2345143E-05  0.2504420E+04  0.7818609E-02  0.8401413E-01
       -2   -1    0    0    0  501  0.00000000000E+00  0.00000000000E+00  0.12451855791E+04  0.12451855791E+04  0.25500000920E-02 0.  1.
        2   -1    0    0  501    0  0.00000000000E+00  0.00000000000E+00 -0.12592738238E+04  0.12592738238E+04  0.25500000920E-02 0. -1.
    10030    2    1    2    0    0  0.00000000000E+00  0.00000000000E+00 -0.14088244646E+02  0.25044594029E+04  0.25044197776E+04 0.  0.
        5    1    3    3  502    0  0.48013571832E+02 -0.12052478728E+04  0.32923456576E+03  0.12503380452E+04  0.46999998093E+01 0.  1.
       -5    1    3    3    0  502 -0.48013571832E+02  0.12052478728E+04 -0.34332281041E+03  0.12541213578E+04  0.46999998093E+01 0. -1.
</event>
<event>
 5   0  0.1010338E-05  0.2606991E+04  0.7818609E-02  0.8365830E-01
       -1   -1    0    0    0  501  0.00000000000E+00  0.00000000000E+00  0.10105844251E+04  0.10105844251E+04  0.50400001928E-02 0.  1.
        1   -1    0    0  501    0  0.00000000000E+00  0.00000000000E+00 -0.16813049836E+04  0.16813049836E+04  0.50400001928E-02 0. -1.
    10030    2    1    2    0    0  0.00000000000E+00  0.00000000000E+00 -0.67072055854E+03  0.26918894087E+04  0.26069910857E+04 0.  0.
        2    1    3    3  502    0  0.69192019216E+02 -0.64558953064E+02  0.10070327256E+04  0.10114693789E+04  0.25500000920E-02 0.  1.
       -2    1    3    3    0  502 -0.69192019216E+02  0.64558953064E+02 -0.16777532842E+04  0.16804200298E+04  0.25500000920E-02 0. -1.
</event>
<event>
 5   0  0.1039688E-05  0.2516434E+04  0.7818609E-02  0.8397154E-01
       -1   -1    0    0    0  501  0.00000000000E+00  0.00000000000E+00  0.89994923203E+03  0.89994923205E+03  0.50400001928E-02 0.  1.
        1   -1    0    0  501    0  0.00000000000E+00  0.00000000000E+00 -0.17591102202E+04  0.17591102202E+04  0.50400001928E-02 0. -1.
    10030    2    1    2    0    0  0.00000000000E+00  0.00000000000E+00 -0.85916098817E+03  0.26590594523E+04  0.25164338988E+04 0.  0.
        3    1    3    3  502    0 -0.11341983943E+03 -0.99200461932E+03 -0.12385931184E+04  0.15909274490E+04  0.10100000352E+00 0. -1.
       -3    1    3    3    0  502  0.11341983943E+03  0.99200461932E+03  0.37943213026E+03  0.10681320033E+04  0.10100000352E+00 0.  1.
</event>
<event>
 5   0  0.1002753E-05  0.2458388E+04  0.7818609E-02  0.8417962E-01
       -1   -1    0    0    0  501  0.00000000000E+00  0.00000000000E+00  0.19215560559E+04  0.19215560559E+04  0.50400001928E-02 0.  1.
        1   -1    0    0  501    0  0.00000000000E+00  0.00000000000E+00 -0.78629941737E+03  0.78629941738E+03  0.50400001928E-02 0. -1.
    10030    2    1    2    0    0  0.00000000000E+00  0.00000000000E+00  0.11352566386E+04  0.27078554733E+04  0.24583884211E+04 0.  0.
        5    1    3    3  502    0 -0.22847211133E+03  0.11601722925E+04  0.93739798358E+03  0.15089520614E+04  0.46999998093E+01 0.  1.
       -5    1    3    3    0  502  0.22847211133E+03 -0.11601722925E+04  0.19785865498E+03  0.11989034120E+04  0.46999998093E+01 0. -1.
</event>
<event>
 5   0  0.2388326E-05  0.2470205E+04  0.7818609E-02  0.8413678E-01
       -2   -1    0    0    0  501  0.00000000000E+00  0.00000000000E+00  0.10838774241E+04  0.10838774241E+04  0.25500000920E-02 0. -1.
        2   -1    0    0  501    0  0.00000000000E+00  0.00000000000E+00 -0.14074264753E+04  0.14074264753E+04  0.25500000920E-02 0.  1.
    10030    2    1    2    0    0  0.00000000000E+00  0.00000000000E+00 -0.32354905114E+03  0.24913038994E+04  0.24702046739E+04 0.  0.
        2    1    3    3  502    0 -0.10480518783E+04  0.44731959784E+03  0.31870867575E+03  0.11832509380E+04  0.25500000920E-02 0. -1.
       -2    1    3    3    0  502  0.10480518783E+04 -0.44731959784E+03 -0.64225772689E+03  0.13080529615E+04  0.25500000920E-02 0.  1.
</event>
<event>
 5   0  0.2441340E-05  0.2516699E+04  0.7818609E-02  0.8397060E-01
       -2   -1    0    0    0  501  0.00000000000E+00  0.00000000000E+00  0.61748403690E+03  0.61748403690E+03  0.25500000920E-02 0.  1.
        2   -1    0    0  501    0  0.00000000000E+00  0.00000000000E+00 -0.25643480912E+04  0.25643480912E+04  0.25500000920E-02 0. -1.
    10030    2    1    2    0    0  0.00000000000E+00  0.00000000000E+00 -0.19468640543E+04  0.31818321281E+04  0.25166994349E+04 0.  0.
        3    1    3    3  502    0 -0.45496993838E+03 -0.88395632126E+03  0.18473830073E+01  0.99417294559E+03  0.10100000352E+00 0.  1.
       -3    1    3    3    0  502  0.45496993838E+03  0.88395632126E+03 -0.19487114374E+04  0.21876591826E+04  0.10100000352E+00 0. -1.
</event>
<event>
 5   0  0.1039688E-05  0.2521482E+04  0.7818609E-02  0.8395372E-01
        1   -1    0    0  501    0  0.00000000000E+00  0.00000000000E+00  0.16424253029E+04  0.16424253029E+04  0.50400001928E-02 0. -1.
       -1   -1    0    0    0  501  0.00000000000E+00  0.00000000000E+00 -0.96775651974E+03  0.96775651975E+03  0.50400001928E-02 0.  1.
    10030    2    1    2    0    0  0.00000000000E+00  0.00000000000E+00  0.67466878315E+03  0.26101818226E+04  0.25214819413E+04 0.  0.
        3    1    3    3  502    0 -0.91391924662E+03  0.10533571690E+03 -0.55503667145E+03  0.10744346046E+04  0.10100000352E+00 0.  1.
       -3    1    3    3    0  502  0.91391924662E+03 -0.10533571690E+03  0.12297054546E+04  0.15357472181E+04  0.10100000352E+00 0. -1.
</event>
<event>
 5   0  0.2452457E-05  0.2412533E+04  0.7818609E-02  0.8434826E-01
       -2   -1    0    0    0  501  0.00000000000E+00  0.00000000000E+00  0.60283395529E+03  0.60283395529E+03  0.25500000920E-02 0.  1.
        2   -1    0    0  501    0  0.00000000000E+00  0.00000000000E+00 -0.24137298232E+04  0.24137298232E+04  0.25500000920E-02 0. -1.
    10030    2    1    2    0    0  0.00000000000E+00  0.00000000000E+00 -0.18108958679E+04  0.30165637785E+04  0.24125325252E+04 0.  0.
        1    1    3    3  502    0  0.62371101500E+03  0.53181207464E+03 -0.20120371329E+04  0.21725866927E+04  0.50400001928E-02 0. -1.
       -1    1    3    3    0  502 -0.62371101500E+03 -0.53181207464E+03  0.20114126496E+03  0.84397708586E+03  0.50400001928E-02 0.  1.
</event>
<event>
 5   0  0.2452457E-05  0.2490285E+04  0.7818609E-02  0.8406455E-01
       -2   -1    0    0    0  501  0.00000000000E+00  0.00000000000E+00  0.76359671457E+03  0.76359671457E+03  0.25500000920E-02 0.  1.
        2   -1    0    0  501    0  0.00000000000E+00  0.00000000000E+00 -0.20303642226E+04  0.20303642226E+04  0.25500000920E-02 0. -1.
    10030    2    1    2    0    0  0.00000000000E+00  0.00000000000E+00 -0.12667675080E+04  0.27939609372E+04  0.24902846823E+04 0.  0.
        1    1    3    3  502    0 -0.47762020576E+03 -0.34046899357E+02  0.65616880312E+03  0.81230397667E+03  0.50400001928E-02 0.  1.
       -1    1    3    3    0  502  0.47762020576E+03  0.34046899357E+02 -0.19229363111E+04  0.19816569605E+04  0.50400001928E-02 0. -1.
</event>
<event>
 5   0  0.2345143E-05  0.2487006E+04  0.7818609E-02  0.8407629E-01
        2   -1    0    0  501    0  0.00000000000E+00  0.00000000000E+00  0.14947937355E+04  0.14947937355E+04  0.25500000920E-02 0.  1.
       -2   -1    0    0    0  501  0.00000000000E+00  0.00000000000E+00 -0.10344573092E+04  0.10344573092E+04  0.25500000920E-02 0. -1.
    10030    2    1    2    0    0  0.00000000000E+00  0.00000000000E+00  0.46033642630E+03  0.25292510447E+04  0.24870064780E+04 0.  0.
        5    1    3    3  502    0 -0.60500791779E+03  0.45264948860E+03  0.12345428284E+04  0.14474267599E+04  0.46999998093E+01 0.  1.
       -5    1    3    3    0  502  0.60500791779E+03 -0.45264948860E+03 -0.77420640211E+03  0.10818242848E+04  0.46999998093E+01 0. -1.
</event>
<event>
 5   0  0.2441340E-05  0.2489157E+04  0.7818609E-02  0.8406859E-01
       -2   -1    0    0    0  501  0.00000000000E+00  0.00000000000E+00  0.11418468289E+04  0.11418468289E+04  0.25500000920E-02 0. -1.
        2   -1    0    0  501    0  0.00000000000E+00  0.00000000000E+00 -0.13565529122E+04  0.13565529122E+04  0.25500000920E-02 0.  1.
    10030    2    1    2    0    0  0.00000000000E+00  0.00000000000E+00 -0.21470608326E+03  0.24983997411E+04  0.24891569987E+04 0.  0.
        3    1    3    3  502    0  0.77336238602E+03 -0.87535414987E+03 -0.53864775538E+03  0.12862642350E+04  0.10100000352E+00 0.  1.
       -3    1    3    3    0  502 -0.77336238602E+03  0.87535414987E+03  0.32394167212E+03  0.12121355060E+04  0.10100000352E+00 0. -1.
</event>
<event>
 5   0  0.1008073E-05  0.2255307E+04  0.7818609E-02  0.8495754E-01
        1   -1    0    0  501    0  0.00000000000E+00  0.00000000000E+00  0.10861526649E+04  0.10861526649E+04  0.50400001928E-02 0.  1.
       -1   -1    0    0    0  501  0.00000000000E+00  0.00000000000E+00 -0.11707404729E+04  0.11707404729E+04  0.50400001928E-02 0. -1.
    10030    2    1    2    0    0  0.00000000000E+00  0.00000000000E+00 -0.84587808027E+02  0.22568931378E+04  0.22553074154E+04 0.  0.
        1    1    3    3  502    0  0.10418556810E+04 -0.18686413731E+02  0.38904331363E+03  0.11122801545E+04  0.50400001928E-02 0.  1.
       -1    1    3    3    0  502 -0.10418556810E+04  0.18686413731E+02 -0.47363112165E+03  0.11446129833E+04  0.50400001928E-02 0. -1.
</event>
<event>
 5   0  0.1008073E-05  0.2500713E+04  0.7818609E-02  0.8402732E-01
        1   -1    0    0  501    0  0.00000000000E+00  0.00000000000E+00  0.11452480803E+04  0.11452480803E+04  0.50400001928E-02 0.  1.
       -1   -1    0    0    0  501  0.00000000000E+00  0.00000000000E+00 -0.13651114613E+04  0.13651114613E+04  0.50400001928E-02 0. -1.
    10030    2    1    2    0    0  0.00000000000E+00  0.00000000000E+00 -0.21986338103E+03  0.25103595416E+04  0.25007129227E+04 0.  0.
        1    1    3    3  502    0  0.57236655504E+03 -0.53739828334E+03  0.86695679272E+03  0.11696215066E+04  0.50400001928E-02 0.  1.
       -1    1    3    3    0  502 -0.57236655504E+03  0.53739828334E+03 -0.10868201738E+04  0.13407380350E+04  0.50400001928E-02 0. -1.
</event>
<event>
 5   0  0.1039688E-05  0.2855825E+04  0.7818609E-02  0.8286144E-01
       -1   -1    0    0    0  501  0.00000000000E+00  0.00000000000E+00  0.87183964622E+03  0.87183964624E+03  0.50400001928E-02 0. -1.
        1   -1    0    0  501    0  0.00000000000E+00  0.00000000000E+00 -0.23386565083E+04  0.23386565083E+04  0.50400001928E-02 0.  1.
    10030    2    1    2    0    0  0.00000000000E+00  0.00000000000E+00 -0.14668168621E+04  0.32104961546E+04  0.28558245485E+04 0.  0.
        3    1    3    3  502    0  0.39581706469E+03  0.10776858819E+04 -0.16878837943E+04  0.20413303804E+04  0.10100000352E+00 0.  1.
       -3    1    3    3    0  502 -0.39581706469E+03 -0.10776858819E+04  0.22106693220E+03  0.11691657742E+04  0.10100000352E+00 0. -1.
</event>
<event>
 5   0  0.2345143E-05  0.2339298E+04  0.7818609E-02  0.8462586E-01
       -2   -1    0    0    0  501  0.00000000000E+00  0.00000000000E+00  0.10016814105E+04  0.10016814105E+04  0.25500000920E-02 0.  1.
        2   -1    0    0  501    0  0.00000000000E+00  0.00000000000E+00 -0.13657820887E+04  0.13657820887E+04  0.25500000920E-02 0. -1.
    10030    2    1    2    0    0  0.00000000000E+00  0.00000000000E+00 -0.36410067813E+03  0.23674634992E+04  0.23392977827E+04 0.  0.
        5    1    3    3  502    0  0.29264094970E+03 -0.33239454320E+03  0.91354181043E+03  0.10152367149E+04  0.46999998093E+01 0.  1.
       -5    1    3    3    0  502 -0.29264094970E+03  0.33239454320E+03 -0.12776424886E+04  0.13522267844E+04  0.46999998093E+01 0. -1.
</event>
<event>
 5   0  0.2452457E-05  0.2494763E+04  0.7818609E-02  0.8404853E-01
       -2   -1    0    0    0  501  0.00000000000E+00  0.00000000000E+00  0.13124465325E+04  0.13124465325E+04  0.25500000920E-02 0. -1.
        2   -1    0    0  501    0  0.00000000000E+00  0.00000000000E+00 -0.11855424252E+04  0.11855424252E+04  0.25500000920E-02 0.  1.
    10030    2    1    2    0    0  0.00000000000E+00  0.00000000000E+00  0.12690410738E+03  0.24979889577E+04  0.24947633516E+04 0.  0.
        1    1    3    3  502    0 -0.10975230454E+03  0.11872144777E+04 -0.30367888596E+03  0.12303433059E+04  0.50400001928E-02 0. -1.
       -1    1    3    3    0  502  0.10975230454E+03 -0.11872144777E+04  0.43058299334E+03  0.12676456518E+04  0.50400001928E-02 0.  1.
</event>
<event>
 5   0  0.1002753E-05  0.2508349E+04  0.7818609E-02  0.8400017E-01
       -1   -1    0    0    0  501  0.00000000000E+00  0.00000000000E+00  0.78311357079E+03  0.78311357080E+03  0.50400001928E-02 0. -1.
        1   -1    0    0  501    0  0.00000000000E+00  0.00000000000E+00 -0.20085898064E+04  0.20085898064E+04  0.50400001928E-02 0.  1.
    10030    2    1    2    0    0  0.00000000000E+00  0.00000000000E+00 -0.12254762356E+04  0.27917033772E+04  0.25083492066E+04 0.  0.
        5    1    3    3  502    0  0.63088952748E+03 -0.78039094657E+03  0.22450426600E+03  0.10283267384E+04  0.46999998093E+01 0. -1.
       -5    1    3    3    0  502 -0.63088952748E+03  0.78039094657E+03 -0.14499805016E+04  0.17633766388E+04  0.46999998093E+01 0.  1.
</event>
<event>
 5   0  0.1002753E-05  0.2415239E+04  0.7818609E-02  0.8433820E-01
        1   -1    0    0  501    0  0.00000000000E+00  0.00000000000E+00  0.18137743597E+04  0.18137743598E+04  0.50400001928E-02 0.  1.
       -1   -1    0    0    0  501  0.00000000000E+00  0.00000000000E+00 -0.80403878816E+03  0.80403878817E+03  0.50400001928E-02 0. -1.
    10030    2    1    2    0    0  0.00000000000E+00  0.00000000000E+00  0.10097355716E+04  0.26178131479E+04  0.24152390674E+04 0.  0.
        5    1    3    3  502    0  0.98044464975E+03  0.69720352490E+03  0.61833012548E+03  0.13526709505E+04  0.46999998093E+01 0.  1.
       -5    1    3    3    0  502 -0.98044464975E+03 -0.69720352490E+03  0.39140544611E+03  0.12651421974E+04  0.46999998093E+01 0. -1.
</event>
<event>
 5   0  0.2452457E-05  0.2454605E+04  0.7818609E-02  0.8419338E-01
        2   -1    0    0  501    0  0.00000000000E+00  0.00000000000E+00  0.13325515302E+04  0.13325515302E+04  0.25500000920E-02 0. -1.
       -2   -1    0    0    0  501  0.00000000000E+00  0.00000000000E+00 -0.11303666943E+04  0.11303666943E+04  0.25500000920E-02 0.  1.
    10030    2    1    2    0    0  0.00000000000E+00  0.00000000000E+00  0.20218483589E+03  0.24629182244E+04  0.24546053598E+04 0.  0.
        1    1    3    3  502    0 -0.36471717510E+03 -0.10178133724E+04  0.68384257663E+03  0.12792979905E+04  0.50400001928E-02 0. -1.
       -1    1    3    3    0  502  0.36471717510E+03  0.10178133724E+04 -0.48165774074E+03  0.11836202339E+04  0.50400001928E-02 0.  1.
</event>
<event>
 5   0  0.1039688E-05  0.2522691E+04  0.7818609E-02  0.8394946E-01
       -1   -1    0    0    0  501  0.00000000000E+00  0.00000000000E+00  0.10284001708E+04  0.10284001708E+04  0.50400001928E-02 0.  1.
        1   -1    0    0  501    0  0.00000000000E+00  0.00000000000E+00 -0.15470563806E+04  0.15470563806E+04  0.50400001928E-02 0. -1.
    10030    2    1    2    0    0  0.00000000000E+00  0.00000000000E+00 -0.51865620980E+03  0.25754565515E+04  0.25226914565E+04 0.  0.
        3    1    3    3  502    0 -0.11327622824E+03 -0.75965953517E+03  0.76213868192E+03  0.10820210229E+04  0.10100000352E+00 0.  1.
       -3    1    3    3    0  502  0.11327622824E+03  0.75965953517E+03 -0.12807948917E+04  0.14934355286E+04  0.10100000352E+00 0. -1.
</event>
<event>
 5   0  0.1010338E-05  0.2461867E+04  0.7818609E-02  0.8416698E-01
       -1   -1    0    0    0  501  0.00000000000E+00  0.00000000000E+00  0.68583925776E+03  0.68583925778E+03  0.50400001928E-02 0. -1.
        1   -1    0    0  501    0  0.00000000000E+00  0.00000000000E+00 -0.22092606910E+04  0.22092606910E+04  0.50400001928E-02 0.  1.
    10030    2    1    2    0    0  0.00000000000E+00  0.00000000000E+00 -0.15234214333E+04  0.28950999488E+04  0.24618673502E+04 0.  0.
        2    1    3    3  502    0  0.54503077276E+03 -0.77110316331E+03 -0.16903151488E+04  0.19361879904E+04  0.25500000920E-02 0. -1.
       -2    1    3    3    0  502 -0.54503077276E+03  0.77110316331E+03  0.16689371556E+03  0.95891195843E+03  0.25500000920E-02 0.  1.
</event>
<event>
 5   0  0.1015327E-05  0.2499346E+04  0.7818609E-02  0.8403219E-01
       -1   -1    0    0    0  501  0.00000000000E+00  0.00000000000E+00  0.92459847021E+03  0.92459847023E+03  0.50400001928E-02 0. -1.
        1   -1    0    0  501    0  0.00000000000E+00  0.00000000000E+00 -0.16890383351E+04  0.16890383351E+04  0.50400001928E-02 0.  1.
    10030    2    1    2    0    0  0.00000000000E+00  0.00000000000E+00 -0.76443986491E+03  0.26136368054E+04  0.24993457230E+04 0.  0.
        4    1    3    3  502    0 -0.11814123242E+04  0.40529493499E+03 -0.33933762427E+03  0.12942761299E+04  0.12699999809E+01 0. -1.
       -4    1    3    3    0  502  0.11814123242E+04 -0.40529493499E+03 -0.42510224064E+03  0.13193606755E+04  0.12699999809E+01 0.  1.
</event>
<event>
 5   0  0.1015327E-05  0.2495800E+04  0.7818609E-02  0.8404483E-01
       -1   -1    0    0    0  501  0.00000000000E+00  0.00000000000E+00  0.12547224340E+04  0.12547224340E+04  0.50400001928E-02 0.  1.
        1   -1    0    0  501    0  0.00000000000E+00  0.00000000000E+00 -0.12411145438E+04  0.12411145438E+04  0.50400001928E-02 0. -1.
    10030    2    1    2    0    0  0.00000000000E+00  0.00000000000E+00  0.13607890140E+02  0.24958369778E+04  0.24957998808E+04 0.  0.
        4    1    3    3  502    0 -0.32116383506E+03 -0.76686001124E+03 -0.92381837776E+03  0.12428445171E+04  0.12699999809E+01 0. -1.
       -4    1    3    3    0  502  0.32116383506E+03  0.76686001124E+03  0.93742626790E+03  0.12529924606E+04  0.12699999809E+01 0.  1.
</event>
<event>
 5   0  0.1008073E-05  0.2522758E+04  0.7818609E-02  0.8394922E-01
        1   -1    0    0  501    0  0.00000000000E+00  0.00000000000E+00  0.16184338009E+04  0.16184338009E+04  0.50400001928E-02 0. -1.
       -1   -1    0    0    0  501  0.00000000000E+00  0.00000000000E+00 -0.98309690677E+03  0.98309690678E+03  0.50400001928E-02 0.  1.
    10030    2    1    2    0    0  0.00000000000E+00  0.00000000000E+00  0.63533689411E+03  0.26015307077E+04  0.25227582234E+04 0.  0.
        1    1    3    3  502    0 -0.65920056911E+03 -0.88787099625E+02 -0.78754699253E+03  0.10308534352E+04  0.50400001928E-02 0.  1.
       -1    1    3    3    0  502  0.65920056911E+03  0.88787099625E+02  0.14228838866E+04  0.15706772725E+04  0.50400001928E-02 0. -1.
</event>
<event>
 5   0  0.1039688E-05  0.2504173E+04  0.7818609E-02  0.8401500E-01
        1   -1    0    0  501    0  0.00000000000E+00  0.00000000000E+00  0.57431195763E+03  0.57431195765E+03  0.50400001928E-02 0.  1.
       -1   -1    0    0    0  501  0.00000000000E+00  0.00000000000E+00 -0.27297366927E+04  0.27297366927E+04  0.50400001928E-02 0. -1.
    10030    2    1    2    0    0  0.00000000000E+00  0.00000000000E+00 -0.21554247351E+04  0.33040486503E+04  0.25041728565E+04 0.  0.
        3    1    3    3  502    0  0.23312409905E+03 -0.43632958948E+01  0.54541451308E+03  0.59316345571E+03  0.10100000352E+00 0.  1.
       -3    1    3    3    0  502 -0.23312409905E+03  0.43632958948E+01 -0.27008392481E+04  0.27108851946E+04  0.10100000352E+00 0. -1.
</event>
<event>
 5   0  0.1015327E-05  0.2493689E+04  0.7818609E-02  0.8405237E-01
       -1   -1    0    0    0  501  0.00000000000E+00  0.00000000000E+00  0.13733070035E+04  0.13733070035E+04  0.50400001928E-02 0.  1.
        1   -1    0    0  501    0  0.00000000000E+00  0.00000000000E+00 -0.11320274097E+04  0.11320274097E+04  0.50400001928E-02 0. -1.
    10030    2    1    2    0    0  0.00000000000E+00  0.00000000000E+00  0.24127959379E+03  0.25053344132E+04  0.24936889701E+04 0.  0.
        4    1    3    3  502    0 -0.11622470923E+04 -0.20566339499E+03 -0.28311232781E+03  0.12137833162E+04  0.12699999809E+01 0. -1.
       -4    1    3    3    0  502  0.11622470923E+04  0.20566339499E+03  0.52439192159E+03  0.12915510970E+04  0.12699999809E+01 0.  1.
</event>
<event>
 5   0  0.2345143E-05  0.2497712E+04  0.7818609E-02  0.8403801E-01
       -2   -1    0    0    0  501  0.00000000000E+00  0.00000000000E+00  0.81149124295E+03  0.81149124296E+03  0.25500000920E-02 0. -1.
        2   -1    0    0  501    0  0.00000000000E+00  0.00000000000E+00 -0.19219448004E+04  0.19219448004E+04  0.25500000920E-02 0.  1.
    10030    2    1    2    0    0  0.00000000000E+00  0.00000000000E+00 -0.11104535574E+04  0.27334360433E+04  0.24977120530E+04 0.  0.
        5    1    3    3  502    0  0.26241974685E+03 -0.99784277772E+03 -0.13252390355E+04  0.16795341389E+04  0.46999998093E+01 0.  1.
       -5    1    3    3    0  502 -0.26241974685E+03  0.99784277772E+03  0.21478547805E+03  0.10539019044E+04  0.46999998093E+01 0. -1.
</event>
<event>
 5   0  0.1010338E-05  0.2494521E+04  0.7818609E-02  0.8404940E-01
        1   -1    0    0  501    0  0.00000000000E+00  0.00000000000E+00  0.98442777603E+03  0.98442777605E+03  0.50400001928E-02 0. -1.
       -1   -1    0    0    0  501  0.00000000000E+00  0.00000000000E+00 -0.15802671575E+04  0.15802671575E+04  0.50400001928E-02 0.  1.
    10030    2    1    2    0    0  0.00000000000E+00  0.00000000000E+00 -0.59583938144E+03  0.25646949335E+04  0.24945211031E+04 0.  0.
        2    1    3    3  502    0 -0.35964279993E+03  0.11567841755E+04 -0.60320075492E+03  0.13532714890E+04  0.25500000920E-02 0.  1.
       -2    1    3    3    0  502  0.35964279993E+03 -0.11567841755E+04  0.73613734804E+01  0.12114234445E+04  0.25500000920E-02 0. -1.
</event>
<event>
 5   0  0.1039688E-05  0.2515109E+04  0.7818609E-02  0.8397623E-01
       -1   -1    0    0    0  501  0.00000000000E+00  0.00000000000E+00  0.14475721530E+04  0.14475721531E+04  0.50400001928E-02 0.  1.
        1   -1    0    0  501    0  0.00000000000E+00  0.00000000000E+00 -0.10924793844E+04  0.10924793844E+04  0.50400001928E-02 0. -1.
    10030    2    1    2    0    0  0.00000000000E+00  0.00000000000E+00  0.35509276864E+03  0.25400515375E+04  0.25151085342E+04 0.  0.
        3    1    3    3  502    0 -0.41426142267E+03 -0.73557552301E+03  0.11188623353E+04  0.14016193535E+04  0.10100000352E+00 0.  1.
       -3    1    3    3    0  502  0.41426142267E+03  0.73557552301E+03 -0.76376956671E+03  0.11384321840E+04  0.10100000352E+00 0. -1.
</event>
<event>
 5   0  0.1010338E-05  0.2482267E+04  0.7818609E-02  0.8409330E-01
        1   -1    0    0  501    0  0.00000000000E+00  0.00000000000E+00  0.12741687524E+04  0.12741687524E+04  0.50400001928E-02 0.  1.
       -1   -1    0    0    0  501  0.00000000000E+00  0.00000000000E+00 -0.12089551265E+04  0.12089551265E+04  0.50400001928E-02 0. -1.
    10030    2    1    2    0    0  0.00000000000E+00  0.00000000000E+00  0.65213625819E+02  0.24831238789E+04  0.24822673871E+04 0.  0.
        2    1    3    3  502    0  0.15290934396E+03 -0.10399241908E+04 -0.62761277327E+03  0.12242227670E+04  0.25500000920E-02 0. -1.
       -2    1    3    3    0  502 -0.15290934396E+03  0.10399241908E+04  0.69282639909E+03  0.12589011119E+04  0.25500000920E-02 0.  1.
</event>
<event>
 5   0  0.2452457E-05  0.2509860E+04  0.7818609E-02  0.8399481E-01
        2   -1    0    0  501    0  0.00000000000E+00  0.00000000000E+00  0.12492914671E+04  0.12492914671E+04  0.25500000920E-02 0. -1.
       -2   -1    0    0    0  501  0.00000000000E+00  0.00000000000E+00 -0.12605940311E+04  0.12605940311E+04  0.25500000920E-02 0.  1.
    10030    2    1    2    0    0  0.00000000000E+00  0.00000000000E+00 -0.11302563998E+02  0.25098854981E+04  0.25098600490E+04 0.  0.
        1    1    3    3  502    0  0.56972080483E+03  0.41177879197E+03  0.10339292649E+04  0.12502612902E+04  0.50400001928E-02 0. -1.
       -1    1    3    3    0  502 -0.56972080483E+03 -0.41177879197E+03 -0.10452318289E+04  0.12596242079E+04  0.50400001928E-02 0.  1.
</event>
<event>
 5   0  0.1008073E-05  0.2455228E+04  0.7818609E-02  0.8419111E-01
       -1   -1    0    0    0  501  0.00000000000E+00  0.00000000000E+00  0.10564322343E+04  0.10564322343E+04  0.50400001928E-02 0.  1.
        1   -1    0    0  501    0  0.00000000000E+00  0.00000000000E+00 -0.14265342096E+04  0.14265342096E+04  0.50400001928E-02 0. -1.
    10030    2    1    2    0    0  0.00000000000E+00  0.00000000000E+00 -0.37010197527E+03  0.24829664439E+04  0.24552284801E+04 0.  0.
        1    1    3    3  502    0  0.55422184101E+03  0.47297865855E+03 -0.11842242167E+04  0.13904163606E+04  0.50400001928E-02 0. -1.
       -1    1    3    3    0  502 -0.55422184101E+03 -0.47297865855E+03  0.81412224139E+03  0.10925500833E+04  0.50400001928E-02 0.  1.
</event>
<event>
 5   0  0.2388326E-05  0.2511522E+04  0.7818609E-02  0.8398892E-01
        2   -1    0    0  501    0  0.00000000000E+00  0.00000000000E+00  0.15463297800E+04  0.15463297800E+04  0.25500000920E-02 0.  1.
       -2   -1    0    0    0  501  0.00000000000E+00  0.00000000000E+00 -0.10197923304E+04  0.10197923304E+04  0.25500000920E-02 0. -1.
    10030    2    1    2    0    0  0.00000000000E+00  0.00000000000E+00  0.52653744959E+03  0.25661221103E+04  0.25115216502E+04 0.  0.
        2    1    3    3  502    0  0.10704486493E+04  0.60145704910E+03  0.53228794999E+03  0.13382605705E+04  0.25500000920E-02 0.  1.
       -2    1    3    3    0  502 -0.10704486493E+04 -0.60145704910E+03 -0.57505003962E+01  0.12278615399E+04  0.25500000920E-02 0. -1.
</event>
<event>
 5   0  0.8166500E-06  0.2506052E+04  0.7818609E-02  0.8400833E-01
        3   -1    0    0  501    0  0.00000000000E+00  0.00000000000E+00  0.10597736351E+04  0.10597736399E+04  0.10100000352E+00 0. -1.
       -3   -1    0    0    0  501  0.00000000000E+00  0.00000000000E+00 -0.14815188105E+04  0.14815188139E+04  0.10100000352E+00 0.  1.
    10030    2    1    2    0    0  0.00000000000E+00  0.00000000000E+00 -0.42174517536E+03  0.25412924539E+04  0.25060523425E+04 0.  0.
        3    1    3    3  502    0  0.11513932174E+04 -0.49373277755E+03 -0.18611246248E+03  0.12665371118E+04  0.10100000352E+00 0. -1.
       -3    1    3    3    0  502 -0.11513932174E+04  0.49373277755E+03 -0.23563271288E+03  0.12747553421E+04  0.10100000352E+00 0.  1.
</event>
<event>
 5   0  0.1008073E-05  0.2513001E+04  0.7818609E-02  0.8398368E-01
       -1   -1    0    0    0  501  0.00000000000E+00  0.00000000000E+00  0.19351662180E+04  0.19351662180E+04  0.50400001928E-02 0. -1.
        1   -1    0    0  501    0  0.00000000000E+00  0.00000000000E+00 -0.81584384763E+03  0.81584384765E+03  0.50400001928E-02 0.  1.
    10030    2    1    2    0    0  0.00000000000E+00  0.00000000000E+00  0.11193223704E+04  0.27510100657E+04  0.25130009575E+04 0.  0.
        1    1    3    3  502    0 -0.10470691840E+04 -0.55538399197E+03  0.10303646290E+03  0.11897149941E+04  0.50400001928E-02 0. -1.
       -1    1    3    3    0  502  0.10470691840E+04  0.55538399197E+03  0.10162859075E+04  0.15612950715E+04  0.50400001928E-02 0.  1.
</event>
<event>
 5   0  0.1039688E-05  0.2506249E+04  0.7818609E-02  0.8400763E-01
        1   -1    0    0  501    0  0.00000000000E+00  0.00000000000E+00  0.12207461547E+04  0.12207461547E+04  0.50400001928E-02 0.  1.
       -1   -1    0    0    0  501  0.00000000000E+00  0.00000000000E+00 -0.12863612080E+04  0.12863612080E+04  0.50400001928E-02 0. -1.
    10030    2    1    2    0    0  0.00000000000E+00  0.00000000000E+00 -0.65615053379E+02  0.25071073627E+04  0.25062485896E+04 0.  0.
        3    1    3    3  502    0  0.12013782787E+04 -0.34344945396E+03  0.62373340025E+02  0.12510626442E+04  0.10100000352E+00 0. -1.
       -3    1    3    3    0  502 -0.12013782787E+04  0.34344945396E+03 -0.12798839340E+03  0.12560447185E+04  0.10100000352E+00 0.  1.
</event>
<event>
 5   0  0.2441340E-05  0.2512759E+04  0.7818609E-02  0.8398454E-01
        2   -1    0    0  501    0  0.00000000000E+00  0.00000000000E+00  0.74706571629E+03  0.74706571630E+03  0.25500000920E-02 0. -1.
       -2   -1    0    0    0  501  0.00000000000E+00  0.00000000000E+00 -0.21129197820E+04  0.21129197820E+04  0.25500000920E-02 0.  1.
    10030    2    1    2    0    0  0.00000000000E+00  0.00000000000E+00 -0.13658540657E+04  0.28599854983E+04  0.25127593840E+04 0.  0.
        3    1    3    3  502    0  0.97830824529E+03  0.66827722940E+03 -0.20705067542E+03  0.12027266816E+04  0.10100000352E+00 0.  1.
       -3    1    3    3    0  502 -0.97830824529E+03 -0.66827722940E+03 -0.11588033903E+04  0.16572588167E+04  0.10100000352E+00 0. -1.
</event>
<event>
 5   0  0.2432309E-05  0.2473366E+04  0.7818609E-02  0.8412536E-01
        2   -1    0    0  501    0  0.00000000000E+00  0.00000000000E+00  0.16517075815E+04  0.16517075815E+04  0.25500000920E-02 0. -1.
       -2   -1    0    0    0  501  0.00000000000E+00  0.00000000000E+00 -0.92594145517E+03  0.92594145517E+03  0.25500000920E-02 0.  1.
    10030    2    1    2    0    0  0.00000000000E+00  0.00000000000E+00  0.72576612632E+03  0.25776490367E+04  0.24733657405E+04 0.  0.
        4    1    3    3  502    0 -0.13174835843E+03 -0.11656513513E+03 -0.91283531239E+03  0.92963163733E+03  0.12699999809E+01 0.  1.
       -4    1    3    3    0  502  0.13174835843E+03  0.11656513513E+03  0.16386014387E+04  0.16480173993E+04  0.12699999809E+01 0. -1.
</event>
<event>
 5   0  0.1008073E-05  0.2498188E+04  0.7818609E-02  0.8403631E-01
        1   -1    0    0  501    0  0.00000000000E+00  0.00000000000E+00  0.17673157266E+04  0.17673157267E+04  0.50400001928E-02 0. -1.
       -1   -1    0    0    0  501  0.00000000000E+00  0.00000000000E+00 -0.88282771637E+03  0.88282771638E+03  0.50400001928E-02 0.  1.
    10030    2    1    2    0    0  0.00000000000E+00  0.00000000000E+00  0.88448801028E+03  0.26501434430E+04  0.24981875887E+04 0.  0.
        1    1    3    3  502    0  0.85003679788E+03 -0.46805788603E+03  0.12765923041E+04  0.16035362963E+04  0.50400001928E-02 0. -1.
       -1    1    3    3    0  502 -0.85003679788E+03  0.46805788603E+03 -0.39210429384E+03  0.10466071468E+04  0.50400001928E-02 0.  1.
</event>
<event>
 5   0  0.1002753E-05  0.2484512E+04  0.7818609E-02  0.8408524E-01
        1   -1    0    0  501    0  0.00000000000E+00  0.00000000000E+00  0.11735515527E+04  0.11735515527E+04  0.50400001928E-02 0. -1.
       -1   -1    0    0    0  501  0.00000000000E+00  0.00000000000E+00 -0.13149831922E+04  0.13149831922E+04  0.50400001928E-02 0.  1.
    10030    2    1    2    0    0  0.00000000000E+00  0.00000000000E+00 -0.14143163951E+03  0.24885347449E+04  0.24845124809E+04 0.  0.
        5    1    3    3  502    0  0.69818168368E+03 -0.47283853741E+03 -0.98441220683E+03  0.12961957525E+04  0.46999998093E+01 0.  1.
       -5    1    3    3    0  502 -0.69818168368E+03  0.47283853741E+03  0.84298056733E+03  0.11923389924E+04  0.46999998093E+01 0. -1.
</event>
<event>
 5   0  0.2441340E-05  0.2439085E+04  0.7818609E-02  0.8425014E-01
       -2   -1    0    0    0  501  0.00000000000E+00  0.00000000000E+00  0.16746824444E+04  0.16746824444E+04  0.25500000920E-02 0. -1.
        2   -1    0    0  501    0  0.00000000000E+00  0.00000000000E+00 -0.88809875993E+03  0.88809875993E+03  0.25500000920E-02 0.  1.
    10030    2    1    2    0    0  0.00000000000E+00  0.00000000000E+00  0.78658368447E+03  0.25627812043E+04  0.24390845841E+04 0.  0.
        3    1    3    3  502    0 -0.59803674428E+03  0.10070290895E+04  0.75042323547E+03  0.13910034426E+04  0.10100000352E+00 0.  1.
       -3    1    3    3    0  502  0.59803674428E+03 -0.10070290895E+04  0.36160449001E+02  0.11717777618E+04  0.10100000352E+00 0. -1.
</event>
<event>
 5   0  0.1015327E-05  0.2506204E+04  0.7818609E-02  0.8400779E-01
        1   -1    0    0  501    0  0.00000000000E+00  0.00000000000E+00  0.19204108947E+04  0.19204108947E+04  0.50400001928E-02 0. -1.
       -1   -1    0    0    0  501  0.00000000000E+00  0.00000000000E+00 -0.81767138826E+03  0.81767138828E+03  0.50400001928E-02 0.  1.
    10030    2    1    2    0    0  0.00000000000E+00  0.00000000000E+00  0.11027395065E+04  0.27380822830E+04  0.25062043351E+04 0.  0.
        4    1    3    3  502    0 -0.10944015686E+04  0.55006800452E+00 -0.11546976758E+03  0.11004771584E+04  0.12699999809E+01 0.  1.
       -4    1    3    3    0  502  0.10944015686E+04 -0.55006800452E+00  0.12182092740E+04  0.16376051246E+04  0.12699999809E+01 0. -1.
</event>
<event>
 5   0  0.2441340E-05  0.2568808E+04  0.7818609E-02  0.8378874E-01
        2   -1    0    0  501    0  0.00000000000E+00  0.00000000000E+00  0.16389000091E+04  0.16389000091E+04  0.25500000920E-02 0. -1.
       -2   -1    0    0    0  501  0.00000000000E+00  0.00000000000E+00 -0.10065857167E+04  0.10065857167E+04  0.25500000920E-02 0.  1.
    10030    2    1    2    0    0  0.00000000000E+00  0.00000000000E+00  0.63231429239E+03  0.26454857258E+04  0.25688077703E+04 0.  0.
        3    1    3    3  502    0  0.10328464617E+04 -0.31677690115E+03 -0.39925405595E+03  0.11517479021E+04  0.10100000352E+00 0.  1.
       -3    1    3    3    0  502 -0.10328464617E+04  0.31677690115E+03  0.10315683483E+04  0.14937378237E+04  0.10100000352E+00 0. -1.
</event>
<event>
 5   0  0.8166500E-06  0.2534273E+04  0.7818609E-02  0.8390876E-01
       -3   -1    0    0    0  501  0.00000000000E+00  0.00000000000E+00  0.98294367249E+03  0.98294367768E+03  0.10100000352E+00 0.  1.
        3   -1    0    0  501    0  0.00000000000E+00  0.00000000000E+00 -0.16334959576E+04  0.16334959607E+04  0.10100000352E+00 0. -1.
    10030    2    1    2    0    0  0.00000000000E+00  0.00000000000E+00 -0.65055228511E+03  0.26164396384E+04  0.25342726976E+04 0.  0.
        1    1    3    3  502    0 -0.25140567184E+03  0.91113553733E+03  0.54604285966E+03  0.10915748183E+04  0.50400001928E-02 0. -1.
       -1    1    3    3    0  502  0.25140567184E+03 -0.91113553733E+03 -0.11965951448E+04  0.15248648202E+04  0.50400001928E-02 0.  1.
</event>
<event>
 5   0  0.1010338E-05  0.2450100E+04  0.7818609E-02  0.8420982E-01
        1   -1    0    0  501    0  0.00000000000E+00  0.00000000000E+00  0.23250902948E+04  0.23250902948E+04  0.50400001928E-02 0. -1.
       -1   -1    0    0    0  501  0.00000000000E+00  0.00000000000E+00 -0.64545764842E+03  0.64545764844E+03  0.50400001928E-02 0.  1.
    10030    2    1    2    0    0  0.00000000000E+00  0.00000000000E+00  0.16796326464E+04  0.29705479433E+04  0.24500998462E+04 0.  0.
        2    1    3    3  502    0 -0.85251133588E+03  0.79178894051E+03  0.37490138757E+03  0.12223977890E+04  0.25500000920E-02 0.  1.
       -2    1    3    3    0  502  0.85251133588E+03 -0.79178894051E+03  0.13047312588E+04  0.17481501543E+04  0.25500000920E-02 0. -1.
</event>
<event>
 5   0  0.2345143E-05  0.2494849E+04  0.7818609E-02  0.8404823E-01
        2   -1    0    0  501    0  0.00000000000E+00  0.00000000000E+00  0.22002092309E+04  0.22002092309E+04  0.25500000920E-02 0.  1.
       -2   -1    0    0    0  501  0.00000000000E+00  0.00000000000E+00 -0.70723630022E+03  0.70723630023E+03  0.25500000920E-02 0. -1.
    10030    2    1    2    0    0  0.00000000000E+00  0.00000000000E+00  0.14929729307E+04  0.29074455311E+04  0.24948489623E+04 0.  0.
        5    1    3    3  502    0  0.11303798506E+04  0.25701050557E+03  0.20961104811E+03  0.11780373034E+04  0.46999998093E+01 0. -1.
       -5    1    3    3    0  502 -0.11303798506E+04 -0.25701050557E+03  0.12833618826E+04  0.17294082278E+04  0.46999998093E+01 0.  1.
</event>
<event>
 5   0  0.1008073E-05  0.2616668E+04  0.7818609E-02  0.8362561E-01
        1   -1    0    0  501    0  0.00000000000E+00  0.00000000000E+00  0.17404736600E+04  0.17404736600E+04  0.50400001928E-02 0. -1.
       -1   -1    0    0    0  501  0.00000000000E+00  0.00000000000E+00 -0.98348980320E+03  0.98348980321E+03  0.50400001928E-02 0.  1.
    10030    2    1    2    0    0  0.00000000000E+00  0.00000000000E+00  0.75698385684E+03  0.27239634633E+04  0.26166681849E+04 0.  0.
        1    1    3    3  502    0  0.39146107673E+03 -0.72832405536E+03 -0.67700679789E+03  0.10686608015E+04  0.50400001928E-02 0.  1.
       -1    1    3    3    0  502 -0.39146107673E+03  0.72832405536E+03  0.14339906547E+04  0.16553026618E+04  0.50400001928E-02 0. -1.
</event>
<event>
 5   0  0.1008073E-05  0.2510979E+04  0.7818609E-02  0.8399085E-01
        1   -1    0    0  501    0  0.00000000000E+00  0.00000000000E+00  0.10785585442E+04  0.10785585442E+04  0.50400001928E-02 0.  1.
       -1   -1    0    0    0  501  0.00000000000E+00  0.00000000000E+00 -0.14614449473E+04  0.14614449473E+04  0.50400001928E-02 0. -1.
    10030    2    1    2    0    0  0.00000000000E+00  0.00000000000E+00 -0.38288640311E+03  0.25400034916E+04  0.25109790400E+04 0.  0.
        1    1    3    3  502    0 -0.54986833751E+03 -0.51292589995E+03 -0.12084528701E+04  0.14233082964E+04  0.50400001928E-02 0. -1.
       -1    1    3    3    0  502  0.54986833751E+03  0.51292589995E+03  0.82556646697E+03  0.11166951951E+04  0.50400001928E-02 0.  1.
</event>
<event>
 5   0  0.2345143E-05  0.2485596E+04  0.7818609E-02  0.8408135E-01
        2   -1    0    0  501    0  0.00000000000E+00  0.00000000000E+00  0.89051430220E+03  0.89051430221E+03  0.25500000920E-02 0.  1.
       -2   -1    0    0    0  501  0.00000000000E+00  0.00000000000E+00 -0.17344440678E+04  0.17344440678E+04  0.25500000920E-02 0. -1.
    10030    2    1    2    0    0  0.00000000000E+00  0.00000000000E+00 -0.84392976558E+03  0.26249583700E+04  0.24855963057E+04 0.  0.
        5    1    3    3  502    0 -0.43185775366E+03 -0.47682679863E+03  0.70097856711E+03  0.95145044897E+03  0.46999998093E+01 0.  1.
       -5    1    3    3    0  502  0.43185775366E+03  0.47682679863E+03 -0.15449083327E+04  0.16735079210E+04  0.46999998093E+01 0. -1.
</event>
<event>
 5   0  0.1015327E-05  0.2474087E+04  0.7818609E-02  0.8412276E-01
        1   -1    0    0  501    0  0.00000000000E+00  0.00000000000E+00  0.24405164125E+04  0.24405164125E+04  0.50400001928E-02 0.  1.
       -1   -1    0    0    0  501  0.00000000000E+00  0.00000000000E+00 -0.62702968828E+03  0.62702968830E+03  0.50400001928E-02 0. -1.
    10030    2    1    2    0    0  0.00000000000E+00  0.00000000000E+00  0.18134867242E+04  0.30675461008E+04  0.24740866965E+04 0.  0.
        4    1    3    3  502    0  0.41195553530E+03 -0.82338538620E+03 -0.11763530869E+03  0.92817591868E+03  0.12699999809E+01 0. -1.
       -4    1    3    3    0  502 -0.41195553530E+03  0.82338538620E+03  0.19311220329E+04  0.21393701821E+04  0.12699999809E+01 0.  1.
</event>
<event>
 5   0  0.1008073E-05  0.2487964E+04  0.7818609E-02  0.8407286E-01
        1   -1    0    0  501    0  0.00000000000E+00  0.00000000000E+00  0.22768852695E+04  0.22768852695E+04  0.50400001928E-02 0.  1.
       -1   -1    0    0    0  501  0.00000000000E+00  0.00000000000E+00 -0.67965256945E+03  0.67965256947E+03  0.50400001928E-02 0. -1.
    10030    2    1    2    0    0  0.00000000000E+00  0.00000000000E+00  0.15972327001E+04  0.29565378390E+04  0.24879637649E+04 0.  0.
        1    1    3    3  502    0 -0.23495460171E+03 -0.90115029592E+03 -0.18146612085E+03  0.94879158604E+03  0.50400001928E-02 0. -1.
       -1    1    3    3    0  502  0.23495460171E+03  0.90115029592E+03  0.17786988209E+04  0.20077462529E+04  0.50400001928E-02 0.  1.
</event>
<event>
 5   0  0.2345143E-05  0.2506540E+04  0.7818609E-02  0.8400659E-01
       -2   -1    0    0    0  501  0.00000000000E+00  0.00000000000E+00  0.84870036840E+03  0.84870036840E+03  0.25500000920E-02 0. -1.
        2   -1    0    0  501    0  0.00000000000E+00  0.00000000000E+00 -0.18506952204E+04  0.18506952204E+04  0.25500000920E-02 0.  1.
    10030    2    1    2    0    0  0.00000000000E+00  0.00000000000E+00 -0.10019948520E+04  0.26993955888E+04  0.25065400179E+04 0.  0.
        5    1    3    3  502    0  0.48026981503E+03 -0.34135450312E+03  0.69021884878E+03  0.90752748787E+03  0.46999998093E+01 0. -1.
       -5    1    3    3    0  502 -0.48026981503E+03  0.34135450312E+03 -0.16922137008E+04  0.17918681010E+04  0.46999998093E+01 0.  1.
</event>
<event>
 5   0  0.1002753E-05  0.2503871E+04  0.7818609E-02  0.8401608E-01
        1   -1    0    0  501    0  0.00000000000E+00  0.00000000000E+00  0.16975525146E+04  0.16975525146E+04  0.50400001928E-02 0.  1.
       -1   -1    0    0    0  501  0.00000000000E+00  0.00000000000E+00 -0.92329554866E+03  0.92329554867E+03  0.50400001928E-02 0. -1.
    10030    2    1    2    0    0  0.00000000000E+00  0.00000000000E+00  0.77425696596E+03  0.26208480633E+04  0.25038711471E+04 0.  0.
        5    1    3    3  502    0  0.39363326960E+03 -0.10414466850E+04  0.98638025873E+03  0.14874563702E+04  0.46999998093E+01 0.  1.
       -5    1    3    3    0  502 -0.39363326960E+03  0.10414466850E+04 -0.21212329277E+03  0.11333916931E+04  0.46999998093E+01 0. -1.
</event>
<event>
 5   0  0.2441340E-05  0.2495328E+04  0.7818609E-02  0.8404652E-01
        2   -1    0    0  501    0  0.00000000000E+00  0.00000000000E+00  0.10929876766E+04  0.10929876766E+04  0.25500000920E-02 0. -1.
       -2   -1    0    0    0  501  0.00000000000E+00  0.00000000000E+00 -0.14242301247E+04  0.14242301247E+04  0.25500000920E-02 0.  1.
    10030    2    1    2    0    0  0.00000000000E+00  0.00000000000E+00 -0.33124244805E+03  0.25172178013E+04  0.24953284152E+04 0.  0.
        3    1    3    3  502    0 -0.34693368058E+03 -0.85771508023E+03  0.67875651169E+03  0.11474966449E+04  0.10100000352E+00 0. -1.
       -3    1    3    3    0  502  0.34693368058E+03  0.85771508023E+03 -0.10099989597E+04  0.13697211565E+04  0.10100000352E+00 0.  1.
</event>
<event>
 5   0  0.1010338E-05  0.2510410E+04  0.7818609E-02  0.8399286E-01
        1   -1    0    0  501    0  0.00000000000E+00  0.00000000000E+00  0.15074680798E+04  0.15074680798E+04  0.50400001928E-02 0.  1.
       -1   -1    0    0    0  501  0.00000000000E+00  0.00000000000E+00 -0.10451564093E+04  0.10451564093E+04  0.50400001928E-02 0. -1.
    10030    2    1    2    0    0  0.00000000000E+00  0.00000000000E+00  0.46231167058E+03  0.25526244891E+04  0.25104102656E+04 0.  0.
        2    1    3    3  502    0 -0.10218113940E+03 -0.12436276213E+04  0.92894029576E+02  0.12512713321E+04  0.25500000920E-02 0. -1.
       -2    1    3    3    0  502  0.10218113940E+03  0.12436276213E+04  0.36941764100E+03  0.13013531570E+04  0.25500000920E-02 0.  1.
</event>
<event>
 5   0  0.1015327E-05  0.2506395E+04  0.7818609E-02  0.8400711E-01
       -1   -1    0    0    0  501  0.00000000000E+00  0.00000000000E+00  0.98813768251E+03  0.98813768252E+03  0.50400001928E-02 0.  1.
        1   -1    0    0  501    0  0.00000000000E+00  0.00000000000E+00 -0.15893572430E+04  0.15893572430E+04  0.50400001928E-02 0. -1.
    10030    2    1    2    0    0  0.00000000000E+00  0.00000000000E+00 -0.60121956047E+03  0.25774949255E+04  0.25063948474E+04 0.  0.
        4    1    3    3  502    0 -0.51338698135E+03  0.10889151363E+04  0.57403624073E+02  0.12052382153E+04  0.12699999809E+01 0.  1.
       -4    1    3    3    0  502  0.51338698135E+03 -0.10889151363E+04 -0.65862318454E+03  0.13722567102E+04  0.12699999809E+01 0. -1.
</event>
<event>
 5   0  0.1008073E-05  0.2429277E+04  0.7818609E-02  0.8428623E-01
       -1   -1    0    0    0  501  0.00000000000E+00  0.00000000000E+00  0.72444348343E+03  0.72444348345E+03  0.50400001928E-02 0.  1.
        1   -1    0    0  501    0  0.00000000000E+00  0.00000000000E+00 -0.20365250261E+04  0.20365250261E+04  0.50400001928E-02 0. -1.
    10030    2    1    2    0    0  0.00000000000E+00  0.00000000000E+00 -0.13120815426E+04  0.27609685095E+04  0.24292774926E+04 0.  0.
        1    1    3    3  502    0  0.43020169686E+03  0.10124570290E+04 -0.70745775395E+02  0.11023373804E+04  0.50400001928E-02 0.  1.
       -1    1    3    3    0  502 -0.43020169686E+03 -0.10124570290E+04 -0.12413357672E+04  0.16586311291E+04  0.50400001928E-02 0. -1.
</event>
<event>
 5   0  0.1015327E-05  0.2519770E+04  0.7818609E-02  0.8395976E-01
       -1   -1    0    0    0  501  0.00000000000E+00  0.00000000000E+00  0.97940741754E+03  0.97940741756E+03  0.50400001928E-02 0.  1.
        1   -1    0    0  501    0  0.00000000000E+00  0.00000000000E+00 -0.16206840903E+04  0.16206840903E+04  0.50400001928E-02 0. -1.
    10030    2    1    2    0    0  0.00000000000E+00  0.00000000000E+00 -0.64127667272E+03  0.26000915078E+04  0.25197698463E+04 0.  0.
        4    1    3    3  502    0 -0.17979991923E+03  0.51674761166E+03  0.85041762193E+03  0.10112209698E+04  0.12699999809E+01 0.  1.
       -4    1    3    3    0  502  0.17979991923E+03 -0.51674761166E+03 -0.14916942947E+04  0.15888705381E+04  0.12699999809E+01 0. -1.
</event>
<event>
 5   0  0.2388326E-05  0.2502669E+04  0.7818609E-02  0.8402035E-01
        2   -1    0    0  501    0  0.00000000000E+00  0.00000000000E+00  0.12209147572E+04  0.12209147572E+04  0.25500000920E-02 0.  1.
       -2   -1    0    0    0  501  0.00000000000E+00  0.00000000000E+00 -0.12825121510E+04  0.12825121510E+04  0.25500000920E-02 0. -1.
    10030    2    1    2    0    0  0.00000000000E+00  0.00000000000E+00 -0.61597393867E+02  0.25034269082E+04  0.25026689844E+04 0.  0.
        2    1    3    3  502    0  0.17243986901E+02  0.95975229435E+02  0.12171084355E+04  0.12210084126E+04  0.25500000920E-02 0.  1.
       -2    1    3    3    0  502 -0.17243986901E+02 -0.95975229435E+02 -0.12787058294E+04  0.12824184956E+04  0.25500000920E-02 0. -1.
</event>
<event>
 5   0  0.2452457E-05  0.2508932E+04  0.7818609E-02  0.8399810E-01
        2   -1    0    0  501    0  0.00000000000E+00  0.00000000000E+00  0.94382739061E+03  0.94382739062E+03  0.25500000920E-02 0.  1.
       -2   -1    0    0    0  501  0.00000000000E+00  0.00000000000E+00 -0.16673436217E+04  0.16673436217E+04  0.25500000920E-02 0. -1.
    10030    2    1    2    0    0  0.00000000000E+00  0.00000000000E+00 -0.72351623104E+03  0.26111710123E+04  0.25089317087E+04 0.  0.
        1    1    3    3  502    0 -0.53148344227E+02 -0.12367750409E+04 -0.57312862948E+03  0.13641530978E+04  0.50400001928E-02 0. -1.
       -1    1    3    3    0  502  0.53148344227E+02  0.12367750409E+04 -0.15038760156E+03  0.12470179145E+04  0.50400001928E-02 0.  1.
</event>
<event>
 5   0  0.2441340E-05  0.2636412E+04  0.7818609E-02  0.8355937E-01
        2   -1    0    0  501    0  0.00000000000E+00  0.00000000000E+00  0.71530965819E+03  0.71530965820E+03  0.25500000920E-02 0.  1.
       -2   -1    0    0    0  501  0.00000000000E+00  0.00000000000E+00 -0.24292508600E+04  0.24292508600E+04  0.25500000920E-02 0. -1.
    10030    2    1    2    0    0  0.00000000000E+00  0.00000000000E+00 -0.17139412018E+04  0.31445605182E+04  0.26364116540E+04 0.  0.
        3    1    3    3  502    0 -0.57398920706E+03  0.11578058884E+04 -0.54665457670E+03  0.14031426590E+04  0.10100000352E+00 0. -1.
       -3    1    3    3    0  502  0.57398920706E+03 -0.11578058884E+04 -0.11672866251E+04  0.17414178592E+04  0.10100000352E+00 0.  1.
</event>
<event>
 5   0  0.2452457E-05  0.2496747E+04  0.7818609E-02  0.8404146E-01
       -2   -1    0    0    0  501  0.00000000000E+00  0.00000000000E+00  0.11661808577E+04  0.11661808577E+04  0.25500000920E-02 0. -1.
        2   -1    0    0  501    0  0.00000000000E+00  0.00000000000E+00 -0.13363586033E+04  0.13363586033E+04  0.25500000920E-02 0.  1.
    10030    2    1    2    0    0  0.00000000000E+00  0.00000000000E+00 -0.17017774555E+03  0.25025394610E+04  0.24967465407E+04 0.  0.
        1    1    3    3  502    0  0.99376740847E+03  0.16492656015E+02  0.67203791732E+03  0.11997835772E+04  0.50400001928E-02 0. -1.
       -1    1    3    3    0  502 -0.99376740847E+03 -0.16492656015E+02 -0.84221566287E+03  0.13027558837E+04  0.50400001928E-02 0.  1.
</event>
<event>
 5   0  0.2432309E-05  0.2506569E+04  0.7818609E-02  0.8400649E-01
        2   -1    0    0  501    0  0.00000000000E+00  0.00000000000E+00  0.11035554536E+04  0.11035554536E+04  0.25500000920E-02 0.  1.
       -2   -1    0    0    0  501  0.00000000000E+00  0.00000000000E+00 -0.14233290062E+04  0.14233290062E+04  0.25500000920E-02 0. -1.
    10030    2    1    2    0    0  0.00000000000E+00  0.00000000000E+00 -0.31977355264E+03  0.25268844598E+04  0.25065693584E+04 0.  0.
        4    1    3    3  502    0 -0.58877495286E+03  0.76593917368E+03  0.64495851399E+03  0.11615902292E+04  0.12699999809E+01 0.  1.
       -4    1    3    3    0  502  0.58877495286E+03 -0.76593917368E+03 -0.96473206663E+03  0.13652942306E+04  0.12699999809E+01 0. -1.
</event>
<event>
 5   0  0.1039688E-05  0.2445803E+04  0.7818609E-02  0.8422552E-01
       -1   -1    0    0    0  501  0.00000000000E+00  0.00000000000E+00  0.71958411008E+03  0.71958411010E+03  0.50400001928E-02 0.  1.
        1   -1    0    0  501    0  0.00000000000E+00  0.00000000000E+00 -0.20782680188E+04  0.20782680188E+04  0.50400001928E-02 0. -1.
    10030    2    1    2    0    0  0.00000000000E+00  0.00000000000E+00 -0.13586839087E+04  0.27978521289E+04  0.24458034613E+04 0.  0.
        3    1    3    3  502    0  0.65888578830E+03  0.46682496477E+03  0.37123626958E+03  0.88874766261E+03  0.10100000352E+00 0.  1.
       -3    1    3    3    0  502 -0.65888578830E+03 -0.46682496477E+03 -0.17299201783E+04  0.19091044663E+04  0.10100000352E+00 0. -1.
</event>
<event>
 5   0  0.1008073E-05  0.2501196E+04  0.7818609E-02  0.8402559E-01
       -1   -1    0    0    0  501  0.00000000000E+00  0.00000000000E+00  0.70748677172E+03  0.70748677174E+03  0.50400001928E-02 0. -1.
        1   -1    0    0  501    0  0.00000000000E+00  0.00000000000E+00 -0.22106361658E+04  0.22106361658E+04  0.50400001928E-02 0.  1.
    10030    2    1    2    0    0  0.00000000000E+00  0.00000000000E+00 -0.15031493941E+04  0.29181229376E+04  0.25011963893E+04 0.  0.
        1    1    3    3  502    0 -0.98811237841E+03 -0.53981870401E+03 -0.11658447132E+03  0.11319727225E+04  0.50400001928E-02 0. -1.
       -1    1    3    3    0  502  0.98811237841E+03  0.53981870401E+03 -0.13865649228E+04  0.17861502150E+04  0.50400001928E-02 0.  1.
</event>
<event>
 5   0  0.8166500E-06  0.2494438E+04  0.7818609E-02  0.8404970E-01
        3   -1    0    0  501    0  0.00000000000E+00  0.00000000000E+00  0.13082696473E+04  0.13082696512E+04  0.10100000352E+00 0.  1.
       -3   -1    0    0    0  501  0.00000000000E+00  0.00000000000E+00 -0.11890169989E+04  0.11890170032E+04  0.10100000352E+00 0. -1.
    10030    2    1    2    0    0  0.00000000000E+00  0.00000000000E+00  0.11925264838E+03  0.24972866544E+04  0.24944377002E+04 0.  0.
        5    1    3    3  502    0 -0.31095053727E+03  0.15916832602E+03 -0.11390330651E+04  0.11914038804E+04  0.46999998093E+01 0. -1.
       -5    1    3    3    0  502  0.31095053727E+03 -0.15916832602E+03  0.12582857135E+04  0.13058827740E+04  0.46999998093E+01 0.  1.
</event>
<event>
 5   0  0.1008073E-05  0.2507870E+04  0.7818609E-02  0.8400187E-01
       -1   -1    0    0    0  501  0.00000000000E+00  0.00000000000E+00  0.85063838278E+03  0.85063838279E+03  0.50400001928E-02 0.  1.
        1   -1    0    0  501    0  0.00000000000E+00  0.00000000000E+00 -0.18484384365E+04  0.18484384365E+04  0.50400001928E-02 0. -1.
    10030    2    1    2    0    0  0.00000000000E+00  0.00000000000E+00 -0.99780005371E+03  0.26990768193E+04  0.25078697592E+04 0.  0.
        1    1    3    3  502    0  0.80167353115E+03 -0.42762600981E+03 -0.14289682654E+04  0.16933678745E+04  0.50400001928E-02 0. -1.
       -1    1    3    3    0  502 -0.80167353115E+03  0.42762600981E+03  0.43116821171E+03  0.10057089448E+04  0.50400001928E-02 0.  1.
</event>
<event>
 5   0  0.1015327E-05  0.2480392E+04  0.7818609E-02  0.8410005E-01
       -1   -1    0    0    0  501  0.00000000000E+00  0.00000000000E+00  0.59543466325E+03  0.59543466327E+03  0.50400001928E-02 0.  1.
        1   -1    0    0  501    0  0.00000000000E+00  0.00000000000E+00 -0.25831310126E+04  0.25831310126E+04  0.50400001928E-02 0. -1.
    10030    2    1    2    0    0  0.00000000000E+00  0.00000000000E+00 -0.19876963494E+04  0.31785656759E+04  0.24803916986E+04 0.  0.
        4    1    3    3  502    0 -0.11530531761E+04 -0.23676287801E+03 -0.14942742425E+04  0.19022211786E+04  0.12699999809E+01 0. -1.
       -4    1    3    3    0  502  0.11530531761E+04  0.23676287801E+03 -0.49342210685E+03  0.12763444973E+04  0.12699999809E+01 0.  1.
</event>
<event>
 5   0  0.1039688E-05  0.2477830E+04  0.7818609E-02  0.8410926E-01
        1   -1    0    0  501    0  0.00000000000E+00  0.00000000000E+00  0.13465745516E+04  0.13465745516E+04  0.50400001928E-02 0.  1.
       -1   -1    0    0    0  501  0.00000000000E+00  0.00000000000E+00 -0.11398631189E+04  0.11398631189E+04  0.50400001928E-02 0. -1.
    10030    2    1    2    0    0  0.00000000000E+00  0.00000000000E+00  0.20671143276E+03  0.24864376705E+04  0.24778302349E+04 0.  0.
        3    1    3    3  502    0 -0.11583052478E+04 -0.39351875111E+03  0.29995106742E+03  0.12595629034E+04  0.10100000352E+00 0. -1.
       -3    1    3    3    0  502  0.11583052478E+04  0.39351875111E+03 -0.93239634659E+02  0.12268747671E+04  0.10100000352E+00 0.  1.
</event>
<event>
 5   0  0.2432309E-05  0.2497328E+04  0.7818609E-02  0.8403938E-01
        2   -1    0    0  501    0  0.00000000000E+00  0.00000000000E+00  0.18789261054E+04  0.18789261054E+04  0.25500000920E-02 0.  1.
       -2   -1    0    0    0  501  0.00000000000E+00  0.00000000000E+00 -0.82981537000E+03  0.82981537000E+03  0.25500000920E-02 0. -1.
    10030    2    1    2    0    0  0.00000000000E+00  0.00000000000E+00  0.10491107354E+04  0.27087414754E+04  0.24973279811E+04 0.  0.
        4    1    3    3  502    0  0.11452495782E+04 -0.35002573325E+03  0.14100175797E+03  0.12058182777E+04  0.12699999809E+01 0.  1.
       -4    1    3    3    0  502 -0.11452495782E+04  0.35002573325E+03  0.90810897742E+03  0.15029231977E+04  0.12699999809E+01 0. -1.
</event>
<event>
 5   0  0.1010338E-05  0.2503984E+04  0.7818609E-02  0.8401568E-01
        1   -1    0    0  501    0  0.00000000000E+00  0.00000000000E+00  0.12139314500E+04  0.12139314500E+04  0.50400001928E-02 0. -1.
       -1   -1    0    0    0  501  0.00000000000E+00  0.00000000000E+00 -0.12912455206E+04  0.12912455206E+04  0.50400001928E-02 0.  1.
    10030    2    1    2    0    0  0.00000000000E+00  0.00000000000E+00 -0.77314070585E+02  0.25051769706E+04  0.25039836638E+04 0.  0.
        2    1    3    3  502    0 -0.72190292967E+03  0.18732325159E+03 -0.10447453939E+04  0.12836381027E+04  0.25500000920E-02 0.  1.
       -2    1    3    3    0  502  0.72190292967E+03 -0.18732325159E+03  0.96743132334E+03  0.12215388679E+04  0.25500000920E-02 0. -1.
</event>
<event>
 5   0  0.1039688E-05  0.2493755E+04  0.7818609E-02  0.8405214E-01
       -1   -1    0    0    0  501  0.00000000000E+00  0.00000000000E+00  0.13528399651E+04  0.13528399651E+04  0.50400001928E-02 0.  1.
        1   -1    0    0  501    0  0.00000000000E+00  0.00000000000E+00 -0.11492144377E+04  0.11492144377E+04  0.50400001928E-02 0. -1.
    10030    2    1    2    0    0  0.00000000000E+00  0.00000000000E+00  0.20362552742E+03  0.25020544028E+04  0.24937547753E+04 0.  0.
        3    1    3    3  502    0 -0.57486842410E+03 -0.10506343568E+04  0.44995021994E+03  0.12793597880E+04  0.10100000352E+00 0.  1.
       -3    1    3    3    0  502  0.57486842410E+03  0.10506343568E+04 -0.24632469252E+03  0.12226946148E+04  0.10100000352E+00 0. -1.
</event>
<event>
 5   0  0.2345143E-05  0.2606196E+04  0.7818609E-02  0.8366100E-01
        2   -1    0    0  501    0  0.00000000000E+00  0.00000000000E+00  0.18957611651E+04  0.18957611651E+04  0.25500000920E-02 0.  1.
       -2   -1    0    0    0  501  0.00000000000E+00  0.00000000000E+00 -0.89571622786E+03  0.89571622786E+03  0.25500000920E-02 0. -1.
    10030    2    1    2    0    0  0.00000000000E+00  0.00000000000E+00  0.10000449372E+04  0.27914773929E+04  0.26061957253E+04 0.  0.
        5    1    3    3  502    0 -0.34681484903E+03  0.87068229498E+03 -0.46970031798E+03  0.10483361469E+04  0.46999998093E+01 0. -1.
       -5    1    3    3    0  502  0.34681484903E+03 -0.87068229498E+03  0.14697452552E+04  0.17431412460E+04  0.46999998093E+01 0.  1.
</event>
<event>
 5   0  0.1010338E-05  0.2498280E+04  0.7818609E-02  0.8403599E-01
       -1   -1    0    0    0  501  0.00000000000E+00  0.00000000000E+00  0.17252650431E+04  0.17252650431E+04  0.50400001928E-02 0. -1.
        1   -1    0    0  501    0  0.00000000000E+00  0.00000000000E+00 -0.90441223661E+03  0.90441223662E+03  0.50400001928E-02 0.  1.
    10030    2    1    2    0    0  0.00000000000E+00  0.00000000000E+00  0.82085280651E+03  0.26296772797E+04  0.24982800615E+04 0.  0.
        2    1    3    3  502    0  0.76659114327E+03 -0.92100148701E+03  0.39104791912E+02  0.11989307339E+04  0.25500000920E-02 0.  1.
       -2    1    3    3    0  502 -0.76659114327E+03  0.92100148701E+03  0.78174801459E+03  0.14307465458E+04  0.25500000920E-02 0. -1.
</event>
<event>
 5   0  0.1002753E-05  0.2572437E+04  0.7818609E-02  0.8377625E-01
        1   -1    0    0  501    0  0.00000000000E+00  0.00000000000E+00  0.53303302240E+03  0.53303302243E+03  0.50400001928E-02 0. -1.
       -1   -1    0    0    0  501  0.00000000000E+00  0.00000000000E+00 -0.31036683127E+04  0.31036683127E+04  0.50400001928E-02 0.  1.
    10030    2    1    2    0    0  0.00000000000E+00  0.00000000000E+00 -0.25706352903E+04  0.36367013351E+04  0.25724367446E+04 0.  0.
        5    1    3    3  502    0 -0.26669949006E+03 -0.10131130200E+04 -0.23402292150E+04  0.25640244691E+04  0.46999998093E+01 0.  1.
       -5    1    3    3    0  502  0.26669949006E+03  0.10131130200E+04 -0.23040607528E+03  0.10726768660E+04  0.46999998093E+01 0. -1.
</event>
<event>
 5   0  0.1002753E-05  0.2503087E+04  0.7818609E-02  0.8401887E-01
       -1   -1    0    0    0  501  0.00000000000E+00  0.00000000000E+00  0.86898615458E+03  0.86898615459E+03  0.50400001928E-02 0. -1.
        1   -1    0    0  501    0  0.00000000000E+00  0.00000000000E+00 -0.18025154681E+04  0.18025154681E+04  0.50400001928E-02 0.  1.
    10030    2    1    2    0    0  0.00000000000E+00  0.00000000000E+00 -0.93352931355E+03  0.26715016227E+04  0.25030868824E+04 0.  0.
        5    1    3    3  502    0 -0.10113549507E+04 -0.12143287377E+03 -0.12428444906E+04  0.16069440865E+04  0.46999998093E+01 0.  1.
       -5    1    3    3    0  502  0.10113549507E+04  0.12143287377E+03  0.30931517708E+03  0.10645575362E+04  0.46999998093E+01 0. -1.
</event>
<event>
 5   0  0.2388326E-05  0.2505338E+04  0.7818609E-02  0.8401086E-01
        2   -1    0    0  501    0  0.00000000000E+00  0.00000000000E+00  0.13665632136E+04  0.13665632136E+04  0.25500000920E-02 0. -1.
       -2   -1    0    0    0  501  0.00000000000E+00  0.00000000000E+00 -0.11482672484E+04  0.11482672484E+04  0.25500000920E-02 0.  1.
    10030    2    1    2    0    0  0.00000000000E+00  0.00000000000E+00  0.21829596527E+03  0.25148304620E+04  0.25053381257E+04 0.  0.
        2    1    3    3  502    0  0.11831231797E+04 -0.32523087674E+03  0.36234205281E+03  0.12793933503E+04  0.25500000920E-02 0. -1.
       -2    1    3    3    0  502 -0.11831231797E+04  0.32523087674E+03 -0.14404608754E+03  0.12354371117E+04  0.25500000920E-02 0.  1.
</event>
<event>
 5   0  0.2388326E-05  0.2510683E+04  0.7818609E-02  0.8399190E-01
        2   -1    0    0  501    0  0.00000000000E+00  0.00000000000E+00  0.88840767222E+03  0.88840767223E+03  0.25500000920E-02 0.  1.
       -2   -1    0    0    0  501  0.00000000000E+00  0.00000000000E+00 -0.17738275846E+04  0.17738275846E+04  0.25500000920E-02 0. -1.
    10030    2    1    2    0    0  0.00000000000E+00  0.00000000000E+00 -0.88541991237E+03  0.26622352568E+04  0.25106828038E+04 0.  0.
        2    1    3    3  502    0  0.40229633394E+03  0.29829633894E+03  0.77788673681E+03  0.92516529412E+03  0.25500000920E-02 0.  1.
       -2    1    3    3    0  502 -0.40229633394E+03 -0.29829633894E+03 -0.16633066492E+04  0.17370699627E+04  0.25500000920E-02 0. -1.
</event>
<event>
 5   0  0.2345143E-05  0.2509197E+04  0.7818609E-02  0.8399716E-01
        2   -1    0    0  501    0  0.00000000000E+00  0.00000000000E+00  0.14498400694E+04  0.14498400694E+04  0.25500000920E-02 0. -1.
       -2   -1    0    0    0  501  0.00000000000E+00  0.00000000000E+00 -0.10856486937E+04  0.10856486937E+04  0.25500000920E-02 0.  1.
    10030    2    1    2    0    0  0.00000000000E+00  0.00000000000E+00  0.36419137563E+03  0.25354887631E+04  0.25091966662E+04 0.  0.
        5    1    3    3  502    0 -0.74687406477E+03 -0.55327828409E+03 -0.66938272822E+03  0.11454401142E+04  0.46999998093E+01 0. -1.
       -5    1    3    3    0  502  0.74687406477E+03  0.55327828409E+03  0.10335741038E+04  0.13900486489E+04  0.46999998093E+01 0.  1.
</event>
<event>
 5   0  0.2432309E-05  0.2425685E+04  0.7818609E-02  0.8429950E-01
        2   -1    0    0  501    0  0.00000000000E+00  0.00000000000E+00  0.13289048791E+04  0.13289048791E+04  0.25500000920E-02 0. -1.
       -2   -1    0    0    0  501  0.00000000000E+00  0.00000000000E+00 -0.11069163954E+04  0.11069163954E+04  0.25500000920E-02 0.  1.
    10030    2    1    2    0    0  0.00000000000E+00  0.00000000000E+00  0.22198848365E+03  0.24358212745E+04  0.24256847269E+04 0.  0.
        4    1    3    3  502    0  0.21841386125E+03  0.51745473904E+03  0.11904379023E+04  0.13162856962E+04  0.12699999809E+01 0. -1.
       -4    1    3    3    0  502 -0.21841386125E+03 -0.51745473904E+03 -0.96844941867E+03  0.11195355783E+04  0.12699999809E+01 0.  1.
</event>
<event>
 5   0  0.1008073E-05  0.2446594E+04  0.7818609E-02  0.8422263E-01
       -1   -1    0    0    0  501  0.00000000000E+00  0.00000000000E+00  0.79424935127E+03  0.79424935129E+03  0.50400001928E-02 0.  1.
        1   -1    0    0  501    0  0.00000000000E+00  0.00000000000E+00 -0.18841131841E+04  0.18841131842E+04  0.50400001928E-02 0. -1.
    10030    2    1    2    0    0  0.00000000000E+00  0.00000000000E+00 -0.10898638329E+04  0.26783625354E+04  0.24465941014E+04 0.  0.
        1    1    3    3  502    0 -0.11581200947E+04  0.34286092126E+03 -0.33248664397E+03  0.12527342629E+04  0.50400001928E-02 0.  1.
       -1    1    3    3    0  502  0.11581200947E+04 -0.34286092126E+03 -0.75737718890E+03  0.14256282725E+04  0.50400001928E-02 0. -1.
</event>
<event>
 5   0  0.2432309E-05  0.2396341E+04  0.7818609E-02  0.8440875E-01
       -2   -1    0    0    0  501  0.00000000000E+00  0.00000000000E+00  0.13839171897E+04  0.13839171897E+04  0.25500000920E-02 0. -1.
        2   -1    0    0  501    0  0.00000000000E+00  0.00000000000E+00 -0.10373546526E+04  0.10373546526E+04  0.25500000920E-02 0.  1.
    10030    2    1    2    0    0  0.00000000000E+00  0.00000000000E+00  0.34656253710E+03  0.24212718423E+04  0.23963413242E+04 0.  0.
        4    1    3    3  502    0  0.74849233861E+03 -0.53676821396E+02  0.11170703294E+04  0.13457227485E+04  0.12699999809E+01 0. -1.
       -4    1    3    3    0  502 -0.74849233861E+03  0.53676821396E+02 -0.77050779232E+03  0.10755490937E+04  0.12699999809E+01 0.  1.
</event>
<event>
 5   0  0.1015327E-05  0.2488646E+04  0.7818609E-02  0.8407042E-01
       -1   -1    0    0    0  501  0.00000000000E+00  0.00000000000E+00  0.10013778485E+04  0.10013778485E+04  0.50400001928E-02 0.  1.
        1   -1    0    0  501    0  0.00000000000E+00  0.00000000000E+00 -0.15462090784E+04  0.15462090784E+04  0.50400001928E-02 0. -1.
    10030    2    1    2    0    0  0.00000000000E+00  0.00000000000E+00 -0.54483122993E+03  0.25475869269E+04  0.24886458328E+04 0.  0.
        4    1    3    3  502    0 -0.55147244983E+03 -0.10405100887E+04  0.13904270563E+03  0.11857982942E+04  0.12699999809E+01 0.  1.
       -4    1    3    3    0  502  0.55147244983E+03  0.10405100887E+04 -0.68387393556E+03  0.13617886327E+04  0.12699999809E+01 0. -1.
</event>
<event>
 5   0  0.2452457E-05  0.2498337E+04  0.7818609E-02  0.8403578E-01
       -2   -1    0    0    0  501  0.00000000000E+00  0.00000000000E+00  0.78860509196E+03  0.78860509197E+03  0.25500000920E-02 0. -1.
        2   -1    0    0  501    0  0.00000000000E+00  0.00000000000E+00 -0.19787109460E+04  0.19787109460E+04  0.25500000920E-02 0.  1.
    10030    2    1    2    0    0  0.00000000000E+00  0.00000000000E+00 -0.11901058541E+04  0.27673160380E+04  0.24983366687E+04 0.  0.
        1    1    3    3  502    0  0.93399645759E+03  0.12105149937E+03 -0.15040246585E+04  0.17745684044E+04  0.50400001928E-02 0.  1.
       -1    1    3    3    0  502 -0.93399645759E+03 -0.12105149937E+03  0.31391880445E+03  0.99274763364E+03  0.50400001928E-02 0. -1.
</event>
<event>
 5   0  0.1039688E-05  0.2490143E+04  0.7818609E-02  0.8406506E-01
        1   -1    0    0  501    0  0.00000000000E+00  0.00000000000E+00  0.16858470544E+04  0.16858470544E+04  0.50400001928E-02 0. -1.
       -1   -1    0    0    0  501  0.00000000000E+00  0.00000000000E+00 -0.91953959156E+03  0.91953959157E+03  0.50400001928E-02 0.  1.
    10030    2    1    2    0    0  0.00000000000E+00  0.00000000000E+00  0.76630746288E+03  0.26053866460E+04  0.24901430576E+04 0.  0.
        3    1    3    3  502    0  0.33676121418E+03 -0.42551267114E+02 -0.87019368818E+03  0.93405341971E+03  0.10100000352E+00 0.  1.
       -3    1    3    3    0  502 -0.33676121418E+03  0.42551267114E+02  0.16365011511E+04  0.16713332263E+04  0.10100000352E+00 0. -1.
</event>
<event>
 5   0  0.2441340E-05  0.2498432E+04  0.7818609E-02  0.8403544E-01
       -2   -1    0    0    0  501  0.00000000000E+00  0.00000000000E+00  0.17798622255E+04  0.17798622255E+04  0.25500000920E-02 0.  1.
        2   -1    0    0  501    0  0.00000000000E+00  0.00000000000E+00 -0.87677603487E+03  0.87677603488E+03  0.25500000920E-02 0. -1.
    10030    2    1    2    0    0  0.00000000000E+00  0.00000000000E+00  0.90308619060E+03  0.26566382604E+04  0.24984319440E+04 0.  0.
        3    1    3    3  502    0  0.24749046462E+03 -0.44932204125E+03  0.16627034026E+04  0.17400357588E+04  0.10100000352E+00 0.  1.
       -3    1    3    3    0  502 -0.24749046462E+03  0.44932204125E+03 -0.75961721199E+03  0.91660250152E+03  0.10100000352E+00 0. -1.
</event>
<event>
 5   0  0.1002753E-05  0.2497849E+04  0.7818609E-02  0.8403752E-01
        1   -1    0    0  501    0  0.00000000000E+00  0.00000000000E+00  0.11118704684E+04  0.11118704684E+04  0.50400001928E-02 0. -1.
       -1   -1    0    0    0  501  0.00000000000E+00  0.00000000000E+00 -0.14028724143E+04  0.14028724143E+04  0.50400001928E-02 0.  1.
    10030    2    1    2    0    0  0.00000000000E+00  0.00000000000E+00 -0.29100194584E+03  0.25147428827E+04  0.24978490014E+04 0.  0.
        5    1    3    3  502    0  0.74190195208E+03  0.96338135060E+03 -0.43250479968E+03  0.12905830562E+04  0.46999998093E+01 0.  1.
       -5    1    3    3    0  502 -0.74190195208E+03 -0.96338135060E+03  0.14150285384E+03  0.12241598265E+04  0.46999998093E+01 0. -1.
</event>
<event>
 5   0  0.2452457E-05  0.2511960E+04  0.7818609E-02  0.8398737E-01
       -2   -1    0    0    0  501  0.00000000000E+00  0.00000000000E+00  0.94899896376E+03  0.94899896377E+03  0.25500000920E-02 0.  1.
        2   -1    0    0  501    0  0.00000000000E+00  0.00000000000E+00 -0.16622634538E+04  0.16622634538E+04  0.25500000920E-02 0. -1.
    10030    2    1    2    0    0  0.00000000000E+00  0.00000000000E+00 -0.71326449001E+03  0.26112624175E+04  0.25119604258E+04 0.  0.
        1    1    3    3  502    0  0.21791437472E+03  0.51679182651E+02 -0.16413389992E+04  0.16565479538E+04  0.50400001928E-02 0. -1.
       -1    1    3    3    0  502 -0.21791437472E+03 -0.51679182651E+02  0.92807450924E+03  0.95471446378E+03  0.50400001928E-02 0.  1.
</event>
<event>
 5   0  0.2441340E-05  0.2503552E+04  0.7818609E-02  0.8401721E-01
        2   -1    0    0  501    0  0.00000000000E+00  0.00000000000E+00  0.14094117138E+04  0.14094117139E+04  0.25500000920E-02 0.  1.
       -2   -1    0    0    0  501  0.00000000000E+00  0.00000000000E+00 -0.11117708513E+04  0.11117708513E+04  0.25500000920E-02 0. -1.
    10030    2    1    2    0    0  0.00000000000E+00  0.00000000000E+00  0.29764086255E+03  0.25211825652E+04  0.25035517657E+04 0.  0.
        3    1    3    3  502    0 -0.96765891284E+03 -0.33255975618E+03 -0.57735629993E+03  0.11748617239E+04  0.10100000352E+00 0.  1.
       -3    1    3    3    0  502  0.96765891284E+03  0.33255975618E+03  0.87499716248E+03  0.13463208412E+04  0.10100000352E+00 0. -1.
</event>
<event>
 5   0  0.8166500E-06  0.2364998E+04  0.7818609E-02  0.8452725E-01
        3   -1    0    0  501    0  0.00000000000E+00  0.00000000000E+00  0.99377344663E+03  0.99377345176E+03  0.10100000352E+00 0. -1.
       -3   -1    0    0    0  501  0.00000000000E+00  0.00000000000E+00 -0.14070653629E+04  0.14070653665E+04  0.10100000352E+00 0.  1.
    10030    2    1    2    0    0  0.00000000000E+00  0.00000000000E+00 -0.41329191625E+03  0.24008388183E+04  0.23649982713E+04 0.  0.
        5    1    3    3  502    0 -0.62919389007E+03 -0.35661385929E+03  0.74306558453E+03  0.10369315063E+04  0.46999998093E+01 0. -1.
       -5    1    3    3    0  502  0.62919389007E+03  0.35661385929E+03 -0.11563575008E+04  0.13639073119E+04  0.46999998093E+01 0.  1.
</event>
<event>
 5   0  0.1015327E-05  0.2488160E+04  0.7818609E-02  0.8407216E-01
        1   -1    0    0  501    0  0.00000000000E+00  0.00000000000E+00  0.12654859639E+04  0.12654859639E+04  0.50400001928E-02 0.  1.
       -1   -1    0    0    0  501  0.00000000000E+00  0.00000000000E+00 -0.12230365201E+04  0.12230365201E+04  0.50400001928E-02 0. -1.
    10030    2    1    2    0    0  0.00000000000E+00  0.00000000000E+00  0.42449443831E+02  0.24885224840E+04  0.24881604044E+04 0.  0.
        4    1    3    3  502    0 -0.34063888079E+03 -0.59695610106E+03 -0.10159134056E+04  0.12265696451E+04  0.12699999809E+01 0. -1.
       -4    1    3    3    0  502  0.34063888079E+03  0.59695610106E+03  0.10583628494E+04  0.12619528389E+04  0.12699999809E+01 0.  1.
</event>
<event>
 5   0  0.1010338E-05  0.2487217E+04  0.7818609E-02  0.8407554E-01
       -1   -1    0    0    0  501  0.00000000000E+00  0.00000000000E+00  0.18435338827E+04  0.18435338827E+04  0.50400001928E-02 0. -1.
        1   -1    0    0  501    0  0.00000000000E+00  0.00000000000E+00 -0.83891147948E+03  0.83891147950E+03  0.50400001928E-02 0.  1.
    10030    2    1    2    0    0  0.00000000000E+00  0.00000000000E+00  0.10046224032E+04  0.26824453622E+04  0.24872167071E+04 0.  0.
        2    1    3    3  502    0  0.91055854687E+03  0.84165672725E+03  0.39966257314E+03  0.13027789859E+04  0.25500000920E-02 0. -1.
       -2    1    3    3    0  502 -0.91055854687E+03 -0.84165672725E+03  0.60495983005E+03  0.13796663763E+04  0.25500000920E-02 0.  1.
</event>
<event>
 5   0  0.2432309E-05  0.2503710E+04  0.7818609E-02  0.8401665E-01
       -2   -1    0    0    0  501  0.00000000000E+00  0.00000000000E+00  0.13059682677E+04  0.13059682677E+04  0.25500000920E-02 0. -1.
        2   -1    0    0  501    0  0.00000000000E+00  0.00000000000E+00 -0.11999839603E+04  0.11999839603E+04  0.25500000920E-02 0.  1.
    10030    2    1    2    0    0  0.00000000000E+00  0.00000000000E+00  0.10598430740E+03  0.25059522279E+04  0.25037100262E+04 0.  0.
        4    1    3    3  502    0 -0.70566723418E+03  0.89689903268E+03 -0.46200264154E+03  0.12311954247E+04  0.12699999809E+01 0.  1.
       -4    1    3    3    0  502  0.70566723418E+03 -0.89689903268E+03  0.56798694894E+03  0.12747568032E+04  0.12699999809E+01 0. -1.
</event>
<event>
 5   0  0.2452457E-05  0.2501821E+04  0.7818609E-02  0.8402337E-01
       -2   -1    0    0    0  501  0.00000000000E+00  0.00000000000E+00  0.74701214906E+03  0.74701214907E+03  0.25500000920E-02 0.  1.
        2   -1    0    0  501    0  0.00000000000E+00  0.00000000000E+00 -0.20947144940E+04  0.20947144940E+04  0.25500000920E-02 0. -1.
    10030    2    1    2    0    0  0.00000000000E+00  0.00000000000E+00 -0.13477023450E+04  0.28417266431E+04  0.25018210774E+04 0.  0.
        1    1    3    3  502    0  0.85909570824E+03  0.18393136615E+03  0.33757813277E+03  0.94118817413E+03  0.50400001928E-02 0.  1.
       -1    1    3    3    0  502 -0.85909570824E+03 -0.18393136615E+03 -0.16852804777E+04  0.19005384690E+04  0.50400001928E-02 0. -1.
</event>
<event>
 5   0  0.1008073E-05  0.2523346E+04  0.7818609E-02  0.8394715E-01
       -1   -1    0    0    0  501  0.00000000000E+00  0.00000000000E+00  0.11125734823E+04  0.11125734824E+04  0.50400001928E-02 0.  1.
        1   -1    0    0  501    0  0.00000000000E+00  0.00000000000E+00 -0.14307542917E+04  0.14307542917E+04  0.50400001928E-02 0. -1.
    10030    2    1    2    0    0  0.00000000000E+00  0.00000000000E+00 -0.31818080930E+03  0.25433277740E+04  0.25233464167E+04 0.  0.
        1    1    3    3  502    0 -0.65840776597E+03  0.10696369987E+04 -0.39003389259E+02  0.12566405054E+04  0.50400001928E-02 0. -1.
       -1    1    3    3    0  502  0.65840776597E+03 -0.10696369987E+04 -0.27917742004E+03  0.12866872686E+04  0.50400001928E-02 0.  1.
</event>
<event>
 5   0  0.2345143E-05  0.2547124E+04  0.7818609E-02  0.8386387E-01
        2   -1    0    0  501    0  0.00000000000E+00  0.00000000000E+00  0.13459604374E+04  0.13459604375E+04  0.25500000920E-02 0. -1.
       -2   -1    0    0    0  501  0.00000000000E+00  0.00000000000E+00 -0.12050576332E+04  0.12050576333E+04  0.25500000920E-02 0.  1.
    10030    2    1    2    0    0  0.00000000000E+00  0.00000000000E+00  0.14090280420E+03  0.25510180707E+04  0.25471237891E+04 0.  0.
        5    1    3    3  502    0  0.68845921848E+03 -0.10011374305E+04  0.45272273896E+03  0.12966233912E+04  0.46999998093E+01 0. -1.
       -5    1    3    3    0  502 -0.68845921848E+03  0.10011374305E+04 -0.31181993476E+03  0.12543946795E+04  0.46999998093E+01 0.  1.
</event>
<event>
 5   0  0.1015327E-05  0.2480605E+04  0.7818609E-02  0.8409928E-01
       -1   -1    0    0    0  501  0.00000000000E+00  0.00000000000E+00  0.73934537568E+03  0.73934537570E+03  0.50400001928E-02 0. -1.
        1   -1    0    0  501    0  0.00000000000E+00  0.00000000000E+00 -0.20806930633E+04  0.20806930633E+04  0.50400001928E-02 0.  1.
    10030    2    1    2    0    0  0.00000000000E+00  0.00000000000E+00 -0.13413476876E+04  0.28200384390E+04  0.24806054056E+04 0.  0.
        4    1    3    3  502    0  0.58081279952E+03  0.42130242192E+03 -0.18207944255E+04  0.19570726076E+04  0.12699999809E+01 0.  1.
       -4    1    3    3    0  502 -0.58081279952E+03 -0.42130242192E+03  0.47944673785E+03  0.86296583139E+03  0.12699999809E+01 0. -1.
</event>
<event>
 5   0  0.1002753E-05  0.2492692E+04  0.7818609E-02  0.8405594E-01
       -1   -1    0    0    0  501  0.00000000000E+00  0.00000000000E+00  0.11942797429E+04  0.11942797429E+04  0.50400001928E-02 0. -1.
        1   -1    0    0  501    0  0.00000000000E+00  0.00000000000E+00 -0.13006821520E+04  0.13006821520E+04  0.50400001928E-02 0.  1.
    10030    2    1    2    0    0  0.00000000000E+00  0.00000000000E+00 -0.10640240912E+03  0.24949618949E+04  0.24926919955E+04 0.  0.
        5    1    3    3  502    0  0.78799879078E+03  0.75618778152E+02  0.91032589397E+03  0.12063894964E+04  0.46999998093E+01 0. -1.
       -5    1    3    3    0  502 -0.78799879078E+03 -0.75618778152E+02 -0.10167283031E+04  0.12885723985E+04  0.46999998093E+01 0.  1.
</event>
<event>
 5   0  0.1010338E-05  0.2494083E+04  0.7818609E-02  0.8405097E-01
        1   -1    0    0  501    0  0.00000000000E+00  0.00000000000E+00  0.22341655063E+04  0.22341655063E+04  0.50400001928E-02 0.  1.
       -1   -1    0    0    0  501  0.00000000000E+00  0.00000000000E+00 -0.69605961762E+03  0.69605961764E+03  0.50400001928E-02 0. -1.
    10030    2    1    2    0    0  0.00000000000E+00  0.00000000000E+00  0.15381058887E+04  0.29302251239E+04  0.24940829080E+04 0.  0.
        2    1    3    3  502    0  0.69642994996E+03  0.59579589868E+03 -0.22447724886E+03  0.94359814717E+03  0.25500000920E-02 0. -1.
       -2    1    3    3    0  502 -0.69642994996E+03 -0.59579589868E+03  0.17625831375E+04  0.19866269768E+04  0.25500000920E-02 0.  1.
</event>
<event>
 5   0  0.2432309E-05  0.2510804E+04  0.7818609E-02  0.8399147E-01
       -2   -1    0    0    0  501  0.00000000000E+00  0.00000000000E+00  0.11200827494E+04  0.11200827494E+04  0.25500000920E-02 0. -1.
        2   -1    0    0  501    0  0.00000000000E+00  0.00000000000E+00 -0.14070696035E+04  0.14070696036E+04  0.25500000920E-02 0.  1.
    10030    2    1    2    0    0  0.00000000000E+00  0.00000000000E+00 -0.28698685417E+03  0.25271523529E+04  0.25108041661E+04 0.  0.
        4    1    3    3  502    0  0.11480182971E+04  0.93195306216E+01 -0.65473759175E+03  0.13216337583E+04  0.12699999809E+01 0.  1.
       -4    1    3    3    0  502 -0.11480182971E+04 -0.93195306216E+01  0.36775073758E+03  0.12055185946E+04  0.12699999809E+01 0. -1.
</event>
<event>
 5   0  0.1008073E-05  0.2415506E+04  0.7818609E-02  0.8433721E-01
        1   -1    0    0  501    0  0.00000000000E+00  0.00000000000E+00  0.23852889913E+04  0.23852889913E+04  0.50400001928E-02 0. -1.
       -1   -1    0    0    0  501  0.00000000000E+00  0.00000000000E+00 -0.61152640663E+03  0.61152640665E+03  0.50400001928E-02 0.  1.
    10030    2    1    2    0    0  0.00000000000E+00  0.00000000000E+00  0.17737625847E+04  0.29968153980E+04  0.24155059144E+04 0.  0.
        1    1    3    3  502    0 -0.63086258643E+03 -0.44648711992E+03  0.20383082270E+04  0.21799171497E+04  0.50400001928E-02 0. -1.
       -1    1    3    3    0  502  0.63086258643E+03  0.44648711992E+03 -0.26454564230E+03  0.81689824831E+03  0.50400001928E-02 0.  1.
</event>
<event>
 5   0  0.1039688E-05  0.2548807E+04  0.7818609E-02  0.8385801E-01
        1   -1    0    0  501    0  0.00000000000E+00  0.00000000000E+00  0.85401599684E+03  0.85401599686E+03  0.50400001928E-02 0.  1.
       -1   -1    0    0    0  501  0.00000000000E+00  0.00000000000E+00 -0.19017261750E+04  0.19017261750E+04  0.50400001928E-02 0. -1.
    10030    2    1    2    0    0  0.00000000000E+00  0.00000000000E+00 -0.10477101781E+04  0.27557421719E+04  0.25488072309E+04 0.  0.
        3    1    3    3  502    0 -0.84027511798E+02 -0.12483238169E+04 -0.26183326117E+03  0.12782525734E+04  0.10100000352E+00 0.  1.
       -3    1    3    3    0  502  0.84027511798E+02  0.12483238169E+04 -0.78587691698E+03  0.14774895984E+04  0.10100000352E+00 0. -1.
</event>
<event>
 5   0  0.2388326E-05  0.2474114E+04  0.7818609E-02  0.8412266E-01
       -2   -1    0    0    0  501  0.00000000000E+00  0.00000000000E+00  0.10530489833E+04  0.10530489833E+04  0.25500000920E-02 0. -1.
        2   -1    0    0  501    0  0.00000000000E+00  0.00000000000E+00 -0.14532185703E+04  0.14532185703E+04  0.25500000920E-02 0.  1.
    10030    2    1    2    0    0  0.00000000000E+00  0.00000000000E+00 -0.40016958705E+03  0.25062675536E+04  0.24741142561E+04 0.  0.
        2    1    3    3  502    0  0.43561514500E+03  0.53167263699E+03 -0.12419814629E+04  0.14194908600E+04  0.25500000920E-02 0.  1.
       -2    1    3    3    0  502 -0.43561514500E+03 -0.53167263699E+03  0.84181187585E+03  0.10867766936E+04  0.25500000920E-02 0. -1.
</event>
<event>
 5   0  0.2432309E-05  0.2384843E+04  0.7818609E-02  0.8445200E-01
        2   -1    0    0  501    0  0.00000000000E+00  0.00000000000E+00  0.13377673327E+04  0.13377673327E+04  0.25500000920E-02 0. -1.
       -2   -1    0    0    0  501  0.00000000000E+00  0.00000000000E+00 -0.10628676225E+04  0.10628676225E+04  0.25500000920E-02 0.  1.
    10030    2    1    2    0    0  0.00000000000E+00  0.00000000000E+00  0.27489971025E+03  0.24006349552E+04  0.23848434619E+04 0.  0.
        4    1    3    3  502    0 -0.72723844160E+03  0.85028494966E+03 -0.27760029523E+03  0.11527895660E+04  0.12699999809E+01 0.  1.
       -4    1    3    3    0  502  0.72723844160E+03 -0.85028494966E+03  0.55250000548E+03  0.12478453893E+04  0.12699999809E+01 0. -1.
</event>
<event>
 5   0  0.1002753E-05  0.2507323E+04  0.7818609E-02  0.8400381E-01
       -1   -1    0    0    0  501  0.00000000000E+00  0.00000000000E+00  0.85722782803E+03  0.85722782805E+03  0.50400001928E-02 0.  1.
        1   -1    0    0  501    0  0.00000000000E+00  0.00000000000E+00 -0.18334299640E+04  0.18334299640E+04  0.50400001928E-02 0. -1.
    10030    2    1    2    0    0  0.00000000000E+00  0.00000000000E+00 -0.97620213595E+03  0.26906577920E+04  0.25073230234E+04 0.  0.
        5    1    3    3  502    0  0.10939673652E+03 -0.11930847766E+04 -0.88417699200E+03  0.14890298766E+04  0.46999998093E+01 0. -1.
       -5    1    3    3    0  502 -0.10939673652E+03  0.11930847766E+04 -0.92025143950E+02  0.12016279155E+04  0.46999998093E+01 0.  1.
</event>
<event>
 5   0  0.2432309E-05  0.2618746E+04  0.7818609E-02  0.8361861E-01
        2   -1    0    0  501    0  0.00000000000E+00  0.00000000000E+00  0.21656070401E+04  0.21656070401E+04  0.25500000920E-02 0. -1.
       -2   -1    0    0    0  501  0.00000000000E+00  0.00000000000E+00 -0.79167561316E+03  0.79167561317E+03  0.25500000920E-02 0.  1.
    10030    2    1    2    0    0  0.00000000000E+00  0.00000000000E+00  0.13739314269E+04  0.29572826533E+04  0.26187464798E+04 0.  0.
        4    1    3    3  502    0  0.78978714046E+03 -0.10380566188E+04  0.81637184373E+03  0.15387624480E+04  0.12699999809E+01 0. -1.
       -4    1    3    3    0  502 -0.78978714046E+03  0.10380566188E+04  0.55755958320E+03  0.14185202053E+04  0.12699999809E+01 0.  1.
</event>
<event>
 5   0  0.1010338E-05  0.2523774E+04  0.7818609E-02  0.8394565E-01
        1   -1    0    0  501    0  0.00000000000E+00  0.00000000000E+00  0.17790657319E+04  0.17790657319E+04  0.50400001928E-02 0. -1.
       -1   -1    0    0    0  501  0.00000000000E+00  0.00000000000E+00 -0.89505332122E+03  0.89505332123E+03  0.50400001928E-02 0.  1.
    10030    2    1    2    0    0  0.00000000000E+00  0.00000000000E+00  0.88401241066E+03  0.26741190531E+04  0.25237739138E+04 0.  0.
        2    1    3    3  502    0  0.10456506862E+04 -0.36195027282E+03  0.10847438609E+04  0.15495362537E+04  0.25500000920E-02 0. -1.
       -2    1    3    3    0  502 -0.10456506862E+04  0.36195027282E+03 -0.20073145027E+03  0.11245827994E+04  0.25500000920E-02 0.  1.
</event>
<event>
 5   0  0.2345143E-05  0.2446783E+04  0.7818609E-02  0.8422193E-01
       -2   -1    0    0    0  501  0.00000000000E+00  0.00000000000E+00  0.81514026765E+03  0.81514026765E+03  0.25500000920E-02 0.  1.
        2   -1    0    0  501    0  0.00000000000E+00  0.00000000000E+00 -0.18361099829E+04  0.18361099829E+04  0.25500000920E-02 0. -1.
    10030    2    1    2    0    0  0.00000000000E+00  0.00000000000E+00 -0.10209697153E+04  0.26512502506E+04  0.24467833438E+04 0.  0.
        5    1    3    3  502    0  0.27376663053E+03  0.62408991252E+03  0.59040323257E+03  0.90168423183E+03  0.46999998093E+01 0.  1.
       -5    1    3    3    0  502 -0.27376663053E+03 -0.62408991252E+03 -0.16113729478E+04  0.17495660187E+04  0.46999998093E+01 0. -1.
</event>
<event>
 5   0  0.1015327E-05  0.2560106E+04  0.7818609E-02  0.8381880E-01
        1   -1    0    0  501    0  0.00000000000E+00  0.00000000000E+00  0.11028560934E+04  0.11028560935E+04  0.50400001928E-02 0.  1.
       -1   -1    0    0    0  501  0.00000000000E+00  0.00000000000E+00 -0.14857203405E+04  0.14857203405E+04  0.50400001928E-02 0. -1.
    10030    2    1    2    0    0  0.00000000000E+00  0.00000000000E+00 -0.38286424701E+03  0.25885764339E+04  0.25601060374E+04 0.  0.
        4    1    3    3  502    0 -0.12525497443E+04 -0.13677531522E+03  0.36789662734E+02  0.12605329988E+04  0.12699999809E+01 0.  1.
       -4    1    3    3    0  502  0.12525497443E+04  0.13677531522E+03 -0.41965390974E+03  0.13280434352E+04  0.12699999809E+01 0. -1.
</event>
<event>
 5   0  0.2441340E-05  0.2526178E+04  0.7818609E-02  0.8393718E-01
        2   -1    0    0  501    0  0.00000000000E+00  0.00000000000E+00  0.13848703498E+04  0.13848703498E+04  0.25500000920E-02 0. -1.
       -2   -1    0    0    0  501  0.00000000000E+00  0.00000000000E+00 -0.11520165696E+04  0.11520165697E+04  0.25500000920E-02 0.  1.
    10030    2    1    2    0    0  0.00000000000E+00  0.00000000000E+00  0.23285378013E+03  0.25368869194E+04  0.25261778162E+04 0.  0.
        3    1    3    3  502    0  0.52129872273E+03  0.11306155009E+04  0.33028460876E+03  0.12880728637E+04  0.10100000352E+00 0. -1.
       -3    1    3    3    0  502 -0.52129872273E+03 -0.11306155009E+04 -0.97430828633E+02  0.12488140557E+04  0.10100000352E+00 0.  1.
</event>
<event>
 5   0  0.1010338E-05  0.2199655E+04  0.7818609E-02  0.8518572E-01
       -1   -1    0    0    0  501  0.00000000000E+00  0.00000000000E+00  0.11226640589E+04  0.11226640589E+04  0.50400001928E-02 0. -1.
        1   -1    0    0  501    0  0.00000000000E+00  0.00000000000E+00 -0.10774553630E+04  0.10774553630E+04  0.50400001928E-02 0.  1.
    10030    2    1    2    0    0  0.00000000000E+00  0.00000000000E+00  0.45208695895E+02  0.22001194218E+04  0.21996548920E+04 0.  0.
        2    1    3    3  502    0  0.88962495909E+02 -0.90328592504E+03  0.64384792402E+03  0.11128252052E+04  0.25500000920E-02 0. -1.
       -2    1    3    3    0  502 -0.88962495909E+02  0.90328592504E+03 -0.59863922812E+03  0.10872942166E+04  0.25500000920E-02 0.  1.
</event>
<event>
 5   0  0.2388326E-05  0.2490568E+04  0.7818609E-02  0.8406354E-01
        2   -1    0    0  501    0  0.00000000000E+00  0.00000000000E+00  0.77872917266E+03  0.77872917267E+03  0.25500000920E-02 0. -1.
       -2   -1    0    0    0  501  0.00000000000E+00  0.00000000000E+00 -0.19913620830E+04  0.19913620830E+04  0.25500000920E-02 0.  1.
    10030    2    1    2    0    0  0.00000000000E+00  0.00000000000E+00 -0.12126329103E+04  0.27700912556E+04  0.24905676039E+04 0.  0.
        2    1    3    3  502    0  0.36955454454E+03 -0.55352149621E+03  0.56431866405E+03  0.87258934371E+03  0.25500000920E-02 0. -1.
       -2    1    3    3    0  502 -0.36955454454E+03  0.55352149621E+03 -0.17769515743E+04  0.18975019119E+04  0.25500000920E-02 0.  1.
</event>
<event>
 5   0  0.2432309E-05  0.2525121E+04  0.7818609E-02  0.8394091E-01
       -2   -1    0    0    0  501  0.00000000000E+00  0.00000000000E+00  0.15387450483E+04  0.15387450483E+04  0.25500000920E-02 0. -1.
        2   -1    0    0  501    0  0.00000000000E+00  0.00000000000E+00 -0.10359470596E+04  0.10359470596E+04  0.25500000920E-02 0.  1.
    10030    2    1    2    0    0  0.00000000000E+00  0.00000000000E+00  0.50279798875E+03  0.25746921079E+04  0.25251205185E+04 0.  0.
        4    1    3    3  502    0  0.56128520629E+03 -0.11182446427E+04  0.42366731197E+03  0.13209874215E+04  0.12699999809E+01 0.  1.
       -4    1    3    3    0  502 -0.56128520629E+03  0.11182446427E+04  0.79130676785E+02  0.12537046864E+04  0.12699999809E+01 0. -1.
</event>
<event>
 5   0  0.2345143E-05  0.2498921E+04  0.7818609E-02  0.8403370E-01
        2   -1    0    0  501    0  0.00000000000E+00  0.00000000000E+00  0.12318520432E+04  0.12318520432E+04  0.25500000920E-02 0.  1.
       -2   -1    0    0    0  501  0.00000000000E+00  0.00000000000E+00 -0.12673210881E+04  0.12673210881E+04  0.25500000920E-02 0. -1.
    10030    2    1    2    0    0  0.00000000000E+00  0.00000000000E+00 -0.35469044905E+02  0.24991731313E+04  0.24989214247E+04 0.  0.
        5    1    3    3  502    0  0.10799838397E+04  0.47665387768E+03 -0.42712397876E+03  0.12553967485E+04  0.46999998093E+01 0. -1.
       -5    1    3    3    0  502 -0.10799838397E+04 -0.47665387768E+03  0.39165493385E+03  0.12437763827E+04  0.46999998093E+01 0.  1.
</event>
<event>
 5   0  0.1008073E-05  0.2490577E+04  0.7818609E-02  0.8406350E-01
        1   -1    0    0  501    0  0.00000000000E+00  0.00000000000E+00  0.21873716261E+04  0.21873716261E+04  0.50400001928E-02 0.  1.
       -1   -1    0    0    0  501  0.00000000000E+00  0.00000000000E+00 -0.70895276811E+03  0.70895276812E+03  0.50400001928E-02 0. -1.
    10030    2    1    2    0    0  0.00000000000E+00  0.00000000000E+00  0.14784188580E+04  0.28963243942E+04  0.24905767759E+04 0.  0.
        1    1    3    3  502    0 -0.85818623176E+03 -0.38281030206E+03  0.16894708661E+04  0.19332198900E+04  0.50400001928E-02 0.  1.
       -1    1    3    3    0  502  0.85818623176E+03  0.38281030206E+03 -0.21105200816E+03  0.96310450415E+03  0.50400001928E-02 0. -1.
</event>
<event>
 5   0  0.1010338E-05  0.2507960E+04  0.7818609E-02  0.8400155E-01
       -1   -1    0    0    0  501  0.00000000000E+00  0.00000000000E+00  0.12285388996E+04  0.12285388997E+04  0.50400001928E-02 0.  1.
        1   -1    0    0  501    0  0.00000000000E+00  0.00000000000E+00 -0.12799482716E+04  0.12799482716E+04  0.50400001928E-02 0. -1.
    10030    2    1    2    0    0  0.00000000000E+00  0.00000000000E+00 -0.51409371915E+02  0.25084871712E+04  0.25079603196E+04 0.  0.
        2    1    3    3  502    0 -0.31189149772E+03 -0.10551498785E+04 -0.62736963669E+03  0.12665742116E+04  0.25500000920E-02 0. -1.
       -2    1    3    3    0  502  0.31189149772E+03  0.10551498785E+04  0.57596026478E+03  0.12419129596E+04  0.25500000920E-02 0.  1.
</event>
<event>
 5   0  0.2345143E-05  0.2461442E+04  0.7818609E-02  0.8416852E-01
        2   -1    0    0  501    0  0.00000000000E+00  0.00000000000E+00  0.22502847294E+04  0.22502847294E+04  0.25500000920E-02 0.  1.
       -2   -1    0    0    0  501  0.00000000000E+00  0.00000000000E+00 -0.67310309449E+03  0.67310309449E+03  0.25500000920E-02 0. -1.
    10030    2    1    2    0    0  0.00000000000E+00  0.00000000000E+00  0.15771816349E+04  0.29233878239E+04  0.24614415409E+04 0.  0.
        5    1    3    3  502    0  0.21211857970E+03  0.18060963540E+03 -0.63515002088E+03  0.69357895821E+03  0.46999998093E+01 0. -1.
       -5    1    3    3    0  502 -0.21211857970E+03 -0.18060963540E+03  0.22123316558E+04  0.22298088657E+04  0.46999998093E+01 0.  1.
</event>
<event>
 5   0  0.1039688E-05  0.2297829E+04  0.7818609E-02  0.8478778E-01
        1   -1    0    0  501    0  0.00000000000E+00  0.00000000000E+00  0.12407650495E+04  0.12407650495E+04  0.50400001928E-02 0. -1.
       -1   -1    0    0    0  501  0.00000000000E+00  0.00000000000E+00 -0.10638630111E+04  0.10638630111E+04  0.50400001928E-02 0.  1.
    10030    2    1    2    0    0  0.00000000000E+00  0.00000000000E+00  0.17690203842E+03  0.23046280607E+04  0.22978285764E+04 0.  0.
        3    1    3    3  502    0  0.63911481916E+03  0.36946977019E+03 -0.79451099232E+03  0.10845383305E+04  0.10100000352E+00 0.  1.
       -3    1    3    3    0  502 -0.63911481916E+03 -0.36946977019E+03  0.97141303075E+03  0.12200897302E+04  0.10100000352E+00 0. -1.
</event>
<event>
 5   0  0.2452457E-05  0.2495859E+04  0.7818609E-02  0.8404462E-01
       -2   -1    0    0    0  501  0.00000000000E+00  0.00000000000E+00  0.10162422329E+04  0.10162422329E+04  0.25500000920E-02 0. -1.
        2   -1    0    0  501    0  0.00000000000E+00  0.00000000000E+00 -0.15324376916E+04  0.15324376916E+04  0.25500000920E-02 0.  1.
    10030    2    1    2    0    0  0.00000000000E+00  0.00000000000E+00 -0.51619545864E+03  0.25486799245E+04  0.24958588915E+04 0.  0.
        1    1    3    3  502    0  0.44162513001E+03  0.11520663001E+03  0.92795740908E+03  0.10341229502E+04  0.50400001928E-02 0. -1.
       -1    1    3    3    0  502 -0.44162513001E+03 -0.11520663001E+03 -0.14441528677E+04  0.15145569743E+04  0.50400001928E-02 0.  1.
</event>
<event>
 5   0  0.1008073E-05  0.2490074E+04  0.7818609E-02  0.8406530E-01
        1   -1    0    0  501    0  0.00000000000E+00  0.00000000000E+00  0.21674266689E+04  0.21674266689E+04  0.50400001928E-02 0. -1.
       -1   -1    0    0    0  501  0.00000000000E+00  0.00000000000E+00 -0.71518756952E+03  0.71518756954E+03  0.50400001928E-02 0.  1.
    10030    2    1    2    0    0  0.00000000000E+00  0.00000000000E+00  0.14522390994E+04  0.28826142385E+04  0.24900735825E+04 0.  0.
        1    1    3    3  502    0 -0.32711775564E+03  0.45817767633E+03  0.20116674179E+04  0.20889563445E+04  0.50400001928E-02 0. -1.
       -1    1    3    3    0  502  0.32711775564E+03 -0.45817767633E+03 -0.55942831846E+03  0.79365789397E+03  0.50400001928E-02 0.  1.
</event>
<event>
 5   0  0.2452457E-05  0.2664625E+04  0.7818609E-02  0.8346575E-01
        2   -1    0    0  501    0  0.00000000000E+00  0.00000000000E+00  0.28347261375E+04  0.28347261375E+04  0.25500000920E-02 0. -1.
       -2   -1    0    0    0  501  0.00000000000E+00  0.00000000000E+00 -0.62618257087E+03  0.62618257088E+03  0.25500000920E-02 0.  1.
    10030    2    1    2    0    0  0.00000000000E+00  0.00000000000E+00  0.22085435667E+04  0.34609087084E+04  0.26646246269E+04 0.  0.
        1    1    3    3  502    0  0.12327035401E+04  0.20373089603E+03  0.50344030623E+03  0.13470398798E+04  0.50400001928E-02 0.  1.
       -1    1    3    3    0  502 -0.12327035401E+04 -0.20373089603E+03  0.17051032604E+04  0.21138688286E+04  0.50400001928E-02 0. -1.
</event>
<event>
 5   0  0.2452457E-05  0.2300854E+04  0.7818609E-02  0.8477585E-01
       -2   -1    0    0    0  501  0.00000000000E+00  0.00000000000E+00  0.66869292353E+03  0.66869292353E+03  0.25500000920E-02 0.  1.
        2   -1    0    0  501    0  0.00000000000E+00  0.00000000000E+00 -0.19792075677E+04  0.19792075677E+04  0.25500000920E-02 0. -1.
    10030    2    1    2    0    0  0.00000000000E+00  0.00000000000E+00 -0.13105146441E+04  0.26479004912E+04  0.23008538369E+04 0.  0.
        1    1    3    3  502    0 -0.47751635256E+03 -0.97865607227E+03 -0.22821806245E+03  0.11125974379E+04  0.50400001928E-02 0.  1.
       -1    1    3    3    0  502  0.47751635256E+03  0.97865607227E+03 -0.10822965817E+04  0.15353030533E+04  0.50400001928E-02 0. -1.
</event>
<event>
 5   0  0.2345143E-05  0.2511710E+04  0.7818609E-02  0.8398825E-01
       -2   -1    0    0    0  501  0.00000000000E+00  0.00000000000E+00  0.78078524810E+03  0.78078524810E+03  0.25500000920E-02 0. -1.
        2   -1    0    0  501    0  0.00000000000E+00  0.00000000000E+00 -0.20199822263E+04  0.20199822263E+04  0.25500000920E-02 0.  1.
    10030    2    1    2    0    0  0.00000000000E+00  0.00000000000E+00 -0.12391969782E+04  0.28007674744E+04  0.25117104321E+04 0.  0.
        5    1    3    3  502    0  0.23660377821E+03 -0.38258461217E+03  0.68785700688E+03  0.82190126247E+03  0.46999998093E+01 0. -1.
       -5    1    3    3    0  502 -0.23660377821E+03  0.38258461217E+03 -0.19270539851E+04  0.19788662119E+04  0.46999998093E+01 0.  1.
</event>
<event>
 5   0  0.2441340E-05  0.2502766E+04  0.7818609E-02  0.8402001E-01
       -2   -1    0    0    0  501  0.00000000000E+00  0.00000000000E+00  0.70333446861E+03  0.70333446862E+03  0.25500000920E-02 0.  1.
        2   -1    0    0  501    0  0.00000000000E+00  0.00000000000E+00 -0.22264795071E+04  0.22264795071E+04  0.25500000920E-02 0. -1.
    10030    2    1    2    0    0  0.00000000000E+00  0.00000000000E+00 -0.15231450384E+04  0.29298139757E+04  0.25027662943E+04 0.  0.
        3    1    3    3  502    0 -0.15943901950E+03 -0.10954528923E+04 -0.78459925041E+02  0.11097719632E+04  0.10100000352E+00 0.  1.
       -3    1    3    3    0  502  0.15943901950E+03  0.10954528923E+04 -0.14446851134E+04  0.18200420125E+04  0.10100000352E+00 0. -1.
</event>
<event>
 5   0  0.1015327E-05  0.2492044E+04  0.7818609E-02  0.8405825E-01
        1   -1    0    0  501    0  0.00000000000E+00  0.00000000000E+00  0.25321219600E+04  0.25321219601E+04  0.50400001928E-02 0. -1.
       -1   -1    0    0    0  501  0.00000000000E+00  0.00000000000E+00 -0.61315018238E+03  0.61315018240E+03  0.50400001928E-02 0.  1.
    10030    2    1    2    0    0  0.00000000000E+00  0.00000000000E+00  0.19189717777E+04  0.31452721425E+04  0.24920441743E+04 0.  0.
        4    1    3    3  502    0  0.65652722768E+03 -0.64495495725E+03 -0.10068027681E+03  0.92581479174E+03  0.12699999809E+01 0.  1.
       -4    1    3    3    0  502 -0.65652722768E+03  0.64495495725E+03  0.20196520545E+04  0.22194573507E+04  0.12699999809E+01 0. -1.
</event>
<event>
 5   0  0.1039688E-05  0.2469147E+04  0.7818609E-02  0.8414060E-01
       -1   -1    0    0    0  501  0.00000000000E+00  0.00000000000E+00  0.62146010339E+03  0.62146010341E+03  0.50400001928E-02 0.  1.
        1   -1    0    0  501    0  0.00000000000E+00  0.00000000000E+00 -0.24525654007E+04  0.24525654007E+04  0.50400001928E-02 0. -1.
    10030    2    1    2    0    0  0.00000000000E+00  0.00000000000E+00 -0.18311052973E+04  0.30740255041E+04  0.24691468547E+04 0.  0.
        3    1    3    3  502    0 -0.66382571975E+03 -0.73853581907E+03 -0.23216191591E+01  0.99302826867E+03  0.10100000352E+00 0.  1.
       -3    1    3    3    0  502  0.66382571975E+03  0.73853581907E+03 -0.18287836781E+04  0.20809972354E+04  0.10100000352E+00 0. -1.
</event>
<event>
 5   0  0.1010338E-05  0.2506724E+04  0.7818609E-02  0.8400594E-01
       -1   -1    0    0    0  501  0.00000000000E+00  0.00000000000E+00  0.10681268648E+04  0.10681268648E+04  0.50400001928E-02 0.  1.
        1   -1    0    0  501    0  0.00000000000E+00  0.00000000000E+00 -0.14707204189E+04  0.14707204189E+04  0.50400001928E-02 0. -1.
    10030    2    1    2    0    0  0.00000000000E+00  0.00000000000E+00 -0.40259355409E+03  0.25388472837E+04  0.25067237502E+04 0.  0.
        2    1    3    3  502    0 -0.38788414454E+01  0.11534002752E+04 -0.69806031078E+03  0.13481971064E+04  0.25500000920E-02 0. -1.
       -2    1    3    3    0  502  0.38788414454E+01 -0.11534002752E+04  0.29546675669E+03  0.11906501773E+04  0.25500000920E-02 0.  1.
</event>
<event>
 5   0  0.1008073E-05  0.2427934E+04  0.7818609E-02  0.8429119E-01
        1   -1    0    0  501    0  0.00000000000E+00  0.00000000000E+00  0.15713701852E+04  0.15713701852E+04  0.50400001928E-02 0. -1.
       -1   -1    0    0    0  501  0.00000000000E+00  0.00000000000E+00 -0.93785385210E+03  0.93785385211E+03  0.50400001928E-02 0.  1.
    10030    2    1    2    0    0  0.00000000000E+00  0.00000000000E+00  0.63351633312E+03  0.25092240373E+04  0.24279337563E+04 0.  0.
        1    1    3    3  502    0 -0.36955534440E+03  0.10909770111E+04  0.71288438807E+03  0.13546239855E+04  0.50400001928E-02 0. -1.
       -1    1    3    3    0  502  0.36955534440E+03 -0.10909770111E+04 -0.79368054952E+02  0.11546000518E+04  0.50400001928E-02 0.  1.
</event>
<event>
 5   0  0.2452457E-05  0.2493451E+04  0.7818609E-02  0.8405322E-01
       -2   -1    0    0    0  501  0.00000000000E+00  0.00000000000E+00  0.53146776525E+03  0.53146776526E+03  0.25500000920E-02 0. -1.
        2   -1    0    0  501    0  0.00000000000E+00  0.00000000000E+00 -0.29245885695E+04  0.29245885695E+04  0.25500000920E-02 0.  1.
    10030    2    1    2    0    0  0.00000000000E+00  0.00000000000E+00 -0.23931208042E+04  0.34560563347E+04  0.24934510633E+04 0.  0.
        1    1    3    3  502    0 -0.91428492907E+03 -0.62134621350E+03 -0.39751954501E+03  0.11747381995E+04  0.50400001928E-02 0. -1.
       -1    1    3    3    0  502  0.91428492907E+03  0.62134621350E+03 -0.19956012592E+04  0.22813181353E+04  0.50400001928E-02 0.  1.
</event>
<event>
 5   0  0.1039688E-05  0.2495150E+04  0.7818609E-02  0.8404715E-01
        1   -1    0    0  501    0  0.00000000000E+00  0.00000000000E+00  0.13067492863E+04  0.13067492864E+04  0.50400001928E-02 0.  1.
       -1   -1    0    0    0  501  0.00000000000E+00  0.00000000000E+00 -0.11910806606E+04  0.11910806606E+04  0.50400001928E-02 0. -1.
    10030    2    1    2    0    0  0.00000000000E+00  0.00000000000E+00  0.11566862574E+03  0.24978299470E+04  0.24951503388E+04 0.  0.
        3    1    3    3  502    0  0.90567346573E+03 -0.35460890510E+03  0.83998759452E+03  0.12851346510E+04  0.10100000352E+00 0.  1.
       -3    1    3    3    0  502 -0.90567346573E+03  0.35460890510E+03 -0.72431896878E+03  0.12126952960E+04  0.10100000352E+00 0. -1.
</event>
<event>
 5   0  0.2388326E-05  0.2492020E+04  0.7818609E-02  0.8405834E-01
       -2   -1    0    0    0  501  0.00000000000E+00  0.00000000000E+00  0.11399270226E+04  0.11399270226E+04  0.25500000920E-02 0.  1.
        2   -1    0    0  501    0  0.00000000000E+00  0.00000000000E+00 -0.13619657186E+04  0.13619657186E+04  0.25500000920E-02 0. -1.
    10030    2    1    2    0    0  0.00000000000E+00  0.00000000000E+00 -0.22203869602E+03  0.25018927413E+04  0.24920204867E+04 0.  0.
        2    1    3    3  502    0  0.12352393215E+04  0.77614098463E+02  0.33430438962E+02  0.12381266994E+04  0.25500000920E-02 0.  1.
       -2    1    3    3    0  502 -0.12352393215E+04 -0.77614098463E+02 -0.25546913498E+03  0.12637660418E+04  0.25500000920E-02 0. -1.
</event>
<event>
 5   0  0.1002753E-05  0.2504508E+04  0.7818609E-02  0.8401381E-01
       -1   -1    0    0    0  501  0.00000000000E+00  0.00000000000E+00  0.94008889231E+03  0.94008889232E+03  0.50400001928E-02 0.  1.
        1   -1    0    0  501    0  0.00000000000E+00  0.00000000000E+00 -0.16680769008E+04  0.16680769008E+04  0.50400001928E-02 0. -1.
    10030    2    1    2    0    0  0.00000000000E+00  0.00000000000E+00 -0.72798800847E+03  0.26081657931E+04  0.25045083877E+04 0.  0.
        5    1    3    3  502    0  0.41263949570E+03  0.35602360403E+03 -0.15380845543E+04  0.16317935979E+04  0.46999998093E+01 0. -1.
       -5    1    3    3    0  502 -0.41263949570E+03 -0.35602360403E+03  0.81009654581E+03  0.97637219520E+03  0.46999998093E+01 0.  1.
</event>
<event>
 5   0  0.2432309E-05  0.2527527E+04  0.7818609E-02  0.8393244E-01
       -2   -1    0    0    0  501  0.00000000000E+00  0.00000000000E+00  0.14836557655E+04  0.14836557655E+04  0.25500000920E-02 0.  1.
        2   -1    0    0  501    0  0.00000000000E+00  0.00000000000E+00 -0.10764616019E+04  0.10764616019E+04  0.25500000920E-02 0. -1.
    10030    2    1    2    0    0  0.00000000000E+00  0.00000000000E+00  0.40719416355E+03  0.25601173674E+04  0.25275272201E+04 0.  0.
        4    1    3    3  502    0  0.31872261594E+03  0.11688983194E+04  0.56766095010E+03  0.13379641080E+04  0.12699999809E+01 0.  1.
       -4    1    3    3    0  502 -0.31872261594E+03 -0.11688983194E+04 -0.16046678656E+03  0.12221532595E+04  0.12699999809E+01 0. -1.
</event>
<event>
 5   0  0.2452457E-05  0.2468593E+04  0.7818609E-02  0.8414261E-01
       -2   -1    0    0    0  501  0.00000000000E+00  0.00000000000E+00  0.11593299049E+04  0.11593299049E+04  0.25500000920E-02 0. -1.
        2   -1    0    0  501    0  0.00000000000E+00  0.00000000000E+00 -0.13141102284E+04  0.13141102284E+04  0.25500000920E-02 0.  1.
    10030    2    1    2    0    0  0.00000000000E+00  0.00000000000E+00 -0.15478032345E+03  0.24734401333E+04  0.24685925432E+04 0.  0.
        1    1    3    3  502    0  0.88340832773E+03 -0.38725927599E+03 -0.84903705601E+03  0.12850073707E+04  0.50400001928E-02 0.  1.
       -1    1    3    3    0  502 -0.88340832773E+03  0.38725927599E+03  0.69425673256E+03  0.11884327625E+04  0.50400001928E-02 0. -1.
</event>
<event>
 5   0  0.2452457E-05  0.2510355E+04  0.7818609E-02  0.8399306E-01
        2   -1    0    0  501    0  0.00000000000E+00  0.00000000000E+00  0.14112222344E+04  0.14112222344E+04  0.25500000920E-02 0. -1.
       -2   -1    0    0    0  501  0.00000000000E+00  0.00000000000E+00 -0.11163873320E+04  0.11163873320E+04  0.25500000920E-02 0.  1.
    10030    2    1    2    0    0  0.00000000000E+00  0.00000000000E+00  0.29483490240E+03  0.25276095664E+04  0.25103550547E+04 0.  0.
        1    1    3    3  502    0  0.10442438812E+04 -0.69544106224E+03  0.18491683517E+03  0.12681789268E+04  0.50400001928E-02 0.  1.
       -1    1    3    3    0  502 -0.10442438812E+04  0.69544106224E+03  0.10991806723E+03  0.12594306396E+04  0.50400001928E-02 0. -1.
</event>
<event>
 5   0  0.1015327E-05  0.2105445E+04  0.7818609E-02  0.8558849E-01
        1   -1    0    0  501    0  0.00000000000E+00  0.00000000000E+00  0.17612207013E+04  0.17612207013E+04  0.50400001928E-02 0. -1.
       -1   -1    0    0    0  501  0.00000000000E+00  0.00000000000E+00 -0.62923671349E+03  0.62923671351E+03  0.50400001928E-02 0.  1.
    10030    2    1    2    0    0  0.00000000000E+00  0.00000000000E+00  0.11319839878E+04  0.23904574148E+04  0.21054450606E+04 0.  0.
        4    1    3    3  502    0  0.28769608389E+03 -0.55316606420E+03  0.15290242672E+04  0.16512657430E+04  0.12699999809E+01 0. -1.
       -4    1    3    3    0  502 -0.28769608389E+03  0.55316606420E+03 -0.39704027944E+03  0.73919167181E+03  0.12699999809E+01 0.  1.
</event>
<event>
 5   0  0.2432309E-05  0.2468683E+04  0.7818609E-02  0.8414228E-01
       -2   -1    0    0    0  501  0.00000000000E+00  0.00000000000E+00  0.60796245323E+03  0.60796245323E+03  0.25500000920E-02 0.  1.
        2   -1    0    0  501    0  0.00000000000E+00  0.00000000000E+00 -0.25060738706E+04  0.25060738706E+04  0.25500000920E-02 0. -1.
    10030    2    1    2    0    0  0.00000000000E+00  0.00000000000E+00 -0.18981114174E+04  0.31140363238E+04  0.24686829026E+04 0.  0.
        4    1    3    3  502    0  0.49661566044E+03  0.10778951624E+04 -0.13770311736E+04  0.18178838140E+04  0.12699999809E+01 0. -1.
       -4    1    3    3    0  502 -0.49661566044E+03 -0.10778951624E+04 -0.52108024379E+03  0.12961525098E+04  0.12699999809E+01 0.  1.
</event>
<event>
 5   0  0.2432309E-05  0.2546463E+04  0.7818609E-02  0.8386617E-01
        2   -1    0    0  501    0  0.00000000000E+00  0.00000000000E+00  0.11493359129E+04  0.11493359129E+04  0.25500000920E-02 0.  1.
       -2   -1    0    0    0  501  0.00000000000E+00  0.00000000000E+00 -0.14104830100E+04  0.14104830100E+04  0.25500000920E-02 0. -1.
    10030    2    1    2    0    0  0.00000000000E+00  0.00000000000E+00 -0.26114709706E+03  0.25598189230E+04  0.25464632556E+04 0.  0.
        4    1    3    3  502    0  0.87672251940E+03 -0.63974822040E+03 -0.79979559405E+03  0.13481820228E+04  0.12699999809E+01 0.  1.
       -4    1    3    3    0  502 -0.87672251940E+03  0.63974822040E+03  0.53864849699E+03  0.12116369001E+04  0.12699999809E+01 0. -1.
</event>
<event>
 5   0  0.1010338E-05  0.2511498E+04  0.7818609E-02  0.8398901E-01
       -1   -1    0    0    0  501  0.00000000000E+00  0.00000000000E+00  0.72576367086E+03  0.72576367088E+03  0.50400001928E-02 0. -1.
        1   -1    0    0  501    0  0.00000000000E+00  0.00000000000E+00 -0.21727535603E+04  0.21727535603E+04  0.50400001928E-02 0.  1.
    10030    2    1    2    0    0  0.00000000000E+00  0.00000000000E+00 -0.14469898894E+04  0.28985172311E+04  0.25114980389E+04 0.  0.
        2    1    3    3  502    0  0.18400287453E+03 -0.11792958445E+04 -0.27308596265E+03  0.12244066685E+04  0.25500000920E-02 0. -1.
       -2    1    3    3    0  502 -0.18400287453E+03  0.11792958445E+04 -0.11739039268E+04  0.16741105627E+04  0.25500000920E-02 0.  1.
</event>
<event>
 5   0  0.2452457E-05  0.2496775E+04  0.7818609E-02  0.8404135E-01
        2   -1    0    0  501    0  0.00000000000E+00  0.00000000000E+00  0.19684395897E+04  0.19684395897E+04  0.25500000920E-02 0.  1.
       -2   -1    0    0    0  501  0.00000000000E+00  0.00000000000E+00 -0.79172925055E+03  0.79172925056E+03  0.25500000920E-02 0. -1.
    10030    2    1    2    0    0  0.00000000000E+00  0.00000000000E+00  0.11767103392E+04  0.27601688403E+04  0.24967748806E+04 0.  0.
        1    1    3    3  502    0  0.81652069641E+03  0.76221504116E+03 -0.27944798673E+02  0.11173444985E+04  0.50400001928E-02 0. -1.
       -1    1    3    3    0  502 -0.81652069641E+03 -0.76221504116E+03  0.12046551378E+04  0.16428243417E+04  0.50400001928E-02 0.  1.
</event>
<event>
 5   0  0.1002753E-05  0.2496642E+04  0.7818609E-02  0.8404183E-01
       -1   -1    0    0    0  501  0.00000000000E+00  0.00000000000E+00  0.79294561448E+03  0.79294561450E+03  0.50400001928E-02 0. -1.
        1   -1    0    0  501    0  0.00000000000E+00  0.00000000000E+00 -0.19652104991E+04  0.19652104991E+04  0.50400001928E-02 0.  1.
    10030    2    1    2    0    0  0.00000000000E+00  0.00000000000E+00 -0.11722648846E+04  0.27581561136E+04  0.24966417819E+04 0.  0.
        5    1    3    3  502    0 -0.46116700608E+03 -0.31840505753E+02 -0.18671592416E+04  0.19235369892E+04  0.46999998093E+01 0.  1.
       -5    1    3    3    0  502  0.46116700608E+03  0.31840505753E+02  0.69489435704E+03  0.83461912436E+03  0.46999998093E+01 0. -1.
</event>
<event>
 5   0  0.1002753E-05  0.2476707E+04  0.7818609E-02  0.8411331E-01
       -1   -1    0    0    0  501  0.00000000000E+00  0.00000000000E+00  0.82747040727E+03  0.82747040729E+03  0.50400001928E-02 0.  1.
        1   -1    0    0  501    0  0.00000000000E+00  0.00000000000E+00 -0.18532614161E+04  0.18532614161E+04  0.50400001928E-02 0. -1.
    10030    2    1    2    0    0  0.00000000000E+00  0.00000000000E+00 -0.10257910089E+04  0.26807318234E+04  0.24767066672E+04 0.  0.
        5    1    3    3  502    0 -0.62792821993E+03  0.56609164310E+03 -0.14922787582E+04  0.17151301933E+04  0.46999998093E+01 0. -1.
       -5    1    3    3    0  502  0.62792821993E+03 -0.56609164310E+03  0.46648774936E+03  0.96560163011E+03  0.46999998093E+01 0.  1.
</event>
<event>
 5   0  0.1002753E-05  0.2482977E+04  0.7818609E-02  0.8409075E-01
        1   -1    0    0  501    0  0.00000000000E+00  0.00000000000E+00  0.18534425778E+04  0.18534425779E+04  0.50400001928E-02 0. -1.
       -1   -1    0    0    0  501  0.00000000000E+00  0.00000000000E+00 -0.83158454358E+03  0.83158454360E+03  0.50400001928E-02 0.  1.
    10030    2    1    2    0    0  0.00000000000E+00  0.00000000000E+00  0.10218580343E+04  0.26850271214E+04  0.24829774064E+04 0.  0.
        5    1    3    3  502    0  0.95806887636E+03  0.48694924087E+03  0.11829979990E+04  0.15982871741E+04  0.46999998093E+01 0. -1.
       -5    1    3    3    0  502 -0.95806887636E+03 -0.48694924087E+03 -0.16113996476E+03  0.10867399474E+04  0.46999998093E+01 0.  1.
</event>
<event>
 5   0  0.1010338E-05  0.2514869E+04  0.7818609E-02  0.8397707E-01
       -1   -1    0    0    0  501  0.00000000000E+00  0.00000000000E+00  0.82233931611E+03  0.82233931612E+03  0.50400001928E-02 0. -1.
        1   -1    0    0  501    0  0.00000000000E+00  0.00000000000E+00 -0.19227366708E+04  0.19227366708E+04  0.50400001928E-02 0.  1.
    10030    2    1    2    0    0  0.00000000000E+00  0.00000000000E+00 -0.11003973547E+04  0.27450759869E+04  0.25148693477E+04 0.  0.
        2    1    3    3  502    0 -0.31276858206E+03  0.19371231597E+03 -0.18626767271E+04  0.18986609062E+04  0.25500000920E-02 0.  1.
       -2    1    3    3    0  502  0.31276858206E+03 -0.19371231597E+03  0.76227937237E+03  0.84641508070E+03  0.25500000920E-02 0. -1.
</event>
<event>
 5   0  0.2441340E-05  0.2500661E+04  0.7818609E-02  0.8402750E-01
        2   -1    0    0  501    0  0.00000000000E+00  0.00000000000E+00  0.16945349831E+04  0.16945349831E+04  0.25500000920E-02 0. -1.
       -2   -1    0    0    0  501  0.00000000000E+00  0.00000000000E+00 -0.92256969461E+03  0.92256969461E+03  0.25500000920E-02 0.  1.
    10030    2    1    2    0    0  0.00000000000E+00  0.00000000000E+00  0.77196528849E+03  0.26171046777E+04  0.25006612101E+04 0.  0.
        3    1    3    3  502    0 -0.89432613540E+02  0.80817566559E+03  0.13800434653E+04  0.16017696699E+04  0.10100000352E+00 0. -1.
       -3    1    3    3    0  502  0.89432613540E+02 -0.80817566559E+03 -0.60807817686E+03  0.10153350079E+04  0.10100000352E+00 0.  1.
</event>
<event>
 5   0  0.2345143E-05  0.2484243E+04  0.7818609E-02  0.8408620E-01
       -2   -1    0    0    0  501  0.00000000000E+00  0.00000000000E+00  0.16247671288E+04  0.16247671288E+04  0.25500000920E-02 0.  1.
        2   -1    0    0  501    0  0.00000000000E+00  0.00000000000E+00 -0.94959230256E+03  0.94959230256E+03  0.25500000920E-02 0. -1.
    10030    2    1    2    0    0  0.00000000000E+00  0.00000000000E+00  0.67517482620E+03  0.25743594313E+04  0.24842434333E+04 0.  0.
        5    1    3    3  502    0 -0.95713475909E+02 -0.23765647337E+03 -0.92190357411E+03  0.95685419933E+03  0.46999998093E+01 0. -1.
       -5    1    3    3    0  502  0.95713475909E+02  0.23765647337E+03  0.15970784003E+04  0.16175052320E+04  0.46999998093E+01 0.  1.
</event>
<event>
 5   0  0.2388326E-05  0.2467392E+04  0.7818609E-02  0.8414695E-01
       -2   -1    0    0    0  501  0.00000000000E+00  0.00000000000E+00  0.13814480134E+04  0.13814480134E+04  0.25500000920E-02 0. -1.
        2   -1    0    0  501    0  0.00000000000E+00  0.00000000000E+00 -0.11017471615E+04  0.11017471615E+04  0.25500000920E-02 0.  1.
    10030    2    1    2    0    0  0.00000000000E+00  0.00000000000E+00  0.27970085193E+03  0.24831951749E+04  0.24673924921E+04 0.  0.
        2    1    3    3  502    0 -0.29532254768E+03 -0.11897376393E+04 -0.19432031425E-01  0.12258429988E+04  0.25500000920E-02 0.  1.
       -2    1    3    3    0  502  0.29532254768E+03  0.11897376393E+04  0.27972028396E+03  0.12573521761E+04  0.25500000920E-02 0. -1.
</event>
<event>
 5   0  0.1015327E-05  0.2446921E+04  0.7818609E-02  0.8422143E-01
       -1   -1    0    0    0  501  0.00000000000E+00  0.00000000000E+00  0.10209431947E+04  0.10209431947E+04  0.50400001928E-02 0. -1.
        1   -1    0    0  501    0  0.00000000000E+00  0.00000000000E+00 -0.14661501588E+04  0.14661501588E+04  0.50400001928E-02 0.  1.
    10030    2    1    2    0    0  0.00000000000E+00  0.00000000000E+00 -0.44520696408E+03  0.24870933536E+04  0.24469213531E+04 0.  0.
        4    1    3    3  502    0 -0.32252232032E+03  0.11398473979E+04  0.88329997631E+02  0.11878874269E+04  0.12699999809E+01 0. -1.
       -4    1    3    3    0  502  0.32252232032E+03 -0.11398473979E+04 -0.53353696171E+03  0.12992059267E+04  0.12699999809E+01 0.  1.
</event>
<event>
 5   0  0.2452457E-05  0.2519526E+04  0.7818609E-02  0.8396062E-01
       -2   -1    0    0    0  501  0.00000000000E+00  0.00000000000E+00  0.13849149209E+04  0.13849149209E+04  0.25500000920E-02 0. -1.
        2   -1    0    0  501    0  0.00000000000E+00  0.00000000000E+00 -0.11459212339E+04  0.11459212339E+04  0.25500000920E-02 0.  1.
    10030    2    1    2    0    0  0.00000000000E+00  0.00000000000E+00  0.23899368700E+03  0.25308361547E+04  0.25195264753E+04 0.  0.
        1    1    3    3  502    0 -0.40029727212E+03 -0.11787813727E+04 -0.74346034164E+02  0.12471129714E+04  0.50400001928E-02 0.  1.
       -1    1    3    3    0  502  0.40029727212E+03  0.11787813727E+04  0.31333972116E+03  0.12837231833E+04  0.50400001928E-02 0. -1.
</event>
<event>
 5   0  0.1010338E-05  0.2521528E+04  0.7818609E-02  0.8395356E-01
       -1   -1    0    0    0  501  0.00000000000E+00  0.00000000000E+00  0.13735174997E+04  0.13735174997E+04  0.50400001928E-02 0. -1.
        1   -1    0    0  501    0  0.00000000000E+00  0.00000000000E+00 -0.11572669198E+04  0.11572669198E+04  0.50400001928E-02 0.  1.
    10030    2    1    2    0    0  0.00000000000E+00  0.00000000000E+00  0.21625057989E+03  0.25307844195E+04  0.25215283985E+04 0.  0.
        2    1    3    3  502    0  0.83237395974E+03  0.26845739704E+03 -0.80328880482E+03  0.11875136575E+04  0.25500000920E-02 0.  1.
       -2    1    3    3    0  502 -0.83237395974E+03 -0.26845739704E+03  0.10195393847E+04  0.13432707619E+04  0.25500000920E-02 0. -1.
</event>
<event>
 5   0  0.1008073E-05  0.2122857E+04  0.7818609E-02  0.8551241E-01
        1   -1    0    0  501    0  0.00000000000E+00  0.00000000000E+00  0.18644140318E+04  0.18644140318E+04  0.50400001928E-02 0. -1.
       -1   -1    0    0    0  501  0.00000000000E+00  0.00000000000E+00 -0.60428150220E+03  0.60428150222E+03  0.50400001928E-02 0.  1.
    10030    2    1    2    0    0  0.00000000000E+00  0.00000000000E+00  0.12601325296E+04  0.24686955340E+04  0.21228574252E+04 0.  0.
        1    1    3    3  502    0 -0.22023509567E+03  0.87256840887E+03 -0.24428595810E+02  0.90026433998E+03  0.50400001928E-02 0.  1.
       -1    1    3    3    0  502  0.22023509567E+03 -0.87256840887E+03  0.12845611254E+04  0.15684311940E+04  0.50400001928E-02 0. -1.
</event>
<event>
 5   0  0.1039688E-05  0.2488678E+04  0.7818609E-02  0.8407030E-01
        1   -1    0    0  501    0  0.00000000000E+00  0.00000000000E+00  0.24242290567E+04  0.24242290567E+04  0.50400001928E-02 0. -1.
       -1   -1    0    0    0  501  0.00000000000E+00  0.00000000000E+00 -0.63871017109E+03  0.63871017111E+03  0.50400001928E-02 0.  1.
    10030    2    1    2    0    0  0.00000000000E+00  0.00000000000E+00  0.17855188857E+04  0.30629392278E+04  0.24886781677E+04 0.  0.
        3    1    3    3  502    0  0.64678048133E+01 -0.57157452832E+02  0.24225918412E+04  0.24232746534E+04  0.10100000352E+00 0. -1.
       -3    1    3    3    0  502 -0.64678048133E+01  0.57157452832E+02 -0.63707295551E+03  0.63966457441E+03  0.10100000352E+00 0.  1.
</event>
<event>
 5   0  0.1010338E-05  0.2500761E+04  0.7818609E-02  0.8402714E-01
        1   -1    0    0  501    0  0.00000000000E+00  0.00000000000E+00  0.15047747201E+04  0.15047747201E+04  0.50400001928E-02 0. -1.
       -1   -1    0    0    0  501  0.00000000000E+00  0.00000000000E+00 -0.10389936267E+04  0.10389936267E+04  0.50400001928E-02 0.  1.
    10030    2    1    2    0    0  0.00000000000E+00  0.00000000000E+00  0.46578109346E+03  0.25437683468E+04  0.25007609592E+04 0.  0.
        2    1    3    3  502    0 -0.91701417544E+03 -0.50493507989E+03  0.92844623545E+03  0.13992450982E+04  0.25500000920E-02 0. -1.
       -2    1    3    3    0  502  0.91701417544E+03  0.50493507989E+03 -0.46266514199E+03  0.11445232485E+04  0.25500000920E-02 0.  1.
</event>
<event>
 5   0  0.1039688E-05  0.2486762E+04  0.7818609E-02  0.8407717E-01
       -1   -1    0    0    0  501  0.00000000000E+00  0.00000000000E+00  0.76836375404E+03  0.76836375406E+03  0.50400001928E-02 0. -1.
        1   -1    0    0  501    0  0.00000000000E+00  0.00000000000E+00 -0.20120628203E+04  0.20120628203E+04  0.50400001928E-02 0.  1.
    10030    2    1    2    0    0  0.00000000000E+00  0.00000000000E+00 -0.12436990663E+04  0.27804265744E+04  0.24867618640E+04 0.  0.
        3    1    3    3  502    0  0.12174354539E+04  0.19663864198E+03 -0.79927159074E+03  0.14695750835E+04  0.10100000352E+00 0.  1.
       -3    1    3    3    0  502 -0.12174354539E+04 -0.19663864198E+03 -0.44442747554E+03  0.13108514909E+04  0.10100000352E+00 0. -1.
</event>
<event>
 5   0  0.1008073E-05  0.2481538E+04  0.7818609E-02  0.8409592E-01
        1   -1    0    0  501    0  0.00000000000E+00  0.00000000000E+00  0.99397151287E+03  0.99397151288E+03  0.50400001928E-02 0. -1.
       -1   -1    0    0    0  501  0.00000000000E+00  0.00000000000E+00 -0.15488444912E+04  0.15488444912E+04  0.50400001928E-02 0.  1.
    10030    2    1    2    0    0  0.00000000000E+00  0.00000000000E+00 -0.55487297835E+03  0.25428160041E+04  0.24815376702E+04 0.  0.
        1    1    3    3  502    0  0.86463274436E+03  0.14090721505E+03  0.62293211520E+03  0.10749367637E+04  0.50400001928E-02 0. -1.
       -1    1    3    3    0  502 -0.86463274436E+03 -0.14090721505E+03 -0.11778050935E+04  0.14678792404E+04  0.50400001928E-02 0.  1.
</event>
<event>
 5   0  0.1010338E-05  0.2489190E+04  0.7818609E-02  0.8406847E-01
        1   -1    0    0  501    0  0.00000000000E+00  0.00000000000E+00  0.16591830699E+04  0.16591830699E+04  0.50400001928E-02 0. -1.
       -1   -1    0    0    0  501  0.00000000000E+00  0.00000000000E+00 -0.93360220709E+03  0.93360220710E+03  0.50400001928E-02 0.  1.
    10030    2    1    2    0    0  0.00000000000E+00  0.00000000000E+00  0.72558086279E+03  0.25927852770E+04  0.24891902105E+04 0.  0.
        2    1    3    3  502    0 -0.23826311382E+03 -0.10116497474E+04  0.10759850168E+04  0.14959773658E+04  0.25500000920E-02 0. -1.
       -2    1    3    3    0  502  0.23826311382E+03  0.10116497474E+04 -0.35040415399E+03  0.10968079111E+04  0.25500000920E-02 0.  1.
</event>
<event>
 5   0  0.2388326E-05  0.2508798E+04  0.7818609E-02  0.8399858E-01
        2   -1    0    0  501    0  0.00000000000E+00  0.00000000000E+00  0.18714163680E+04  0.18714163680E+04  0.25500000920E-02 0.  1.
       -2   -1    0    0    0  501  0.00000000000E+00  0.00000000000E+00 -0.84081634116E+03  0.84081634117E+03  0.25500000920E-02 0. -1.
    10030    2    1    2    0    0  0.00000000000E+00  0.00000000000E+00  0.10306000268E+04  0.27122327091E+04  0.25087984880E+04 0.  0.
        2    1    3    3  502    0  0.11832374861E+04  0.19118336249E+03  0.11527478851E+03  0.12041139080E+04  0.25500000920E-02 0. -1.
       -2    1    3    3    0  502 -0.11832374861E+04 -0.19118336249E+03  0.91532523829E+03  0.15081188011E+04  0.25500000920E-02 0.  1.
</event>
<event>
 5   0  0.1010338E-05  0.2484397E+04  0.7818609E-02  0.8408565E-01
       -1   -1    0    0    0  501  0.00000000000E+00  0.00000000000E+00  0.90322261401E+03  0.90322261402E+03  0.50400001928E-02 0. -1.
        1   -1    0    0  501    0  0.00000000000E+00  0.00000000000E+00 -0.17083907558E+04  0.17083907558E+04  0.50400001928E-02 0.  1.
    10030    2    1    2    0    0  0.00000000000E+00  0.00000000000E+00 -0.80516814181E+03  0.26116133698E+04  0.24843970409E+04 0.  0.
        2    1    3    3  502    0  0.10096754704E+04 -0.68272973561E+03 -0.65463847824E+03  0.13835158057E+04  0.25500000920E-02 0.  1.
       -2    1    3    3    0  502 -0.10096754704E+04  0.68272973561E+03 -0.15052966357E+03  0.12280975641E+04  0.25500000920E-02 0. -1.
</event>
<event>
 5   0  0.1002753E-05  0.2486805E+04  0.7818609E-02  0.8407701E-01
       -1   -1    0    0    0  501  0.00000000000E+00  0.00000000000E+00  0.15665169743E+04  0.15665169743E+04  0.50400001928E-02 0. -1.
        1   -1    0    0  501    0  0.00000000000E+00  0.00000000000E+00 -0.98693469716E+03  0.98693469717E+03  0.50400001928E-02 0.  1.
    10030    2    1    2    0    0  0.00000000000E+00  0.00000000000E+00  0.57958227713E+03  0.25534516715E+04  0.24868051437E+04 0.  0.
        5    1    3    3  502    0 -0.39760610729E+03  0.20427650252E+03 -0.90156615254E+03  0.10063116433E+04  0.46999998093E+01 0.  1.
       -5    1    3    3    0  502  0.39760610729E+03 -0.20427650252E+03  0.14811484297E+04  0.15471400282E+04  0.46999998093E+01 0. -1.
</event>
<event>
 5   0  0.2441340E-05  0.2530670E+04  0.7818609E-02  0.8392140E-01
       -2   -1    0    0    0  501  0.00000000000E+00  0.00000000000E+00  0.11899292038E+04  0.11899292038E+04  0.25500000920E-02 0.  1.
        2   -1    0    0  501    0  0.00000000000E+00  0.00000000000E+00 -0.13455194175E+04  0.13455194175E+04  0.25500000920E-02 0. -1.
    10030    2    1    2    0    0  0.00000000000E+00  0.00000000000E+00 -0.15559021370E+03  0.25354486214E+04  0.25306701478E+04 0.  0.
        3    1    3    3  502    0  0.65283707370E+03  0.99442668457E+03  0.35428731163E+03  0.12412091625E+04  0.10100000352E+00 0.  1.
       -3    1    3    3    0  502 -0.65283707370E+03 -0.99442668457E+03 -0.50987752532E+03  0.12942394588E+04  0.10100000352E+00 0. -1.
</event>
<event>
 5   0  0.2441340E-05  0.2419494E+04  0.7818609E-02  0.8432241E-01
        2   -1    0    0  501    0  0.00000000000E+00  0.00000000000E+00  0.28487493906E+04  0.28487493906E+04  0.25500000920E-02 0.  1.
       -2   -1    0    0    0  501  0.00000000000E+00  0.00000000000E+00 -0.51373006671E+03  0.51373006672E+03  0.25500000920E-02 0. -1.
    10030    2    1    2    0    0  0.00000000000E+00  0.00000000000E+00  0.23350193239E+04  0.33624794573E+04  0.24194943393E+04 0.  0.
        3    1    3    3  502    0 -0.11642665159E+04  0.99083836826E+02  0.73210888250E+03  0.13788827190E+04  0.10100000352E+00 0. -1.
       -3    1    3    3    0  502  0.11642665159E+04 -0.99083836826E+02  0.16029104414E+04  0.19835967383E+04  0.10100000352E+00 0.  1.
</event>
<event>
 5   0  0.2432309E-05  0.2738151E+04  0.7818609E-02  0.8322731E-01
        2   -1    0    0  501    0  0.00000000000E+00  0.00000000000E+00  0.18193433083E+04  0.18193433083E+04  0.25500000920E-02 0.  1.
       -2   -1    0    0    0  501  0.00000000000E+00  0.00000000000E+00 -0.10302441363E+04  0.10302441363E+04  0.25500000920E-02 0. -1.
    10030    2    1    2    0    0  0.00000000000E+00  0.00000000000E+00  0.78909917199E+03  0.28495874446E+04  0.27381510369E+04 0.  0.
        4    1    3    3  502    0  0.37702057861E+03 -0.10617945403E+03  0.17597877119E+04  0.18028513519E+04  0.12699999809E+01 0.  1.
       -4    1    3    3    0  502 -0.37702057861E+03  0.10617945403E+03 -0.97068853996E+03  0.10467360927E+04  0.12699999809E+01 0. -1.
</event>
<event>
 5   0  0.2441340E-05  0.2509775E+04  0.7818609E-02  0.8399511E-01
        2   -1    0    0  501    0  0.00000000000E+00  0.00000000000E+00  0.15493767312E+04  0.15493767312E+04  0.25500000920E-02 0. -1.
       -2   -1    0    0    0  501  0.00000000000E+00  0.00000000000E+00 -0.10163716157E+04  0.10163716157E+04  0.25500000920E-02 0.  1.
    10030    2    1    2    0    0  0.00000000000E+00  0.00000000000E+00  0.53300511549E+03  0.25657483469E+04  0.25097749155E+04 0.  0.
        3    1    3    3  502    0 -0.44091597221E+03 -0.88872203122E+03  0.10520862553E+04  0.14460702757E+04  0.10100000352E+00 0.  1.
       -3    1    3    3    0  502  0.44091597221E+03  0.88872203122E+03 -0.51908113985E+03  0.11196780713E+04  0.10100000352E+00 0. -1.
</event>
<event>
 5   0  0.2452457E-05  0.2580471E+04  0.7818609E-02  0.8374865E-01
       -2   -1    0    0    0  501  0.00000000000E+00  0.00000000000E+00  0.16382972408E+04  0.16382972408E+04  0.25500000920E-02 0. -1.
        2   -1    0    0  501    0  0.00000000000E+00  0.00000000000E+00 -0.10161203146E+04  0.10161203146E+04  0.25500000920E-02 0.  1.
    10030    2    1    2    0    0  0.00000000000E+00  0.00000000000E+00  0.62217692618E+03  0.26544175555E+04  0.25804705833E+04 0.  0.
        1    1    3    3  502    0  0.11730862072E+04  0.37682387274E+03  0.70491695716E+03  0.14195194247E+04  0.50400001928E-02 0. -1.
       -1    1    3    3    0  502 -0.11730862072E+04 -0.37682387274E+03 -0.82740030981E+02  0.12348981308E+04  0.50400001928E-02 0.  1.
</event>
<event>
 5   0  0.2345143E-05  0.2473107E+04  0.7818609E-02  0.8412630E-01
       -2   -1    0    0    0  501  0.00000000000E+00  0.00000000000E+00  0.13408549203E+04  0.13408549203E+04  0.25500000920E-02 0. -1.
        2   -1    0    0  501    0  0.00000000000E+00  0.00000000000E+00 -0.11403651066E+04  0.11403651066E+04  0.25500000920E-02 0.  1.
    10030    2    1    2    0    0  0.00000000000E+00  0.00000000000E+00  0.20048981370E+03  0.24812200268E+04  0.24731066811E+04 0.  0.
        5    1    3    3  502    0  0.11271646877E+03  0.89032589923E+03  0.95371590974E+03  0.13095729593E+04  0.46999998093E+01 0. -1.
       -5    1    3    3    0  502 -0.11271646877E+03 -0.89032589923E+03 -0.75322609603E+03  0.11716470676E+04  0.46999998093E+01 0.  1.
</event>
<event>
 5   0  0.2345143E-05  0.2513964E+04  0.7818609E-02  0.8398028E-01
        2   -1    0    0  501    0  0.00000000000E+00  0.00000000000E+00  0.18852370848E+04  0.18852370848E+04  0.25500000920E-02 0. -1.
       -2   -1    0    0    0  501  0.00000000000E+00  0.00000000000E+00 -0.83809276579E+03  0.83809276580E+03  0.25500000920E-02 0.  1.
    10030    2    1    2    0    0  0.00000000000E+00  0.00000000000E+00  0.10471443190E+04  0.27233298506E+04  0.25139638523E+04 0.  0.
        5    1    3    3  502    0  0.80578039881E+03  0.38090820139E+03 -0.43658929388E+03  0.99247438784E+03  0.46999998093E+01 0.  1.
       -5    1    3    3    0  502 -0.80578039881E+03 -0.38090820139E+03  0.14837336129E+04  0.17308554628E+04  0.46999998093E+01 0. -1.
</event>
<event>
 5   0  0.1002753E-05  0.2475922E+04  0.7818609E-02  0.8411614E-01
       -1   -1    0    0    0  501  0.00000000000E+00  0.00000000000E+00  0.59124194993E+03  0.59124194996E+03  0.50400001928E-02 0. -1.
        1   -1    0    0  501    0  0.00000000000E+00  0.00000000000E+00 -0.25920822893E+04  0.25920822893E+04  0.50400001928E-02 0.  1.
    10030    2    1    2    0    0  0.00000000000E+00  0.00000000000E+00 -0.20008403394E+04  0.31833242393E+04  0.24759222824E+04 0.  0.
        5    1    3    3  502    0 -0.55908210675E+02  0.18722829945E+03 -0.25721191908E+04  0.25795347228E+04  0.46999998093E+01 0.  1.
       -5    1    3    3    0  502  0.55908210675E+02 -0.18722829945E+03  0.57127885145E+03  0.60378951651E+03  0.46999998093E+01 0. -1.
</event>
<event>
 5   0  0.1008073E-05  0.2490103E+04  0.7818609E-02  0.8406520E-01
       -1   -1    0    0    0  501  0.00000000000E+00  0.00000000000E+00  0.77733905035E+03  0.77733905036E+03  0.50400001928E-02 0.  1.
        1   -1    0    0  501    0  0.00000000000E+00  0.00000000000E+00 -0.19941787424E+04  0.19941787425E+04  0.50400001928E-02 0. -1.
    10030    2    1    2    0    0  0.00000000000E+00  0.00000000000E+00 -0.12168396921E+04  0.27715177928E+04  0.24901028171E+04 0.  0.
        1    1    3    3  502    0  0.15715285266E+03 -0.95462238410E+03 -0.14806645880E+04  0.17687194626E+04  0.50400001928E-02 0. -1.
       -1    1    3    3    0  502 -0.15715285266E+03  0.95462238410E+03  0.26382489589E+03  0.10027983302E+04  0.50400001928E-02 0.  1.
</event>
<event>
 5   0  0.1039688E-05  0.2360547E+04  0.7818609E-02  0.8454424E-01
       -1   -1    0    0    0  501  0.00000000000E+00  0.00000000000E+00  0.17014354126E+04  0.17014354126E+04  0.50400001928E-02 0. -1.
        1   -1    0    0  501    0  0.00000000000E+00  0.00000000000E+00 -0.81874721754E+03  0.81874721755E+03  0.50400001928E-02 0.  1.
    10030    2    1    2    0    0  0.00000000000E+00  0.00000000000E+00  0.88268819508E+03  0.25201826302E+04  0.23605469789E+04 0.  0.
        3    1    3    3  502    0  0.82371878136E+03 -0.59934048909E+03 -0.19505791400E+03  0.10371929679E+04  0.10100000352E+00 0.  1.
       -3    1    3    3    0  502 -0.82371878136E+03  0.59934048909E+03  0.10777461091E+04  0.14829896623E+04  0.10100000352E+00 0. -1.
</event>
<event>
 5   0  0.1008073E-05  0.2483039E+04  0.7818609E-02  0.8409053E-01
        1   -1    0    0  501    0  0.00000000000E+00  0.00000000000E+00  0.13387642545E+04  0.13387642545E+04  0.50400001928E-02 0. -1.
       -1   -1    0    0    0  501  0.00000000000E+00  0.00000000000E+00 -0.11513383080E+04  0.11513383080E+04  0.50400001928E-02 0.  1.
    10030    2    1    2    0    0  0.00000000000E+00  0.00000000000E+00  0.18742594651E+03  0.24901025625E+04  0.24830389216E+04 0.  0.
        1    1    3    3  502    0 -0.10535832760E+04 -0.60457469469E+03  0.35100137193E+03  0.12644169581E+04  0.50400001928E-02 0. -1.
       -1    1    3    3    0  502  0.10535832760E+04  0.60457469469E+03 -0.16357542542E+03  0.12256856043E+04  0.50400001928E-02 0.  1.
</event>
<event>
 5   0  0.1015327E-05  0.2497964E+04  0.7818609E-02  0.8403711E-01
        1   -1    0    0  501    0  0.00000000000E+00  0.00000000000E+00  0.10348099163E+04  0.10348099163E+04  0.50400001928E-02 0. -1.
       -1   -1    0    0    0  501  0.00000000000E+00  0.00000000000E+00 -0.15074812476E+04  0.15074812476E+04  0.50400001928E-02 0.  1.
    10030    2    1    2    0    0  0.00000000000E+00  0.00000000000E+00 -0.47267133126E+03  0.25422911639E+04  0.24979644062E+04 0.  0.
        4    1    3    3  502    0 -0.49753473587E+03  0.11099725423E+04  0.52200151501E+02  0.12175000315E+04  0.12699999809E+01 0.  1.
       -4    1    3    3    0  502  0.49753473587E+03 -0.11099725423E+04 -0.52487148276E+03  0.13247911324E+04  0.12699999809E+01 0. -1.
</event>
<event>
 5   0  0.2432309E-05  0.2434072E+04  0.7818609E-02  0.8426856E-01
        2   -1    0    0  501    0  0.00000000000E+00  0.00000000000E+00  0.14509902279E+04  0.14509902279E+04  0.25500000920E-02 0. -1.
       -2   -1    0    0    0  501  0.00000000000E+00  0.00000000000E+00 -0.10208042363E+04  0.10208042363E+04  0.25500000920E-02 0.  1.
    10030    2    1    2    0    0  0.00000000000E+00  0.00000000000E+00  0.43018599160E+03  0.24717944641E+04  0.24340722844E+04 0.  0.
        4    1    3    3  502    0  0.11923700740E+04 -0.29014544004E+02  0.46089191194E+03  0.12786755666E+04  0.12699999809E+01 0. -1.
       -4    1    3    3    0  502 -0.11923700740E+04  0.29014544004E+02 -0.30705920341E+02  0.11931188975E+04  0.12699999809E+01 0.  1.
</event>
<event>
 5   0  0.2345143E-05  0.2515605E+04  0.7818609E-02  0.8397447E-01
        2   -1    0    0  501    0  0.00000000000E+00  0.00000000000E+00  0.11695413168E+04  0.11695413168E+04  0.25500000920E-02 0. -1.
       -2   -1    0    0    0  501  0.00000000000E+00  0.00000000000E+00 -0.13527247810E+04  0.13527247810E+04  0.25500000920E-02 0.  1.
    10030    2    1    2    0    0  0.00000000000E+00  0.00000000000E+00 -0.18318346413E+03  0.25222660978E+04  0.25156053122E+04 0.  0.
        5    1    3    3  502    0  0.51372128931E+03  0.25884804742E+03  0.10299107411E+04  0.11796822027E+04  0.46999998093E+01 0. -1.
       -5    1    3    3    0  502 -0.51372128931E+03 -0.25884804742E+03 -0.12130942052E+04  0.13425838951E+04  0.46999998093E+01 0.  1.
</event>
<event>
 5   0  0.1008073E-05  0.2509000E+04  0.7818609E-02  0.8399786E-01
        1   -1    0    0  501    0  0.00000000000E+00  0.00000000000E+00  0.24442427075E+04  0.24442427075E+04  0.50400001928E-02 0.  1.
       -1   -1    0    0    0  501  0.00000000000E+00  0.00000000000E+00 -0.64386821039E+03  0.64386821041E+03  0.50400001928E-02 0. -1.
    10030    2    1    2    0    0  0.00000000000E+00  0.00000000000E+00  0.18003744971E+04  0.30881109179E+04  0.25089999425E+04 0.  0.
        1    1    3    3  502    0  0.10191798191E+04 -0.71360864957E+03  0.10979057359E+04  0.16593257105E+04  0.50400001928E-02 0.  1.
       -1    1    3    3    0  502 -0.10191798191E+04  0.71360864957E+03  0.70246876116E+03  0.14287852074E+04  0.50400001928E-02 0. -1.
</event>
<event>
 5   0  0.2441340E-05  0.2431724E+04  0.7818609E-02  0.8427721E-01
       -2   -1    0    0    0  501  0.00000000000E+00  0.00000000000E+00  0.92449284199E+03  0.92449284199E+03  0.25500000920E-02 0. -1.
        2   -1    0    0  501    0  0.00000000000E+00  0.00000000000E+00 -0.15990611854E+04  0.15990611854E+04  0.25500000920E-02 0.  1.
    10030    2    1    2    0    0  0.00000000000E+00  0.00000000000E+00 -0.67456834336E+03  0.25235540273E+04  0.24317241782E+04 0.  0.
        3    1    3    3  502    0  0.18267405562E+03 -0.79138416035E+03 -0.12762517274E+04  0.15127713580E+04  0.10100000352E+00 0.  1.
       -3    1    3    3    0  502 -0.18267405562E+03  0.79138416035E+03  0.60168338400E+03  0.10107826693E+04  0.10100000352E+00 0. -1.
</event>
<event>
 5   0  0.2452457E-05  0.2517365E+04  0.7818609E-02  0.8396825E-01
       -2   -1    0    0    0  501  0.00000000000E+00  0.00000000000E+00  0.14598658309E+04  0.14598658309E+04  0.25500000920E-02 0.  1.
        2   -1    0    0  501    0  0.00000000000E+00  0.00000000000E+00 -0.10852243503E+04  0.10852243503E+04  0.25500000920E-02 0. -1.
    10030    2    1    2    0    0  0.00000000000E+00  0.00000000000E+00  0.37464148064E+03  0.25450901812E+04  0.25173652479E+04 0.  0.
        1    1    3    3  502    0 -0.29866198433E+03 -0.55123358948E+03 -0.91613203396E+03  0.11101150187E+04  0.50400001928E-02 0. -1.
       -1    1    3    3    0  502  0.29866198433E+03  0.55123358948E+03  0.12907735146E+04  0.14349751625E+04  0.50400001928E-02 0.  1.
</event>
<event>
 5   0  0.2388326E-05  0.2416565E+04  0.7818609E-02  0.8433328E-01
        2   -1    0    0  501    0  0.00000000000E+00  0.00000000000E+00  0.11126206182E+04  0.11126206182E+04  0.25500000920E-02 0.  1.
       -2   -1    0    0    0  501  0.00000000000E+00  0.00000000000E+00 -0.13121690765E+04  0.13121690765E+04  0.25500000920E-02 0. -1.
    10030    2    1    2    0    0  0.00000000000E+00  0.00000000000E+00 -0.19954845827E+03  0.24247896948E+04  0.24165648091E+04 0.  0.
        2    1    3    3  502    0 -0.72683356995E+03  0.79664702082E+03 -0.64661798058E+03  0.12573974419E+04  0.25500000920E-02 0. -1.
       -2    1    3    3    0  502  0.72683356995E+03 -0.79664702082E+03  0.44706952231E+03  0.11673922528E+04  0.25500000920E-02 0.  1.
</event>
<event>
 5   0  0.1010338E-05  0.2508384E+04  0.7818609E-02  0.8400005E-01
       -1   -1    0    0    0  501  0.00000000000E+00  0.00000000000E+00  0.92206245687E+03  0.92206245688E+03  0.50400001928E-02 0. -1.
        1   -1    0    0  501    0  0.00000000000E+00  0.00000000000E+00 -0.17059557795E+04  0.17059557795E+04  0.50400001928E-02 0.  1.
    10030    2    1    2    0    0  0.00000000000E+00  0.00000000000E+00 -0.78389332262E+03  0.26280182364E+04  0.25083841631E+04 0.  0.
        2    1    3    3  502    0  0.46097923952E+03  0.55906170718E+03  0.68056929267E+03  0.99409577699E+03  0.25500000920E-02 0. -1.
       -2    1    3    3    0  502 -0.46097923952E+03 -0.55906170718E+03 -0.14644626153E+04  0.16339224594E+04  0.25500000920E-02 0.  1.
</event>
<event>
 5   0  0.1015327E-05  0.2479063E+04  0.7818609E-02  0.8410482E-01
       -1   -1    0    0    0  501  0.00000000000E+00  0.00000000000E+00  0.62326236074E+03  0.62326236076E+03  0.50400001928E-02 0. -1.
        1   -1    0    0  501    0  0.00000000000E+00  0.00000000000E+00 -0.24651558447E+04  0.24651558447E+04  0.50400001928E-02 0.  1.
    10030    2    1    2    0    0  0.00000000000E+00  0.00000000000E+00 -0.18418934840E+04  0.30884182055E+04  0.24790634130E+04 0.  0.
        4    1    3    3  502    0  0.89012564423E+01 -0.12002207651E+04 -0.13065981794E+04  0.17742067334E+04  0.12699999809E+01 0. -1.
       -4    1    3    3    0  502 -0.89012564423E+01  0.12002207651E+04 -0.53529530460E+03  0.13142114721E+04  0.12699999809E+01 0.  1.
</event>
<event>
 5   0  0.2345143E-05  0.2494261E+04  0.7818609E-02  0.8405033E-01
        2   -1    0    0  501    0  0.00000000000E+00  0.00000000000E+00  0.22444313733E+04  0.22444313733E+04  0.25500000920E-02 0.  1.
       -2   -1    0    0    0  501  0.00000000000E+00  0.00000000000E+00 -0.69297497138E+03  0.69297497138E+03  0.25500000920E-02 0. -1.
    10030    2    1    2    0    0  0.00000000000E+00  0.00000000000E+00  0.15514564019E+04  0.29374063447E+04  0.24942612266E+04 0.  0.
        5    1    3    3  502    0 -0.10217988564E+04  0.68464239567E+03  0.53293312491E+03  0.13404655603E+04  0.46999998093E+01 0. -1.
       -5    1    3    3    0  502  0.10217988564E+04 -0.68464239567E+03  0.10185232770E+04  0.15969407843E+04  0.46999998093E+01 0.  1.
</event>
<event>
 5   0  0.1010338E-05  0.2491258E+04  0.7818609E-02  0.8406106E-01
       -1   -1    0    0    0  501  0.00000000000E+00  0.00000000000E+00  0.13403768109E+04  0.13403768109E+04  0.50400001928E-02 0. -1.
        1   -1    0    0  501    0  0.00000000000E+00  0.00000000000E+00 -0.11575789917E+04  0.11575789917E+04  0.50400001928E-02 0.  1.
    10030    2    1    2    0    0  0.00000000000E+00  0.00000000000E+00  0.18279781915E+03  0.24979558026E+04  0.24912583465E+04 0.  0.
        2    1    3    3  502    0  0.12273760134E+04  0.18081849371E+03  0.20325521980E+03  0.12571634303E+04  0.25500000920E-02 0. -1.
       -2    1    3    3    0  502 -0.12273760134E+04 -0.18081849371E+03 -0.20457400649E+02  0.12407923723E+04  0.25500000920E-02 0.  1.
</event>
<event>
 5   0  0.1002753E-05  0.2487306E+04  0.7818609E-02  0.8407522E-01
        1   -1    0    0  501    0  0.00000000000E+00  0.00000000000E+00  0.16262443780E+04  0.16262443780E+04  0.50400001928E-02 0.  1.
       -1   -1    0    0    0  501  0.00000000000E+00  0.00000000000E+00 -0.95107068066E+03  0.95107068068E+03  0.50400001928E-02 0. -1.
    10030    2    1    2    0    0  0.00000000000E+00  0.00000000000E+00  0.67517369731E+03  0.25773150587E+04  0.24873064528E+04 0.  0.
        5    1    3    3  502    0 -0.10834486375E+04  0.30619084900E+03 -0.20976864149E+03  0.11452679857E+04  0.46999998093E+01 0. -1.
       -5    1    3    3    0  502  0.10834486375E+04 -0.30619084900E+03  0.88494233880E+03  0.14320470729E+04  0.46999998093E+01 0.  1.
</event>
<event>
 5   0  0.1015327E-05  0.2485054E+04  0.7818609E-02  0.8408329E-01
        1   -1    0    0  501    0  0.00000000000E+00  0.00000000000E+00  0.14607581740E+04  0.14607581740E+04  0.50400001928E-02 0.  1.
       -1   -1    0    0    0  501  0.00000000000E+00  0.00000000000E+00 -0.10568990295E+04  0.10568990295E+04  0.50400001928E-02 0. -1.
    10030    2    1    2    0    0  0.00000000000E+00  0.00000000000E+00  0.40385914451E+03  0.25176572036E+04  0.24850544433E+04 0.  0.
        4    1    3    3  502    0 -0.77128812708E+03 -0.34633890213E+03 -0.72053024308E+03  0.11108561807E+04  0.12699999809E+01 0. -1.
       -4    1    3    3    0  502  0.77128812708E+03  0.34633890213E+03  0.11243893876E+04  0.14068010229E+04  0.12699999809E+01 0.  1.
</event>
<event>
 5   0  0.1039688E-05  0.2533744E+04  0.7818609E-02  0.8391062E-01
        1   -1    0    0  501    0  0.00000000000E+00  0.00000000000E+00  0.13543354300E+04  0.13543354300E+04  0.50400001928E-02 0. -1.
       -1   -1    0    0    0  501  0.00000000000E+00  0.00000000000E+00 -0.11850568344E+04  0.11850568344E+04  0.50400001928E-02 0.  1.
    10030    2    1    2    0    0  0.00000000000E+00  0.00000000000E+00  0.16927859564E+03  0.25393922645E+04  0.25337438367E+04 0.  0.
        3    1    3    3  502    0  0.91194687725E+02 -0.41419714722E+03 -0.11117927432E+04  0.11899406968E+04  0.10100000352E+00 0.  1.
       -3    1    3    3    0  502 -0.91194687725E+02  0.41419714722E+03  0.12810713389E+04  0.13494515676E+04  0.10100000352E+00 0. -1.
</event>
<event>
 5   0  0.1002753E-05  0.2488826E+04  0.7818609E-02  0.8406977E-01
       -1   -1    0    0    0  501  0.00000000000E+00  0.00000000000E+00  0.82436897939E+03  0.82436897941E+03  0.50400001928E-02 0.  1.
        1   -1    0    0  501    0  0.00000000000E+00  0.00000000000E+00 -0.18784843767E+04  0.18784843767E+04  0.50400001928E-02 0. -1.
    10030    2    1    2    0    0  0.00000000000E+00  0.00000000000E+00 -0.10541153973E+04  0.27028533561E+04  0.24888264290E+04 0.  0.
        5    1    3    3  502    0  0.73739543384E+03  0.16840527391E+03 -0.16001779372E+04  0.17699445988E+04  0.46999998093E+01 0. -1.
       -5    1    3    3    0  502 -0.73739543384E+03 -0.16840527391E+03  0.54606253984E+03  0.93290875735E+03  0.46999998093E+01 0.  1.
</event>
<event>
 5   0  0.1008073E-05  0.2511513E+04  0.7818609E-02  0.8398895E-01
        1   -1    0    0  501    0  0.00000000000E+00  0.00000000000E+00  0.11115594244E+04  0.11115594244E+04  0.50400001928E-02 0. -1.
       -1   -1    0    0    0  501  0.00000000000E+00  0.00000000000E+00 -0.14186597893E+04  0.14186597893E+04  0.50400001928E-02 0.  1.
    10030    2    1    2    0    0  0.00000000000E+00  0.00000000000E+00 -0.30710036493E+03  0.25302192137E+04  0.25115132163E+04 0.  0.
        1    1    3    3  502    0 -0.13582242582E+03  0.13217099837E+03 -0.14041693873E+04  0.14169010454E+04  0.50400001928E-02 0.  1.
       -1    1    3    3    0  502  0.13582242582E+03 -0.13217099837E+03  0.10970690224E+04  0.11133181684E+04  0.50400001928E-02 0. -1.
</event>
<event>
 5   0  0.2452457E-05  0.2514868E+04  0.7818609E-02  0.8397708E-01
        2   -1    0    0  501    0  0.00000000000E+00  0.00000000000E+00  0.18330347711E+04  0.18330347711E+04  0.25500000920E-02 0.  1.
       -2   -1    0    0    0  501  0.00000000000E+00  0.00000000000E+00 -0.86258067236E+03  0.86258067236E+03  0.25500000920E-02 0. -1.
    10030    2    1    2    0    0  0.00000000000E+00  0.00000000000E+00  0.97045409872E+03  0.26956154434E+04  0.25148680803E+04 0.  0.
        1    1    3    3  502    0  0.10688071624E+04  0.11269527392E+03  0.11848984245E+04  0.15996978626E+04  0.50400001928E-02 0.  1.
       -1    1    3    3    0  502 -0.10688071624E+04 -0.11269527392E+03 -0.21444432574E+03  0.10959175809E+04  0.50400001928E-02 0. -1.
</event>
<event>
 5   0  0.1008073E-05  0.2558751E+04  0.7818609E-02  0.8382349E-01
        1   -1    0    0  501    0  0.00000000000E+00  0.00000000000E+00  0.10104379278E+04  0.10104379279E+04  0.50400001928E-02 0. -1.
       -1   -1    0    0    0  501  0.00000000000E+00  0.00000000000E+00 -0.16198937824E+04  0.16198937824E+04  0.50400001928E-02 0.  1.
    10030    2    1    2    0    0  0.00000000000E+00  0.00000000000E+00 -0.60945585451E+03  0.26303317102E+04  0.25587513492E+04 0.  0.
        1    1    3    3  502    0  0.19975460984E+02  0.29886730450E+03 -0.15833406540E+04  0.16114243114E+04  0.50400001928E-02 0.  1.
       -1    1    3    3    0  502 -0.19975460984E+02 -0.29886730450E+03  0.97388479946E+03  0.10189073988E+04  0.50400001928E-02 0. -1.
</event>
<event>
 5   0  0.2432309E-05  0.2436760E+04  0.7818609E-02  0.8425868E-01
        2   -1    0    0  501    0  0.00000000000E+00  0.00000000000E+00  0.78076041843E+03  0.78076041843E+03  0.25500000920E-02 0.  1.
       -2   -1    0    0    0  501  0.00000000000E+00  0.00000000000E+00 -0.19012873108E+04  0.19012873108E+04  0.25500000920E-02 0. -1.
    10030    2    1    2    0    0  0.00000000000E+00  0.00000000000E+00 -0.11205268923E+04  0.26820477292E+04  0.24367600426E+04 0.  0.
        4    1    3    3  502    0  0.39960902051E+03 -0.57331173729E+03 -0.16587624279E+04  0.17999633670E+04  0.12699999809E+01 0. -1.
       -4    1    3    3    0  502 -0.39960902051E+03  0.57331173729E+03  0.53823553557E+03  0.88208436220E+03  0.12699999809E+01 0.  1.
</event>
<event>
 5   0  0.2345143E-05  0.2486662E+04  0.7818609E-02  0.8407753E-01
        2   -1    0    0  501    0  0.00000000000E+00  0.00000000000E+00  0.11140937409E+04  0.11140937409E+04  0.25500000920E-02 0.  1.
       -2   -1    0    0    0  501  0.00000000000E+00  0.00000000000E+00 -0.13875603886E+04  0.13875603886E+04  0.25500000920E-02 0. -1.
    10030    2    1    2    0    0  0.00000000000E+00  0.00000000000E+00 -0.27346664777E+03  0.25016541295E+04  0.24866622964E+04 0.  0.
        5    1    3    3  502    0  0.77191755985E+03  0.81242398901E+03  0.40499319789E+03  0.11916085924E+04  0.46999998093E+01 0.  1.
       -5    1    3    3    0  502 -0.77191755985E+03 -0.81242398901E+03 -0.67845984567E+03  0.13100455371E+04  0.46999998093E+01 0. -1.
</event>
<event>
 5   0  0.1010338E-05  0.2482585E+04  0.7818609E-02  0.8409216E-01
       -1   -1    0    0    0  501  0.00000000000E+00  0.00000000000E+00  0.65490988364E+03  0.65490988366E+03  0.50400001928E-02 0.  1.
        1   -1    0    0  501    0  0.00000000000E+00  0.00000000000E+00 -0.23527011143E+04  0.23527011143E+04  0.50400001928E-02 0. -1.
    10030    2    1    2    0    0  0.00000000000E+00  0.00000000000E+00 -0.16977912307E+04  0.30076109980E+04  0.24825851148E+04 0.  0.
        2    1    3    3  502    0 -0.34930704640E+03 -0.55616360714E+03 -0.21249701763E+04  0.22241473919E+04  0.25500000920E-02 0. -1.
       -2    1    3    3    0  502  0.34930704640E+03  0.55616360714E+03  0.42717894561E+03  0.78346360614E+03  0.25500000920E-02 0.  1.
</event>
<event>
 5   0  0.1008073E-05  0.2502456E+04  0.7818609E-02  0.8402111E-01
       -1   -1    0    0    0  501  0.00000000000E+00  0.00000000000E+00  0.13803460678E+04  0.13803460678E+04  0.50400001928E-02 0.  1.
        1   -1    0    0  501    0  0.00000000000E+00  0.00000000000E+00 -0.11341881179E+04  0.11341881179E+04  0.50400001928E-02 0. -1.
    10030    2    1    2    0    0  0.00000000000E+00  0.00000000000E+00  0.24615794995E+03  0.25145341857E+04  0.25024564801E+04 0.  0.
        1    1    3    3  502    0  0.10346202468E+04 -0.69062428116E+03  0.25852999756E+03  0.12705269428E+04  0.50400001928E-02 0. -1.
       -1    1    3    3    0  502 -0.10346202468E+04  0.69062428116E+03 -0.12372047615E+02  0.12440072429E+04  0.50400001928E-02 0.  1.
</event>
<event>
 5   0  0.2388326E-05  0.2595831E+04  0.7818609E-02  0.8369619E-01
        2   -1    0    0  501    0  0.00000000000E+00  0.00000000000E+00  0.15185028320E+04  0.15185028320E+04  0.25500000920E-02 0. -1.
       -2   -1    0    0    0  501  0.00000000000E+00  0.00000000000E+00 -0.11093725015E+04  0.11093725015E+04  0.25500000920E-02 0.  1.
    10030    2    1    2    0    0  0.00000000000E+00  0.00000000000E+00  0.40913033047E+03  0.26278753335E+04  0.25958314932E+04 0.  0.
        2    1    3    3  502    0  0.11511749618E+04 -0.58237082386E+03  0.34853788754E+03  0.13363525838E+04  0.25500000920E-02 0. -1.
       -2    1    3    3    0  502 -0.11511749618E+04  0.58237082386E+03  0.60592442932E+02  0.12915227498E+04  0.25500000920E-02 0.  1.
</event>
<event>
 5   0  0.1039688E-05  0.2517898E+04  0.7818609E-02  0.8396637E-01
        1   -1    0    0  501    0  0.00000000000E+00  0.00000000000E+00  0.19157393909E+04  0.19157393909E+04  0.50400001928E-02 0. -1.
       -1   -1    0    0    0  501  0.00000000000E+00  0.00000000000E+00 -0.82733197245E+03  0.82733197246E+03  0.50400001928E-02 0.  1.
    10030    2    1    2    0    0  0.00000000000E+00  0.00000000000E+00  0.10884074184E+04  0.27430713633E+04  0.25178978923E+04 0.  0.
        3    1    3    3  502    0 -0.96185876333E+03  0.47522684001E+03  0.12618552779E+04  0.16562884962E+04  0.10100000352E+00 0.  1.
       -3    1    3    3    0  502  0.96185876333E+03 -0.47522684001E+03 -0.17344785952E+03  0.10867828671E+04  0.10100000352E+00 0. -1.
</event>
<event>
 5   0  0.1039688E-05  0.2492520E+04  0.7818609E-02  0.8405655E-01
        1   -1    0    0  501    0  0.00000000000E+00  0.00000000000E+00  0.19388025062E+04  0.19388025062E+04  0.50400001928E-02 0. -1.
       -1   -1    0    0    0  501  0.00000000000E+00  0.00000000000E+00 -0.80109449580E+03  0.80109449582E+03  0.50400001928E-02 0.  1.
    10030    2    1    2    0    0  0.00000000000E+00  0.00000000000E+00  0.11377080104E+04  0.27398970020E+04  0.24925200229E+04 0.  0.
        3    1    3    3  502    0 -0.48718605310E+03  0.11387719387E+04  0.72042359706E+03  0.14328858810E+04  0.10100000352E+00 0. -1.
       -3    1    3    3    0  502  0.48718605310E+03 -0.11387719387E+04  0.41728441333E+03  0.13070111210E+04  0.10100000352E+00 0.  1.
</event>
<event>
 5   0  0.2388326E-05  0.2507861E+04  0.7818609E-02  0.8400190E-01
        2   -1    0    0  501    0  0.00000000000E+00  0.00000000000E+00  0.82543610444E+03  0.82543610444E+03  0.25500000920E-02 0. -1.
       -2   -1    0    0    0  501  0.00000000000E+00  0.00000000000E+00 -0.19048622531E+04  0.19048622531E+04  0.25500000920E-02 0.  1.
    10030    2    1    2    0    0  0.00000000000E+00  0.00000000000E+00 -0.10794261487E+04  0.27302983576E+04  0.25078613022E+04 0.  0.
        2    1    3    3  502    0  0.19080491813E+03  0.30730986666E+03  0.76740056291E+03  0.84838051303E+03  0.25500000920E-02 0. -1.
       -2    1    3    3    0  502 -0.19080491813E+03 -0.30730986666E+03 -0.18468267116E+04  0.18819178446E+04  0.25500000920E-02 0.  1.
</event>
<event>
 5   0  0.1002753E-05  0.2493944E+04  0.7818609E-02  0.8405146E-01
       -1   -1    0    0    0  501  0.00000000000E+00  0.00000000000E+00  0.10045728562E+04  0.10045728562E+04  0.50400001928E-02 0. -1.
        1   -1    0    0  501    0  0.00000000000E+00  0.00000000000E+00 -0.15478613267E+04  0.15478613267E+04  0.50400001928E-02 0.  1.
    10030    2    1    2    0    0  0.00000000000E+00  0.00000000000E+00 -0.54328847049E+03  0.25524341829E+04  0.24939442448E+04 0.  0.
        5    1    3    3  502    0  0.10816359927E+04  0.11990948372E+03  0.35140460133E+03  0.11436004498E+04  0.46999998093E+01 0. -1.
       -5    1    3    3    0  502 -0.10816359927E+04 -0.11990948372E+03 -0.89469307182E+03  0.14088337331E+04  0.46999998093E+01 0.  1.
</event>
<event>
 5   0  0.2441340E-05  0.2532425E+04  0.7818609E-02  0.8391524E-01
        2   -1    0    0  501    0  0.00000000000E+00  0.00000000000E+00  0.16765880650E+04  0.16765880650E+04  0.25500000920E-02 0. -1.
       -2   -1    0    0    0  501  0.00000000000E+00  0.00000000000E+00 -0.95628362593E+03  0.95628362593E+03  0.25500000920E-02 0.  1.
    10030    2    1    2    0    0  0.00000000000E+00  0.00000000000E+00  0.72030443906E+03  0.26328716909E+04  0.25324246990E+04 0.  0.
        3    1    3    3  502    0  0.40718677815E+03 -0.40353819865E+03  0.15339372146E+04  0.16375614610E+04  0.10100000352E+00 0. -1.
       -3    1    3    3    0  502 -0.40718677815E+03  0.40353819865E+03 -0.81363277556E+03  0.99531022989E+03  0.10100000352E+00 0.  1.
</event>
<event>
 5   0  0.2441340E-05  0.2510722E+04  0.7818609E-02  0.8399176E-01
       -2   -1    0    0    0  501  0.00000000000E+00  0.00000000000E+00  0.28446728939E+04  0.28446728939E+04  0.25500000920E-02 0. -1.
        2   -1    0    0  501    0  0.00000000000E+00  0.00000000000E+00 -0.55399395040E+03  0.55399395041E+03  0.25500000920E-02 0.  1.
    10030    2    1    2    0    0  0.00000000000E+00  0.00000000000E+00  0.22906789435E+04  0.33986668443E+04  0.25107222659E+04 0.  0.
        3    1    3    3  502    0 -0.19696589570E+03 -0.87571667334E+03 -0.42690924820E+02  0.89860880326E+03  0.10100000352E+00 0.  1.
       -3    1    3    3    0  502  0.19696589570E+03  0.87571667334E+03  0.23333698683E+04  0.25000580410E+04  0.10100000352E+00 0. -1.
</event>
<event>
 5   0  0.2388326E-05  0.2500636E+04  0.7818609E-02  0.8402759E-01
       -2   -1    0    0    0  501  0.00000000000E+00  0.00000000000E+00  0.18436113389E+04  0.18436113389E+04  0.25500000920E-02 0.  1.
        2   -1    0    0  501    0  0.00000000000E+00  0.00000000000E+00 -0.84795282049E+03  0.84795282049E+03  0.25500000920E-02 0. -1.
    10030    2    1    2    0    0  0.00000000000E+00  0.00000000000E+00  0.99565851843E+03  0.26915641594E+04  0.25006362668E+04 0.  0.
        2    1    3    3  502    0 -0.15345182116E+03 -0.10725893240E+04 -0.17374876646E+03  0.10973531579E+04  0.25500000920E-02 0. -1.
       -2    1    3    3    0  502  0.15345182116E+03  0.10725893240E+04  0.11694072849E+04  0.15942110015E+04  0.25500000920E-02 0.  1.
</event>
<event>
 5   0  0.1015327E-05  0.2577391E+04  0.7818609E-02  0.8375922E-01
        1   -1    0    0  501    0  0.00000000000E+00  0.00000000000E+00  0.74966392065E+03  0.74966392067E+03  0.50400001928E-02 0.  1.
       -1   -1    0    0    0  501  0.00000000000E+00  0.00000000000E+00 -0.22153069260E+04  0.22153069260E+04  0.50400001928E-02 0. -1.
    10030    2    1    2    0    0  0.00000000000E+00  0.00000000000E+00 -0.14656430053E+04  0.29649708467E+04  0.25773906771E+04 0.  0.
        4    1    3    3  502    0  0.52822545375E+03  0.61847484178E+02 -0.20831733641E+04  0.21499907253E+04  0.12699999809E+01 0. -1.
       -4    1    3    3    0  502 -0.52822545375E+03 -0.61847484178E+02  0.61753035875E+03  0.81498012133E+03  0.12699999809E+01 0.  1.
</event>
<event>
 5   0  0.2452457E-05  0.2492212E+04  0.7818609E-02  0.8405765E-01
        2   -1    0    0  501    0  0.00000000000E+00  0.00000000000E+00  0.11502986366E+04  0.11502986366E+04  0.25500000920E-02 0.  1.
       -2   -1    0    0    0  501  0.00000000000E+00  0.00000000000E+00 -0.13498928596E+04  0.13498928596E+04  0.25500000920E-02 0. -1.
    10030    2    1    2    0    0  0.00000000000E+00  0.00000000000E+00 -0.19959422300E+03  0.25001914962E+04  0.24922118016E+04 0.  0.
        1    1    3    3  502    0 -0.11587459734E+04 -0.37917347285E+03  0.15854472626E+03  0.12294719125E+04  0.50400001928E-02 0. -1.
       -1    1    3    3    0  502  0.11587459734E+04  0.37917347285E+03 -0.35813894926E+03  0.12707195837E+04  0.50400001928E-02 0.  1.
</event>
<event>
 5   0  0.2388326E-05  0.2484365E+04  0.7818609E-02  0.8408577E-01
        2   -1    0    0  501    0  0.00000000000E+00  0.00000000000E+00  0.12479472417E+04  0.12479472417E+04  0.25500000920E-02 0. -1.
       -2   -1    0    0    0  501  0.00000000000E+00  0.00000000000E+00 -0.12364440013E+04  0.12364440013E+04  0.25500000920E-02 0.  1.
    10030    2    1    2    0    0  0.00000000000E+00  0.00000000000E+00  0.11503240381E+02  0.24843912431E+04  0.24843646117E+04 0.  0.
        2    1    3    3  502    0 -0.11849749038E+04  0.17106583991E+03  0.33679570544E+03  0.12437284235E+04  0.25500000920E-02 0. -1.
       -2    1    3    3    0  502  0.11849749038E+04 -0.17106583991E+03 -0.32529246506E+03  0.12406628196E+04  0.25500000920E-02 0.  1.
</event>
<event>
 5   0  0.2452457E-05  0.2488123E+04  0.7818609E-02  0.8407229E-01
        2   -1    0    0  501    0  0.00000000000E+00  0.00000000000E+00  0.11049869701E+04  0.11049869701E+04  0.25500000920E-02 0. -1.
       -2   -1    0    0    0  501  0.00000000000E+00  0.00000000000E+00 -0.14006398552E+04  0.14006398552E+04  0.25500000920E-02 0.  1.
    10030    2    1    2    0    0  0.00000000000E+00  0.00000000000E+00 -0.29565288515E+03  0.25056268253E+04  0.24881228183E+04 0.  0.
        1    1    3    3  502    0 -0.77442482278E+03  0.60694715635E+03  0.61882432401E+03  0.11623520124E+04  0.50400001928E-02 0.  1.
       -1    1    3    3    0  502  0.77442482278E+03 -0.60694715635E+03 -0.91447720915E+03  0.13432748128E+04  0.50400001928E-02 0. -1.
</event>
<event>
 5   0  0.2441340E-05  0.2379978E+04  0.7818609E-02  0.8447038E-01
       -2   -1    0    0    0  501  0.00000000000E+00  0.00000000000E+00  0.10825320777E+04  0.10825320777E+04  0.25500000920E-02 0.  1.
        2   -1    0    0  501    0  0.00000000000E+00  0.00000000000E+00 -0.13081124560E+04  0.13081124560E+04  0.25500000920E-02 0. -1.
    10030    2    1    2    0    0  0.00000000000E+00  0.00000000000E+00 -0.22558037833E+03  0.23906445337E+04  0.23799778948E+04 0.  0.
        3    1    3    3  502    0 -0.36732034315E+03 -0.55259050457E+03 -0.11050398801E+04  0.12889505991E+04  0.10100000352E+00 0. -1.
       -3    1    3    3    0  502  0.36732034315E+03  0.55259050457E+03  0.87945950172E+03  0.11016939346E+04  0.10100000352E+00 0.  1.
</event>
<event>
 5   0  0.1010338E-05  0.2349086E+04  0.7818609E-02  0.8458815E-01
        1   -1    0    0  501    0  0.00000000000E+00  0.00000000000E+00  0.19978965198E+04  0.19978965198E+04  0.50400001928E-02 0.  1.
       -1   -1    0    0    0  501  0.00000000000E+00  0.00000000000E+00 -0.69050176353E+03  0.69050176355E+03  0.50400001928E-02 0. -1.
    10030    2    1    2    0    0  0.00000000000E+00  0.00000000000E+00  0.13073947562E+04  0.26883982833E+04  0.23490858395E+04 0.  0.
        2    1    3    3  502    0  0.62819517214E+03 -0.43356655563E+03  0.16753613138E+04  0.18410444493E+04  0.25500000920E-02 0.  1.
       -2    1    3    3    0  502 -0.62819517214E+03  0.43356655563E+03 -0.36796655761E+03  0.84735383400E+03  0.25500000920E-02 0. -1.
</event>
<event>
 5   0  0.2441340E-05  0.2511374E+04  0.7818609E-02  0.8398945E-01
       -2   -1    0    0    0  501  0.00000000000E+00  0.00000000000E+00  0.86271792373E+03  0.86271792373E+03  0.25500000920E-02 0.  1.
        2   -1    0    0  501    0  0.00000000000E+00  0.00000000000E+00 -0.18276544278E+04  0.18276544278E+04  0.25500000920E-02 0. -1.
    10030    2    1    2    0    0  0.00000000000E+00  0.00000000000E+00 -0.96493650411E+03  0.26903723516E+04  0.25113743116E+04 0.  0.
        3    1    3    3  502    0 -0.35228559660E+03 -0.11251853964E+04 -0.19703636538E+02  0.11792097190E+04  0.10100000352E+00 0.  1.
       -3    1    3    3    0  502  0.35228559660E+03  0.11251853964E+04 -0.94523286758E+03  0.15111626326E+04  0.10100000352E+00 0. -1.
</event>
<event>
 5   0  0.2432309E-05  0.2488560E+04  0.7818609E-02  0.8407072E-01
        2   -1    0    0  501    0  0.00000000000E+00  0.00000000000E+00  0.11004505392E+04  0.11004505392E+04  0.25500000920E-02 0.  1.
       -2   -1    0    0    0  501  0.00000000000E+00  0.00000000000E+00 -0.14069079910E+04  0.14069079910E+04  0.25500000920E-02 0. -1.
    10030    2    1    2    0    0  0.00000000000E+00  0.00000000000E+00 -0.30645745181E+03  0.25073585302E+04  0.24885599509E+04 0.  0.
        4    1    3    3  502    0 -0.79688441530E+03  0.95113253013E+03 -0.24641076687E+03  0.12650682749E+04  0.12699999809E+01 0.  1.
       -4    1    3    3    0  502  0.79688441530E+03 -0.95113253013E+03 -0.60046684947E+02  0.12422902553E+04  0.12699999809E+01 0. -1.
</event>
<event>
 5   0  0.1008073E-05  0.2508984E+04  0.7818609E-02  0.8399792E-01
        1   -1    0    0  501    0  0.00000000000E+00  0.00000000000E+00  0.17470115596E+04  0.17470115596E+04  0.50400001928E-02 0.  1.
       -1   -1    0    0    0  501  0.00000000000E+00  0.00000000000E+00 -0.90082415695E+03  0.90082415696E+03  0.50400001928E-02 0. -1.
    10030    2    1    2    0    0  0.00000000000E+00  0.00000000000E+00  0.84618740266E+03  0.26478357166E+04  0.25089840298E+04 0.  0.
        1    1    3    3  502    0 -0.32485918182E+03 -0.11518057735E+04  0.26026784557E+02  0.11970244030E+04  0.50400001928E-02 0. -1.
       -1    1    3    3    0  502  0.32485918182E+03  0.11518057735E+04  0.82016061811E+03  0.14508113135E+04  0.50400001928E-02 0.  1.
</event>
<event>
 5   0  0.1010338E-05  0.2442336E+04  0.7818609E-02  0.8423822E-01
       -1   -1    0    0    0  501  0.00000000000E+00  0.00000000000E+00  0.84268764094E+03  0.84268764095E+03  0.50400001928E-02 0. -1.
        1   -1    0    0  501    0  0.00000000000E+00  0.00000000000E+00 -0.17696369296E+04  0.17696369296E+04  0.50400001928E-02 0.  1.
    10030    2    1    2    0    0  0.00000000000E+00  0.00000000000E+00 -0.92694928865E+03  0.26123245705E+04  0.24423359061E+04 0.  0.
        2    1    3    3  502    0 -0.11228623193E+04  0.21025434844E+02 -0.97642527529E+03  0.14881761238E+04  0.25500000920E-02 0. -1.
       -2    1    3    3    0  502  0.11228623193E+04 -0.21025434844E+02  0.49475986643E+02  0.11241484468E+04  0.25500000920E-02 0.  1.
</event>
<event>
 5   0  0.1002753E-05  0.2505474E+04  0.7818609E-02  0.8401038E-01
       -1   -1    0    0    0  501  0.00000000000E+00  0.00000000000E+00  0.12667007660E+04  0.12667007660E+04  0.50400001928E-02 0. -1.
        1   -1    0    0  501    0  0.00000000000E+00  0.00000000000E+00 -0.12389271652E+04  0.12389271652E+04  0.50400001928E-02 0.  1.
    10030    2    1    2    0    0  0.00000000000E+00  0.00000000000E+00  0.27773600846E+02  0.25056279312E+04  0.25054739984E+04 0.  0.
        5    1    3    3  502    0 -0.28512774008E+02  0.12231172578E+04  0.28315990211E+03  0.12557987199E+04  0.46999998093E+01 0. -1.
       -5    1    3    3    0  502  0.28512774008E+02 -0.12231172578E+04 -0.25538630127E+03  0.12498292113E+04  0.46999998093E+01 0.  1.
</event>
<event>
 5   0  0.1039688E-05  0.2496523E+04  0.7818609E-02  0.8404225E-01
       -1   -1    0    0    0  501  0.00000000000E+00  0.00000000000E+00  0.80653009058E+03  0.80653009059E+03  0.50400001928E-02 0. -1.
        1   -1    0    0  501    0  0.00000000000E+00  0.00000000000E+00 -0.19319268429E+04  0.19319268429E+04  0.50400001928E-02 0.  1.
    10030    2    1    2    0    0  0.00000000000E+00  0.00000000000E+00 -0.11253967523E+04  0.27384569335E+04  0.24965232878E+04 0.  0.
        3    1    3    3  502    0 -0.21252968521E+03 -0.52332593731E+03  0.65833255280E+03  0.86743337729E+03  0.10100000352E+00 0. -1.
       -3    1    3    3    0  502  0.21252968521E+03  0.52332593731E+03 -0.17837293051E+04  0.18710235562E+04  0.10100000352E+00 0.  1.
</event>
<event>
 5   0  0.2432309E-05  0.2540882E+04  0.7818609E-02  0.8388564E-01
       -2   -1    0    0    0  501  0.00000000000E+00  0.00000000000E+00  0.16967482951E+04  0.16967482951E+04  0.25500000920E-02 0.  1.
        2   -1    0    0  501    0  0.00000000000E+00  0.00000000000E+00 -0.95124354155E+03  0.95124354155E+03  0.25500000920E-02 0. -1.
    10030    2    1    2    0    0  0.00000000000E+00  0.00000000000E+00  0.74550475351E+03  0.26479918366E+04  0.25408824115E+04 0.  0.
        4    1    3    3  502    0 -0.35642376966E+03  0.94962327134E+03  0.11699814246E+04  0.15484445124E+04  0.12699999809E+01 0.  1.
       -4    1    3    3    0  502  0.35642376966E+03 -0.94962327134E+03 -0.42447667109E+03  0.10995473242E+04  0.12699999809E+01 0. -1.
</event>
<event>
 5   0  0.1008073E-05  0.2473761E+04  0.7818609E-02  0.8412393E-01
       -1   -1    0    0    0  501  0.00000000000E+00  0.00000000000E+00  0.89525123113E+03  0.89525123115E+03  0.50400001928E-02 0.  1.
        1   -1    0    0  501    0  0.00000000000E+00  0.00000000000E+00 -0.17088761827E+04  0.17088761827E+04  0.50400001928E-02 0. -1.
    10030    2    1    2    0    0  0.00000000000E+00  0.00000000000E+00 -0.81362495160E+03  0.26041274139E+04  0.24737611093E+04 0.  0.
        1    1    3    3  502    0  0.77529078823E+03  0.50069878669E+03  0.46005126917E+03  0.10312236671E+04  0.50400001928E-02 0.  1.
       -1    1    3    3    0  502 -0.77529078823E+03 -0.50069878669E+03 -0.12736762208E+04  0.15729037468E+04  0.50400001928E-02 0. -1.
</event>
<event>
 5   0  0.2345143E-05  0.2488932E+04  0.7818609E-02  0.8406939E-01
       -2   -1    0    0    0  501  0.00000000000E+00  0.00000000000E+00  0.50773048252E+03  0.50773048253E+03  0.25500000920E-02 0. -1.
        2   -1    0    0  501    0  0.00000000000E+00  0.00000000000E+00 -0.30502314986E+04  0.30502314986E+04  0.25500000920E-02 0.  1.
    10030    2    1    2    0    0  0.00000000000E+00  0.00000000000E+00 -0.25425010161E+04  0.35579619811E+04  0.24889319079E+04 0.  0.
        5    1    3    3  502    0 -0.11423706779E+04 -0.48720109327E+03 -0.13846943644E+04  0.18600473768E+04  0.46999998093E+01 0. -1.
       -5    1    3    3    0  502  0.11423706779E+04  0.48720109327E+03 -0.11578066516E+04  0.16979146043E+04  0.46999998093E+01 0.  1.
</event>
<event>
 5   0  0.2345143E-05  0.2409404E+04  0.7818609E-02  0.8435991E-01
        2   -1    0    0  501    0  0.00000000000E+00  0.00000000000E+00  0.19804391075E+04  0.19804391075E+04  0.25500000920E-02 0. -1.
       -2   -1    0    0    0  501  0.00000000000E+00  0.00000000000E+00 -0.73282102318E+03  0.73282102318E+03  0.25500000920E-02 0.  1.
    10030    2    1    2    0    0  0.00000000000E+00  0.00000000000E+00  0.12476180844E+04  0.27132601307E+04  0.24094044186E+04 0.  0.
        5    1    3    3  502    0 -0.58866264496E+03  0.18269484190E+03  0.17894219583E+04  0.18926051225E+04  0.46999998093E+01 0. -1.
       -5    1    3    3    0  502  0.58866264496E+03 -0.18269484190E+03 -0.54180387390E+03  0.82065500827E+03  0.46999998093E+01 0.  1.
</event>
<event>
 5   0  0.2345143E-05  0.2539232E+04  0.7818609E-02  0.8389141E-01
       -2   -1    0    0    0  501  0.00000000000E+00  0.00000000000E+00  0.75346538178E+03  0.75346538178E+03  0.25500000920E-02 0. -1.
        2   -1    0    0  501    0  0.00000000000E+00  0.00000000000E+00 -0.21393483167E+04  0.21393483167E+04  0.25500000920E-02 0.  1.
    10030    2    1    2    0    0  0.00000000000E+00  0.00000000000E+00 -0.13858829349E+04  0.28928136985E+04  0.25392320857E+04 0.  0.
        5    1    3    3  502    0  0.25722262205E+03  0.19281787376E+03 -0.20922047819E+04  0.21167628939E+04  0.46999998093E+01 0.  1.
       -5    1    3    3    0  502 -0.25722262205E+03 -0.19281787376E+03  0.70632184697E+03  0.77605080455E+03  0.46999998093E+01 0. -1.
</event>
<event>
 5   0  0.2388326E-05  0.2571149E+04  0.7818609E-02  0.8378068E-01
        2   -1    0    0  501    0  0.00000000000E+00  0.00000000000E+00  0.23070531377E+04  0.23070531377E+04  0.25500000920E-02 0.  1.
       -2   -1    0    0    0  501  0.00000000000E+00  0.00000000000E+00 -0.71636932778E+03  0.71636932779E+03  0.25500000920E-02 0. -1.
    10030    2    1    2    0    0  0.00000000000E+00  0.00000000000E+00  0.15906838099E+04  0.30234224654E+04  0.25711492414E+04 0.  0.
        2    1    3    3  502    0  0.26884911630E+03 -0.16475982464E+03  0.22608760114E+04  0.22827584160E+04  0.25500000920E-02 0.  1.
       -2    1    3    3    0  502 -0.26884911630E+03  0.16475982464E+03 -0.67019220150E+03  0.74066404942E+03  0.25500000920E-02 0. -1.
</event>
<event>
 5   0  0.1015327E-05  0.2541055E+04  0.7818609E-02  0.8388504E-01
       -1   -1    0    0    0  501  0.00000000000E+00  0.00000000000E+00  0.10481899281E+04  0.10481899281E+04  0.50400001928E-02 0. -1.
        1   -1    0    0  501    0  0.00000000000E+00  0.00000000000E+00 -0.15400260661E+04  0.15400260661E+04  0.50400001928E-02 0.  1.
    10030    2    1    2    0    0  0.00000000000E+00  0.00000000000E+00 -0.49183613798E+03  0.25882159942E+04  0.25410547507E+04 0.  0.
        4    1    3    3  502    0 -0.12702654284E+04  0.18967287955E+02 -0.22815356007E+03  0.12907322250E+04  0.12699999809E+01 0. -1.
       -4    1    3    3    0  502  0.12702654284E+04 -0.18967287955E+02 -0.26368257790E+03  0.12974837692E+04  0.12699999809E+01 0.  1.
</event>
<event>
 5   0  0.2452457E-05  0.2456206E+04  0.7818609E-02  0.8418756E-01
        2   -1    0    0  501    0  0.00000000000E+00  0.00000000000E+00  0.97694800241E+03  0.97694800242E+03  0.25500000920E-02 0. -1.
       -2   -1    0    0    0  501  0.00000000000E+00  0.00000000000E+00 -0.15438250785E+04  0.15438250785E+04  0.25500000920E-02 0.  1.
    10030    2    1    2    0    0  0.00000000000E+00  0.00000000000E+00 -0.56687707608E+03  0.25207730809E+04  0.24562058762E+04 0.  0.
        1    1    3    3  502    0 -0.78868583775E+03 -0.93768159240E+03 -0.19778990924E+03  0.12411256857E+04  0.50400001928E-02 0.  1.
       -1    1    3    3    0  502  0.78868583775E+03  0.93768159240E+03 -0.36908716684E+03  0.12796473952E+04  0.50400001928E-02 0. -1.
</event>
<event>
 5   0  0.2345143E-05  0.2321022E+04  0.7818609E-02  0.8469678E-01
       -2   -1    0    0    0  501  0.00000000000E+00  0.00000000000E+00  0.13689792428E+04  0.13689792428E+04  0.25500000920E-02 0. -1.
        2   -1    0    0  501    0  0.00000000000E+00  0.00000000000E+00 -0.98378850805E+03  0.98378850805E+03  0.25500000920E-02 0.  1.
    10030    2    1    2    0    0  0.00000000000E+00  0.00000000000E+00  0.38519073471E+03  0.23527677508E+04  0.23210222289E+04 0.  0.
        5    1    3    3  502    0 -0.10685709717E+04  0.44919542461E+03  0.13576154118E+03  0.11670791477E+04  0.46999998093E+01 0. -1.
       -5    1    3    3    0  502  0.10685709717E+04 -0.44919542461E+03  0.24942919352E+03  0.11856886031E+04  0.46999998093E+01 0.  1.
</event>
<event>
 5   0  0.2432309E-05  0.2521842E+04  0.7818609E-02  0.8395245E-01
        2   -1    0    0  501    0  0.00000000000E+00  0.00000000000E+00  0.12900073484E+04  0.12900073484E+04  0.25500000920E-02 0.  1.
       -2   -1    0    0    0  501  0.00000000000E+00  0.00000000000E+00 -0.12324907761E+04  0.12324907761E+04  0.25500000920E-02 0. -1.
    10030    2    1    2    0    0  0.00000000000E+00  0.00000000000E+00  0.57516572357E+02  0.25224981245E+04  0.25218423091E+04 0.  0.
        4    1    3    3  502    0 -0.34549755040E+03  0.29095282701E+03 -0.11487897387E+04  0.12343992797E+04  0.12699999809E+01 0. -1.
       -4    1    3    3    0  502  0.34549755040E+03 -0.29095282701E+03  0.12063063111E+04  0.12880988448E+04  0.12699999809E+01 0.  1.
</event>
<event>
 5   0  0.2345143E-05  0.2490750E+04  0.7818609E-02  0.8406288E-01
       -2   -1    0    0    0  501  0.00000000000E+00  0.00000000000E+00  0.93582524594E+03  0.93582524594E+03  0.25500000920E-02 0.  1.
        2   -1    0    0  501    0  0.00000000000E+00  0.00000000000E+00 -0.16573174374E+04  0.16573174374E+04  0.25500000920E-02 0. -1.
    10030    2    1    2    0    0  0.00000000000E+00  0.00000000000E+00 -0.72149219151E+03  0.25931426834E+04  0.24907504881E+04 0.  0.
        5    1    3    3  502    0 -0.16779830921E+03  0.11749959328E+04  0.31802650172E+02  0.11873521858E+04  0.46999998093E+01 0. -1.
       -5    1    3    3    0  502  0.16779830921E+03 -0.11749959328E+04 -0.75329484168E+03  0.14057904976E+04  0.46999998093E+01 0.  1.
</event>
<event>
 5   0  0.2345143E-05  0.2501416E+04  0.7818609E-02  0.8402481E-01
        2   -1    0    0  501    0  0.00000000000E+00  0.00000000000E+00  0.99828945999E+03  0.99828945999E+03  0.25500000920E-02 0. -1.
       -2   -1    0    0    0  501  0.00000000000E+00  0.00000000000E+00 -0.15669511614E+04  0.15669511614E+04  0.25500000920E-02 0.  1.
    10030    2    1    2    0    0  0.00000000000E+00  0.00000000000E+00 -0.56866170140E+03  0.25652406214E+04  0.25014162618E+04 0.  0.
        5    1    3    3  502    0  0.17730869738E+03  0.68528722215E+03 -0.13417518877E+04  0.15170290601E+04  0.46999998093E+01 0.  1.
       -5    1    3    3    0  502 -0.17730869738E+03 -0.68528722215E+03  0.77309018632E+03  0.10482115613E+04  0.46999998093E+01 0. -1.
</event>
<event>
 5   0  0.1015327E-05  0.2484835E+04  0.7818609E-02  0.8408408E-01
       -1   -1    0    0    0  501  0.00000000000E+00  0.00000000000E+00  0.14325266324E+04  0.14325266324E+04  0.50400001928E-02 0.  1.
        1   -1    0    0  501    0  0.00000000000E+00  0.00000000000E+00 -0.10775376327E+04  0.10775376327E+04  0.50400001928E-02 0. -1.
    10030    2    1    2    0    0  0.00000000000E+00  0.00000000000E+00  0.35498899968E+03  0.25100642651E+04  0.24848350901E+04 0.  0.
        4    1    3    3  502    0  0.11666153822E+04  0.25930193293E+03  0.52060595939E+03  0.13035571028E+04  0.12699999809E+01 0.  1.
       -4    1    3    3    0  502 -0.11666153822E+04 -0.25930193293E+03 -0.16561695971E+03  0.12065071623E+04  0.12699999809E+01 0. -1.
</event>
<event>
 5   0  0.1039688E-05  0.2522394E+04  0.7818609E-02  0.8395051E-01
        1   -1    0    0  501    0  0.00000000000E+00  0.00000000000E+00  0.14527828738E+04  0.14527828738E+04  0.50400001928E-02 0. -1.
       -1   -1    0    0    0  501  0.00000000000E+00  0.00000000000E+00 -0.10948764029E+04  0.10948764029E+04  0.50400001928E-02 0.  1.
    10030    2    1    2    0    0  0.00000000000E+00  0.00000000000E+00  0.35790647095E+03  0.25476592767E+04  0.25223938527E+04 0.  0.
        3    1    3    3  502    0 -0.45078716748E+03 -0.81930042041E+03  0.10336894196E+04  0.13939067672E+04  0.10100000352E+00 0. -1.
       -3    1    3    3    0  502  0.45078716748E+03  0.81930042041E+03 -0.67578294866E+03  0.11537525095E+04  0.10100000352E+00 0.  1.
</event>
<event>
 5   0  0.1002753E-05  0.2540844E+04  0.7818609E-02  0.8388578E-01
        1   -1    0    0  501    0  0.00000000000E+00  0.00000000000E+00  0.22632607888E+04  0.22632607888E+04  0.50400001928E-02 0. -1.
       -1   -1    0    0    0  501  0.00000000000E+00  0.00000000000E+00 -0.71311785364E+03  0.71311785366E+03  0.50400001928E-02 0.  1.
    10030    2    1    2    0    0  0.00000000000E+00  0.00000000000E+00  0.15501429351E+04  0.29763786424E+04  0.25408436992E+04 0.  0.
        5    1    3    3  502    0 -0.27244448509E+02 -0.32296647776E+03 -0.66386114531E+03  0.73877149105E+03  0.46999998093E+01 0.  1.
       -5    1    3    3    0  502  0.27244448509E+02  0.32296647776E+03  0.22140040804E+04  0.22376071514E+04  0.46999998093E+01 0. -1.
</event>
<event>
 5   0  0.2452457E-05  0.2479218E+04  0.7818609E-02  0.8410427E-01
        2   -1    0    0  501    0  0.00000000000E+00  0.00000000000E+00  0.12727065370E+04  0.12727065370E+04  0.25500000920E-02 0. -1.
       -2   -1    0    0    0  501  0.00000000000E+00  0.00000000000E+00 -0.12073722051E+04  0.12073722051E+04  0.25500000920E-02 0.  1.
    10030    2    1    2    0    0  0.00000000000E+00  0.00000000000E+00  0.65334331968E+02  0.24800787421E+04  0.24792180203E+04 0.  0.
        1    1    3    3  502    0 -0.67430096883E+03 -0.60517304906E+03  0.87895986013E+03  0.12623338115E+04  0.50400001928E-02 0. -1.
       -1    1    3    3    0  502  0.67430096883E+03  0.60517304906E+03 -0.81362552817E+03  0.12177449306E+04  0.50400001928E-02 0.  1.
</event>
<event>
 5   0  0.2345143E-05  0.2512445E+04  0.7818609E-02  0.8398565E-01
        2   -1    0    0  501    0  0.00000000000E+00  0.00000000000E+00  0.24996266429E+04  0.24996266429E+04  0.25500000920E-02 0.  1.
       -2   -1    0    0    0  501  0.00000000000E+00  0.00000000000E+00 -0.63133236163E+03  0.63133236163E+03  0.25500000920E-02 0. -1.
    10030    2    1    2    0    0  0.00000000000E+00  0.00000000000E+00  0.18682942813E+04  0.31309590046E+04  0.25124451769E+04 0.  0.
        5    1    3    3  502    0  0.79225154521E+03 -0.82953730366E+03  0.29593936134E+03  0.11846505158E+04  0.46999998093E+01 0. -1.
       -5    1    3    3    0  502 -0.79225154521E+03  0.82953730366E+03  0.15723549200E+04  0.19463084887E+04  0.46999998093E+01 0.  1.
</event>
<event>
 5   0  0.1002753E-05  0.2514167E+04  0.7818609E-02  0.8397956E-01
        1   -1    0    0  501    0  0.00000000000E+00  0.00000000000E+00  0.11888011462E+04  0.11888011463E+04  0.50400001928E-02 0. -1.
       -1   -1    0    0    0  501  0.00000000000E+00  0.00000000000E+00 -0.13292881745E+04  0.13292881745E+04  0.50400001928E-02 0.  1.
    10030    2    1    2    0    0  0.00000000000E+00  0.00000000000E+00 -0.14048702828E+03  0.25180893208E+04  0.25141673020E+04 0.  0.
        5    1    3    3  502    0 -0.15390094362E+03 -0.35832724648E+03 -0.12671614394E+04  0.13258220543E+04  0.46999998093E+01 0.  1.
       -5    1    3    3    0  502  0.15390094362E+03  0.35832724648E+03  0.11266744112E+04  0.11922672665E+04  0.46999998093E+01 0. -1.
</event>
<event>
 5   0  0.1008073E-05  0.2496676E+04  0.7818609E-02  0.8404171E-01
        1   -1    0    0  501    0  0.00000000000E+00  0.00000000000E+00  0.16763266393E+04  0.16763266393E+04  0.50400001928E-02 0.  1.
       -1   -1    0    0    0  501  0.00000000000E+00  0.00000000000E+00 -0.92962032007E+03  0.92962032008E+03  0.50400001928E-02 0. -1.
    10030    2    1    2    0    0  0.00000000000E+00  0.00000000000E+00  0.74670631927E+03  0.26059469594E+04  0.24966756353E+04 0.  0.
        1    1    3    3  502    0 -0.20494279103E+03  0.72170051670E+03  0.14147656910E+04  0.16013791381E+04  0.50400001928E-02 0.  1.
       -1    1    3    3    0  502  0.20494279103E+03 -0.72170051670E+03 -0.66805937177E+03  0.10045678213E+04  0.50400001928E-02 0. -1.
</event>
<event>
 5   0  0.2432309E-05  0.2490573E+04  0.7818609E-02  0.8406352E-01
        2   -1    0    0  501    0  0.00000000000E+00  0.00000000000E+00  0.15609961247E+04  0.15609961247E+04  0.25500000920E-02 0.  1.
       -2   -1    0    0    0  501  0.00000000000E+00  0.00000000000E+00 -0.99342866747E+03  0.99342866747E+03  0.25500000920E-02 0. -1.
    10030    2    1    2    0    0  0.00000000000E+00  0.00000000000E+00  0.56756745723E+03  0.25544247922E+04  0.24905728659E+04 0.  0.
        4    1    3    3  502    0 -0.41402646894E+03  0.26391315133E+03 -0.88996349791E+03  0.10164175859E+04  0.12699999809E+01 0. -1.
       -4    1    3    3    0  502  0.41402646894E+03 -0.26391315133E+03  0.14575309551E+04  0.15380072063E+04  0.12699999809E+01 0.  1.
</event>
<event>
 5   0  0.1008073E-05  0.2480473E+04  0.7818609E-02  0.8409975E-01
       -1   -1    0    0    0  501  0.00000000000E+00  0.00000000000E+00  0.84028862135E+03  0.84028862136E+03  0.50400001928E-02 0. -1.
        1   -1    0    0  501    0  0.00000000000E+00  0.00000000000E+00 -0.18305449341E+04  0.18305449341E+04  0.50400001928E-02 0.  1.
    10030    2    1    2    0    0  0.00000000000E+00  0.00000000000E+00 -0.99025631275E+03  0.26708335555E+04  0.24804725993E+04 0.  0.
        1    1    3    3  502    0 -0.10609911829E+04 -0.50403112203E+02  0.19427663006E+03  0.10798083964E+04  0.50400001928E-02 0. -1.
       -1    1    3    3    0  502  0.10609911829E+04  0.50403112203E+02 -0.11845329428E+04  0.15910251590E+04  0.50400001928E-02 0.  1.
</event>
<event>
 5   0  0.2432309E-05  0.2259747E+04  0.7818609E-02  0.8493964E-01
       -2   -1    0    0    0  501  0.00000000000E+00  0.00000000000E+00  0.14335034937E+04  0.14335034937E+04  0.25500000920E-02 0.  1.
        2   -1    0    0  501    0  0.00000000000E+00  0.00000000000E+00 -0.89055537316E+03  0.89055537316E+03  0.25500000920E-02 0. -1.
    10030    2    1    2    0    0  0.00000000000E+00  0.00000000000E+00  0.54294812058E+03  0.23240588669E+04  0.22597470998E+04 0.  0.
        4    1    3    3  502    0  0.95180036594E+02  0.97143954657E+03  0.85675583347E+03  0.12987633361E+04  0.12699999809E+01 0.  1.
       -4    1    3    3    0  502 -0.95180036594E+02 -0.97143954657E+03 -0.31380771289E+03  0.10252955308E+04  0.12699999809E+01 0. -1.
</event>
<event>
 5   0  0.2452457E-05  0.2496854E+04  0.7818609E-02  0.8404107E-01
       -2   -1    0    0    0  501  0.00000000000E+00  0.00000000000E+00  0.86576363225E+03  0.86576363225E+03  0.25500000920E-02 0. -1.
        2   -1    0    0  501    0  0.00000000000E+00  0.00000000000E+00 -0.18002255156E+04  0.18002255156E+04  0.25500000920E-02 0.  1.
    10030    2    1    2    0    0  0.00000000000E+00  0.00000000000E+00 -0.93446188336E+03  0.26659891479E+04  0.24968538454E+04 0.  0.
        1    1    3    3  502    0 -0.32790702215E+03 -0.48952980334E+03 -0.16424270802E+04  0.17449152293E+04  0.50400001928E-02 0.  1.
       -1    1    3    3    0  502  0.32790702215E+03  0.48952980334E+03  0.70796519685E+03  0.92107391859E+03  0.50400001928E-02 0. -1.
</event>
<event>
 5   0  0.1010338E-05  0.2502319E+04  0.7818609E-02  0.8402160E-01
       -1   -1    0    0    0  501  0.00000000000E+00  0.00000000000E+00  0.12610077346E+04  0.12610077346E+04  0.50400001928E-02 0. -1.
        1   -1    0    0  501    0  0.00000000000E+00  0.00000000000E+00 -0.12413883063E+04  0.12413883063E+04  0.50400001928E-02 0.  1.
    10030    2    1    2    0    0  0.00000000000E+00  0.00000000000E+00  0.19619428321E+02  0.25023960409E+04  0.25023191290E+04 0.  0.
        2    1    3    3  502    0  0.11054157864E+04 -0.52824227039E+03  0.26362117697E+03  0.12531879676E+04  0.25500000920E-02 0. -1.
       -2    1    3    3    0  502 -0.11054157864E+04  0.52824227039E+03 -0.24400174865E+03  0.12492080733E+04  0.25500000920E-02 0.  1.
</event>
<event>
 5   0  0.1008073E-05  0.2502034E+04  0.7818609E-02  0.8402261E-01
       -1   -1    0    0    0  501  0.00000000000E+00  0.00000000000E+00  0.83309819564E+03  0.83309819566E+03  0.50400001928E-02 0.  1.
        1   -1    0    0  501    0  0.00000000000E+00  0.00000000000E+00 -0.18785819559E+04  0.18785819559E+04  0.50400001928E-02 0. -1.
    10030    2    1    2    0    0  0.00000000000E+00  0.00000000000E+00 -0.10454837602E+04  0.27116801515E+04  0.25020337630E+04 0.  0.
        1    1    3    3  502    0 -0.87995850064E+03 -0.40790443094E+03 -0.13790942134E+04  0.16860052898E+04  0.50400001928E-02 0. -1.
       -1    1    3    3    0  502  0.87995850064E+03  0.40790443094E+03  0.33361045315E+03  0.10256748618E+04  0.50400001928E-02 0.  1.
</event>
<event>
 5   0  0.2432309E-05  0.2503498E+04  0.7818609E-02  0.8401740E-01
       -2   -1    0    0    0  501  0.00000000000E+00  0.00000000000E+00  0.13242998933E+04  0.13242998933E+04  0.25500000920E-02 0. -1.
        2   -1    0    0  501    0  0.00000000000E+00  0.00000000000E+00 -0.11831729043E+04  0.11831729043E+04  0.25500000920E-02 0.  1.
    10030    2    1    2    0    0  0.00000000000E+00  0.00000000000E+00  0.14112698901E+03  0.25074727976E+04  0.25034981533E+04 0.  0.
        4    1    3    3  502    0 -0.11539093105E+04  0.41190224304E+03  0.32729833259E+03  0.12681860928E+04  0.12699999809E+01 0. -1.
       -4    1    3    3    0  502  0.11539093105E+04 -0.41190224304E+03 -0.18617134358E+03  0.12392867048E+04  0.12699999809E+01 0.  1.
</event>
<event>
 5   0  0.1015327E-05  0.2482153E+04  0.7818609E-02  0.8409371E-01
        1   -1    0    0  501    0  0.00000000000E+00  0.00000000000E+00  0.23900020963E+04  0.23900020964E+04  0.50400001928E-02 0.  1.
       -1   -1    0    0    0  501  0.00000000000E+00  0.00000000000E+00 -0.64446402063E+03  0.64446402065E+03  0.50400001928E-02 0. -1.
    10030    2    1    2    0    0  0.00000000000E+00  0.00000000000E+00  0.17455380757E+04  0.30344661170E+04  0.24821525822E+04 0.  0.
        4    1    3    3  502    0 -0.87489049704E+03 -0.20791999088E+03 -0.17289469188E+03  0.91572828491E+03  0.12699999809E+01 0. -1.
       -4    1    3    3    0  502  0.87489049704E+03  0.20791999088E+03  0.19184327676E+04  0.21187378321E+04  0.12699999809E+01 0.  1.
</event>
<event>
 5   0  0.2432309E-05  0.2469228E+04  0.7818609E-02  0.8414031E-01
       -2   -1    0    0    0  501  0.00000000000E+00  0.00000000000E+00  0.10145978326E+04  0.10145978327E+04  0.25500000920E-02 0.  1.
        2   -1    0    0  501    0  0.00000000000E+00  0.00000000000E+00 -0.15023405539E+04  0.15023405539E+04  0.25500000920E-02 0. -1.
    10030    2    1    2    0    0  0.00000000000E+00  0.00000000000E+00 -0.48774272128E+03  0.25169383866E+04  0.24692277902E+04 0.  0.
        4    1    3    3  502    0 -0.62582129970E+03  0.86425274262E+03  0.38916355484E+03  0.11357970715E+04  0.12699999809E+01 0.  1.
       -4    1    3    3    0  502  0.62582129970E+03 -0.86425274262E+03 -0.87690627612E+03  0.13811413151E+04  0.12699999809E+01 0. -1.
</event>
<event>
 5   0  0.1010338E-05  0.2496095E+04  0.7818609E-02  0.8404378E-01
        1   -1    0    0  501    0  0.00000000000E+00  0.00000000000E+00  0.95566039556E+03  0.95566039557E+03  0.50400001928E-02 0. -1.
       -1   -1    0    0    0  501  0.00000000000E+00  0.00000000000E+00 -0.16298908431E+04  0.16298908431E+04  0.50400001928E-02 0.  1.
    10030    2    1    2    0    0  0.00000000000E+00  0.00000000000E+00 -0.67423044754E+03  0.25855512387E+04  0.24960946519E+04 0.  0.
        2    1    3    3  502    0 -0.93739682910E+03 -0.57373036893E+03  0.27546994175E+03  0.11330326740E+04  0.25500000920E-02 0. -1.
       -2    1    3    3    0  502  0.93739682910E+03  0.57373036893E+03 -0.94970038929E+03  0.14525185647E+04  0.25500000920E-02 0.  1.
</event>
<event>
 5   0  0.2452457E-05  0.2510662E+04  0.7818609E-02  0.8399197E-01
        2   -1    0    0  501    0  0.00000000000E+00  0.00000000000E+00  0.17089966112E+04  0.17089966112E+04  0.25500000920E-02 0. -1.
       -2   -1    0    0    0  501  0.00000000000E+00  0.00000000000E+00 -0.92209396974E+03  0.92209396975E+03  0.25500000920E-02 0.  1.
    10030    2    1    2    0    0  0.00000000000E+00  0.00000000000E+00  0.78690264146E+03  0.26310905809E+04  0.25106616415E+04 0.  0.
        1    1    3    3  502    0  0.61395319306E+03  0.10242255710E+04 -0.12260721470E+02  0.11942055388E+04  0.50400001928E-02 0. -1.
       -1    1    3    3    0  502 -0.61395319306E+03 -0.10242255710E+04  0.79916336293E+03  0.14368850421E+04  0.50400001928E-02 0.  1.
</event>
<event>
 5   0  0.1039688E-05  0.2493783E+04  0.7818609E-02  0.8405204E-01
       -1   -1    0    0    0  501  0.00000000000E+00  0.00000000000E+00  0.81492252058E+03  0.81492252059E+03  0.50400001928E-02 0.  1.
        1   -1    0    0  501    0  0.00000000000E+00  0.00000000000E+00 -0.19078359511E+04  0.19078359511E+04  0.50400001928E-02 0. -1.
    10030    2    1    2    0    0  0.00000000000E+00  0.00000000000E+00 -0.10929134305E+04  0.27227584717E+04  0.24937830557E+04 0.  0.
        3    1    3    3  502    0  0.23831115495E+03  0.42822500029E+03 -0.17982777448E+04  0.18638593604E+04  0.10100000352E+00 0. -1.
       -3    1    3    3    0  502 -0.23831115495E+03 -0.42822500029E+03  0.70536431428E+03  0.85889911137E+03  0.10100000352E+00 0.  1.
</event>
<event>
 5   0  0.1008073E-05  0.2511415E+04  0.7818609E-02  0.8398930E-01
        1   -1    0    0  501    0  0.00000000000E+00  0.00000000000E+00  0.12833911654E+04  0.12833911654E+04  0.50400001928E-02 0.  1.
       -1   -1    0    0    0  501  0.00000000000E+00  0.00000000000E+00 -0.12286206123E+04  0.12286206124E+04  0.50400001928E-02 0. -1.
    10030    2    1    2    0    0  0.00000000000E+00  0.00000000000E+00  0.54770553035E+02  0.25120117777E+04  0.25114146129E+04 0.  0.
        1    1    3    3  502    0 -0.77811414933E+03 -0.19496541880E+03  0.99370385863E+03  0.12770749792E+04  0.50400001928E-02 0.  1.
       -1    1    3    3    0  502  0.77811414933E+03  0.19496541880E+03 -0.93893330559E+03  0.12349367985E+04  0.50400001928E-02 0. -1.
</event>
<event>
 5   0  0.1039688E-05  0.2485857E+04  0.7818609E-02  0.8408041E-01
        1   -1    0    0  501    0  0.00000000000E+00  0.00000000000E+00  0.10619452372E+04  0.10619452372E+04  0.50400001928E-02 0. -1.
       -1   -1    0    0    0  501  0.00000000000E+00  0.00000000000E+00 -0.14547563144E+04  0.14547563144E+04  0.50400001928E-02 0.  1.
    10030    2    1    2    0    0  0.00000000000E+00  0.00000000000E+00 -0.39281107723E+03  0.25167015516E+04  0.24858572279E+04 0.  0.
        3    1    3    3  502    0 -0.51160680813E+03 -0.10150432741E+03 -0.13386004033E+04  0.14366265014E+04  0.10100000352E+00 0.  1.
       -3    1    3    3    0  502  0.51160680813E+03  0.10150432741E+03  0.94578932607E+03  0.10800750502E+04  0.10100000352E+00 0. -1.
</event>
<event>
 5   0  0.2441340E-05  0.2488183E+04  0.7818609E-02  0.8407208E-01
        2   -1    0    0  501    0  0.00000000000E+00  0.00000000000E+00  0.99764857797E+03  0.99764857797E+03  0.25500000920E-02 0. -1.
       -2   -1    0    0    0  501  0.00000000000E+00  0.00000000000E+00 -0.15514115818E+04  0.15514115818E+04  0.25500000920E-02 0.  1.
    10030    2    1    2    0    0  0.00000000000E+00  0.00000000000E+00 -0.55376300386E+03  0.25490601598E+04  0.24881829181E+04 0.  0.
        3    1    3    3  502    0 -0.89018303491E+03  0.36979802679E+03 -0.10826276199E+04  0.14495720023E+04  0.10100000352E+00 0.  1.
       -3    1    3    3    0  502  0.89018303491E+03 -0.36979802679E+03  0.52886461602E+03  0.10994881575E+04  0.10100000352E+00 0. -1.
</event>
<event>
 5   0  0.2388326E-05  0.2628888E+04  0.7818609E-02  0.8358454E-01
        2   -1    0    0  501    0  0.00000000000E+00  0.00000000000E+00  0.84540611965E+03  0.84540611965E+03  0.25500000920E-02 0.  1.
       -2   -1    0    0    0  501  0.00000000000E+00  0.00000000000E+00 -0.20437070518E+04  0.20437070518E+04  0.25500000920E-02 0. -1.
    10030    2    1    2    0    0  0.00000000000E+00  0.00000000000E+00 -0.11983009321E+04  0.28891131714E+04  0.26288875582E+04 0.  0.
        2    1    3    3  502    0 -0.25487372739E+03  0.68263560727E+03 -0.18014293823E+04  0.19432189297E+04  0.25500000920E-02 0. -1.
       -2    1    3    3    0  502  0.25487372739E+03 -0.68263560727E+03  0.60312845015E+03  0.94589424178E+03  0.25500000920E-02 0.  1.
</event>
<event>
 5   0  0.1015327E-05  0.2428449E+04  0.7818609E-02  0.8428929E-01
        1   -1    0    0  501    0  0.00000000000E+00  0.00000000000E+00  0.13780454370E+04  0.13780454370E+04  0.50400001928E-02 0. -1.
       -1   -1    0    0    0  501  0.00000000000E+00  0.00000000000E+00 -0.10698781462E+04  0.10698781462E+04  0.50400001928E-02 0.  1.
    10030    2    1    2    0    0  0.00000000000E+00  0.00000000000E+00  0.30816729080E+03  0.24479235832E+04  0.24284486386E+04 0.  0.
        4    1    3    3  502    0 -0.86927853644E+03  0.59775096645E+03 -0.45189261815E+03  0.11476758876E+04  0.12699999809E+01 0.  1.
       -4    1    3    3    0  502  0.86927853644E+03 -0.59775096645E+03  0.76005990895E+03  0.13002476956E+04  0.12699999809E+01 0. -1.
</event>
<event>
 5   0  0.2452457E-05  0.2427622E+04  0.7818609E-02  0.8429234E-01
        2   -1    0    0  501    0  0.00000000000E+00  0.00000000000E+00  0.10902027764E+04  0.10902027765E+04  0.25500000920E-02 0.  1.
       -2   -1    0    0    0  501  0.00000000000E+00  0.00000000000E+00 -0.13514341831E+04  0.13514341832E+04  0.25500000920E-02 0. -1.
    10030    2    1    2    0    0  0.00000000000E+00  0.00000000000E+00 -0.26123140670E+03  0.24416369596E+04  0.24276221276E+04 0.  0.
        1    1    3    3  502    0 -0.31370055331E+03  0.11178211284E+04  0.22555463756E+03  0.11827117175E+04  0.50400001928E-02 0.  1.
       -1    1    3    3    0  502  0.31370055331E+03 -0.11178211284E+04 -0.48678604427E+03  0.12589252421E+04  0.50400001928E-02 0. -1.
</event>
<event>
 5   0  0.2345143E-05  0.2452864E+04  0.7818609E-02  0.8419973E-01
       -2   -1    0    0    0  501  0.00000000000E+00  0.00000000000E+00  0.73502680339E+03  0.73502680339E+03  0.25500000920E-02 0. -1.
        2   -1    0    0  501    0  0.00000000000E+00  0.00000000000E+00 -0.20463682028E+04  0.20463682028E+04  0.25500000920E-02 0.  1.
    10030    2    1    2    0    0  0.00000000000E+00  0.00000000000E+00 -0.13113413994E+04  0.27813950062E+04  0.24528640228E+04 0.  0.
        5    1    3    3  502    0  0.54174212060E+02 -0.11695349806E+04 -0.10697776592E+04  0.15859360789E+04  0.46999998093E+01 0.  1.
       -5    1    3    3    0  502 -0.54174212060E+02  0.11695349806E+04 -0.24156374016E+03  0.11954589273E+04  0.46999998093E+01 0. -1.
</event>
<event>
 5   0  0.1015327E-05  0.2502153E+04  0.7818609E-02  0.8402219E-01
        1   -1    0    0  501    0  0.00000000000E+00  0.00000000000E+00  0.18797964274E+04  0.18797964274E+04  0.50400001928E-02 0. -1.
       -1   -1    0    0    0  501  0.00000000000E+00  0.00000000000E+00 -0.83263917490E+03  0.83263917491E+03  0.50400001928E-02 0.  1.
    10030    2    1    2    0    0  0.00000000000E+00  0.00000000000E+00  0.10471572525E+04  0.27124356024E+04  0.25021527902E+04 0.  0.
        4    1    3    3  502    0  0.27621217374E+03  0.10116855152E+04 -0.21594837368E+03  0.10707175442E+04  0.12699999809E+01 0.  1.
       -4    1    3    3    0  502 -0.27621217374E+03 -0.10116855152E+04  0.12631056262E+04  0.16417180581E+04  0.12699999809E+01 0. -1.
</event>
<event>
 5   0  0.2452457E-05  0.2504588E+04  0.7818609E-02  0.8401353E-01
       -2   -1    0    0    0  501  0.00000000000E+00  0.00000000000E+00  0.12675534530E+04  0.12675534530E+04  0.25500000920E-02 0. -1.
        2   -1    0    0  501    0  0.00000000000E+00  0.00000000000E+00 -0.12372179403E+04  0.12372179403E+04  0.25500000920E-02 0.  1.
    10030    2    1    2    0    0  0.00000000000E+00  0.00000000000E+00  0.30335512685E+02  0.25047713933E+04  0.25045876885E+04 0.  0.
        1    1    3    3  502    0  0.82249346902E+03 -0.59516447228E+03 -0.71804604014E+03  0.12435056781E+04  0.50400001928E-02 0.  1.
       -1    1    3    3    0  502 -0.82249346902E+03  0.59516447228E+03  0.74838155283E+03  0.12612657152E+04  0.50400001928E-02 0. -1.
</event>
<event>
 5   0  0.1008073E-05  0.2510083E+04  0.7818609E-02  0.8399402E-01
        1   -1    0    0  501    0  0.00000000000E+00  0.00000000000E+00  0.13477008081E+04  0.13477008081E+04  0.50400001928E-02 0.  1.
       -1   -1    0    0    0  501  0.00000000000E+00  0.00000000000E+00 -0.11687531000E+04  0.11687531000E+04  0.50400001928E-02 0. -1.
    10030    2    1    2    0    0  0.00000000000E+00  0.00000000000E+00  0.17894770815E+03  0.25164539081E+04  0.25100832634E+04 0.  0.
        1    1    3    3  502    0 -0.65898046707E+03 -0.38912220358E+03  0.10867135731E+04  0.13291417289E+04  0.50400001928E-02 0.  1.
       -1    1    3    3    0  502  0.65898046707E+03  0.38912220358E+03 -0.90776586500E+03  0.11873121792E+04  0.50400001928E-02 0. -1.
</event>
<event>
 5   0  0.2452457E-05  0.2473433E+04  0.7818609E-02  0.8412512E-01
       -2   -1    0    0    0  501  0.00000000000E+00  0.00000000000E+00  0.14589938905E+04  0.14589938905E+04  0.25500000920E-02 0.  1.
        2   -1    0    0  501    0  0.00000000000E+00  0.00000000000E+00 -0.10483034414E+04  0.10483034414E+04  0.25500000920E-02 0. -1.
    10030    2    1    2    0    0  0.00000000000E+00  0.00000000000E+00  0.41069044913E+03  0.25072973319E+04  0.24734334973E+04 0.  0.
        1    1    3    3  502    0  0.67276023472E+03 -0.54750001974E+03  0.10989503495E+04  0.14000194555E+04  0.50400001928E-02 0.  1.
       -1    1    3    3    0  502 -0.67276023472E+03  0.54750001974E+03 -0.68825990037E+03  0.11072778764E+04  0.50400001928E-02 0. -1.
</event>
<event>
 5   0  0.1015327E-05  0.2480092E+04  0.7818609E-02  0.8410112E-01
        1   -1    0    0  501    0  0.00000000000E+00  0.00000000000E+00  0.23612196479E+04  0.23612196479E+04  0.50400001928E-02 0. -1.
       -1   -1    0    0    0  501  0.00000000000E+00  0.00000000000E+00 -0.65123732629E+03  0.65123732631E+03  0.50400001928E-02 0.  1.
    10030    2    1    2    0    0  0.00000000000E+00  0.00000000000E+00  0.17099823216E+04  0.30124569742E+04  0.24800922324E+04 0.  0.
        4    1    3    3  502    0  0.28455323260E+03  0.74715719563E+03 -0.29637022542E+03  0.85267305609E+03  0.12699999809E+01 0.  1.
       -4    1    3    3    0  502 -0.28455323260E+03 -0.74715719563E+03  0.20063525470E+04  0.21597839181E+04  0.12699999809E+01 0. -1.
</event>
<event>
 5   0  0.2388326E-05  0.2597474E+04  0.7818609E-02  0.8369060E-01
       -2   -1    0    0    0  501  0.00000000000E+00  0.00000000000E+00  0.13649615197E+04  0.13649615197E+04  0.25500000920E-02 0.  1.
        2   -1    0    0  501    0  0.00000000000E+00  0.00000000000E+00 -0.12357257316E+04  0.12357257316E+04  0.25500000920E-02 0. -1.
    10030    2    1    2    0    0  0.00000000000E+00  0.00000000000E+00  0.12923578815E+03  0.26006872513E+04  0.25974742135E+04 0.  0.
        2    1    3    3  502    0  0.10155338838E+04 -0.76705965101E+03 -0.19460097930E+03  0.12874622784E+04  0.25500000920E-02 0. -1.
       -2    1    3    3    0  502 -0.10155338838E+04  0.76705965101E+03  0.32383676745E+03  0.13132249728E+04  0.25500000920E-02 0.  1.
</event>
<event>
 5   0  0.2388326E-05  0.2515516E+04  0.7818609E-02  0.8397479E-01
       -2   -1    0    0    0  501  0.00000000000E+00  0.00000000000E+00  0.14777925029E+04  0.14777925029E+04  0.25500000920E-02 0.  1.
        2   -1    0    0  501    0  0.00000000000E+00  0.00000000000E+00 -0.10704850570E+04  0.10704850570E+04  0.25500000920E-02 0. -1.
    10030    2    1    2    0    0  0.00000000000E+00  0.00000000000E+00  0.40730744588E+03  0.25482775599E+04  0.25155156860E+04 0.  0.
        2    1    3    3  502    0 -0.27655970515E+03 -0.63939073268E+02 -0.10376132600E+04  0.10757391658E+04  0.25500000920E-02 0. -1.
       -2    1    3    3    0  502  0.27655970515E+03  0.63939073268E+02  0.14449207059E+04  0.14725383940E+04  0.25500000920E-02 0.  1.
</event>
<event>
 5   0  0.1015327E-05  0.2478648E+04  0.7818609E-02  0.8410632E-01
       -1   -1    0    0    0  501  0.00000000000E+00  0.00000000000E+00  0.12519414903E+04  0.12519414903E+04  0.50400001928E-02 0.  1.
        1   -1    0    0  501    0  0.00000000000E+00  0.00000000000E+00 -0.12268336684E+04  0.12268336684E+04  0.50400001928E-02 0. -1.
    10030    2    1    2    0    0  0.00000000000E+00  0.00000000000E+00  0.25107821929E+02  0.24787751587E+04  0.24786479953E+04 0.  0.
        4    1    3    3  502    0 -0.12811654279E+03 -0.11194191908E+04  0.52872880502E+03  0.12446159791E+04  0.12699999809E+01 0.  1.
       -4    1    3    3    0  502  0.12811654279E+03  0.11194191908E+04 -0.50362098309E+03  0.12341591797E+04  0.12699999809E+01 0. -1.
</event>
<event>
 5   0  0.1002753E-05  0.2478885E+04  0.7818609E-02  0.8410547E-01
        1   -1    0    0  501    0  0.00000000000E+00  0.00000000000E+00  0.23765226942E+04  0.23765226942E+04  0.50400001928E-02 0.  1.
       -1   -1    0    0    0  501  0.00000000000E+00  0.00000000000E+00 -0.64641423133E+03  0.64641423135E+03  0.50400001928E-02 0. -1.
    10030    2    1    2    0    0  0.00000000000E+00  0.00000000000E+00  0.17301084628E+04  0.30229369255E+04  0.24788853065E+04 0.  0.
        5    1    3    3  502    0 -0.71651903249E+03 -0.39164671461E+03  0.20021179441E+04  0.21622407417E+04  0.46999998093E+01 0.  1.
       -5    1    3    3    0  502  0.71651903249E+03  0.39164671461E+03 -0.27200948126E+03  0.86069618384E+03  0.46999998093E+01 0. -1.
</event>
<event>
 5   0  0.1010338E-05  0.2198687E+04  0.7818609E-02  0.8518975E-01
       -1   -1    0    0    0  501  0.00000000000E+00  0.00000000000E+00  0.76711155630E+03  0.76711155631E+03  0.50400001928E-02 0.  1.
        1   -1    0    0  501    0  0.00000000000E+00  0.00000000000E+00 -0.15754637670E+04  0.15754637670E+04  0.50400001928E-02 0. -1.
    10030    2    1    2    0    0  0.00000000000E+00  0.00000000000E+00 -0.80835221071E+03  0.23425753233E+04  0.21986873013E+04 0.  0.
        2    1    3    3  502    0  0.46220972967E+03 -0.99433910929E+03 -0.32022649717E+03  0.11423191795E+04  0.25500000920E-02 0. -1.
       -2    1    3    3    0  502 -0.46220972967E+03  0.99433910929E+03 -0.48812571354E+03  0.12002561438E+04  0.25500000920E-02 0.  1.
</event>
<event>
 5   0  0.2441340E-05  0.2477515E+04  0.7818609E-02  0.8411040E-01
        2   -1    0    0  501    0  0.00000000000E+00  0.00000000000E+00  0.14680548513E+04  0.14680548513E+04  0.25500000920E-02 0. -1.
       -2   -1    0    0    0  501  0.00000000000E+00  0.00000000000E+00 -0.10452747849E+04  0.10452747849E+04  0.25500000920E-02 0.  1.
    10030    2    1    2    0    0  0.00000000000E+00  0.00000000000E+00  0.42278006641E+03  0.25133296362E+04  0.24775154643E+04 0.  0.
        3    1    3    3  502    0 -0.36440456885E+03 -0.51592509652E+03 -0.86963676574E+03  0.10748197568E+04  0.10100000352E+00 0.  1.
       -3    1    3    3    0  502  0.36440456885E+03  0.51592509652E+03  0.12924168321E+04  0.14385098794E+04  0.10100000352E+00 0. -1.
</event>
<event>
 5   0  0.1010338E-05  0.2515257E+04  0.7818609E-02  0.8397570E-01
        1   -1    0    0  501    0  0.00000000000E+00  0.00000000000E+00  0.13959103345E+04  0.13959103345E+04  0.50400001928E-02 0.  1.
       -1   -1    0    0    0  501  0.00000000000E+00  0.00000000000E+00 -0.11330456000E+04  0.11330456001E+04  0.50400001928E-02 0. -1.
    10030    2    1    2    0    0  0.00000000000E+00  0.00000000000E+00  0.26286473441E+03  0.25289559345E+04  0.25152574918E+04 0.  0.
        2    1    3    3  502    0 -0.82590578184E+03 -0.78187907446E+02  0.10817765016E+04  0.13632586360E+04  0.25500000920E-02 0.  1.
       -2    1    3    3    0  502  0.82590578184E+03  0.78187907446E+02 -0.81891176716E+03  0.11656972985E+04  0.25500000920E-02 0. -1.
</event>
<event>
 5   0  0.1008073E-05  0.2480160E+04  0.7818609E-02  0.8410088E-01
       -1   -1    0    0    0  501  0.00000000000E+00  0.00000000000E+00  0.12517925244E+04  0.12517925244E+04  0.50400001928E-02 0.  1.
        1   -1    0    0  501    0  0.00000000000E+00  0.00000000000E+00 -0.12284765743E+04  0.12284765743E+04  0.50400001928E-02 0. -1.
    10030    2    1    2    0    0  0.00000000000E+00  0.00000000000E+00  0.23315950095E+02  0.24802690987E+04  0.24801595046E+04 0.  0.
        1    1    3    3  502    0  0.69813997606E+02 -0.53343458192E+03 -0.11056967913E+04  0.12296307746E+04  0.50400001928E-02 0. -1.
       -1    1    3    3    0  502 -0.69813997606E+02  0.53343458192E+03  0.11290127414E+04  0.12506383241E+04  0.50400001928E-02 0.  1.
</event>
<event>
 5   0  0.2452457E-05  0.2454833E+04  0.7818609E-02  0.8419256E-01
        2   -1    0    0  501    0  0.00000000000E+00  0.00000000000E+00  0.17784274231E+04  0.17784274231E+04  0.25500000920E-02 0. -1.
       -2   -1    0    0    0  501  0.00000000000E+00  0.00000000000E+00 -0.84712528559E+03  0.84712528560E+03  0.25500000920E-02 0.  1.
    10030    2    1    2    0    0  0.00000000000E+00  0.00000000000E+00  0.93130213755E+03  0.26255527087E+04  0.24548326531E+04 0.  0.
        1    1    3    3  502    0 -0.56771511371E+03  0.10502145104E+04  0.16069043828E+03  0.12046046593E+04  0.50400001928E-02 0.  1.
       -1    1    3    3    0  502  0.56771511371E+03 -0.10502145104E+04  0.77061169927E+03  0.14209480495E+04  0.50400001928E-02 0. -1.
</event>
<event>
 5   0  0.8166500E-06  0.2497071E+04  0.7818609E-02  0.8404030E-01
        3   -1    0    0  501    0  0.00000000000E+00  0.00000000000E+00  0.31987921908E+04  0.31987921924E+04  0.10100000352E+00 0. -1.
       -3   -1    0    0    0  501  0.00000000000E+00  0.00000000000E+00 -0.48732173018E+03  0.48732174065E+03  0.10100000352E+00 0.  1.
    10030    2    1    2    0    0  0.00000000000E+00  0.00000000000E+00  0.27114704606E+04  0.36861139331E+04  0.24970710580E+04 0.  0.
        1    1    3    3  502    0  0.46143069402E+03  0.83365636316E+03  0.25467256003E+04  0.27191381907E+04  0.50400001928E-02 0. -1.
       -1    1    3    3    0  502 -0.46143069402E+03 -0.83365636316E+03  0.16474486039E+03  0.96697574234E+03  0.50400001928E-02 0.  1.
</event>
<event>
 5   0  0.1002753E-05  0.2498501E+04  0.7818609E-02  0.8403520E-01
       -1   -1    0    0    0  501  0.00000000000E+00  0.00000000000E+00  0.12508280807E+04  0.12508280807E+04  0.50400001928E-02 0.  1.
        1   -1    0    0  501    0  0.00000000000E+00  0.00000000000E+00 -0.12476745606E+04  0.12476745606E+04  0.50400001928E-02 0. -1.
    10030    2    1    2    0    0  0.00000000000E+00  0.00000000000E+00  0.31535200817E+01  0.24985026413E+04  0.24985006512E+04 0.  0.
        5    1    3    3  502    0 -0.36082392970E+03  0.58898504194E+03 -0.10393404913E+04  0.12479375124E+04  0.46999998093E+01 0. -1.
       -5    1    3    3    0  502  0.36082392970E+03 -0.58898504194E+03  0.10424940114E+04  0.12505651289E+04  0.46999998093E+01 0.  1.
</event>
<event>
 5   0  0.2388326E-05  0.2503622E+04  0.7818609E-02  0.8401696E-01
       -2   -1    0    0    0  501  0.00000000000E+00  0.00000000000E+00  0.59350051168E+03  0.59350051168E+03  0.25500000920E-02 0.  1.
        2   -1    0    0  501    0  0.00000000000E+00  0.00000000000E+00 -0.26403200920E+04  0.26403200920E+04  0.25500000920E-02 0. -1.
    10030    2    1    2    0    0  0.00000000000E+00  0.00000000000E+00 -0.20468195804E+04  0.32338206037E+04  0.25036224361E+04 0.  0.
        2    1    3    3  502    0  0.47192478491E+03 -0.12320285700E+03 -0.25125388937E+04  0.25594420562E+04  0.25500000920E-02 0. -1.
       -2    1    3    3    0  502 -0.47192478491E+03  0.12320285700E+03  0.46571931333E+03  0.67437854755E+03  0.25500000920E-02 0.  1.
</event>
<event>
 5   0  0.2388326E-05  0.2470178E+04  0.7818609E-02  0.8413688E-01
       -2   -1    0    0    0  501  0.00000000000E+00  0.00000000000E+00  0.11728184580E+04  0.11728184580E+04  0.25500000920E-02 0. -1.
        2   -1    0    0  501    0  0.00000000000E+00  0.00000000000E+00 -0.13006654103E+04  0.13006654103E+04  0.25500000920E-02 0.  1.
    10030    2    1    2    0    0  0.00000000000E+00  0.00000000000E+00 -0.12784695226E+03  0.24734838683E+04  0.24701776462E+04 0.  0.
        2    1    3    3  502    0 -0.59773788804E+03  0.42435951288E+03  0.93142549506E+03  0.11852953353E+04  0.25500000920E-02 0. -1.
       -2    1    3    3    0  502  0.59773788804E+03 -0.42435951288E+03 -0.10592724473E+04  0.12881885330E+04  0.25500000920E-02 0.  1.
</event>
<event>
 5   0  0.1039688E-05  0.2509893E+04  0.7818609E-02  0.8399470E-01
        1   -1    0    0  501    0  0.00000000000E+00  0.00000000000E+00  0.19306069887E+04  0.19306069887E+04  0.50400001928E-02 0.  1.
       -1   -1    0    0    0  501  0.00000000000E+00  0.00000000000E+00 -0.81574880993E+03  0.81574880995E+03  0.50400001928E-02 0. -1.
    10030    2    1    2    0    0  0.00000000000E+00  0.00000000000E+00  0.11148581788E+04  0.27463557987E+04  0.25098927097E+04 0.  0.
        3    1    3    3  502    0 -0.15523887114E+03 -0.53637912766E+03 -0.67232581415E+03  0.87397007172E+03  0.10100000352E+00 0. -1.
       -3    1    3    3    0  502  0.15523887114E+03  0.53637912766E+03  0.17871839929E+04  0.18723857269E+04  0.10100000352E+00 0.  1.
</event>
<event>
 5   0  0.2345143E-05  0.2508759E+04  0.7818609E-02  0.8399872E-01
        2   -1    0    0  501    0  0.00000000000E+00  0.00000000000E+00  0.22469771246E+04  0.22469771246E+04  0.25500000920E-02 0.  1.
       -2   -1    0    0    0  501  0.00000000000E+00  0.00000000000E+00 -0.70025981164E+03  0.70025981164E+03  0.25500000920E-02 0. -1.
    10030    2    1    2    0    0  0.00000000000E+00  0.00000000000E+00  0.15467173129E+04  0.29472369362E+04  0.25087588788E+04 0.  0.
        5    1    3    3  502    0 -0.21965937472E+03  0.64030434527E+03  0.20139639705E+04  0.21246912387E+04  0.46999998093E+01 0.  1.
       -5    1    3    3    0  502  0.21965937472E+03 -0.64030434527E+03 -0.46724665755E+03  0.82254569749E+03  0.46999998093E+01 0. -1.
</event>
<event>
 5   0  0.1015327E-05  0.2415646E+04  0.7818609E-02  0.8433669E-01
       -1   -1    0    0    0  501  0.00000000000E+00  0.00000000000E+00  0.71628956732E+03  0.71628956734E+03  0.50400001928E-02 0. -1.
        1   -1    0    0  501    0  0.00000000000E+00  0.00000000000E+00 -0.20366579547E+04  0.20366579547E+04  0.50400001928E-02 0.  1.
    10030    2    1    2    0    0  0.00000000000E+00  0.00000000000E+00 -0.13203683874E+04  0.27529475221E+04  0.24156463692E+04 0.  0.
        4    1    3    3  502    0 -0.59976090680E+03  0.99199614804E+03 -0.10467625832E+04  0.15618844456E+04  0.12699999809E+01 0. -1.
       -4    1    3    3    0  502  0.59976090680E+03 -0.99199614804E+03 -0.27360580421E+03  0.11910630764E+04  0.12699999809E+01 0.  1.
</event>
<event>
 5   0  0.2388326E-05  0.2507472E+04  0.7818609E-02  0.8400328E-01
       -2   -1    0    0    0  501  0.00000000000E+00  0.00000000000E+00  0.84993210777E+03  0.84993210777E+03  0.25500000920E-02 0. -1.
        2   -1    0    0  501    0  0.00000000000E+00  0.00000000000E+00 -0.18493874027E+04  0.18493874027E+04  0.25500000920E-02 0.  1.
    10030    2    1    2    0    0  0.00000000000E+00  0.00000000000E+00 -0.99945529490E+03  0.26993195104E+04  0.25074718210E+04 0.  0.
        2    1    3    3  502    0 -0.45702165802E+03 -0.84909183479E+03  0.36284407143E+03  0.10302822720E+04  0.25500000920E-02 0. -1.
       -2    1    3    3    0  502  0.45702165802E+03  0.84909183479E+03 -0.13622993663E+04  0.16690372384E+04  0.25500000920E-02 0.  1.
</event>
<event>
 5   0  0.1002753E-05  0.2509047E+04  0.7818609E-02  0.8399770E-01
        1   -1    0    0  501    0  0.00000000000E+00  0.00000000000E+00  0.16124229982E+04  0.16124229982E+04  0.50400001928E-02 0. -1.
       -1   -1    0    0    0  501  0.00000000000E+00  0.00000000000E+00 -0.97606450370E+03  0.97606450371E+03  0.50400001928E-02 0.  1.
    10030    2    1    2    0    0  0.00000000000E+00  0.00000000000E+00  0.63635849450E+03  0.25884875019E+04  0.25090467142E+04 0.  0.
        5    1    3    3  502    0  0.12342395504E+04 -0.20987899564E+03  0.23557990242E+03  0.12739373772E+04  0.46999998093E+01 0. -1.
       -5    1    3    3    0  502 -0.12342395504E+04  0.20987899564E+03  0.40077859208E+03  0.13145501247E+04  0.46999998093E+01 0.  1.
</event>
<event>
 5   0  0.8166500E-06  0.2479752E+04  0.7818609E-02  0.8410235E-01
       -3   -1    0    0    0  501  0.00000000000E+00  0.00000000000E+00  0.12288834242E+04  0.12288834283E+04  0.10100000352E+00 0.  1.
        3   -1    0    0  501    0  0.00000000000E+00  0.00000000000E+00 -0.12509669685E+04  0.12509669726E+04  0.10100000352E+00 0. -1.
    10030    2    1    2    0    0  0.00000000000E+00  0.00000000000E+00 -0.22083544383E+02  0.24798504009E+04  0.24797520699E+04 0.  0.
        1    1    3    3  502    0  0.20231306846E+03 -0.10212821543E+04 -0.68437729025E+03  0.12459213827E+04  0.50400001928E-02 0. -1.
       -1    1    3    3    0  502 -0.20231306846E+03  0.10212821543E+04  0.66229374587E+03  0.12339290183E+04  0.50400001928E-02 0.  1.
</event>
<event>
 5   0  0.1010338E-05  0.2635665E+04  0.7818609E-02  0.8356187E-01
        1   -1    0    0  501    0  0.00000000000E+00  0.00000000000E+00  0.11932720056E+04  0.11932720056E+04  0.50400001928E-02 0. -1.
       -1   -1    0    0    0  501  0.00000000000E+00  0.00000000000E+00 -0.14553951299E+04  0.14553951299E+04  0.50400001928E-02 0.  1.
    10030    2    1    2    0    0  0.00000000000E+00  0.00000000000E+00 -0.26212312428E+03  0.26486671355E+04  0.26356648236E+04 0.  0.
        2    1    3    3  502    0 -0.92851072674E+03 -0.46300830682E+03  0.68545728651E+03  0.12435274639E+04  0.25500000920E-02 0. -1.
       -2    1    3    3    0  502  0.92851072674E+03  0.46300830682E+03 -0.94758041078E+03  0.14051396716E+04  0.25500000920E-02 0.  1.
</event>
<event>
 5   0  0.1002753E-05  0.2565625E+04  0.7818609E-02  0.8379972E-01
       -1   -1    0    0    0  501  0.00000000000E+00  0.00000000000E+00  0.10849693966E+04  0.10849693966E+04  0.50400001928E-02 0.  1.
        1   -1    0    0  501    0  0.00000000000E+00  0.00000000000E+00 -0.15167315936E+04  0.15167315936E+04  0.50400001928E-02 0. -1.
    10030    2    1    2    0    0  0.00000000000E+00  0.00000000000E+00 -0.43176219703E+03  0.26017009902E+04  0.25656245727E+04 0.  0.
        5    1    3    3  502    0 -0.44461239395E+03  0.11038292166E+04 -0.70164315882E+03  0.13814645608E+04  0.46999998093E+01 0. -1.
       -5    1    3    3    0  502  0.44461239395E+03 -0.11038292166E+04  0.26988096179E+03  0.12202364295E+04  0.46999998093E+01 0.  1.
</event>
<event>
 5   0  0.2388326E-05  0.2492361E+04  0.7818609E-02  0.8405712E-01
        2   -1    0    0  501    0  0.00000000000E+00  0.00000000000E+00  0.16518687917E+04  0.16518687917E+04  0.25500000920E-02 0.  1.
       -2   -1    0    0    0  501  0.00000000000E+00  0.00000000000E+00 -0.94012658987E+03  0.94012658987E+03  0.25500000920E-02 0. -1.
    10030    2    1    2    0    0  0.00000000000E+00  0.00000000000E+00  0.71174220182E+03  0.25919953816E+04  0.24923609482E+04 0.  0.
        2    1    3    3  502    0  0.97411243130E+03  0.73981010453E+03  0.10812151824E+03  0.12279675412E+04  0.25500000920E-02 0. -1.
       -2    1    3    3    0  502 -0.97411243130E+03 -0.73981010453E+03  0.60362068358E+03  0.13640278403E+04  0.25500000920E-02 0.  1.
</event>
<event>
 5   0  0.2388326E-05  0.2502022E+04  0.7818609E-02  0.8402266E-01
       -2   -1    0    0    0  501  0.00000000000E+00  0.00000000000E+00  0.88672089140E+03  0.88672089140E+03  0.25500000920E-02 0.  1.
        2   -1    0    0  501    0  0.00000000000E+00  0.00000000000E+00 -0.17649617876E+04  0.17649617876E+04  0.25500000920E-02 0. -1.
    10030    2    1    2    0    0  0.00000000000E+00  0.00000000000E+00 -0.87824089616E+03  0.26516826790E+04  0.25020219740E+04 0.  0.
        2    1    3    3  502    0 -0.82338966201E+03 -0.25744149864E+03  0.52104107595E+03  0.10078345418E+04  0.25500000920E-02 0.  1.
       -2    1    3    3    0  502  0.82338966201E+03  0.25744149864E+03 -0.13992819721E+04  0.16438481372E+04  0.25500000920E-02 0. -1.
</event>
<event>
 5   0  0.1015327E-05  0.2626789E+04  0.7818609E-02  0.8359158E-01
        1   -1    0    0  501    0  0.00000000000E+00  0.00000000000E+00  0.23337044701E+04  0.23337044701E+04  0.50400001928E-02 0. -1.
       -1   -1    0    0    0  501  0.00000000000E+00  0.00000000000E+00 -0.73917041694E+03  0.73917041696E+03  0.50400001928E-02 0.  1.
    10030    2    1    2    0    0  0.00000000000E+00  0.00000000000E+00  0.15945340532E+04  0.30728748871E+04  0.26267891474E+04 0.  0.
        4    1    3    3  502    0  0.69700313668E+03 -0.53019002327E+03 -0.34777798778E+03  0.94226640341E+03  0.12699999809E+01 0.  1.
       -4    1    3    3    0  502 -0.69700313668E+03  0.53019002327E+03  0.19423120410E+04  0.21306084837E+04  0.12699999809E+01 0. -1.
</event>
<event>
 5   0  0.2432309E-05  0.2497150E+04  0.7818609E-02  0.8404001E-01
       -2   -1    0    0    0  501  0.00000000000E+00  0.00000000000E+00  0.62094600948E+03  0.62094600949E+03  0.25500000920E-02 0. -1.
        2   -1    0    0  501    0  0.00000000000E+00  0.00000000000E+00 -0.25105882413E+04  0.25105882413E+04  0.25500000920E-02 0.  1.
    10030    2    1    2    0    0  0.00000000000E+00  0.00000000000E+00 -0.18896422318E+04  0.31315342508E+04  0.24971501756E+04 0.  0.
        4    1    3    3  502    0 -0.11090928465E+04 -0.54563824465E+03 -0.72356118728E+03  0.14322536231E+04  0.12699999809E+01 0.  1.
       -4    1    3    3    0  502  0.11090928465E+04  0.54563824465E+03 -0.11660810446E+04  0.16992806277E+04  0.12699999809E+01 0. -1.
</event>
<event>
 5   0  0.8166500E-06  0.2478192E+04  0.7818609E-02  0.8410796E-01
       -3   -1    0    0    0  501  0.00000000000E+00  0.00000000000E+00  0.17923891750E+04  0.17923891779E+04  0.10100000352E+00 0. -1.
        3   -1    0    0  501    0  0.00000000000E+00  0.00000000000E+00 -0.85659891650E+03  0.85659892246E+03  0.10100000352E+00 0.  1.
    10030    2    1    2    0    0  0.00000000000E+00  0.00000000000E+00  0.93579025853E+03  0.26489881003E+04  0.24781917899E+04 0.  0.
        1    1    3    3  502    0 -0.11587825133E+04  0.39962319024E+03  0.66172959681E+03  0.13929686524E+04  0.50400001928E-02 0. -1.
       -1    1    3    3    0  502  0.11587825133E+04 -0.39962319024E+03  0.27406066172E+03  0.12560194479E+04  0.50400001928E-02 0.  1.
</event>
<event>
 5   0  0.1002753E-05  0.2494611E+04  0.7818609E-02  0.8404908E-01
       -1   -1    0    0    0  501  0.00000000000E+00  0.00000000000E+00  0.11517318222E+04  0.11517318222E+04  0.50400001928E-02 0. -1.
        1   -1    0    0  501    0  0.00000000000E+00  0.00000000000E+00 -0.13508098271E+04  0.13508098271E+04  0.50400001928E-02 0.  1.
    10030    2    1    2    0    0  0.00000000000E+00  0.00000000000E+00 -0.19907800492E+03  0.25025416493E+04  0.24946107220E+04 0.  0.
        5    1    3    3  502    0 -0.89290051675E+03  0.58777911253E+03  0.54514939086E+03  0.11999856525E+04  0.46999998093E+01 0. -1.
       -5    1    3    3    0  502  0.89290051675E+03 -0.58777911253E+03 -0.74422739578E+03  0.13025559967E+04  0.46999998093E+01 0.  1.
</event>
<event>
 5   0  0.2388326E-05  0.2544025E+04  0.7818609E-02  0.8387467E-01
        2   -1    0    0  501    0  0.00000000000E+00  0.00000000000E+00  0.11887625644E+04  0.11887625644E+04  0.25500000920E-02 0.  1.
       -2   -1    0    0    0  501  0.00000000000E+00  0.00000000000E+00 -0.13610928022E+04  0.13610928022E+04  0.25500000920E-02 0. -1.
    10030    2    1    2    0    0  0.00000000000E+00  0.00000000000E+00 -0.17233023784E+03  0.25498553667E+04  0.25440252907E+04 0.  0.
        2    1    3    3  502    0 -0.26292577475E+02 -0.24077354049E+03 -0.13377673794E+04  0.13595163694E+04  0.25500000920E-02 0. -1.
       -2    1    3    3    0  502  0.26292577475E+02  0.24077354049E+03  0.11654371415E+04  0.11903389972E+04  0.25500000920E-02 0.  1.
</event>
<event>
 5   0  0.1008073E-05  0.2489871E+04  0.7818609E-02  0.8406603E-01
       -1   -1    0    0    0  501  0.00000000000E+00  0.00000000000E+00  0.48445300233E+03  0.48445300235E+03  0.50400001928E-02 0.  1.
        1   -1    0    0  501    0  0.00000000000E+00  0.00000000000E+00 -0.31992058020E+04  0.31992058020E+04  0.50400001928E-02 0. -1.
    10030    2    1    2    0    0  0.00000000000E+00  0.00000000000E+00 -0.27147527997E+04  0.36836588044E+04  0.24898713669E+04 0.  0.
        1    1    3    3  502    0  0.95690385273E+03 -0.50770937784E+03 -0.44967038817E+03  0.11728756344E+04  0.50400001928E-02 0.  1.
       -1    1    3    3    0  502 -0.95690385273E+03  0.50770937784E+03 -0.22650824115E+04  0.25107831700E+04  0.50400001928E-02 0. -1.
</event>
<event>
 5   0  0.2388326E-05  0.2530928E+04  0.7818609E-02  0.8392049E-01
        2   -1    0    0  501    0  0.00000000000E+00  0.00000000000E+00  0.15567141928E+04  0.15567141928E+04  0.25500000920E-02 0.  1.
       -2   -1    0    0    0  501  0.00000000000E+00  0.00000000000E+00 -0.10287045241E+04  0.10287045241E+04  0.25500000920E-02 0. -1.
    10030    2    1    2    0    0  0.00000000000E+00  0.00000000000E+00  0.52800966877E+03  0.25854187169E+04  0.25309278400E+04 0.  0.
        2    1    3    3  502    0  0.10372887212E+04 -0.71358740346E+03  0.39412088959E+03  0.13192824372E+04  0.25500000920E-02 0.  1.
       -2    1    3    3    0  502 -0.10372887212E+04  0.71358740346E+03  0.13388877918E+03  0.12661362797E+04  0.25500000920E-02 0. -1.
</event>
<event>
 5   0  0.2388326E-05  0.2299660E+04  0.7818609E-02  0.8478055E-01
       -2   -1    0    0    0  501  0.00000000000E+00  0.00000000000E+00  0.82219142725E+03  0.82219142725E+03  0.25500000920E-02 0. -1.
        2   -1    0    0  501    0  0.00000000000E+00  0.00000000000E+00 -0.16080303835E+04  0.16080303835E+04  0.25500000920E-02 0.  1.
    10030    2    1    2    0    0  0.00000000000E+00  0.00000000000E+00 -0.78583895624E+03  0.24302218108E+04  0.22996597975E+04 0.  0.
        2    1    3    3  502    0 -0.22525381959E+03 -0.31233919197E+03  0.75201838055E+03  0.84488265385E+03  0.25500000920E-02 0. -1.
       -2    1    3    3    0  502  0.22525381959E+03  0.31233919197E+03 -0.15378573368E+04  0.15853391569E+04  0.25500000920E-02 0.  1.
</event>
<event>
 5   0  0.1039688E-05  0.2489531E+04  0.7818609E-02  0.8406725E-01
       -1   -1    0    0    0  501  0.00000000000E+00  0.00000000000E+00  0.56071289251E+03  0.56071289253E+03  0.50400001928E-02 0. -1.
        1   -1    0    0  501    0  0.00000000000E+00  0.00000000000E+00 -0.27633412454E+04  0.27633412454E+04  0.50400001928E-02 0.  1.
    10030    2    1    2    0    0  0.00000000000E+00  0.00000000000E+00 -0.22026283529E+04  0.33240541379E+04  0.24895309299E+04 0.  0.
        3    1    3    3  502    0 -0.15082200097E+03 -0.64721224031E+03 -0.25066600434E+04  0.25932557806E+04  0.10100000352E+00 0.  1.
       -3    1    3    3    0  502  0.15082200097E+03  0.64721224031E+03  0.30403169057E+03  0.73079835732E+03  0.10100000352E+00 0. -1.
</event>
<event>
 5   0  0.1008073E-05  0.2492310E+04  0.7818609E-02  0.8405730E-01
        1   -1    0    0  501    0  0.00000000000E+00  0.00000000000E+00  0.15937252876E+04  0.15937252876E+04  0.50400001928E-02 0.  1.
       -1   -1    0    0    0  501  0.00000000000E+00  0.00000000000E+00 -0.97438504999E+03  0.97438505000E+03  0.50400001928E-02 0. -1.
    10030    2    1    2    0    0  0.00000000000E+00  0.00000000000E+00  0.61934023760E+03  0.25681103376E+04  0.24923098475E+04 0.  0.
        1    1    3    3  502    0 -0.15593142607E+03 -0.11561490847E+04 -0.14172494237E+03  0.11751941435E+04  0.50400001928E-02 0. -1.
       -1    1    3    3    0  502  0.15593142607E+03  0.11561490847E+04  0.76106517997E+03  0.13929161941E+04  0.50400001928E-02 0.  1.
</event>
<event>
 5   0  0.1039688E-05  0.2341623E+04  0.7818609E-02  0.8461688E-01
        1   -1    0    0  501    0  0.00000000000E+00  0.00000000000E+00  0.17602093494E+04  0.17602093494E+04  0.50400001928E-02 0. -1.
       -1   -1    0    0    0  501  0.00000000000E+00  0.00000000000E+00 -0.77877048204E+03  0.77877048205E+03  0.50400001928E-02 0.  1.
    10030    2    1    2    0    0  0.00000000000E+00  0.00000000000E+00  0.98143886732E+03  0.25389798314E+04  0.23416225857E+04 0.  0.
        3    1    3    3  502    0 -0.10698320744E+04 -0.41484495354E+03  0.23837717757E+03  0.11719473929E+04  0.10100000352E+00 0. -1.
       -3    1    3    3    0  502  0.10698320744E+04  0.41484495354E+03  0.74306168975E+03  0.13670324385E+04  0.10100000352E+00 0.  1.
</event>
<event>
 5   0  0.8166500E-06  0.2481476E+04  0.7818609E-02  0.8409615E-01
       -3   -1    0    0    0  501  0.00000000000E+00  0.00000000000E+00  0.19216423722E+04  0.19216423748E+04  0.10100000352E+00 0. -1.
        3   -1    0    0  501    0  0.00000000000E+00  0.00000000000E+00 -0.80110141264E+03  0.80110141901E+03  0.10100000352E+00 0.  1.
    10030    2    1    2    0    0  0.00000000000E+00  0.00000000000E+00  0.11205409595E+04  0.27227437938E+04  0.24814757152E+04 0.  0.
        5    1    3    3  502    0 -0.69197715053E+03  0.95638200435E+03  0.97939051514E+03  0.15338600934E+04  0.46999998093E+01 0. -1.
       -5    1    3    3    0  502  0.69197715053E+03 -0.95638200435E+03  0.14115044439E+03  0.11888837004E+04  0.46999998093E+01 0.  1.
</event>
<event>
 5   0  0.1015327E-05  0.2502420E+04  0.7818609E-02  0.8402124E-01
        1   -1    0    0  501    0  0.00000000000E+00  0.00000000000E+00  0.12667658401E+04  0.12667658401E+04  0.50400001928E-02 0.  1.
       -1   -1    0    0    0  501  0.00000000000E+00  0.00000000000E+00 -0.12358449175E+04  0.12358449175E+04  0.50400001928E-02 0. -1.
    10030    2    1    2    0    0  0.00000000000E+00  0.00000000000E+00  0.30920922602E+02  0.25026107575E+04  0.25024197290E+04 0.  0.
        4    1    3    3  502    0  0.72814909252E+03 -0.98617034225E+03 -0.23514092409E+03  0.12482090818E+04  0.12699999809E+01 0. -1.
       -4    1    3    3    0  502 -0.72814909252E+03  0.98617034225E+03  0.26606184669E+03  0.12544016757E+04  0.12699999809E+01 0.  1.
</event>
<event>
 5   0  0.1015327E-05  0.2834746E+04  0.7818609E-02  0.8292561E-01
       -1   -1    0    0    0  501  0.00000000000E+00  0.00000000000E+00  0.17778361774E+04  0.17778361774E+04  0.50400001928E-02 0. -1.
        1   -1    0    0  501    0  0.00000000000E+00  0.00000000000E+00 -0.11299954143E+04  0.11299954143E+04  0.50400001928E-02 0.  1.
    10030    2    1    2    0    0  0.00000000000E+00  0.00000000000E+00  0.64784076304E+03  0.29078315917E+04  0.28347463575E+04 0.  0.
        4    1    3    3  502    0 -0.79194806007E+03 -0.99037565448E+03 -0.32558627540E+03  0.13092110993E+04  0.12699999809E+01 0.  1.
       -4    1    3    3    0  502  0.79194806007E+03  0.99037565448E+03  0.97342703845E+03  0.15986204925E+04  0.12699999809E+01 0. -1.
</event>
<event>
 5   0  0.2452457E-05  0.2479448E+04  0.7818609E-02  0.8410344E-01
        2   -1    0    0  501    0  0.00000000000E+00  0.00000000000E+00  0.98093095021E+03  0.98093095021E+03  0.25500000920E-02 0.  1.
       -2   -1    0    0    0  501  0.00000000000E+00  0.00000000000E+00 -0.15667925835E+04  0.15667925835E+04  0.25500000920E-02 0. -1.
    10030    2    1    2    0    0  0.00000000000E+00  0.00000000000E+00 -0.58586163328E+03  0.25477235337E+04  0.24794477915E+04 0.  0.
        1    1    3    3  502    0  0.10921720004E+04  0.19655250805E+03 -0.86081824711E+03  0.14044502915E+04  0.50400001928E-02 0. -1.
       -1    1    3    3    0  502 -0.10921720004E+04 -0.19655250805E+03  0.27495661382E+03  0.11432732422E+04  0.50400001928E-02 0.  1.
</event>
<event>
 5   0  0.2441340E-05  0.2497524E+04  0.7818609E-02  0.8403868E-01
       -2   -1    0    0    0  501  0.00000000000E+00  0.00000000000E+00  0.11934159802E+04  0.11934159802E+04  0.25500000920E-02 0.  1.
        2   -1    0    0  501    0  0.00000000000E+00  0.00000000000E+00 -0.13066743473E+04  0.13066743473E+04  0.25500000920E-02 0. -1.
    10030    2    1    2    0    0  0.00000000000E+00  0.00000000000E+00 -0.11325836714E+03  0.25000903275E+04  0.24975236111E+04 0.  0.
        3    1    3    3  502    0 -0.80191787300E+03  0.66624848216E+03 -0.74468317275E+03  0.12812151861E+04  0.10100000352E+00 0. -1.
       -3    1    3    3    0  502  0.80191787300E+03 -0.66624848216E+03  0.63142480562E+03  0.12188751414E+04  0.10100000352E+00 0.  1.
</event>
<event>
 5   0  0.8166500E-06  0.2468692E+04  0.7818609E-02  0.8414225E-01
        3   -1    0    0  501    0  0.00000000000E+00  0.00000000000E+00  0.19682647359E+04  0.19682647384E+04  0.10100000352E+00 0. -1.
       -3   -1    0    0    0  501  0.00000000000E+00  0.00000000000E+00 -0.77408822302E+03  0.77408822961E+03  0.10100000352E+00 0.  1.
    10030    2    1    2    0    0  0.00000000000E+00  0.00000000000E+00  0.11941765128E+04  0.27423529681E+04  0.24686924186E+04 0.  0.
        1    1    3    3  502    0 -0.57250442376E+03 -0.21249384680E+03  0.17887050020E+04  0.18900742140E+04  0.50400001928E-02 0. -1.
       -1    1    3    3    0  502  0.57250442376E+03  0.21249384680E+03 -0.59452848917E+03  0.85227875406E+03  0.50400001928E-02 0.  1.
</event>
<event>
 5   0  0.2388326E-05  0.2529723E+04  0.7818609E-02  0.8392472E-01
       -2   -1    0    0    0  501  0.00000000000E+00  0.00000000000E+00  0.97211582259E+03  0.97211582259E+03  0.25500000920E-02 0.  1.
        2   -1    0    0  501    0  0.00000000000E+00  0.00000000000E+00 -0.16457658542E+04  0.16457658542E+04  0.25500000920E-02 0. -1.
    10030    2    1    2    0    0  0.00000000000E+00  0.00000000000E+00 -0.67365003157E+03  0.26178816767E+04  0.25297233265E+04 0.  0.
        2    1    3    3  502    0 -0.34477504104E+03  0.59215193170E+02 -0.15947088923E+04  0.16326275507E+04  0.25500000920E-02 0. -1.
       -2    1    3    3    0  502  0.34477504104E+03 -0.59215193170E+02  0.92105886073E+03  0.98525412608E+03  0.25500000920E-02 0.  1.
</event>
<event>
 5   0  0.2432309E-05  0.2156647E+04  0.7818609E-02  0.8536692E-01
        2   -1    0    0  501    0  0.00000000000E+00  0.00000000000E+00  0.11053614033E+04  0.11053614033E+04  0.25500000920E-02 0.  1.
       -2   -1    0    0    0  501  0.00000000000E+00  0.00000000000E+00 -0.10519468040E+04  0.10519468040E+04  0.25500000920E-02 0. -1.
    10030    2    1    2    0    0  0.00000000000E+00  0.00000000000E+00  0.53414599303E+02  0.21573082073E+04  0.21566468375E+04 0.  0.
        4    1    3    3  502    0 -0.30651776788E+03  0.82094760017E+03 -0.60187356442E+03  0.10630905440E+04  0.12699999809E+01 0. -1.
       -4    1    3    3    0  502  0.30651776788E+03 -0.82094760017E+03  0.65528816372E+03  0.10942176633E+04  0.12699999809E+01 0.  1.
</event>
<event>
 5   0  0.1015327E-05  0.2511300E+04  0.7818609E-02  0.8398971E-01
       -1   -1    0    0    0  501  0.00000000000E+00  0.00000000000E+00  0.67013765222E+03  0.67013765224E+03  0.50400001928E-02 0. -1.
        1   -1    0    0  501    0  0.00000000000E+00  0.00000000000E+00 -0.23527363112E+04  0.23527363112E+04  0.50400001928E-02 0.  1.
    10030    2    1    2    0    0  0.00000000000E+00  0.00000000000E+00 -0.16825986590E+04  0.30228739635E+04  0.25113002114E+04 0.  0.
        4    1    3    3  502    0 -0.70864020766E+03 -0.11004005489E+03 -0.20819813681E+04  0.22020281078E+04  0.12699999809E+01 0.  1.
       -4    1    3    3    0  502  0.70864020766E+03  0.11004005489E+03  0.39938270906E+03  0.82084585568E+03  0.12699999809E+01 0. -1.
</event>
<event>
 5   0  0.2345143E-05  0.2494154E+04  0.7818609E-02  0.8405071E-01
        2   -1    0    0  501    0  0.00000000000E+00  0.00000000000E+00  0.12814424933E+04  0.12814424933E+04  0.25500000920E-02 0. -1.
       -2   -1    0    0    0  501  0.00000000000E+00  0.00000000000E+00 -0.12136332777E+04  0.12136332777E+04  0.25500000920E-02 0.  1.
    10030    2    1    2    0    0  0.00000000000E+00  0.00000000000E+00  0.67809215602E+02  0.24950757710E+04  0.24941541679E+04 0.  0.
        5    1    3    3  502    0 -0.26402910555E+02 -0.99269394382E+03 -0.72072204717E+03  0.12270292332E+04  0.46999998093E+01 0.  1.
       -5    1    3    3    0  502  0.26402910555E+02  0.99269394382E+03  0.78853126277E+03  0.12680465378E+04  0.46999998093E+01 0. -1.
</event>
<event>
 5   0  0.2441340E-05  0.2503330E+04  0.7818609E-02  0.8401800E-01
       -2   -1    0    0    0  501  0.00000000000E+00  0.00000000000E+00  0.65497170164E+03  0.65497170164E+03  0.25500000920E-02 0.  1.
        2   -1    0    0  501    0  0.00000000000E+00  0.00000000000E+00 -0.23919582581E+04  0.23919582581E+04  0.25500000920E-02 0. -1.
    10030    2    1    2    0    0  0.00000000000E+00  0.00000000000E+00 -0.17369865565E+04  0.30469299598E+04  0.25033297590E+04 0.  0.
        3    1    3    3  502    0  0.41572397540E+03 -0.10450214966E+04 -0.15371164739E+04  0.19046320948E+04  0.10100000352E+00 0. -1.
       -3    1    3    3    0  502 -0.41572397540E+03  0.10450214966E+04 -0.19987008262E+03  0.11422978650E+04  0.10100000352E+00 0.  1.
</event>
<event>
 5   0  0.1015327E-05  0.2500562E+04  0.7818609E-02  0.8402785E-01
        1   -1    0    0  501    0  0.00000000000E+00  0.00000000000E+00  0.26551492945E+04  0.26551492945E+04  0.50400001928E-02 0. -1.
       -1   -1    0    0    0  501  0.00000000000E+00  0.00000000000E+00 -0.58874368540E+03  0.58874368543E+03  0.50400001928E-02 0.  1.
    10030    2    1    2    0    0  0.00000000000E+00  0.00000000000E+00  0.20664056091E+04  0.32438929799E+04  0.25005618416E+04 0.  0.
        4    1    3    3  502    0  0.11652583509E+03  0.11171950135E+04  0.32088960565E+03  0.11681929294E+04  0.12699999809E+01 0.  1.
       -4    1    3    3    0  502 -0.11652583509E+03 -0.11171950135E+04  0.17455160034E+04  0.20757000505E+04  0.12699999809E+01 0. -1.
</event>
<event>
 5   0  0.1039688E-05  0.2493877E+04  0.7818609E-02  0.8405170E-01
       -1   -1    0    0    0  501  0.00000000000E+00  0.00000000000E+00  0.23197474463E+04  0.23197474463E+04  0.50400001928E-02 0. -1.
        1   -1    0    0  501    0  0.00000000000E+00  0.00000000000E+00 -0.67026930710E+03  0.67026930712E+03  0.50400001928E-02 0.  1.
    10030    2    1    2    0    0  0.00000000000E+00  0.00000000000E+00  0.16494781392E+04  0.29900167535E+04  0.24938769124E+04 0.  0.
        3    1    3    3  502    0  0.97109406326E+03  0.39649695941E+03  0.16331344516E+04  0.19409692594E+04  0.10100000352E+00 0. -1.
       -3    1    3    3    0  502 -0.97109406326E+03 -0.39649695941E+03  0.16343687605E+02  0.10490474941E+04  0.10100000352E+00 0.  1.
</event>
<event>
 5   0  0.2432309E-05  0.2501638E+04  0.7818609E-02  0.8402402E-01
        2   -1    0    0  501    0  0.00000000000E+00  0.00000000000E+00  0.14472019414E+04  0.14472019414E+04  0.25500000920E-02 0.  1.
       -2   -1    0    0    0  501  0.00000000000E+00  0.00000000000E+00 -0.10810850473E+04  0.10810850473E+04  0.25500000920E-02 0. -1.
    10030    2    1    2    0    0  0.00000000000E+00  0.00000000000E+00  0.36611689409E+03  0.25282869887E+04  0.25016381666E+04 0.  0.
        4    1    3    3  502    0 -0.87709524773E+03 -0.56974934831E+02 -0.71636812443E+03  0.11338990781E+04  0.12699999809E+01 0. -1.
       -4    1    3    3    0  502  0.87709524773E+03  0.56974934831E+02  0.10824850185E+04  0.13943879105E+04  0.12699999809E+01 0.  1.
</event>
<event>
 5   0  0.2441340E-05  0.2503654E+04  0.7818609E-02  0.8401685E-01
       -2   -1    0    0    0  501  0.00000000000E+00  0.00000000000E+00  0.98955026499E+03  0.98955026500E+03  0.25500000920E-02 0. -1.
        2   -1    0    0  501    0  0.00000000000E+00  0.00000000000E+00 -0.15836189076E+04  0.15836189076E+04  0.25500000920E-02 0.  1.
    10030    2    1    2    0    0  0.00000000000E+00  0.00000000000E+00 -0.59406864257E+03  0.25731691726E+04  0.25036537377E+04 0.  0.
        3    1    3    3  502    0  0.83701380293E+03  0.89400373714E+03 -0.30536246202E+02  0.12250580643E+04  0.10100000352E+00 0. -1.
       -3    1    3    3    0  502 -0.83701380293E+03 -0.89400373714E+03 -0.56353239637E+03  0.13481111083E+04  0.10100000352E+00 0.  1.
</event>
<event>
 5   0  0.2388326E-05  0.2509661E+04  0.7818609E-02  0.8399552E-01
        2   -1    0    0  501    0  0.00000000000E+00  0.00000000000E+00  0.11140007903E+04  0.11140007903E+04  0.25500000920E-02 0. -1.
       -2   -1    0    0    0  501  0.00000000000E+00  0.00000000000E+00 -0.14134631820E+04  0.14134631820E+04  0.25500000920E-02 0.  1.
    10030    2    1    2    0    0  0.00000000000E+00  0.00000000000E+00 -0.29946239174E+03  0.25274639723E+04  0.25096606160E+04 0.  0.
        2    1    3    3  502    0  0.21579179580E+03  0.54575069222E+03  0.96727589633E+03  0.11313852469E+04  0.25500000920E-02 0. -1.
       -2    1    3    3    0  502 -0.21579179580E+03 -0.54575069222E+03 -0.12667382881E+04  0.13960787254E+04  0.25500000920E-02 0.  1.
</event>
<event>
 5   0  0.2388326E-05  0.2498155E+04  0.7818609E-02  0.8403643E-01
       -2   -1    0    0    0  501  0.00000000000E+00  0.00000000000E+00  0.15515644605E+04  0.15515644605E+04  0.25500000920E-02 0.  1.
        2   -1    0    0  501    0  0.00000000000E+00  0.00000000000E+00 -0.10055623139E+04  0.10055623139E+04  0.25500000920E-02 0. -1.
    10030    2    1    2    0    0  0.00000000000E+00  0.00000000000E+00  0.54600214661E+03  0.25571267744E+04  0.24981551185E+04 0.  0.
        2    1    3    3  502    0  0.39557756593E+02 -0.10905756656E+04 -0.34902359139E+03  0.11457476013E+04  0.25500000920E-02 0. -1.
       -2    1    3    3    0  502 -0.39557756593E+02  0.10905756656E+04  0.89502573801E+03  0.14113791731E+04  0.25500000920E-02 0.  1.
</event>
<event>
 5   0  0.2432309E-05  0.2493088E+04  0.7818609E-02  0.8405452E-01
       -2   -1    0    0    0  501  0.00000000000E+00  0.00000000000E+00  0.67830660332E+03  0.67830660333E+03  0.25500000920E-02 0. -1.
        2   -1    0    0  501    0  0.00000000000E+00  0.00000000000E+00 -0.22908113080E+04  0.22908113080E+04  0.25500000920E-02 0.  1.
    10030    2    1    2    0    0  0.00000000000E+00  0.00000000000E+00 -0.16125047047E+04  0.29691179114E+04  0.24930883957E+04 0.  0.
        4    1    3    3  502    0  0.14474470585E+03 -0.10911465224E+04 -0.10945689808E+03  0.11061347968E+04  0.12699999809E+01 0. -1.
       -4    1    3    3    0  502 -0.14474470585E+03  0.10911465224E+04 -0.15030478066E+04  0.18629831146E+04  0.12699999809E+01 0.  1.
</event>
<event>
 5   0  0.2345143E-05  0.2488912E+04  0.7818609E-02  0.8406946E-01
       -2   -1    0    0    0  501  0.00000000000E+00  0.00000000000E+00  0.10926387614E+04  0.10926387614E+04  0.25500000920E-02 0. -1.
        2   -1    0    0  501    0  0.00000000000E+00  0.00000000000E+00 -0.14173677903E+04  0.14173677903E+04  0.25500000920E-02 0.  1.
    10030    2    1    2    0    0  0.00000000000E+00  0.00000000000E+00 -0.32472902891E+03  0.25100065517E+04  0.24889122016E+04 0.  0.
        5    1    3    3  502    0 -0.21056863216E+03  0.86836266188E+03  0.71114980191E+03  0.11419934291E+04  0.46999998093E+01 0. -1.
       -5    1    3    3    0  502  0.21056863216E+03 -0.86836266188E+03 -0.10358788308E+04  0.13680131226E+04  0.46999998093E+01 0.  1.
</event>
<event>
 5   0  0.2345143E-05  0.2490757E+04  0.7818609E-02  0.8406286E-01
        2   -1    0    0  501    0  0.00000000000E+00  0.00000000000E+00  0.19719900600E+04  0.19719900600E+04  0.25500000920E-02 0. -1.
       -2   -1    0    0    0  501  0.00000000000E+00  0.00000000000E+00 -0.78649857995E+03  0.78649857995E+03  0.25500000920E-02 0.  1.
    10030    2    1    2    0    0  0.00000000000E+00  0.00000000000E+00  0.11854914800E+04  0.27584886399E+04  0.24907568182E+04 0.  0.
        5    1    3    3  502    0 -0.11455969600E+04  0.21294358785E+03  0.10795477252E+04  0.15884529415E+04  0.46999998093E+01 0. -1.
       -5    1    3    3    0  502  0.11455969600E+04 -0.21294358785E+03  0.10594375480E+03  0.11700356984E+04  0.46999998093E+01 0.  1.
</event>
<event>
 5   0  0.2441340E-05  0.2488327E+04  0.7818609E-02  0.8407156E-01
       -2   -1    0    0    0  501  0.00000000000E+00  0.00000000000E+00  0.10189776501E+04  0.10189776501E+04  0.25500000920E-02 0. -1.
        2   -1    0    0  501    0  0.00000000000E+00  0.00000000000E+00 -0.15191135149E+04  0.15191135149E+04  0.25500000920E-02 0.  1.
    10030    2    1    2    0    0  0.00000000000E+00  0.00000000000E+00 -0.50013586475E+03  0.25380911650E+04  0.24883269236E+04 0.  0.
        3    1    3    3  502    0 -0.63234612284E+03 -0.88602807165E+03 -0.86464200519E+03  0.13901486144E+04  0.10100000352E+00 0. -1.
       -3    1    3    3    0  502  0.63234612284E+03  0.88602807165E+03  0.36450614044E+03  0.11479425506E+04  0.10100000352E+00 0.  1.
</event>
<event>
 5   0  0.1008073E-05  0.2518758E+04  0.7818609E-02  0.8396333E-01
        1   -1    0    0  501    0  0.00000000000E+00  0.00000000000E+00  0.73177088963E+03  0.73177088964E+03  0.50400001928E-02 0.  1.
       -1   -1    0    0    0  501  0.00000000000E+00  0.00000000000E+00 -0.21673929905E+04  0.21673929905E+04  0.50400001928E-02 0. -1.
    10030    2    1    2    0    0  0.00000000000E+00  0.00000000000E+00 -0.14356221009E+04  0.28991638802E+04  0.25187577072E+04 0.  0.
        1    1    3    3  502    0 -0.35162020815E+03 -0.11540091654E+04 -0.30174752189E+03  0.12435535741E+04  0.50400001928E-02 0.  1.
       -1    1    3    3    0  502  0.35162020815E+03  0.11540091654E+04 -0.11338745790E+04  0.16556103061E+04  0.50400001928E-02 0. -1.
</event>
<event>
 5   0  0.1008073E-05  0.2522175E+04  0.7818609E-02  0.8395128E-01
       -1   -1    0    0    0  501  0.00000000000E+00  0.00000000000E+00  0.74980786398E+03  0.74980786399E+03  0.50400001928E-02 0. -1.
        1   -1    0    0  501    0  0.00000000000E+00  0.00000000000E+00 -0.21209990422E+04  0.21209990422E+04  0.50400001928E-02 0.  1.
    10030    2    1    2    0    0  0.00000000000E+00  0.00000000000E+00 -0.13711911782E+04  0.28708069062E+04  0.25221750624E+04 0.  0.
        1    1    3    3  502    0  0.43513772138E+03  0.11831470649E+04 -0.64682986199E+03  0.14168876752E+04  0.50400001928E-02 0.  1.
       -1    1    3    3    0  502 -0.43513772138E+03 -0.11831470649E+04 -0.72436131622E+03  0.14539192310E+04  0.50400001928E-02 0. -1.
</event>
<event>
 5   0  0.2388326E-05  0.2529455E+04  0.7818609E-02  0.8392567E-01
       -2   -1    0    0    0  501  0.00000000000E+00  0.00000000000E+00  0.13370357946E+04  0.13370357946E+04  0.25500000920E-02 0. -1.
        2   -1    0    0  501    0  0.00000000000E+00  0.00000000000E+00 -0.11963292831E+04  0.11963292832E+04  0.25500000920E-02 0.  1.
    10030    2    1    2    0    0  0.00000000000E+00  0.00000000000E+00  0.14070651145E+03  0.25333650778E+04  0.25294545449E+04 0.  0.
        2    1    3    3  502    0 -0.58612440120E+01 -0.81272124159E+03  0.10408636811E+04  0.13205859962E+04  0.25500000920E-02 0. -1.
       -2    1    3    3    0  502  0.58612440120E+01  0.81272124159E+03 -0.90015716962E+03  0.12127790816E+04  0.25500000920E-02 0.  1.
</event>
<event>
 5   0  0.2432309E-05  0.2432208E+04  0.7818609E-02  0.8427543E-01
        2   -1    0    0  501    0  0.00000000000E+00  0.00000000000E+00  0.15950603052E+04  0.15950603052E+04  0.25500000920E-02 0. -1.
       -2   -1    0    0    0  501  0.00000000000E+00  0.00000000000E+00 -0.92718027696E+03  0.92718027696E+03  0.25500000920E-02 0.  1.
    10030    2    1    2    0    0  0.00000000000E+00  0.00000000000E+00  0.66788002822E+03  0.25222405821E+04  0.24322076026E+04 0.  0.
        4    1    3    3  502    0 -0.64685951252E+03 -0.22331378079E+03  0.13764441469E+04  0.15371715506E+04  0.12699999809E+01 0. -1.
       -4    1    3    3    0  502  0.64685951252E+03  0.22331378079E+03 -0.70856411869E+03  0.98506903150E+03  0.12699999809E+01 0.  1.
</event>
<event>
 5   0  0.1002753E-05  0.2517646E+04  0.7818609E-02  0.8396726E-01
       -1   -1    0    0    0  501  0.00000000000E+00  0.00000000000E+00  0.73976413790E+03  0.73976413791E+03  0.50400001928E-02 0.  1.
        1   -1    0    0  501    0  0.00000000000E+00  0.00000000000E+00 -0.21420818569E+04  0.21420818569E+04  0.50400001928E-02 0. -1.
    10030    2    1    2    0    0  0.00000000000E+00  0.00000000000E+00 -0.14023177190E+04  0.28818459948E+04  0.25176459943E+04 0.  0.
        5    1    3    3  502    0 -0.10580325385E+04 -0.16675579556E+03  0.55851878351E+02  0.10725585626E+04  0.46999998093E+01 0.  1.
       -5    1    3    3    0  502  0.10580325385E+04  0.16675579556E+03 -0.14581695973E+04  0.18092874322E+04  0.46999998093E+01 0. -1.
</event>
<event>
 5   0  0.2452457E-05  0.2288662E+04  0.7818609E-02  0.8482405E-01
       -2   -1    0    0    0  501  0.00000000000E+00  0.00000000000E+00  0.11453935129E+04  0.11453935129E+04  0.25500000920E-02 0.  1.
        2   -1    0    0  501    0  0.00000000000E+00  0.00000000000E+00 -0.11432695773E+04  0.11432695773E+04  0.25500000920E-02 0. -1.
    10030    2    1    2    0    0  0.00000000000E+00  0.00000000000E+00  0.21239356050E+01  0.22886630902E+04  0.22886621046E+04 0.  0.
        1    1    3    3  502    0  0.58322794138E+03 -0.18406761937E+03  0.96825307757E+03  0.11452291222E+04  0.50400001928E-02 0.  1.
       -1    1    3    3    0  502 -0.58322794138E+03  0.18406761937E+03 -0.96612914197E+03  0.11434339680E+04  0.50400001928E-02 0. -1.
</event>
<event>
 5   0  0.1002753E-05  0.2519706E+04  0.7818609E-02  0.8395999E-01
        1   -1    0    0  501    0  0.00000000000E+00  0.00000000000E+00  0.16010241339E+04  0.16010241339E+04  0.50400001928E-02 0. -1.
       -1   -1    0    0    0  501  0.00000000000E+00  0.00000000000E+00 -0.99138414952E+03  0.99138414953E+03  0.50400001928E-02 0.  1.
    10030    2    1    2    0    0  0.00000000000E+00  0.00000000000E+00  0.60963998442E+03  0.25924082835E+04  0.25197062919E+04 0.  0.
        5    1    3    3  502    0 -0.72859457320E+03  0.13626503997E+03  0.13529330866E+04  0.15426821578E+04  0.46999998093E+01 0.  1.
       -5    1    3    3    0  502  0.72859457320E+03 -0.13626503997E+03 -0.74329310217E+03  0.10497261257E+04  0.46999998093E+01 0. -1.
</event>
<event>
 5   0  0.1015327E-05  0.2138415E+04  0.7818609E-02  0.8544508E-01
       -1   -1    0    0    0  501  0.00000000000E+00  0.00000000000E+00  0.10732175834E+04  0.10732175834E+04  0.50400001928E-02 0.  1.
        1   -1    0    0  501    0  0.00000000000E+00  0.00000000000E+00 -0.10652119050E+04  0.10652119050E+04  0.50400001928E-02 0. -1.
    10030    2    1    2    0    0  0.00000000000E+00  0.00000000000E+00  0.80056783537E+01  0.21384294885E+04  0.21384145029E+04 0.  0.
        4    1    3    3  502    0 -0.94975951115E+03 -0.45534784055E+03  0.18790015485E+03  0.10699032040E+04  0.12699999809E+01 0. -1.
       -4    1    3    3    0  502  0.94975951115E+03  0.45534784055E+03 -0.17989447650E+03  0.10685262844E+04  0.12699999809E+01 0.  1.
</event>
<event>
 5   0  0.1008073E-05  0.2288712E+04  0.7818609E-02  0.8482385E-01
        1   -1    0    0  501    0  0.00000000000E+00  0.00000000000E+00  0.12675267965E+04  0.12675267965E+04  0.50400001928E-02 0. -1.
       -1   -1    0    0    0  501  0.00000000000E+00  0.00000000000E+00 -0.10331542615E+04  0.10331542615E+04  0.50400001928E-02 0.  1.
    10030    2    1    2    0    0  0.00000000000E+00  0.00000000000E+00  0.23437253501E+03  0.23006810579E+04  0.22887120494E+04 0.  0.
        1    1    3    3  502    0  0.44776700118E+03  0.34897221865E+03 -0.88162646508E+03  0.10485905401E+04  0.50400001928E-02 0.  1.
       -1    1    3    3    0  502 -0.44776700118E+03 -0.34897221865E+03  0.11159990001E+04  0.12520905179E+04  0.50400001928E-02 0. -1.
</event>
<event>
 5   0  0.1008073E-05  0.2493389E+04  0.7818609E-02  0.8405344E-01
        1   -1    0    0  501    0  0.00000000000E+00  0.00000000000E+00  0.25239953308E+04  0.25239953308E+04  0.50400001928E-02 0.  1.
       -1   -1    0    0    0  501  0.00000000000E+00  0.00000000000E+00 -0.61578855827E+03  0.61578855829E+03  0.50400001928E-02 0. -1.
    10030    2    1    2    0    0  0.00000000000E+00  0.00000000000E+00  0.19082067725E+04  0.31397838891E+04  0.24933892162E+04 0.  0.
        1    1    3    3  502    0 -0.29834856890E+03  0.94124627315E+03 -0.43214998189E+01  0.98740826949E+03  0.50400001928E-02 0. -1.
       -1    1    3    3    0  502  0.29834856890E+03 -0.94124627315E+03  0.19125282723E+04  0.21523756196E+04  0.50400001928E-02 0.  1.
</event>
<event>
 5   0  0.1008073E-05  0.2498769E+04  0.7818609E-02  0.8403424E-01
       -1   -1    0    0    0  501  0.00000000000E+00  0.00000000000E+00  0.11442011810E+04  0.11442011810E+04  0.50400001928E-02 0.  1.
        1   -1    0    0  501    0  0.00000000000E+00  0.00000000000E+00 -0.13642370431E+04  0.13642370431E+04  0.50400001928E-02 0. -1.
    10030    2    1    2    0    0  0.00000000000E+00  0.00000000000E+00 -0.22003586210E+03  0.25084382241E+04  0.24987690056E+04 0.  0.
        1    1    3    3  502    0  0.12653964149E+03  0.10623310472E+04  0.53777134747E+03  0.11973961570E+04  0.50400001928E-02 0.  1.
       -1    1    3    3    0  502 -0.12653964149E+03 -0.10623310472E+04 -0.75780720957E+03  0.13110420670E+04  0.50400001928E-02 0. -1.
</event>
<event>
 5   0  0.1010338E-05  0.2537739E+04  0.7818609E-02  0.8389663E-01
       -1   -1    0    0    0  501  0.00000000000E+00  0.00000000000E+00  0.70286070883E+03  0.70286070884E+03  0.50400001928E-02 0.  1.
        1   -1    0    0  501    0  0.00000000000E+00  0.00000000000E+00 -0.22906806754E+04  0.22906806754E+04  0.50400001928E-02 0. -1.
    10030    2    1    2    0    0  0.00000000000E+00  0.00000000000E+00 -0.15878199666E+04  0.29935413843E+04  0.25377387125E+04 0.  0.
        2    1    3    3  502    0 -0.78117954352E+03 -0.21986731410E+03 -0.19445262483E+04  0.21070750925E+04  0.25500000920E-02 0. -1.
       -2    1    3    3    0  502  0.78117954352E+03  0.21986731410E+03  0.35670628173E+03  0.88646629177E+03  0.25500000920E-02 0.  1.
</event>
<event>
 5   0  0.1002753E-05  0.2530330E+04  0.7818609E-02  0.8392259E-01
       -1   -1    0    0    0  501  0.00000000000E+00  0.00000000000E+00  0.16284801321E+04  0.16284801321E+04  0.50400001928E-02 0. -1.
        1   -1    0    0  501    0  0.00000000000E+00  0.00000000000E+00 -0.98290540728E+03  0.98290540729E+03  0.50400001928E-02 0.  1.
    10030    2    1    2    0    0  0.00000000000E+00  0.00000000000E+00  0.64557472481E+03  0.26113855394E+04  0.25303295655E+04 0.  0.
        5    1    3    3  502    0 -0.21821545391E+03 -0.49788065916E+03 -0.85622559675E+03  0.10142226075E+04  0.46999998093E+01 0.  1.
       -5    1    3    3    0  502  0.21821545391E+03  0.49788065916E+03  0.15018003216E+04  0.15971629319E+04  0.46999998093E+01 0. -1.
</event>
<event>
 5   0  0.2441340E-05  0.2532713E+04  0.7818609E-02  0.8391423E-01
        2   -1    0    0  501    0  0.00000000000E+00  0.00000000000E+00  0.92306308339E+03  0.92306308340E+03  0.25500000920E-02 0.  1.
       -2   -1    0    0    0  501  0.00000000000E+00  0.00000000000E+00 -0.17373232929E+04  0.17373232929E+04  0.25500000920E-02 0. -1.
    10030    2    1    2    0    0  0.00000000000E+00  0.00000000000E+00 -0.81426020946E+03  0.26603863763E+04  0.25327131662E+04 0.  0.
        3    1    3    3  502    0  0.61683116675E+03  0.10905508160E+04 -0.60046602776E+03  0.13893672053E+04  0.10100000352E+00 0.  1.
       -3    1    3    3    0  502 -0.61683116675E+03 -0.10905508160E+04 -0.21379418171E+03  0.12710191709E+04  0.10100000352E+00 0. -1.
</event>
<event>
 5   0  0.1039688E-05  0.2408574E+04  0.7818609E-02  0.8436301E-01
       -1   -1    0    0    0  501  0.00000000000E+00  0.00000000000E+00  0.11980264981E+04  0.11980264981E+04  0.50400001928E-02 0.  1.
        1   -1    0    0  501    0  0.00000000000E+00  0.00000000000E+00 -0.12105797775E+04  0.12105797775E+04  0.50400001928E-02 0. -1.
    10030    2    1    2    0    0  0.00000000000E+00  0.00000000000E+00 -0.12553279436E+02  0.24086062757E+04  0.24085735626E+04 0.  0.
        3    1    3    3  502    0  0.57519506144E+03  0.27766246598E+03 -0.10272512488E+04  0.12096242979E+04  0.10100000352E+00 0. -1.
       -3    1    3    3    0  502 -0.57519506144E+03 -0.27766246598E+03  0.10146979694E+04  0.11989819778E+04  0.10100000352E+00 0.  1.
</event>
<event>
 5   0  0.1010338E-05  0.2503972E+04  0.7818609E-02  0.8401572E-01
        1   -1    0    0  501    0  0.00000000000E+00  0.00000000000E+00  0.22877637678E+04  0.22877637678E+04  0.50400001928E-02 0. -1.
       -1   -1    0    0    0  501  0.00000000000E+00  0.00000000000E+00 -0.68515323239E+03  0.68515323241E+03  0.50400001928E-02 0.  1.
    10030    2    1    2    0    0  0.00000000000E+00  0.00000000000E+00  0.16026105354E+04  0.29729170002E+04  0.25039718373E+04 0.  0.
        2    1    3    3  502    0  0.33470489011E+03 -0.12032164377E+04  0.69704350621E+03  0.14302541064E+04  0.25500000920E-02 0.  1.
       -2    1    3    3    0  502 -0.33470489011E+03  0.12032164377E+04  0.90556702918E+03  0.15426628938E+04  0.25500000920E-02 0. -1.
</event>
<event>
 5   0  0.2345143E-05  0.2456863E+04  0.7818609E-02  0.8418516E-01
       -2   -1    0    0    0  501  0.00000000000E+00  0.00000000000E+00  0.16719211293E+04  0.16719211293E+04  0.25500000920E-02 0.  1.
        2   -1    0    0  501    0  0.00000000000E+00  0.00000000000E+00 -0.90258112405E+03  0.90258112405E+03  0.25500000920E-02 0. -1.
    10030    2    1    2    0    0  0.00000000000E+00  0.00000000000E+00  0.76934000529E+03  0.25745022534E+04  0.24568634087E+04 0.  0.
        5    1    3    3  502    0  0.85246536941E+03  0.10903002374E+03 -0.53510372826E+03  0.10123946079E+04  0.46999998093E+01 0. -1.
       -5    1    3    3    0  502 -0.85246536941E+03 -0.10903002374E+03  0.13044437336E+04  0.15621076455E+04  0.46999998093E+01 0.  1.
</event>
<event>
 5   0  0.2441340E-05  0.2511134E+04  0.7818609E-02  0.8399030E-01
        2   -1    0    0  501    0  0.00000000000E+00  0.00000000000E+00  0.14875306654E+04  0.14875306654E+04  0.25500000920E-02 0. -1.
       -2   -1    0    0    0  501  0.00000000000E+00  0.00000000000E+00 -0.10597757545E+04  0.10597757545E+04  0.25500000920E-02 0.  1.
    10030    2    1    2    0    0  0.00000000000E+00  0.00000000000E+00  0.42775491097E+03  0.25473064199E+04  0.25111343518E+04 0.  0.
        3    1    3    3  502    0  0.16980396160E+03  0.94769333714E+02 -0.10444073359E+04  0.10623564870E+04  0.10100000352E+00 0.  1.
       -3    1    3    3    0  502 -0.16980396160E+03 -0.94769333714E+02  0.14721622469E+04  0.14849499329E+04  0.10100000352E+00 0. -1.
</event>
<event>
 5   0  0.1008073E-05  0.2493500E+04  0.7818609E-02  0.8405305E-01
       -1   -1    0    0    0  501  0.00000000000E+00  0.00000000000E+00  0.66822163287E+03  0.66822163289E+03  0.50400001928E-02 0. -1.
        1   -1    0    0  501    0  0.00000000000E+00  0.00000000000E+00 -0.23261528664E+04  0.23261528665E+04  0.50400001928E-02 0.  1.
    10030    2    1    2    0    0  0.00000000000E+00  0.00000000000E+00 -0.16579312336E+04  0.29943744993E+04  0.24935000836E+04 0.  0.
        1    1    3    3  502    0  0.21710234751E+03  0.38610549861E+02  0.64461811214E+03  0.68129047724E+03  0.50400001928E-02 0. -1.
       -1    1    3    3    0  502 -0.21710234751E+03 -0.38610549861E+02 -0.23025493457E+04  0.23130840221E+04  0.50400001928E-02 0.  1.
</event>
<event>
 5   0  0.2432309E-05  0.2568319E+04  0.7818609E-02  0.8379043E-01
       -2   -1    0    0    0  501  0.00000000000E+00  0.00000000000E+00  0.10654842635E+04  0.10654842635E+04  0.25500000920E-02 0.  1.
        2   -1    0    0  501    0  0.00000000000E+00  0.00000000000E+00 -0.15477150668E+04  0.15477150668E+04  0.25500000920E-02 0. -1.
    10030    2    1    2    0    0  0.00000000000E+00  0.00000000000E+00 -0.48223080326E+03  0.26131993303E+04  0.25683193322E+04 0.  0.
        4    1    3    3  502    0 -0.17131048138E+03  0.12236564901E+04 -0.59705982977E+03  0.13722844239E+04  0.12699999809E+01 0. -1.
       -4    1    3    3    0  502  0.17131048138E+03 -0.12236564901E+04  0.11482902650E+03  0.12409149064E+04  0.12699999809E+01 0.  1.
</event>
<event>
 5   0  0.2452457E-05  0.2508496E+04  0.7818609E-02  0.8399965E-01
       -2   -1    0    0    0  501  0.00000000000E+00  0.00000000000E+00  0.13050629277E+04  0.13050629277E+04  0.25500000920E-02 0.  1.
        2   -1    0    0  501    0  0.00000000000E+00  0.00000000000E+00 -0.12054115033E+04  0.12054115033E+04  0.25500000920E-02 0. -1.
    10030    2    1    2    0    0  0.00000000000E+00  0.00000000000E+00  0.99651424363E+02  0.25104744310E+04  0.25084958565E+04 0.  0.
        1    1    3    3  502    0  0.99907945954E+03  0.96396036292E+01  0.80863557989E+03  0.12853576115E+04  0.50400001928E-02 0.  1.
       -1    1    3    3    0  502 -0.99907945954E+03 -0.96396036292E+01 -0.70898415553E+03  0.12251168194E+04  0.50400001928E-02 0. -1.
</event>
<event>
 5   0  0.2441340E-05  0.2491708E+04  0.7818609E-02  0.8405946E-01
        2   -1    0    0  501    0  0.00000000000E+00  0.00000000000E+00  0.15624366256E+04  0.15624366256E+04  0.25500000920E-02 0.  1.
       -2   -1    0    0    0  501  0.00000000000E+00  0.00000000000E+00 -0.99341745590E+03  0.99341745590E+03  0.25500000920E-02 0. -1.
    10030    2    1    2    0    0  0.00000000000E+00  0.00000000000E+00  0.56901916969E+03  0.25558540815E+04  0.24917077016E+04 0.  0.
        3    1    3    3  502    0 -0.42200059899E+03 -0.56910935028E+03  0.13356753664E+04  0.15119519346E+04  0.10100000352E+00 0.  1.
       -3    1    3    3    0  502  0.42200059899E+03  0.56910935028E+03 -0.76665619667E+03  0.10439021469E+04  0.10100000352E+00 0. -1.
</event>
<event>
 5   0  0.1002753E-05  0.2469442E+04  0.7818609E-02  0.8413954E-01
        1   -1    0    0  501    0  0.00000000000E+00  0.00000000000E+00  0.18182116014E+04  0.18182116014E+04  0.50400001928E-02 0. -1.
       -1   -1    0    0    0  501  0.00000000000E+00  0.00000000000E+00 -0.83848084381E+03  0.83848084383E+03  0.50400001928E-02 0.  1.
    10030    2    1    2    0    0  0.00000000000E+00  0.00000000000E+00  0.97973075760E+03  0.26566924452E+04  0.24694417165E+04 0.  0.
        5    1    3    3  502    0  0.73136118099E+03  0.98873285156E+03  0.37185896333E+03  0.12848280069E+04  0.46999998093E+01 0. -1.
       -5    1    3    3    0  502 -0.73136118099E+03 -0.98873285156E+03  0.60787179427E+03  0.13718644383E+04  0.46999998093E+01 0.  1.
</event>
<event>
 5   0  0.1010338E-05  0.2419521E+04  0.7818609E-02  0.8432231E-01
       -1   -1    0    0    0  501  0.00000000000E+00  0.00000000000E+00  0.15065598046E+04  0.15065598046E+04  0.50400001928E-02 0. -1.
        1   -1    0    0  501    0  0.00000000000E+00  0.00000000000E+00 -0.97143223743E+03  0.97143223744E+03  0.50400001928E-02 0.  1.
    10030    2    1    2    0    0  0.00000000000E+00  0.00000000000E+00  0.53512756717E+03  0.24779920421E+04  0.24195212434E+04 0.  0.
        2    1    3    3  502    0 -0.67192565298E+03  0.54723208045E+03  0.11321043398E+04  0.14256953634E+04  0.25500000920E-02 0. -1.
       -2    1    3    3    0  502  0.67192565298E+03 -0.54723208045E+03 -0.59697677258E+03  0.10522966787E+04  0.25500000920E-02 0.  1.
</event>
<event>
 5   0  0.1039688E-05  0.2515600E+04  0.7818609E-02  0.8397449E-01
       -1   -1    0    0    0  501  0.00000000000E+00  0.00000000000E+00  0.79179378721E+03  0.79179378722E+03  0.50400001928E-02 0. -1.
        1   -1    0    0  501    0  0.00000000000E+00  0.00000000000E+00 -0.19980720603E+04  0.19980720603E+04  0.50400001928E-02 0.  1.
    10030    2    1    2    0    0  0.00000000000E+00  0.00000000000E+00 -0.12062782731E+04  0.27898658475E+04  0.25156001620E+04 0.  0.
        3    1    3    3  502    0  0.33589778110E+03  0.12053892263E+04 -0.74460202432E+03  0.14560984483E+04  0.10100000352E+00 0.  1.
       -3    1    3    3    0  502 -0.33589778110E+03 -0.12053892263E+04 -0.46167624875E+03  0.13337673992E+04  0.10100000352E+00 0. -1.
</event>
<event>
 5   0  0.2388326E-05  0.2457795E+04  0.7818609E-02  0.8418178E-01
        2   -1    0    0  501    0  0.00000000000E+00  0.00000000000E+00  0.66979050922E+03  0.66979050922E+03  0.25500000920E-02 0.  1.
       -2   -1    0    0    0  501  0.00000000000E+00  0.00000000000E+00 -0.22547177612E+04  0.22547177612E+04  0.25500000920E-02 0. -1.
    10030    2    1    2    0    0  0.00000000000E+00  0.00000000000E+00 -0.15849272520E+04  0.29245082705E+04  0.24577945866E+04 0.  0.
        2    1    3    3  502    0 -0.29617689558E+03 -0.47416320056E+03 -0.20946402186E+04  0.21679642846E+04  0.25500000920E-02 0. -1.
       -2    1    3    3    0  502  0.29617689558E+03  0.47416320056E+03  0.50971296653E+03  0.75654398583E+03  0.25500000920E-02 0.  1.
</event>
<event>
 5   0  0.2432309E-05  0.2576565E+04  0.7818609E-02  0.8376205E-01
       -2   -1    0    0    0  501  0.00000000000E+00  0.00000000000E+00  0.78411177318E+03  0.78411177319E+03  0.25500000920E-02 0.  1.
        2   -1    0    0  501    0  0.00000000000E+00  0.00000000000E+00 -0.21166266658E+04  0.21166266658E+04  0.25500000920E-02 0. -1.
    10030    2    1    2    0    0  0.00000000000E+00  0.00000000000E+00 -0.13325148926E+04  0.29007384390E+04  0.25765650685E+04 0.  0.
        4    1    3    3  502    0  0.97149436169E+03 -0.42936543078E+03 -0.14870339871E+04  0.18274100962E+04  0.12699999809E+01 0. -1.
       -4    1    3    3    0  502 -0.97149436169E+03  0.42936543078E+03  0.15451909452E+03  0.10733283428E+04  0.12699999809E+01 0.  1.
</event>
<event>
 5   0  0.1010338E-05  0.2503104E+04  0.7818609E-02  0.8401881E-01
        1   -1    0    0  501    0  0.00000000000E+00  0.00000000000E+00  0.18543387253E+04  0.18543387253E+04  0.50400001928E-02 0. -1.
       -1   -1    0    0    0  501  0.00000000000E+00  0.00000000000E+00 -0.84471206125E+03  0.84471206127E+03  0.50400001928E-02 0.  1.
    10030    2    1    2    0    0  0.00000000000E+00  0.00000000000E+00  0.10096266640E+04  0.26990507865E+04  0.25031039027E+04 0.  0.
        2    1    3    3  502    0 -0.67071185559E+03 -0.30415566198E+03  0.15959667328E+04  0.17576902094E+04  0.25500000920E-02 0. -1.
       -2    1    3    3    0  502  0.67071185559E+03  0.30415566198E+03 -0.58634006879E+03  0.94136057715E+03  0.25500000920E-02 0.  1.
</event>
<event>
 5   0  0.1002753E-05  0.2488607E+04  0.7818609E-02  0.8407056E-01
       -1   -1    0    0    0  501  0.00000000000E+00  0.00000000000E+00  0.86695069515E+03  0.86695069517E+03  0.50400001928E-02 0.  1.
        1   -1    0    0  501    0  0.00000000000E+00  0.00000000000E+00 -0.17859039917E+04  0.17859039917E+04  0.50400001928E-02 0. -1.
    10030    2    1    2    0    0  0.00000000000E+00  0.00000000000E+00 -0.91895329651E+03  0.26528546868E+04  0.24886066038E+04 0.  0.
        5    1    3    3  502    0  0.60951654815E+02 -0.12341251880E+04 -0.30321205096E+03  0.12722970258E+04  0.46999998093E+01 0.  1.
       -5    1    3    3    0  502 -0.60951654815E+02  0.12341251880E+04 -0.61574124556E+03  0.13805576610E+04  0.46999998093E+01 0. -1.
</event>
<event>
 5   0  0.1010338E-05  0.2483477E+04  0.7818609E-02  0.8408896E-01
       -1   -1    0    0    0  501  0.00000000000E+00  0.00000000000E+00  0.12089414665E+04  0.12089414665E+04  0.50400001928E-02 0. -1.
        1   -1    0    0  501    0  0.00000000000E+00  0.00000000000E+00 -0.12754250580E+04  0.12754250580E+04  0.50400001928E-02 0.  1.
    10030    2    1    2    0    0  0.00000000000E+00  0.00000000000E+00 -0.66483591433E+02  0.24843665245E+04  0.24834767887E+04 0.  0.
        2    1    3    3  502    0 -0.71256826481E+03 -0.39262449724E+03 -0.97166460626E+03  0.12672961907E+04  0.25500000920E-02 0.  1.
       -2    1    3    3    0  502  0.71256826481E+03  0.39262449724E+03  0.90518101483E+03  0.12170703338E+04  0.25500000920E-02 0. -1.
</event>
<event>
 5   0  0.2388326E-05  0.2546379E+04  0.7818609E-02  0.8386647E-01
       -2   -1    0    0    0  501  0.00000000000E+00  0.00000000000E+00  0.64121945096E+03  0.64121945096E+03  0.25500000920E-02 0.  1.
        2   -1    0    0  501    0  0.00000000000E+00  0.00000000000E+00 -0.25280141673E+04  0.25280141673E+04  0.25500000920E-02 0. -1.
    10030    2    1    2    0    0  0.00000000000E+00  0.00000000000E+00 -0.18867947163E+04  0.31692336182E+04  0.25463792776E+04 0.  0.
        2    1    3    3  502    0 -0.91277723178E+03  0.77256094305E+03 -0.39946248479E+03  0.12607866443E+04  0.25500000920E-02 0.  1.
       -2    1    3    3    0  502  0.91277723178E+03 -0.77256094305E+03 -0.14873322315E+04  0.19084469740E+04  0.25500000920E-02 0. -1.
</event>
<event>
 5   0  0.2441340E-05  0.2406497E+04  0.7818609E-02  0.8437075E-01
       -2   -1    0    0    0  501  0.00000000000E+00  0.00000000000E+00  0.11400489329E+04  0.11400489329E+04  0.25500000920E-02 0. -1.
        2   -1    0    0  501    0  0.00000000000E+00  0.00000000000E+00 -0.12699514476E+04  0.12699514476E+04  0.25500000920E-02 0.  1.
    10030    2    1    2    0    0  0.00000000000E+00  0.00000000000E+00 -0.12990251467E+03  0.24100003805E+04  0.24064968670E+04 0.  0.
        3    1    3    3  502    0 -0.60499106596E+02 -0.67434074974E+03 -0.10610908921E+04  0.12586935608E+04  0.10100000352E+00 0.  1.
       -3    1    3    3    0  502  0.60499106596E+02  0.67434074974E+03  0.93118837741E+03  0.11513068197E+04  0.10100000352E+00 0. -1.
</event>
<event>
 5   0  0.2388326E-05  0.2489962E+04  0.7818609E-02  0.8406570E-01
       -2   -1    0    0    0  501  0.00000000000E+00  0.00000000000E+00  0.65603286569E+03  0.65603286569E+03  0.25500000920E-02 0.  1.
        2   -1    0    0  501    0  0.00000000000E+00  0.00000000000E+00 -0.23626520797E+04  0.23626520797E+04  0.25500000920E-02 0. -1.
    10030    2    1    2    0    0  0.00000000000E+00  0.00000000000E+00 -0.17066192141E+04  0.30186849454E+04  0.24899617784E+04 0.  0.
        2    1    3    3  502    0 -0.11647798013E+04 -0.43729927865E+03 -0.79862277738E+03  0.14784251707E+04  0.25500000920E-02 0.  1.
       -2    1    3    3    0  502  0.11647798013E+04  0.43729927865E+03 -0.90799643667E+03  0.15402597748E+04  0.25500000920E-02 0. -1.
</event>
<event>
 5   0  0.1039688E-05  0.2488976E+04  0.7818609E-02  0.8406923E-01
        1   -1    0    0  501    0  0.00000000000E+00  0.00000000000E+00  0.18857773720E+04  0.18857773720E+04  0.50400001928E-02 0.  1.
       -1   -1    0    0    0  501  0.00000000000E+00  0.00000000000E+00 -0.82127966796E+03  0.82127966797E+03  0.50400001928E-02 0. -1.
    10030    2    1    2    0    0  0.00000000000E+00  0.00000000000E+00  0.10644977040E+04  0.27070570399E+04  0.24889761862E+04 0.  0.
        3    1    3    3  502    0 -0.17364439621E+03  0.71733470610E+03  0.16220564354E+04  0.17820742260E+04  0.10100000352E+00 0.  1.
       -3    1    3    3    0  502  0.17364439621E+03 -0.71733470610E+03 -0.55755873145E+03  0.92498281396E+03  0.10100000352E+00 0. -1.
</event>
<event>
 5   0  0.1002753E-05  0.2291131E+04  0.7818609E-02  0.8481426E-01
        1   -1    0    0  501    0  0.00000000000E+00  0.00000000000E+00  0.19424707515E+04  0.19424707515E+04  0.50400001928E-02 0.  1.
       -1   -1    0    0    0  501  0.00000000000E+00  0.00000000000E+00 -0.67559344027E+03  0.67559344029E+03  0.50400001928E-02 0. -1.
    10030    2    1    2    0    0  0.00000000000E+00  0.00000000000E+00  0.12668773112E+04  0.26180641918E+04  0.22911311596E+04 0.  0.
        5    1    3    3  502    0 -0.36996956979E+02 -0.85397664731E+03  0.15049288776E+04  0.17307448991E+04  0.46999998093E+01 0.  1.
       -5    1    3    3    0  502  0.36996956979E+02  0.85397664731E+03 -0.23805156639E+03  0.88731929272E+03  0.46999998093E+01 0. -1.
</event>
<event>
 5   0  0.2345143E-05  0.2496579E+04  0.7818609E-02  0.8404205E-01
        2   -1    0    0  501    0  0.00000000000E+00  0.00000000000E+00  0.10090588211E+04  0.10090588211E+04  0.25500000920E-02 0. -1.
       -2   -1    0    0    0  501  0.00000000000E+00  0.00000000000E+00 -0.15442372537E+04  0.15442372537E+04  0.25500000920E-02 0.  1.
    10030    2    1    2    0    0  0.00000000000E+00  0.00000000000E+00 -0.53517843261E+03  0.25532960748E+04  0.24965786370E+04 0.  0.
        5    1    3    3  502    0  0.54777158824E+03 -0.10957349968E+04 -0.22317549463E+02  0.12252383683E+04  0.46999998093E+01 0. -1.
       -5    1    3    3    0  502 -0.54777158824E+03  0.10957349968E+04 -0.51286088314E+03  0.13280577064E+04  0.46999998093E+01 0.  1.
</event>
<event>
 5   0  0.1002753E-05  0.2486461E+04  0.7818609E-02  0.8407825E-01
        1   -1    0    0  501    0  0.00000000000E+00  0.00000000000E+00  0.17048248778E+04  0.17048248778E+04  0.50400001928E-02 0.  1.
       -1   -1    0    0    0  501  0.00000000000E+00  0.00000000000E+00 -0.90661632695E+03  0.90661632697E+03  0.50400001928E-02 0. -1.
    10030    2    1    2    0    0  0.00000000000E+00  0.00000000000E+00  0.79820855083E+03  0.26114412048E+04  0.24864609941E+04 0.  0.
        5    1    3    3  502    0 -0.63701750475E+03  0.10385774680E+04  0.13935643868E+03  0.12263265329E+04  0.46999998093E+01 0. -1.
       -5    1    3    3    0  502  0.63701750475E+03 -0.10385774680E+04  0.65885211215E+03  0.13851146718E+04  0.46999998093E+01 0.  1.
</event>
<event>
 5   0  0.1010338E-05  0.2591671E+04  0.7818609E-02  0.8371036E-01
       -1   -1    0    0    0  501  0.00000000000E+00  0.00000000000E+00  0.11020483363E+04  0.11020483363E+04  0.50400001928E-02 0. -1.
        1   -1    0    0  501    0  0.00000000000E+00  0.00000000000E+00 -0.15236982865E+04  0.15236982865E+04  0.50400001928E-02 0.  1.
    10030    2    1    2    0    0  0.00000000000E+00  0.00000000000E+00 -0.42164995022E+03  0.26257466228E+04  0.25916706285E+04 0.  0.
        2    1    3    3  502    0  0.55354325279E+03 -0.11703998772E+04 -0.15586080536E+03  0.13040470068E+04  0.25500000920E-02 0.  1.
       -2    1    3    3    0  502 -0.55354325279E+03  0.11703998772E+04 -0.26578914486E+03  0.13216996160E+04  0.25500000920E-02 0. -1.
</event>
<event>
 5   0  0.2345143E-05  0.2493275E+04  0.7818609E-02  0.8405385E-01
        2   -1    0    0  501    0  0.00000000000E+00  0.00000000000E+00  0.14342623441E+04  0.14342623441E+04  0.25500000920E-02 0. -1.
       -2   -1    0    0    0  501  0.00000000000E+00  0.00000000000E+00 -0.10835567586E+04  0.10835567586E+04  0.25500000920E-02 0.  1.
    10030    2    1    2    0    0  0.00000000000E+00  0.00000000000E+00  0.35070558553E+03  0.25178191027E+04  0.24932746793E+04 0.  0.
        5    1    3    3  502    0  0.66748320717E+03 -0.90664669560E+03 -0.36521156624E+03  0.11836146504E+04  0.46999998093E+01 0.  1.
       -5    1    3    3    0  502 -0.66748320717E+03  0.90664669560E+03  0.71591715177E+03  0.13342044524E+04  0.46999998093E+01 0. -1.
</event>
<event>
 5   0  0.1008073E-05  0.2480925E+04  0.7818609E-02  0.8409813E-01
       -1   -1    0    0    0  501  0.00000000000E+00  0.00000000000E+00  0.72349832187E+03  0.72349832189E+03  0.50400001928E-02 0. -1.
        1   -1    0    0  501    0  0.00000000000E+00  0.00000000000E+00 -0.21268146993E+04  0.21268146994E+04  0.50400001928E-02 0.  1.
    10030    2    1    2    0    0  0.00000000000E+00  0.00000000000E+00 -0.14033163775E+04  0.28503130212E+04  0.24809247195E+04 0.  0.
        1    1    3    3  502    0 -0.61394981709E+03 -0.59723021734E+03  0.32923005152E+03  0.91761143044E+03  0.50400001928E-02 0. -1.
       -1    1    3    3    0  502  0.61394981709E+03  0.59723021734E+03 -0.17325464290E+04  0.19327015908E+04  0.50400001928E-02 0.  1.
</event>
<event>
 5   0  0.2441340E-05  0.2448319E+04  0.7818609E-02  0.8421632E-01
       -2   -1    0    0    0  501  0.00000000000E+00  0.00000000000E+00  0.10544572218E+04  0.10544572218E+04  0.25500000920E-02 0.  1.
        2   -1    0    0  501    0  0.00000000000E+00  0.00000000000E+00 -0.14211734921E+04  0.14211734921E+04  0.25500000920E-02 0. -1.
    10030    2    1    2    0    0  0.00000000000E+00  0.00000000000E+00 -0.36671627028E+03  0.24756307139E+04  0.24483191394E+04 0.  0.
        3    1    3    3  502    0 -0.81338194950E+02  0.51802256843E+03  0.93514746966E+03  0.10721306280E+04  0.10100000352E+00 0.  1.
       -3    1    3    3    0  502  0.81338194950E+02 -0.51802256843E+03 -0.13018637399E+04  0.14035000858E+04  0.10100000352E+00 0. -1.
</event>
<event>
 5   0  0.2452457E-05  0.2548899E+04  0.7818609E-02  0.8385769E-01
        2   -1    0    0  501    0  0.00000000000E+00  0.00000000000E+00  0.84091073828E+03  0.84091073829E+03  0.25500000920E-02 0. -1.
       -2   -1    0    0    0  501  0.00000000000E+00  0.00000000000E+00 -0.19315025027E+04  0.19315025027E+04  0.25500000920E-02 0.  1.
    10030    2    1    2    0    0  0.00000000000E+00  0.00000000000E+00 -0.10905917644E+04  0.27724132410E+04  0.25488987391E+04 0.  0.
        1    1    3    3  502    0 -0.69165232653E+03 -0.14979022573E+03 -0.16981459053E+04  0.18397063810E+04  0.50400001928E-02 0.  1.
       -1    1    3    3    0  502  0.69165232653E+03  0.14979022573E+03  0.60755414090E+03  0.93270685999E+03  0.50400001928E-02 0. -1.
</event>
<event>
 5   0  0.2441340E-05  0.2520063E+04  0.7818609E-02  0.8395873E-01
       -2   -1    0    0    0  501  0.00000000000E+00  0.00000000000E+00  0.17390883416E+04  0.17390883416E+04  0.25500000920E-02 0. -1.
        2   -1    0    0  501    0  0.00000000000E+00  0.00000000000E+00 -0.91293741804E+03  0.91293741804E+03  0.25500000920E-02 0.  1.
    10030    2    1    2    0    0  0.00000000000E+00  0.00000000000E+00  0.82615092357E+03  0.26520257597E+04  0.25200625550E+04 0.  0.
        3    1    3    3  502    0 -0.41563866711E+03 -0.72557604530E+03 -0.57886594475E+03  0.10170063379E+04  0.10100000352E+00 0.  1.
       -3    1    3    3    0  502  0.41563866711E+03  0.72557604530E+03  0.14050168683E+04  0.16350194218E+04  0.10100000352E+00 0. -1.
</event>
<event>
 5   0  0.1010338E-05  0.2521716E+04  0.7818609E-02  0.8395290E-01
       -1   -1    0    0    0  501  0.00000000000E+00  0.00000000000E+00  0.15321550540E+04  0.15321550540E+04  0.50400001928E-02 0.  1.
        1   -1    0    0  501    0  0.00000000000E+00  0.00000000000E+00 -0.10375989896E+04  0.10375989897E+04  0.50400001928E-02 0. -1.
    10030    2    1    2    0    0  0.00000000000E+00  0.00000000000E+00  0.49455606438E+03  0.25697540437E+04  0.25217157144E+04 0.  0.
        2    1    3    3  502    0 -0.42774074309E+03  0.19452101645E+03 -0.94503728882E+03  0.10554127375E+04  0.25500000920E-02 0. -1.
       -2    1    3    3    0  502  0.42774074309E+03 -0.19452101645E+03  0.14395933532E+04  0.15143413062E+04  0.25500000920E-02 0.  1.
</event>
<event>
 5   0  0.2432309E-05  0.2503344E+04  0.7818609E-02  0.8401795E-01
       -2   -1    0    0    0  501  0.00000000000E+00  0.00000000000E+00  0.71090731764E+03  0.71090731764E+03  0.25500000920E-02 0. -1.
        2   -1    0    0  501    0  0.00000000000E+00  0.00000000000E+00 -0.22037796125E+04  0.22037796125E+04  0.25500000920E-02 0.  1.
    10030    2    1    2    0    0  0.00000000000E+00  0.00000000000E+00 -0.14928722949E+04  0.29146869302E+04  0.25033442057E+04 0.  0.
        4    1    3    3  502    0 -0.60295886008E+03 -0.99704742203E+03 -0.21412728174E+03  0.11847004070E+04  0.12699999809E+01 0. -1.
       -4    1    3    3    0  502  0.60295886008E+03  0.99704742203E+03 -0.12787450132E+04  0.17299865232E+04  0.12699999809E+01 0.  1.
</event>
<event>
 5   0  0.1002753E-05  0.2538904E+04  0.7818609E-02  0.8389256E-01
        1   -1    0    0  501    0  0.00000000000E+00  0.00000000000E+00  0.27277631876E+04  0.27277631876E+04  0.50400001928E-02 0. -1.
       -1   -1    0    0    0  501  0.00000000000E+00  0.00000000000E+00 -0.59077998278E+03  0.59077998280E+03  0.50400001928E-02 0.  1.
    10030    2    1    2    0    0  0.00000000000E+00  0.00000000000E+00  0.21369832048E+04  0.33185431704E+04  0.25389036130E+04 0.  0.
        5    1    3    3  502    0  0.11773689561E+04 -0.21660933262E+03  0.51646452140E+03  0.13037925270E+04  0.46999998093E+01 0. -1.
       -5    1    3    3    0  502 -0.11773689561E+04  0.21660933262E+03  0.16205186834E+04  0.20147506433E+04  0.46999998093E+01 0.  1.
</event>
<event>
 5   0  0.1010338E-05  0.2490961E+04  0.7818609E-02  0.8406213E-01
        1   -1    0    0  501    0  0.00000000000E+00  0.00000000000E+00  0.24902774937E+04  0.24902774937E+04  0.50400001928E-02 0.  1.
       -1   -1    0    0    0  501  0.00000000000E+00  0.00000000000E+00 -0.62291096825E+03  0.62291096827E+03  0.50400001928E-02 0. -1.
    10030    2    1    2    0    0  0.00000000000E+00  0.00000000000E+00  0.18673665254E+04  0.31131884619E+04  0.24909605897E+04 0.  0.
        2    1    3    3  502    0  0.37494477892E+03 -0.11820724745E+04  0.78932123556E+03  0.14700023589E+04  0.25500000920E-02 0.  1.
       -2    1    3    3    0  502 -0.37494477892E+03  0.11820724745E+04  0.10780452898E+04  0.16431861030E+04  0.25500000920E-02 0. -1.
</event>
<event>
 5   0  0.1010338E-05  0.2510025E+04  0.7818609E-02  0.8399423E-01
       -1   -1    0    0    0  501  0.00000000000E+00  0.00000000000E+00  0.74508588490E+03  0.74508588492E+03  0.50400001928E-02 0. -1.
        1   -1    0    0  501    0  0.00000000000E+00  0.00000000000E+00 -0.21139252194E+04  0.21139252194E+04  0.50400001928E-02 0.  1.
    10030    2    1    2    0    0  0.00000000000E+00  0.00000000000E+00 -0.13688393345E+04  0.28590111044E+04  0.25100245758E+04 0.  0.
        2    1    3    3  502    0  0.11890865975E+04  0.67051361454E+02 -0.11352151247E+04  0.16453377163E+04  0.25500000920E-02 0. -1.
       -2    1    3    3    0  502 -0.11890865975E+04 -0.67051361454E+02 -0.23362420983E+03  0.12136733880E+04  0.25500000920E-02 0.  1.
</event>
<event>
 5   0  0.1039688E-05  0.2497617E+04  0.7818609E-02  0.8403835E-01
        1   -1    0    0  501    0  0.00000000000E+00  0.00000000000E+00  0.67108959291E+03  0.67108959293E+03  0.50400001928E-02 0.  1.
       -1   -1    0    0    0  501  0.00000000000E+00  0.00000000000E+00 -0.23238667421E+04  0.23238667421E+04  0.50400001928E-02 0. -1.
    10030    2    1    2    0    0  0.00000000000E+00  0.00000000000E+00 -0.16527771491E+04  0.29949563350E+04  0.24976170931E+04 0.  0.
        3    1    3    3  502    0 -0.57650258283E+03  0.85583335694E+03 -0.16698067818E+04  0.19629214608E+04  0.10100000352E+00 0. -1.
       -3    1    3    3    0  502  0.57650258283E+03 -0.85583335694E+03  0.17029632607E+02  0.10320348741E+04  0.10100000352E+00 0.  1.
</event>
<event>
 5   0  0.1002753E-05  0.2475769E+04  0.7818609E-02  0.8411669E-01
        1   -1    0    0  501    0  0.00000000000E+00  0.00000000000E+00  0.12113144965E+04  0.12113144965E+04  0.50400001928E-02 0. -1.
       -1   -1    0    0    0  501  0.00000000000E+00  0.00000000000E+00 -0.12650370025E+04  0.12650370025E+04  0.50400001928E-02 0.  1.
    10030    2    1    2    0    0  0.00000000000E+00  0.00000000000E+00 -0.53722505931E+02  0.24763514990E+04  0.24757686966E+04 0.  0.
        5    1    3    3  502    0 -0.10372647972E+04 -0.28774494002E+03  0.58452739817E+03  0.12249121516E+04  0.46999998093E+01 0.  1.
       -5    1    3    3    0  502  0.10372647972E+04  0.28774494002E+03 -0.63824990410E+03  0.12514393474E+04  0.46999998093E+01 0. -1.
</event>
<event>
 5   0  0.2345143E-05  0.2508780E+04  0.7818609E-02  0.8399864E-01
       -2   -1    0    0    0  501  0.00000000000E+00  0.00000000000E+00  0.16499527214E+04  0.16499527214E+04  0.25500000920E-02 0.  1.
        2   -1    0    0  501    0  0.00000000000E+00  0.00000000000E+00 -0.95366039994E+03  0.95366039995E+03  0.25500000920E-02 0. -1.
    10030    2    1    2    0    0  0.00000000000E+00  0.00000000000E+00  0.69629232143E+03  0.26036131213E+04  0.25087802392E+04 0.  0.
        5    1    3    3  502    0 -0.10757838150E+04 -0.63814006657E+03  0.25002642279E+03  0.12755660952E+04  0.46999998093E+01 0.  1.
       -5    1    3    3    0  502  0.10757838150E+04  0.63814006657E+03  0.44626589864E+03  0.13280470261E+04  0.46999998093E+01 0. -1.
</event>
<event>
 5   0  0.1039688E-05  0.2537024E+04  0.7818609E-02  0.8389913E-01
       -1   -1    0    0    0  501  0.00000000000E+00  0.00000000000E+00  0.69337193150E+03  0.69337193152E+03  0.50400001928E-02 0. -1.
        1   -1    0    0  501    0  0.00000000000E+00  0.00000000000E+00 -0.23207207214E+04  0.23207207214E+04  0.50400001928E-02 0.  1.
    10030    2    1    2    0    0  0.00000000000E+00  0.00000000000E+00 -0.16273487899E+04  0.30140926529E+04  0.25370239329E+04 0.  0.
        3    1    3    3  502    0  0.93202137653E+03 -0.76556107766E+03 -0.34688551241E+03  0.12550207882E+04  0.10100000352E+00 0. -1.
       -3    1    3    3    0  502 -0.93202137653E+03  0.76556107766E+03 -0.12804632774E+04  0.17590718647E+04  0.10100000352E+00 0.  1.
</event>
<event>
 5   0  0.1002753E-05  0.2493004E+04  0.7818609E-02  0.8405482E-01
       -1   -1    0    0    0  501  0.00000000000E+00  0.00000000000E+00  0.90940322369E+03  0.90940322370E+03  0.50400001928E-02 0. -1.
        1   -1    0    0  501    0  0.00000000000E+00  0.00000000000E+00 -0.17085569733E+04  0.17085569733E+04  0.50400001928E-02 0.  1.
    10030    2    1    2    0    0  0.00000000000E+00  0.00000000000E+00 -0.79915374961E+03  0.26179601970E+04  0.24930039867E+04 0.  0.
        5    1    3    3  502    0 -0.91868134206E+03  0.81150027616E+03 -0.63727842290E+03  0.13815404391E+04  0.46999998093E+01 0.  1.
       -5    1    3    3    0  502  0.91868134206E+03 -0.81150027616E+03 -0.16187532671E+03  0.12364197579E+04  0.46999998093E+01 0. -1.
</event>
<event>
 5   0  0.1015327E-05  0.2464393E+04  0.7818609E-02  0.8415782E-01
        1   -1    0    0  501    0  0.00000000000E+00  0.00000000000E+00  0.26493709413E+04  0.26493709413E+04  0.50400001928E-02 0.  1.
       -1   -1    0    0    0  501  0.00000000000E+00  0.00000000000E+00 -0.57308259618E+03  0.57308259620E+03  0.50400001928E-02 0. -1.
    10030    2    1    2    0    0  0.00000000000E+00  0.00000000000E+00  0.20762883451E+04  0.32224535375E+04  0.24643931320E+04 0.  0.
        4    1    3    3  502    0  0.21200723545E+02  0.54929155290E+03  0.24801524778E+04  0.25403402541E+04  0.12699999809E+01 0.  1.
       -4    1    3    3    0  502 -0.21200723545E+02 -0.54929155290E+03 -0.40386413269E+03  0.68211328336E+03  0.12699999809E+01 0. -1.
</event>
<event>
 5   0  0.1010338E-05  0.2491255E+04  0.7818609E-02  0.8406108E-01
       -1   -1    0    0    0  501  0.00000000000E+00  0.00000000000E+00  0.14557848725E+04  0.14557848725E+04  0.50400001928E-02 0. -1.
        1   -1    0    0  501    0  0.00000000000E+00  0.00000000000E+00 -0.10658082602E+04  0.10658082602E+04  0.50400001928E-02 0.  1.
    10030    2    1    2    0    0  0.00000000000E+00  0.00000000000E+00  0.38997661224E+03  0.25215931327E+04  0.24912547379E+04 0.  0.
        2    1    3    3  502    0  0.16804123362E+03  0.34542243435E+03 -0.10043605837E+04  0.10753114416E+04  0.25500000920E-02 0.  1.
       -2    1    3    3    0  502 -0.16804123362E+03 -0.34542243435E+03  0.13943371959E+04  0.14462816912E+04  0.25500000920E-02 0. -1.
</event>
<event>
 5   0  0.2388326E-05  0.2498331E+04  0.7818609E-02  0.8403580E-01
        2   -1    0    0  501    0  0.00000000000E+00  0.00000000000E+00  0.14911742197E+04  0.14911742197E+04  0.25500000920E-02 0.  1.
       -2   -1    0    0    0  501  0.00000000000E+00  0.00000000000E+00 -0.10464336890E+04  0.10464336890E+04  0.25500000920E-02 0. -1.
    10030    2    1    2    0    0  0.00000000000E+00  0.00000000000E+00  0.44474053076E+03  0.25376079087E+04  0.24983313949E+04 0.  0.
        2    1    3    3  502    0  0.25777361659E+03  0.11085240084E+04  0.74538499732E+03  0.13604673862E+04  0.25500000920E-02 0.  1.
       -2    1    3    3    0  502 -0.25777361659E+03 -0.11085240084E+04 -0.30064446656E+03  0.11771405226E+04  0.25500000920E-02 0. -1.
</event>
<event>
 5   0  0.2441340E-05  0.2495908E+04  0.7818609E-02  0.8404445E-01
       -2   -1    0    0    0  501  0.00000000000E+00  0.00000000000E+00  0.82895981978E+03  0.82895981979E+03  0.25500000920E-02 0. -1.
        2   -1    0    0  501    0  0.00000000000E+00  0.00000000000E+00 -0.18787264007E+04  0.18787264007E+04  0.25500000920E-02 0.  1.
    10030    2    1    2    0    0  0.00000000000E+00  0.00000000000E+00 -0.10497665809E+04  0.27076862205E+04  0.24959076093E+04 0.  0.
        3    1    3    3  502    0 -0.44657775626E+03 -0.97390271294E+03 -0.12190777450E+04  0.16229814371E+04  0.10100000352E+00 0. -1.
       -3    1    3    3    0  502  0.44657775626E+03  0.97390271294E+03  0.16931116405E+03  0.10847047834E+04  0.10100000352E+00 0.  1.
</event>
<event>
 5   0  0.2432309E-05  0.2500124E+04  0.7818609E-02  0.8402941E-01
        2   -1    0    0  501    0  0.00000000000E+00  0.00000000000E+00  0.10159754057E+04  0.10159754057E+04  0.25500000920E-02 0. -1.
       -2   -1    0    0    0  501  0.00000000000E+00  0.00000000000E+00 -0.15380835093E+04  0.15380835093E+04  0.25500000920E-02 0.  1.
    10030    2    1    2    0    0  0.00000000000E+00  0.00000000000E+00 -0.52210810355E+03  0.25540589150E+04  0.25001240108E+04 0.  0.
        4    1    3    3  502    0 -0.12020929139E+04  0.34264413562E+03 -0.24586634713E+03  0.12739247430E+04  0.12699999809E+01 0.  1.
       -4    1    3    3    0  502  0.12020929139E+04 -0.34264413562E+03 -0.27624175641E+03  0.12801341720E+04  0.12699999809E+01 0. -1.
</event>
<event>
 5   0  0.1002753E-05  0.2495876E+04  0.7818609E-02  0.8404456E-01
        1   -1    0    0  501    0  0.00000000000E+00  0.00000000000E+00  0.14885723433E+04  0.14885723433E+04  0.50400001928E-02 0.  1.
       -1   -1    0    0    0  501  0.00000000000E+00  0.00000000000E+00 -0.10462033178E+04  0.10462033178E+04  0.50400001928E-02 0. -1.
    10030    2    1    2    0    0  0.00000000000E+00  0.00000000000E+00  0.44236902551E+03  0.25347756611E+04  0.24958760581E+04 0.  0.
        5    1    3    3  502    0  0.10620449395E+04  0.25720624252E+03 -0.39089663113E+03  0.11605674349E+04  0.46999998093E+01 0. -1.
       -5    1    3    3    0  502 -0.10620449395E+04 -0.25720624252E+03  0.83326565665E+03  0.13742082263E+04  0.46999998093E+01 0.  1.
</event>
<event>
 5   0  0.2452457E-05  0.2527452E+04  0.7818609E-02  0.8393271E-01
       -2   -1    0    0    0  501  0.00000000000E+00  0.00000000000E+00  0.16648816194E+04  0.16648816194E+04  0.25500000920E-02 0.  1.
        2   -1    0    0  501    0  0.00000000000E+00  0.00000000000E+00 -0.95922906878E+03  0.95922906879E+03  0.25500000920E-02 0. -1.
    10030    2    1    2    0    0  0.00000000000E+00  0.00000000000E+00  0.70565255060E+03  0.26241106882E+04  0.25274515587E+04 0.  0.
        1    1    3    3  502    0 -0.20226942040E+03 -0.60960520397E+03  0.14827824586E+04  0.16159131297E+04  0.50400001928E-02 0.  1.
       -1    1    3    3    0  502  0.20226942040E+03  0.60960520397E+03 -0.77712990796E+03  0.10081975585E+04  0.50400001928E-02 0. -1.
</event>
<event>
 5   0  0.2345143E-05  0.2467666E+04  0.7818609E-02  0.8414596E-01
       -2   -1    0    0    0  501  0.00000000000E+00  0.00000000000E+00  0.10919261908E+04  0.10919261908E+04  0.25500000920E-02 0. -1.
        2   -1    0    0  501    0  0.00000000000E+00  0.00000000000E+00 -0.13941818830E+04  0.13941818830E+04  0.25500000920E-02 0.  1.
    10030    2    1    2    0    0  0.00000000000E+00  0.00000000000E+00 -0.30225569224E+03  0.24861080739E+04  0.24676658711E+04 0.  0.
        5    1    3    3  502    0 -0.58274385085E+03  0.15136822504E+03  0.93386965461E+03  0.11111423658E+04  0.46999998093E+01 0. -1.
       -5    1    3    3    0  502  0.58274385085E+03 -0.15136822504E+03 -0.12361253468E+04  0.13749657081E+04  0.46999998093E+01 0.  1.
</event>
<event>
 5   0  0.1015327E-05  0.2430741E+04  0.7818609E-02  0.8428084E-01
        1   -1    0    0  501    0  0.00000000000E+00  0.00000000000E+00  0.99452156662E+03  0.99452156663E+03  0.50400001928E-02 0. -1.
       -1   -1    0    0    0  501  0.00000000000E+00  0.00000000000E+00 -0.14852618272E+04  0.14852618272E+04  0.50400001928E-02 0.  1.
    10030    2    1    2    0    0  0.00000000000E+00  0.00000000000E+00 -0.49074026055E+03  0.24797833938E+04  0.24307405614E+04 0.  0.
        4    1    3    3  502    0 -0.74477824965E+03  0.14220590529E+02  0.73433171014E+03  0.10460122082E+04  0.12699999809E+01 0. -1.
       -4    1    3    3    0  502  0.74477824965E+03 -0.14220590529E+02 -0.12250719707E+04  0.14337711856E+04  0.12699999809E+01 0.  1.
</event>
<event>
 5   0  0.1010338E-05  0.2515062E+04  0.7818609E-02  0.8397639E-01
       -1   -1    0    0    0  501  0.00000000000E+00  0.00000000000E+00  0.87603026312E+03  0.87603026314E+03  0.50400001928E-02 0.  1.
        1   -1    0    0  501    0  0.00000000000E+00  0.00000000000E+00 -0.18051705462E+04  0.18051705462E+04  0.50400001928E-02 0. -1.
    10030    2    1    2    0    0  0.00000000000E+00  0.00000000000E+00 -0.92914028311E+03  0.26812008094E+04  0.25150618510E+04 0.  0.
        2    1    3    3  502    0  0.94097342843E+02 -0.90847992366E+03  0.45693411268E+03  0.10212633671E+04  0.25500000920E-02 0. -1.
       -2    1    3    3    0  502 -0.94097342843E+02  0.90847992366E+03 -0.13860743958E+04  0.16599374423E+04  0.25500000920E-02 0.  1.
</event>
<event>
 5   0  0.1010338E-05  0.2476248E+04  0.7818609E-02  0.8411496E-01
        1   -1    0    0  501    0  0.00000000000E+00  0.00000000000E+00  0.95244863107E+03  0.95244863109E+03  0.50400001928E-02 0. -1.
       -1   -1    0    0    0  501  0.00000000000E+00  0.00000000000E+00 -0.16094846976E+04  0.16094846976E+04  0.50400001928E-02 0.  1.
    10030    2    1    2    0    0  0.00000000000E+00  0.00000000000E+00 -0.65703606656E+03  0.25619333287E+04  0.24762483696E+04 0.  0.
        2    1    3    3  502    0 -0.13293762313E+02 -0.12277556844E+04 -0.16365950976E+03  0.12386868772E+04  0.25500000920E-02 0. -1.
       -2    1    3    3    0  502  0.13293762313E+02  0.12277556844E+04 -0.49337655680E+03  0.13232464515E+04  0.25500000920E-02 0.  1.
</event>
<event>
 5   0  0.1002753E-05  0.2503758E+04  0.7818609E-02  0.8401648E-01
        1   -1    0    0  501    0  0.00000000000E+00  0.00000000000E+00  0.17581915603E+04  0.17581915603E+04  0.50400001928E-02 0. -1.
       -1   -1    0    0    0  501  0.00000000000E+00  0.00000000000E+00 -0.89137116453E+03  0.89137116455E+03  0.50400001928E-02 0.  1.
    10030    2    1    2    0    0  0.00000000000E+00  0.00000000000E+00  0.86682039573E+03  0.26495627248E+04  0.25037581821E+04 0.  0.
        5    1    3    3  502    0 -0.61503320264E+03 -0.10903715565E+04  0.43530234412E+03  0.13254003894E+04  0.46999998093E+01 0. -1.
       -5    1    3    3    0  502  0.61503320264E+03  0.10903715565E+04  0.43151805161E+03  0.13241623354E+04  0.46999998093E+01 0.  1.
</event>
<event>
 5   0  0.1010338E-05  0.2492212E+04  0.7818609E-02  0.8405765E-01
       -1   -1    0    0    0  501  0.00000000000E+00  0.00000000000E+00  0.94216411618E+03  0.94216411619E+03  0.50400001928E-02 0. -1.
        1   -1    0    0  501    0  0.00000000000E+00  0.00000000000E+00 -0.16481000966E+04  0.16481000966E+04  0.50400001928E-02 0.  1.
    10030    2    1    2    0    0  0.00000000000E+00  0.00000000000E+00 -0.70593598040E+03  0.25902642128E+04  0.24922124876E+04 0.  0.
        2    1    3    3  502    0 -0.78736595457E+03  0.48031800694E+03 -0.12238670778E+04  0.15324820254E+04  0.25500000920E-02 0.  1.
       -2    1    3    3    0  502  0.78736595457E+03 -0.48031800694E+03  0.51793109739E+03  0.10577821873E+04  0.25500000920E-02 0. -1.
</event>
<event>
 5   0  0.2388326E-05  0.2500766E+04  0.7818609E-02  0.8402713E-01
       -2   -1    0    0    0  501  0.00000000000E+00  0.00000000000E+00  0.13340436526E+04  0.13340436526E+04  0.25500000920E-02 0. -1.
        2   -1    0    0  501    0  0.00000000000E+00  0.00000000000E+00 -0.11719691089E+04  0.11719691089E+04  0.25500000920E-02 0.  1.
    10030    2    1    2    0    0  0.00000000000E+00  0.00000000000E+00  0.16207454375E+03  0.25060127615E+04  0.25007662432E+04 0.  0.
        2    1    3    3  502    0  0.73570781588E+03 -0.72787737522E+03  0.78421198194E+03  0.12984836912E+04  0.25500000920E-02 0. -1.
       -2    1    3    3    0  502 -0.73570781588E+03  0.72787737522E+03 -0.62213743819E+03  0.12075290703E+04  0.25500000920E-02 0.  1.
</event>
<event>
 5   0  0.2388326E-05  0.2509822E+04  0.7818609E-02  0.8399495E-01
       -2   -1    0    0    0  501  0.00000000000E+00  0.00000000000E+00  0.10865969595E+04  0.10865969595E+04  0.25500000920E-02 0.  1.
        2   -1    0    0  501    0  0.00000000000E+00  0.00000000000E+00 -0.14492971064E+04  0.14492971064E+04  0.25500000920E-02 0. -1.
    10030    2    1    2    0    0  0.00000000000E+00  0.00000000000E+00 -0.36270014688E+03  0.25358940659E+04  0.25098221684E+04 0.  0.
        2    1    3    3  502    0 -0.23918674359E+03 -0.33695260273E+03  0.10158869414E+04  0.10967103685E+04  0.25500000920E-02 0.  1.
       -2    1    3    3    0  502  0.23918674359E+03  0.33695260273E+03 -0.13785870883E+04  0.14391836973E+04  0.25500000920E-02 0. -1.
</event>
<event>
 5   0  0.2441340E-05  0.2232240E+04  0.7818609E-02  0.8505128E-01
        2   -1    0    0  501    0  0.00000000000E+00  0.00000000000E+00  0.24056171802E+04  0.24056171802E+04  0.25500000920E-02 0. -1.
       -2   -1    0    0    0  501  0.00000000000E+00  0.00000000000E+00 -0.51783954757E+03  0.51783954758E+03  0.25500000920E-02 0.  1.
    10030    2    1    2    0    0  0.00000000000E+00  0.00000000000E+00  0.18877776326E+04  0.29234567277E+04  0.22322398726E+04 0.  0.
        3    1    3    3  502    0 -0.53528412477E+02  0.59258149495E+03  0.21805950545E+04  0.22603125716E+04  0.10100000352E+00 0. -1.
       -3    1    3    3    0  502  0.53528412477E+02 -0.59258149495E+03 -0.29281742194E+03  0.66314415619E+03  0.10100000352E+00 0.  1.
</event>
<event>
 5   0  0.1008073E-05  0.2117981E+04  0.7818609E-02  0.8553364E-01
        1   -1    0    0  501    0  0.00000000000E+00  0.00000000000E+00  0.16371593442E+04  0.16371593442E+04  0.50400001928E-02 0.  1.
       -1   -1    0    0    0  501  0.00000000000E+00  0.00000000000E+00 -0.68500433627E+03  0.68500433629E+03  0.50400001928E-02 0. -1.
    10030    2    1    2    0    0  0.00000000000E+00  0.00000000000E+00  0.95215500793E+03  0.23221636805E+04  0.21179813502E+04 0.  0.
        1    1    3    3  502    0  0.71481439545E+03  0.78023953322E+03  0.52165286341E+03  0.11797690702E+04  0.50400001928E-02 0. -1.
       -1    1    3    3    0  502 -0.71481439545E+03 -0.78023953322E+03  0.43050214453E+03  0.11423946103E+04  0.50400001928E-02 0.  1.
</event>
<event>
 5   0  0.1010338E-05  0.2445044E+04  0.7818609E-02  0.8422830E-01
        1   -1    0    0  501    0  0.00000000000E+00  0.00000000000E+00  0.22825806521E+04  0.22825806521E+04  0.50400001928E-02 0.  1.
       -1   -1    0    0    0  501  0.00000000000E+00  0.00000000000E+00 -0.65476774788E+03  0.65476774790E+03  0.50400001928E-02 0. -1.
    10030    2    1    2    0    0  0.00000000000E+00  0.00000000000E+00  0.16278129042E+04  0.29373484000E+04  0.24450441247E+04 0.  0.
        2    1    3    3  502    0  0.97661083198E+02  0.37291214426E+03 -0.57984291104E+03  0.69628941971E+03  0.25500000920E-02 0. -1.
       -2    1    3    3    0  502 -0.97661083198E+02 -0.37291214426E+03  0.22076558153E+04  0.22410589803E+04  0.25500000920E-02 0.  1.
</event>
<event>
 5   0  0.1010338E-05  0.2174330E+04  0.7818609E-02  0.8529189E-01
        1   -1    0    0  501    0  0.00000000000E+00  0.00000000000E+00  0.62592013070E+03  0.62592013072E+03  0.50400001928E-02 0.  1.
       -1   -1    0    0    0  501  0.00000000000E+00  0.00000000000E+00 -0.18883048745E+04  0.18883048745E+04  0.50400001928E-02 0. -1.
    10030    2    1    2    0    0  0.00000000000E+00  0.00000000000E+00 -0.12623847438E+04  0.25142250052E+04  0.21743302729E+04 0.  0.
        2    1    3    3  502    0  0.17565061634E+03  0.17795373203E+03 -0.18546042948E+04  0.18713839157E+04  0.25500000920E-02 0. -1.
       -2    1    3    3    0  502 -0.17565061634E+03 -0.17795373203E+03  0.59221955100E+03  0.64284108950E+03  0.25500000920E-02 0.  1.
</event>
<event>
 5   0  0.2441340E-05  0.2485813E+04  0.7818609E-02  0.8408057E-01
        2   -1    0    0  501    0  0.00000000000E+00  0.00000000000E+00  0.86213558596E+03  0.86213558596E+03  0.25500000920E-02 0.  1.
       -2   -1    0    0    0  501  0.00000000000E+00  0.00000000000E+00 -0.17918493920E+04  0.17918493920E+04  0.25500000920E-02 0. -1.
    10030    2    1    2    0    0  0.00000000000E+00  0.00000000000E+00 -0.92971380600E+03  0.26539849779E+04  0.24858134487E+04 0.  0.
        3    1    3    3  502    0 -0.12062699203E+04 -0.60383006428E+02 -0.15160706009E+03  0.12172583698E+04  0.10100000352E+00 0.  1.
       -3    1    3    3    0  502  0.12062699203E+04  0.60383006428E+02 -0.77810674592E+03  0.14367266081E+04  0.10100000352E+00 0. -1.
</event>
<event>
 5   0  0.2388326E-05  0.2224569E+04  0.7818609E-02  0.8508271E-01
        2   -1    0    0  501    0  0.00000000000E+00  0.00000000000E+00  0.11623625216E+04  0.11623625216E+04  0.25500000920E-02 0. -1.
       -2   -1    0    0    0  501  0.00000000000E+00  0.00000000000E+00 -0.10643636020E+04  0.10643636020E+04  0.25500000920E-02 0.  1.
    10030    2    1    2    0    0  0.00000000000E+00  0.00000000000E+00  0.97998919639E+02  0.22267261236E+04  0.22245685967E+04 0.  0.
        2    1    3    3  502    0  0.88900976807E+03 -0.60073052585E+03  0.34247458531E+03  0.11262789947E+04  0.25500000920E-02 0. -1.
       -2    1    3    3    0  502 -0.88900976807E+03  0.60073052585E+03 -0.24447566567E+03  0.11004471289E+04  0.25500000920E-02 0.  1.
</event>
<event>
 5   0  0.2388326E-05  0.2546477E+04  0.7818609E-02  0.8386613E-01
        2   -1    0    0  501    0  0.00000000000E+00  0.00000000000E+00  0.13240725996E+04  0.13240725996E+04  0.25500000920E-02 0. -1.
       -2   -1    0    0    0  501  0.00000000000E+00  0.00000000000E+00 -0.12243556822E+04  0.12243556822E+04  0.25500000920E-02 0.  1.
    10030    2    1    2    0    0  0.00000000000E+00  0.00000000000E+00  0.99716917423E+02  0.25484282818E+04  0.25464766333E+04 0.  0.
        2    1    3    3  502    0 -0.12184140035E+04  0.17638989463E+03 -0.27518229430E+03  0.12614956892E+04  0.25500000920E-02 0.  1.
       -2    1    3    3    0  502  0.12184140035E+04 -0.17638989463E+03  0.37489921173E+03  0.12869325926E+04  0.25500000920E-02 0. -1.
</event>
<event>
 5   0  0.1015327E-05  0.2490214E+04  0.7818609E-02  0.8406480E-01
        1   -1    0    0  501    0  0.00000000000E+00  0.00000000000E+00  0.14469094470E+04  0.14469094470E+04  0.50400001928E-02 0. -1.
       -1   -1    0    0    0  501  0.00000000000E+00  0.00000000000E+00 -0.10714502215E+04  0.10714502215E+04  0.50400001928E-02 0.  1.
    10030    2    1    2    0    0  0.00000000000E+00  0.00000000000E+00  0.37545922548E+03  0.25183596685E+04  0.24902140049E+04 0.  0.
        4    1    3    3  502    0  0.10564355551E+04 -0.41900775628E+03 -0.32661118023E+03  0.11824973817E+04  0.12699999809E+01 0.  1.
       -4    1    3    3    0  502 -0.10564355551E+04  0.41900775628E+03  0.70207040571E+03  0.13358622868E+04  0.12699999809E+01 0. -1.
</event>
<event>
 5   0  0.2452457E-05  0.2492418E+04  0.7818609E-02  0.8405691E-01
       -2   -1    0    0    0  501  0.00000000000E+00  0.00000000000E+00  0.95613951760E+03  0.95613951760E+03  0.25500000920E-02 0.  1.
        2   -1    0    0  501    0  0.00000000000E+00  0.00000000000E+00 -0.16242790112E+04  0.16242790112E+04  0.25500000920E-02 0. -1.
    10030    2    1    2    0    0  0.00000000000E+00  0.00000000000E+00 -0.66813949362E+03  0.25804185288E+04  0.24924183840E+04 0.  0.
        1    1    3    3  502    0 -0.11608214728E+03  0.10608081413E+04  0.33227597128E+03  0.11176745048E+04  0.50400001928E-02 0.  1.
       -1    1    3    3    0  502  0.11608214728E+03 -0.10608081413E+04 -0.10004154649E+04  0.14627440241E+04  0.50400001928E-02 0. -1.
</event>
<event>
 5   0  0.2441340E-05  0.2458769E+04  0.7818609E-02  0.8417823E-01
       -2   -1    0    0    0  501  0.00000000000E+00  0.00000000000E+00  0.14452132014E+04  0.14452132014E+04  0.25500000920E-02 0.  1.
        2   -1    0    0  501    0  0.00000000000E+00  0.00000000000E+00 -0.10457874557E+04  0.10457874557E+04  0.25500000920E-02 0. -1.
    10030    2    1    2    0    0  0.00000000000E+00  0.00000000000E+00  0.39942574570E+03  0.24910006570E+04  0.24587686648E+04 0.  0.
        3    1    3    3  502    0 -0.38442156239E+03 -0.65748928734E+03  0.11774096290E+04  0.14022715661E+04  0.10100000352E+00 0.  1.
       -3    1    3    3    0  502  0.38442156239E+03  0.65748928734E+03 -0.77798388326E+03  0.10887290909E+04  0.10100000352E+00 0. -1.
</event>
<event>
 5   0  0.1010338E-05  0.2494019E+04  0.7818609E-02  0.8405119E-01
        1   -1    0    0  501    0  0.00000000000E+00  0.00000000000E+00  0.11648490268E+04  0.11648490269E+04  0.50400001928E-02 0.  1.
       -1   -1    0    0    0  501  0.00000000000E+00  0.00000000000E+00 -0.13349655255E+04  0.13349655255E+04  0.50400001928E-02 0. -1.
    10030    2    1    2    0    0  0.00000000000E+00  0.00000000000E+00 -0.17011649864E+03  0.24998145523E+04  0.24940194813E+04 0.  0.
        2    1    3    3  502    0  0.30549618521E+03  0.26142587537E+03  0.10980920385E+04  0.11693919499E+04  0.25500000920E-02 0.  1.
       -2    1    3    3    0  502 -0.30549618521E+03 -0.26142587537E+03 -0.12682085371E+04  0.13304226025E+04  0.25500000920E-02 0. -1.
</event>
<event>
 5   0  0.2441340E-05  0.2498797E+04  0.7818609E-02  0.8403414E-01
       -2   -1    0    0    0  501  0.00000000000E+00  0.00000000000E+00  0.12161793056E+04  0.12161793056E+04  0.25500000920E-02 0. -1.
        2   -1    0    0  501    0  0.00000000000E+00  0.00000000000E+00 -0.12835246756E+04  0.12835246756E+04  0.25500000920E-02 0.  1.
    10030    2    1    2    0    0  0.00000000000E+00  0.00000000000E+00 -0.67345369998E+02  0.24997039811E+04  0.24987966293E+04 0.  0.
        3    1    3    3  502    0  0.69964975019E+03  0.90061148055E+03 -0.54413763075E+03  0.12636045992E+04  0.10100000352E+00 0.  1.
       -3    1    3    3    0  502 -0.69964975019E+03 -0.90061148055E+03  0.47679226075E+03  0.12360993819E+04  0.10100000352E+00 0. -1.
</event>
<event>
 5   0  0.2388326E-05  0.2444413E+04  0.7818609E-02  0.8423061E-01
        2   -1    0    0  501    0  0.00000000000E+00  0.00000000000E+00  0.18819563605E+04  0.18819563605E+04  0.25500000920E-02 0.  1.
       -2   -1    0    0    0  501  0.00000000000E+00  0.00000000000E+00 -0.79374222646E+03  0.79374222646E+03  0.25500000920E-02 0. -1.
    10030    2    1    2    0    0  0.00000000000E+00  0.00000000000E+00  0.10882141340E+04  0.26756985869E+04  0.24444125934E+04 0.  0.
        2    1    3    3  502    0  0.44928914431E+03 -0.11092467983E+04  0.81556143475E+03  0.14482505476E+04  0.25500000920E-02 0. -1.
       -2    1    3    3    0  502 -0.44928914431E+03  0.11092467983E+04  0.27265269926E+03  0.12274480393E+04  0.25500000920E-02 0.  1.
</event>
<event>
 5   0  0.2345143E-05  0.2480063E+04  0.7818609E-02  0.8410123E-01
       -2   -1    0    0    0  501  0.00000000000E+00  0.00000000000E+00  0.66383257188E+03  0.66383257188E+03  0.25500000920E-02 0. -1.
        2   -1    0    0  501    0  0.00000000000E+00  0.00000000000E+00 -0.23163652982E+04  0.23163652982E+04  0.25500000920E-02 0.  1.
    10030    2    1    2    0    0  0.00000000000E+00  0.00000000000E+00 -0.16525327263E+04  0.29801978700E+04  0.24800634938E+04 0.  0.
        5    1    3    3  502    0  0.68384284932E+03 -0.56377331235E+03  0.21591144396E+03  0.91220679230E+03  0.46999998093E+01 0. -1.
       -5    1    3    3    0  502 -0.68384284932E+03  0.56377331235E+03 -0.18684441703E+04  0.20679910777E+04  0.46999998093E+01 0.  1.
</event>
<event>
 5   0  0.1002753E-05  0.2487008E+04  0.7818609E-02  0.8407628E-01
       -1   -1    0    0    0  501  0.00000000000E+00  0.00000000000E+00  0.99349418362E+03  0.99349418364E+03  0.50400001928E-02 0. -1.
        1   -1    0    0  501    0  0.00000000000E+00  0.00000000000E+00 -0.15564286050E+04  0.15564286050E+04  0.50400001928E-02 0.  1.
    10030    2    1    2    0    0  0.00000000000E+00  0.00000000000E+00 -0.56293442140E+03  0.25499227887E+04  0.24870084570E+04 0.  0.
        5    1    3    3  502    0 -0.24010818950E+03 -0.61764852692E+03  0.79735740922E+03  0.10367943738E+04  0.46999998093E+01 0. -1.
       -5    1    3    3    0  502  0.24010818950E+03  0.61764852692E+03 -0.13602918306E+04  0.15131284149E+04  0.46999998093E+01 0.  1.
</event>
<event>
 5   0  0.1002753E-05  0.2519508E+04  0.7818609E-02  0.8396069E-01
        1   -1    0    0  501    0  0.00000000000E+00  0.00000000000E+00  0.16794519099E+04  0.16794519099E+04  0.50400001928E-02 0.  1.
       -1   -1    0    0    0  501  0.00000000000E+00  0.00000000000E+00 -0.94493927611E+03  0.94493927612E+03  0.50400001928E-02 0. -1.
    10030    2    1    2    0    0  0.00000000000E+00  0.00000000000E+00  0.73451263376E+03  0.26243911860E+04  0.25195079456E+04 0.  0.
        5    1    3    3  502    0 -0.60042836082E+03  0.21701572533E+03  0.14984417782E+04  0.16287909302E+04  0.46999998093E+01 0.  1.
       -5    1    3    3    0  502  0.60042836082E+03 -0.21701572533E+03 -0.76392914449E+03  0.99560025578E+03  0.46999998093E+01 0. -1.
</event>
<event>
 5   0  0.2452457E-05  0.2476745E+04  0.7818609E-02  0.8411317E-01
       -2   -1    0    0    0  501  0.00000000000E+00  0.00000000000E+00  0.14130027869E+04  0.14130027869E+04  0.25500000920E-02 0. -1.
        2   -1    0    0  501    0  0.00000000000E+00  0.00000000000E+00 -0.10853241498E+04  0.10853241498E+04  0.25500000920E-02 0.  1.
    10030    2    1    2    0    0  0.00000000000E+00  0.00000000000E+00  0.32767863715E+03  0.24983269367E+04  0.24767446767E+04 0.  0.
        1    1    3    3  502    0  0.32012611088E+03 -0.77014950571E+03 -0.75953628576E+03  0.11280542351E+04  0.50400001928E-02 0.  1.
       -1    1    3    3    0  502 -0.32012611088E+03  0.77014950571E+03  0.10872149229E+04  0.13702727016E+04  0.50400001928E-02 0. -1.
</event>
<event>
 5   0  0.1015327E-05  0.2500804E+04  0.7818609E-02  0.8402699E-01
       -1   -1    0    0    0  501  0.00000000000E+00  0.00000000000E+00  0.12322814237E+04  0.12322814237E+04  0.50400001928E-02 0. -1.
        1   -1    0    0  501    0  0.00000000000E+00  0.00000000000E+00 -0.12687887021E+04  0.12687887022E+04  0.50400001928E-02 0.  1.
    10030    2    1    2    0    0  0.00000000000E+00  0.00000000000E+00 -0.36507278478E+02  0.25010701258E+04  0.25008036694E+04 0.  0.
        4    1    3    3  502    0 -0.50086223702E+03 -0.10987269714E+04  0.30649498227E+03  0.12457948166E+04  0.12699999809E+01 0. -1.
       -4    1    3    3    0  502  0.50086223702E+03  0.10987269714E+04 -0.34300226075E+03  0.12552753092E+04  0.12699999809E+01 0.  1.
</event>
<event>
 5   0  0.2388326E-05  0.2488775E+04  0.7818609E-02  0.8406996E-01
       -2   -1    0    0    0  501  0.00000000000E+00  0.00000000000E+00  0.74277471329E+03  0.74277471329E+03  0.25500000920E-02 0. -1.
        2   -1    0    0  501    0  0.00000000000E+00  0.00000000000E+00 -0.20847501431E+04  0.20847501431E+04  0.25500000920E-02 0.  1.
    10030    2    1    2    0    0  0.00000000000E+00  0.00000000000E+00 -0.13419754298E+04  0.28275248564E+04  0.24887745497E+04 0.  0.
        2    1    3    3  502    0  0.41685752839E+02  0.29544362568E+03 -0.20435093919E+04  0.20651768139E+04  0.25500000920E-02 0.  1.
       -2    1    3    3    0  502 -0.41685752839E+02 -0.29544362568E+03  0.70153396207E+03  0.76234804249E+03  0.25500000920E-02 0. -1.
</event>
<event>
 5   0  0.1008073E-05  0.2487804E+04  0.7818609E-02  0.8407343E-01
        1   -1    0    0  501    0  0.00000000000E+00  0.00000000000E+00  0.87073959675E+03  0.87073959676E+03  0.50400001928E-02 0. -1.
       -1   -1    0    0    0  501  0.00000000000E+00  0.00000000000E+00 -0.17769864367E+04  0.17769864367E+04  0.50400001928E-02 0.  1.
    10030    2    1    2    0    0  0.00000000000E+00  0.00000000000E+00 -0.90624683996E+03  0.26477260335E+04  0.24878042152E+04 0.  0.
        1    1    3    3  502    0 -0.14995100663E+03  0.76312886958E+03 -0.14863225742E+04  0.16774998571E+04  0.50400001928E-02 0.  1.
       -1    1    3    3    0  502  0.14995100663E+03 -0.76312886958E+03  0.58007573420E+03  0.97022617641E+03  0.50400001928E-02 0. -1.
</event>
<event>
 5   0  0.2432309E-05  0.2490142E+04  0.7818609E-02  0.8406506E-01
        2   -1    0    0  501    0  0.00000000000E+00  0.00000000000E+00  0.20192058280E+04  0.20192058280E+04  0.25500000920E-02 0.  1.
       -2   -1    0    0    0  501  0.00000000000E+00  0.00000000000E+00 -0.76772850856E+03  0.76772850856E+03  0.25500000920E-02 0. -1.
    10030    2    1    2    0    0  0.00000000000E+00  0.00000000000E+00  0.12514773195E+04  0.27869343366E+04  0.24901420673E+04 0.  0.
        4    1    3    3  502    0  0.11431010973E+04  0.25398898168E+03  0.15221580252E+03  0.11808309722E+04  0.12699999809E+01 0. -1.
       -4    1    3    3    0  502 -0.11431010973E+04 -0.25398898168E+03  0.10992615170E+04  0.16061033644E+04  0.12699999809E+01 0.  1.
</event>
<event>
 5   0  0.1015327E-05  0.2494786E+04  0.7818609E-02  0.8404845E-01
        1   -1    0    0  501    0  0.00000000000E+00  0.00000000000E+00  0.26814120010E+04  0.26814120010E+04  0.50400001928E-02 0.  1.
       -1   -1    0    0    0  501  0.00000000000E+00  0.00000000000E+00 -0.58028739066E+03  0.58028739068E+03  0.50400001928E-02 0. -1.
    10030    2    1    2    0    0  0.00000000000E+00  0.00000000000E+00  0.21011246103E+04  0.32616993917E+04  0.24947862220E+04 0.  0.
        4    1    3    3  502    0  0.80834857508E+03 -0.78551020187E+03  0.35194440111E+03  0.11808133512E+04  0.12699999809E+01 0. -1.
       -4    1    3    3    0  502 -0.80834857508E+03  0.78551020187E+03  0.17491802092E+04  0.20808860404E+04  0.12699999809E+01 0.  1.
</event>
<event>
 5   0  0.8166500E-06  0.2610707E+04  0.7818609E-02  0.8364573E-01
        4   -1    0    0  501    0  0.00000000000E+00  0.00000000000E+00  0.11981522737E+04  0.11981529468E+04  0.12699999809E+01 0.  1.
       -4   -1    0    0    0  501  0.00000000000E+00  0.00000000000E+00 -0.14221446898E+04  0.14221452569E+04  0.12699999809E+01 0. -1.
    10030    2    1    2    0    0  0.00000000000E+00  0.00000000000E+00 -0.22399241612E+03  0.26202982036E+04  0.26107068149E+04 0.  0.
        4    1    3    3  502    0 -0.45382042762E+03 -0.22978862079E+03  0.10945809724E+04  0.12070065902E+04  0.12699999809E+01 0.  1.
       -4    1    3    3    0  502  0.45382042762E+03  0.22978862079E+03 -0.13185733885E+04  0.14132916134E+04  0.12699999809E+01 0. -1.
</event>
<event>
 5   0  0.1015327E-05  0.2507164E+04  0.7818609E-02  0.8400438E-01
       -1   -1    0    0    0  501  0.00000000000E+00  0.00000000000E+00  0.10026550685E+04  0.10026550685E+04  0.50400001928E-02 0.  1.
        1   -1    0    0  501    0  0.00000000000E+00  0.00000000000E+00 -0.15673060392E+04  0.15673060392E+04  0.50400001928E-02 0. -1.
    10030    2    1    2    0    0  0.00000000000E+00  0.00000000000E+00 -0.56465097070E+03  0.25699611078E+04  0.25071636119E+04 0.  0.
        4    1    3    3  502    0 -0.39917185859E+02  0.12191976148E+04 -0.57840186556E+03  0.13500320502E+04  0.12699999809E+01 0. -1.
       -4    1    3    3    0  502  0.39917185859E+02 -0.12191976148E+04  0.13750894864E+02  0.12199290576E+04  0.12699999809E+01 0.  1.
</event>
<event>
 5   0  0.1002753E-05  0.2503550E+04  0.7818609E-02  0.8401722E-01
        1   -1    0    0  501    0  0.00000000000E+00  0.00000000000E+00  0.20622020653E+04  0.20622020653E+04  0.50400001928E-02 0.  1.
       -1   -1    0    0    0  501  0.00000000000E+00  0.00000000000E+00 -0.75983855228E+03  0.75983855230E+03  0.50400001928E-02 0. -1.
    10030    2    1    2    0    0  0.00000000000E+00  0.00000000000E+00  0.13023635131E+04  0.28220406176E+04  0.25035499850E+04 0.  0.
        5    1    3    3  502    0 -0.42278094003E+03 -0.24955253946E+03  0.19491441462E+04  0.20100261654E+04  0.46999998093E+01 0.  1.
       -5    1    3    3    0  502  0.42278094003E+03  0.24955253946E+03 -0.64678063312E+03  0.81201445220E+03  0.46999998093E+01 0. -1.
</event>
<event>
 5   0  0.2452457E-05  0.2499899E+04  0.7818609E-02  0.8403022E-01
        2   -1    0    0  501    0  0.00000000000E+00  0.00000000000E+00  0.16367619550E+04  0.16367619550E+04  0.25500000920E-02 0. -1.
       -2   -1    0    0    0  501  0.00000000000E+00  0.00000000000E+00 -0.95455158443E+03  0.95455158443E+03  0.25500000920E-02 0.  1.
    10030    2    1    2    0    0  0.00000000000E+00  0.00000000000E+00  0.68221037056E+03  0.25913135394E+04  0.24998989719E+04 0.  0.
        1    1    3    3  502    0  0.80688534689E+03  0.76572604096E+03  0.93201527161E+03  0.14512245861E+04  0.50400001928E-02 0. -1.
       -1    1    3    3    0  502 -0.80688534689E+03 -0.76572604096E+03 -0.24980490104E+03  0.11400889533E+04  0.50400001928E-02 0.  1.
</event>
<event>
 5   0  0.1002753E-05  0.2535299E+04  0.7818609E-02  0.8390517E-01
        1   -1    0    0  501    0  0.00000000000E+00  0.00000000000E+00  0.15056689044E+04  0.15056689044E+04  0.50400001928E-02 0.  1.
       -1   -1    0    0    0  501  0.00000000000E+00  0.00000000000E+00 -0.10672563677E+04  0.10672563677E+04  0.50400001928E-02 0. -1.
    10030    2    1    2    0    0  0.00000000000E+00  0.00000000000E+00  0.43841253670E+03  0.25729252721E+04  0.25352985827E+04 0.  0.
        5    1    3    3  502    0 -0.59241417749E+03 -0.11141424696E+04  0.96395246948E+02  0.12655363029E+04  0.46999998093E+01 0.  1.
       -5    1    3    3    0  502  0.59241417749E+03  0.11141424696E+04  0.34201728975E+03  0.13073889692E+04  0.46999998093E+01 0. -1.
</event>
<event>
 5   0  0.2452457E-05  0.2527055E+04  0.7818609E-02  0.8393410E-01
       -2   -1    0    0    0  501  0.00000000000E+00  0.00000000000E+00  0.20638080744E+04  0.20638080744E+04  0.25500000920E-02 0. -1.
        2   -1    0    0  501    0  0.00000000000E+00  0.00000000000E+00 -0.77357071786E+03  0.77357071786E+03  0.25500000920E-02 0.  1.
    10030    2    1    2    0    0  0.00000000000E+00  0.00000000000E+00  0.12902373565E+04  0.28373787922E+04  0.25270548024E+04 0.  0.
        1    1    3    3  502    0  0.27310578557E+03 -0.65934689239E+03 -0.52560031983E+03  0.88632995597E+03  0.50400001928E-02 0.  1.
       -1    1    3    3    0  502 -0.27310578557E+03  0.65934689239E+03  0.18158376763E+04  0.19510488363E+04  0.50400001928E-02 0. -1.
</event>
<event>
 5   0  0.1039688E-05  0.2505085E+04  0.7818609E-02  0.8401176E-01
        1   -1    0    0  501    0  0.00000000000E+00  0.00000000000E+00  0.89743327860E+03  0.89743327862E+03  0.50400001928E-02 0.  1.
       -1   -1    0    0    0  501  0.00000000000E+00  0.00000000000E+00 -0.17481658716E+04  0.17481658716E+04  0.50400001928E-02 0. -1.
    10030    2    1    2    0    0  0.00000000000E+00  0.00000000000E+00 -0.85073259296E+03  0.26455991502E+04  0.25050846131E+04 0.  0.
        3    1    3    3  502    0  0.64426008520E+03 -0.10714689983E+04 -0.50541601440E+03  0.13485407778E+04  0.10100000352E+00 0. -1.
       -3    1    3    3    0  502 -0.64426008520E+03  0.10714689983E+04 -0.34531657856E+03  0.12970583724E+04  0.10100000352E+00 0.  1.
</event>
<event>
 5   0  0.1002753E-05  0.2502062E+04  0.7818609E-02  0.8402251E-01
        1   -1    0    0  501    0  0.00000000000E+00  0.00000000000E+00  0.76777195863E+03  0.76777195864E+03  0.50400001928E-02 0. -1.
       -1   -1    0    0    0  501  0.00000000000E+00  0.00000000000E+00 -0.20384676450E+04  0.20384676450E+04  0.50400001928E-02 0.  1.
    10030    2    1    2    0    0  0.00000000000E+00  0.00000000000E+00 -0.12706956863E+04  0.28062396036E+04  0.25020617869E+04 0.  0.
        5    1    3    3  502    0 -0.81334235382E+03 -0.41972405995E+03 -0.15918854820E+04  0.18362504048E+04  0.46999998093E+01 0.  1.
       -5    1    3    3    0  502  0.81334235382E+03  0.41972405995E+03  0.32118979572E+03  0.96998919885E+03  0.46999998093E+01 0. -1.
</event>
<event>
 5   0  0.2432309E-05  0.2484278E+04  0.7818609E-02  0.8408608E-01
        2   -1    0    0  501    0  0.00000000000E+00  0.00000000000E+00  0.99495697606E+03  0.99495697606E+03  0.25500000920E-02 0. -1.
       -2   -1    0    0    0  501  0.00000000000E+00  0.00000000000E+00 -0.15507301719E+04  0.15507301719E+04  0.25500000920E-02 0.  1.
    10030    2    1    2    0    0  0.00000000000E+00  0.00000000000E+00 -0.55577319579E+03  0.25456871479E+04  0.24842784083E+04 0.  0.
        4    1    3    3  502    0 -0.37539203343E+03 -0.92330254888E+03 -0.10374939725E+04  0.14386806912E+04  0.12699999809E+01 0.  1.
       -4    1    3    3    0  502  0.37539203343E+03  0.92330254888E+03  0.48172077668E+03  0.11070064567E+04  0.12699999809E+01 0. -1.
</event>
<event>
 5   0  0.2388326E-05  0.2514170E+04  0.7818609E-02  0.8397955E-01
       -2   -1    0    0    0  501  0.00000000000E+00  0.00000000000E+00  0.82158191950E+03  0.82158191950E+03  0.25500000920E-02 0. -1.
        2   -1    0    0  501    0  0.00000000000E+00  0.00000000000E+00 -0.19234387568E+04  0.19234387568E+04  0.25500000920E-02 0.  1.
    10030    2    1    2    0    0  0.00000000000E+00  0.00000000000E+00 -0.11018568373E+04  0.27450206763E+04  0.25141698478E+04 0.  0.
        2    1    3    3  502    0 -0.99121341110E+03  0.55976515660E+03  0.31351990758E+02  0.11387818071E+04  0.25500000920E-02 0. -1.
       -2    1    3    3    0  502  0.99121341110E+03 -0.55976515660E+03 -0.11332088281E+04  0.16062388692E+04  0.25500000920E-02 0.  1.
</event>
<event>
 5   0  0.1015327E-05  0.2495996E+04  0.7818609E-02  0.8404413E-01
        1   -1    0    0  501    0  0.00000000000E+00  0.00000000000E+00  0.12323765427E+04  0.12323765427E+04  0.50400001928E-02 0.  1.
       -1   -1    0    0    0  501  0.00000000000E+00  0.00000000000E+00 -0.12638176959E+04  0.12638176959E+04  0.50400001928E-02 0. -1.
    10030    2    1    2    0    0  0.00000000000E+00  0.00000000000E+00 -0.31441153238E+02  0.24961942386E+04  0.24959962201E+04 0.  0.
        4    1    3    3  502    0 -0.62296761122E+03 -0.30204736237E+03  0.10227145421E+04  0.12350173688E+04  0.12699999809E+01 0.  1.
       -4    1    3    3    0  502  0.62296761122E+03  0.30204736237E+03 -0.10541556954E+04  0.12611768697E+04  0.12699999809E+01 0. -1.
</event>
<event>
 5   0  0.2345143E-05  0.2526578E+04  0.7818609E-02  0.8393578E-01
       -2   -1    0    0    0  501  0.00000000000E+00  0.00000000000E+00  0.10125206906E+04  0.10125206906E+04  0.25500000920E-02 0.  1.
        2   -1    0    0  501    0  0.00000000000E+00  0.00000000000E+00 -0.15761643574E+04  0.15761643574E+04  0.25500000920E-02 0. -1.
    10030    2    1    2    0    0  0.00000000000E+00  0.00000000000E+00 -0.56364366679E+03  0.25886850480E+04  0.25265779415E+04 0.  0.
        5    1    3    3  502    0  0.40279258888E+03 -0.11685789947E+04 -0.54911431025E+03  0.13525410723E+04  0.46999998093E+01 0.  1.
       -5    1    3    3    0  502 -0.40279258888E+03  0.11685789947E+04 -0.14529356539E+02  0.12361439757E+04  0.46999998093E+01 0. -1.
</event>
<event>
 5   0  0.1008073E-05  0.2494217E+04  0.7818609E-02  0.8405049E-01
        1   -1    0    0  501    0  0.00000000000E+00  0.00000000000E+00  0.17345344382E+04  0.17345344382E+04  0.50400001928E-02 0.  1.
       -1   -1    0    0    0  501  0.00000000000E+00  0.00000000000E+00 -0.89665540924E+03  0.89665540926E+03  0.50400001928E-02 0. -1.
    10030    2    1    2    0    0  0.00000000000E+00  0.00000000000E+00  0.83787902900E+03  0.26311898475E+04  0.24942170608E+04 0.  0.
        1    1    3    3  502    0 -0.14228104162E+03  0.77928910909E+03 -0.59715026045E+03  0.99203016281E+03  0.50400001928E-02 0. -1.
       -1    1    3    3    0  502  0.14228104162E+03 -0.77928910909E+03  0.14350292894E+04  0.16391596847E+04  0.50400001928E-02 0.  1.
</event>
<event>
 5   0  0.2432309E-05  0.2506837E+04  0.7818609E-02  0.8400554E-01
       -2   -1    0    0    0  501  0.00000000000E+00  0.00000000000E+00  0.19247456157E+04  0.19247456157E+04  0.25500000920E-02 0. -1.
        2   -1    0    0  501    0  0.00000000000E+00  0.00000000000E+00 -0.81624165816E+03  0.81624165816E+03  0.25500000920E-02 0.  1.
    10030    2    1    2    0    0  0.00000000000E+00  0.00000000000E+00  0.11085039575E+04  0.27409872739E+04  0.25068366942E+04 0.  0.
        4    1    3    3  502    0  0.10308894111E+04 -0.59429590853E+03  0.98491376784E+03  0.15446609168E+04  0.12699999809E+01 0.  1.
       -4    1    3    3    0  502 -0.10308894111E+04  0.59429590853E+03  0.12359018971E+03  0.11963263571E+04  0.12699999809E+01 0. -1.
</event>
<event>
 5   0  0.1010338E-05  0.2490931E+04  0.7818609E-02  0.8406224E-01
       -1   -1    0    0    0  501  0.00000000000E+00  0.00000000000E+00  0.73863013246E+03  0.73863013247E+03  0.50400001928E-02 0. -1.
        1   -1    0    0  501    0  0.00000000000E+00  0.00000000000E+00 -0.21000827462E+04  0.21000827462E+04  0.50400001928E-02 0.  1.
    10030    2    1    2    0    0  0.00000000000E+00  0.00000000000E+00 -0.13614526137E+04  0.28387128787E+04  0.24909310685E+04 0.  0.
        2    1    3    3  502    0 -0.11755381305E+04 -0.13090212278E+03 -0.23618842689E+03  0.12061551455E+04  0.25500000920E-02 0.  1.
       -2    1    3    3    0  502  0.11755381305E+04  0.13090212278E+03 -0.11252641868E+04  0.16325577332E+04  0.25500000920E-02 0. -1.
</event>
<event>
 5   0  0.1010338E-05  0.2498336E+04  0.7818609E-02  0.8403579E-01
        1   -1    0    0  501    0  0.00000000000E+00  0.00000000000E+00  0.11313542674E+04  0.11313542674E+04  0.50400001928E-02 0. -1.
       -1   -1    0    0    0  501  0.00000000000E+00  0.00000000000E+00 -0.13792501102E+04  0.13792501102E+04  0.50400001928E-02 0.  1.
    10030    2    1    2    0    0  0.00000000000E+00  0.00000000000E+00 -0.24789584277E+03  0.25106043776E+04  0.24983358445E+04 0.  0.
        2    1    3    3  502    0 -0.23715022947E+03  0.51278599204E+03 -0.12435243166E+04  0.13658486120E+04  0.25500000920E-02 0.  1.
       -2    1    3    3    0  502  0.23715022947E+03 -0.51278599204E+03  0.99562847382E+03  0.11447557656E+04  0.25500000920E-02 0. -1.
</event>
<event>
 5   0  0.2388326E-05  0.2486059E+04  0.7818609E-02  0.8407969E-01
        2   -1    0    0  501    0  0.00000000000E+00  0.00000000000E+00  0.12286660707E+04  0.12286660707E+04  0.25500000920E-02 0.  1.
       -2   -1    0    0    0  501  0.00000000000E+00  0.00000000000E+00 -0.12575609518E+04  0.12575609518E+04  0.25500000920E-02 0. -1.
    10030    2    1    2    0    0  0.00000000000E+00  0.00000000000E+00 -0.28894881102E+02  0.24862270224E+04  0.24860591089E+04 0.  0.
        2    1    3    3  502    0 -0.65840221974E+02  0.94556156704E+03 -0.81867888937E+03  0.12524602731E+04  0.25500000920E-02 0. -1.
       -2    1    3    3    0  502  0.65840221974E+02 -0.94556156704E+03  0.78978400827E+03  0.12337667493E+04  0.25500000920E-02 0.  1.
</event>
<event>
 5   0  0.8166500E-06  0.2499327E+04  0.7818609E-02  0.8403225E-01
       -3   -1    0    0    0  501  0.00000000000E+00  0.00000000000E+00  0.10337186689E+04  0.10337186739E+04  0.10100000352E+00 0. -1.
        3   -1    0    0  501    0  0.00000000000E+00  0.00000000000E+00 -0.15107188588E+04  0.15107188622E+04  0.10100000352E+00 0.  1.
    10030    2    1    2    0    0  0.00000000000E+00  0.00000000000E+00 -0.47700018991E+03  0.25444375361E+04  0.24993265480E+04 0.  0.
        2    1    3    3  502    0  0.87043407311E+03 -0.57513891337E+02 -0.11494664617E+04  0.14429956583E+04  0.25500000920E-02 0.  1.
       -2    1    3    3    0  502 -0.87043407311E+03  0.57513891337E+02  0.67246627180E+03  0.11014418777E+04  0.25500000920E-02 0. -1.
</event>
<event>
 5   0  0.1008073E-05  0.2453689E+04  0.7818609E-02  0.8419672E-01
       -1   -1    0    0    0  501  0.00000000000E+00  0.00000000000E+00  0.15013931419E+04  0.15013931419E+04  0.50400001928E-02 0. -1.
        1   -1    0    0  501    0  0.00000000000E+00  0.00000000000E+00 -0.10025007510E+04  0.10025007510E+04  0.50400001928E-02 0.  1.
    10030    2    1    2    0    0  0.00000000000E+00  0.00000000000E+00  0.49889239093E+03  0.25038938930E+04  0.24536892651E+04 0.  0.
        1    1    3    3  502    0 -0.20394808810E+03 -0.25464296205E+03 -0.95742294105E+03  0.10114823522E+04  0.50400001928E-02 0.  1.
       -1    1    3    3    0  502  0.20394808810E+03  0.25464296205E+03  0.14563153320E+04  0.14924115407E+04  0.50400001928E-02 0. -1.
</event>
<event>
 5   0  0.1002753E-05  0.2441992E+04  0.7818609E-02  0.8423948E-01
        1   -1    0    0  501    0  0.00000000000E+00  0.00000000000E+00  0.69332367893E+03  0.69332367895E+03  0.50400001928E-02 0.  1.
       -1   -1    0    0    0  501  0.00000000000E+00  0.00000000000E+00 -0.21502670069E+04  0.21502670069E+04  0.50400001928E-02 0. -1.
    10030    2    1    2    0    0  0.00000000000E+00  0.00000000000E+00 -0.14569433280E+04  0.28435906858E+04  0.24419918361E+04 0.  0.
        5    1    3    3  502    0  0.16955095902E+03  0.91901586930E+02 -0.21324087610E+04  0.21411171485E+04  0.46999998093E+01 0. -1.
       -5    1    3    3    0  502 -0.16955095902E+03 -0.91901586930E+02  0.67546543309E+03  0.70247353735E+03  0.46999998093E+01 0.  1.
</event>
<event>
 5   0  0.2388326E-05  0.2576239E+04  0.7818609E-02  0.8376317E-01
       -2   -1    0    0    0  501  0.00000000000E+00  0.00000000000E+00  0.92795049659E+03  0.92795049659E+03  0.25500000920E-02 0. -1.
        2   -1    0    0  501    0  0.00000000000E+00  0.00000000000E+00 -0.17880822357E+04  0.17880822357E+04  0.25500000920E-02 0.  1.
    10030    2    1    2    0    0  0.00000000000E+00  0.00000000000E+00 -0.86013173909E+03  0.27160327323E+04  0.25762389629E+04 0.  0.
        2    1    3    3  502    0 -0.65949552632E+03 -0.20483338421E+03  0.71630160257E+03  0.99497690946E+03  0.25500000920E-02 0. -1.
       -2    1    3    3    0  502  0.65949552632E+03  0.20483338421E+03 -0.15764333417E+04  0.17210558228E+04  0.25500000920E-02 0.  1.
</event>
<event>
 5   0  0.2388326E-05  0.2490694E+04  0.7818609E-02  0.8406308E-01
        2   -1    0    0  501    0  0.00000000000E+00  0.00000000000E+00  0.76805024824E+03  0.76805024825E+03  0.25500000920E-02 0.  1.
       -2   -1    0    0    0  501  0.00000000000E+00  0.00000000000E+00 -0.20192550815E+04  0.20192550815E+04  0.25500000920E-02 0. -1.
    10030    2    1    2    0    0  0.00000000000E+00  0.00000000000E+00 -0.12512048333E+04  0.27873053297E+04  0.24906941736E+04 0.  0.
        2    1    3    3  502    0 -0.32539036817E+03 -0.11207890490E+04 -0.11119131735E+04  0.16119546797E+04  0.25500000920E-02 0.  1.
       -2    1    3    3    0  502  0.32539036817E+03  0.11207890490E+04 -0.13929165973E+03  0.11753506500E+04  0.25500000920E-02 0. -1.
</event>
<event>
 5   0  0.1008073E-05  0.2501603E+04  0.7818609E-02  0.8402415E-01
        1   -1    0    0  501    0  0.00000000000E+00  0.00000000000E+00  0.21290309987E+04  0.21290309987E+04  0.50400001928E-02 0. -1.
       -1   -1    0    0    0  501  0.00000000000E+00  0.00000000000E+00 -0.73484339364E+03  0.73484339366E+03  0.50400001928E-02 0.  1.
    10030    2    1    2    0    0  0.00000000000E+00  0.00000000000E+00  0.13941876050E+04  0.28638743923E+04  0.25016029775E+04 0.  0.
        1    1    3    3  502    0 -0.53145286270E+03 -0.10250120635E+04  0.12478114296E+04  0.17000368348E+04  0.50400001928E-02 0. -1.
       -1    1    3    3    0  502  0.53145286270E+03  0.10250120635E+04  0.14637617540E+03  0.11638375576E+04  0.50400001928E-02 0.  1.
</event>
<event>
 5   0  0.2441340E-05  0.2494744E+04  0.7818609E-02  0.8404860E-01
        2   -1    0    0  501    0  0.00000000000E+00  0.00000000000E+00  0.20553779263E+04  0.20553779263E+04  0.25500000920E-02 0.  1.
       -2   -1    0    0    0  501  0.00000000000E+00  0.00000000000E+00 -0.75700765114E+03  0.75700765115E+03  0.25500000920E-02 0. -1.
    10030    2    1    2    0    0  0.00000000000E+00  0.00000000000E+00  0.12983702752E+04  0.28123855775E+04  0.24947439277E+04 0.  0.
        3    1    3    3  502    0  0.55180355811E+01 -0.11591877535E+04  0.11684769274E+04  0.16459298395E+04  0.10100000352E+00 0.  1.
       -3    1    3    3    0  502 -0.55180355811E+01  0.11591877535E+04  0.12989334779E+03  0.11664557379E+04  0.10100000352E+00 0. -1.
</event>
<event>
 5   0  0.2441340E-05  0.2485999E+04  0.7818609E-02  0.8407991E-01
       -2   -1    0    0    0  501  0.00000000000E+00  0.00000000000E+00  0.92610234998E+03  0.92610234998E+03  0.25500000920E-02 0.  1.
        2   -1    0    0  501    0  0.00000000000E+00  0.00000000000E+00 -0.16683335996E+04  0.16683335996E+04  0.25500000920E-02 0. -1.
    10030    2    1    2    0    0  0.00000000000E+00  0.00000000000E+00 -0.74223124959E+03  0.25944359496E+04  0.24859989277E+04 0.  0.
        3    1    3    3  502    0  0.44624409498E+03  0.11069454759E+04 -0.87143630937E+01  0.11935401247E+04  0.10100000352E+00 0.  1.
       -3    1    3    3    0  502 -0.44624409498E+03 -0.11069454759E+04 -0.73351688650E+03  0.14008958248E+04  0.10100000352E+00 0. -1.
</event>
<event>
 5   0  0.2432309E-05  0.2593517E+04  0.7818609E-02  0.8370407E-01
        2   -1    0    0  501    0  0.00000000000E+00  0.00000000000E+00  0.17493742488E+04  0.17493742488E+04  0.25500000920E-02 0. -1.
       -2   -1    0    0    0  501  0.00000000000E+00  0.00000000000E+00 -0.96124784371E+03  0.96124784371E+03  0.25500000920E-02 0.  1.
    10030    2    1    2    0    0  0.00000000000E+00  0.00000000000E+00  0.78812640506E+03  0.27106220925E+04  0.25935167048E+04 0.  0.
        4    1    3    3  502    0 -0.10396070693E+04  0.24853703174E+03 -0.37327217745E+03  0.11322045954E+04  0.12699999809E+01 0.  1.
       -4    1    3    3    0  502  0.10396070693E+04 -0.24853703174E+03  0.11613985825E+04  0.15784174970E+04  0.12699999809E+01 0. -1.
</event>
<event>
 5   0  0.1015327E-05  0.2457846E+04  0.7818609E-02  0.8418159E-01
        1   -1    0    0  501    0  0.00000000000E+00  0.00000000000E+00  0.11983479552E+04  0.11983479552E+04  0.50400001928E-02 0.  1.
       -1   -1    0    0    0  501  0.00000000000E+00  0.00000000000E+00 -0.12602785679E+04  0.12602785680E+04  0.50400001928E-02 0. -1.
    10030    2    1    2    0    0  0.00000000000E+00  0.00000000000E+00 -0.61930612731E+02  0.24586265232E+04  0.24578464109E+04 0.  0.
        4    1    3    3  502    0  0.13635573765E+03 -0.99963447248E+03  0.67096152807E+03  0.12116323497E+04  0.12699999809E+01 0.  1.
       -4    1    3    3    0  502 -0.13635573765E+03  0.99963447248E+03 -0.73289214080E+03  0.12469941735E+04  0.12699999809E+01 0. -1.
</event>
<event>
 5   0  0.1015327E-05  0.2505953E+04  0.7818609E-02  0.8400868E-01
       -1   -1    0    0    0  501  0.00000000000E+00  0.00000000000E+00  0.17107325581E+04  0.17107325581E+04  0.50400001928E-02 0.  1.
        1   -1    0    0  501    0  0.00000000000E+00  0.00000000000E+00 -0.91770610400E+03  0.91770610402E+03  0.50400001928E-02 0. -1.
    10030    2    1    2    0    0  0.00000000000E+00  0.00000000000E+00  0.79302645408E+03  0.26284386621E+04  0.25059526818E+04 0.  0.
        4    1    3    3  502    0  0.13366316903E+03 -0.88689934734E+03 -0.52117519540E+03  0.10373434784E+04  0.12699999809E+01 0. -1.
       -4    1    3    3    0  502 -0.13366316903E+03  0.88689934734E+03  0.13142016495E+04  0.15910951837E+04  0.12699999809E+01 0.  1.
</event>
<event>
 5   0  0.2345143E-05  0.2506351E+04  0.7818609E-02  0.8400726E-01
       -2   -1    0    0    0  501  0.00000000000E+00  0.00000000000E+00  0.56872195982E+03  0.56872195983E+03  0.25500000920E-02 0.  1.
        2   -1    0    0  501    0  0.00000000000E+00  0.00000000000E+00 -0.27613656147E+04  0.27613656147E+04  0.25500000920E-02 0. -1.
    10030    2    1    2    0    0  0.00000000000E+00  0.00000000000E+00 -0.21926436549E+04  0.33300875746E+04  0.25063513435E+04 0.  0.
        5    1    3    3  502    0  0.12255824478E+04  0.48696700125E+02 -0.75497404502E+03  0.14402887223E+04  0.46999998093E+01 0.  1.
       -5    1    3    3    0  502 -0.12255824478E+04 -0.48696700125E+02 -0.14376696099E+04  0.18897988523E+04  0.46999998093E+01 0. -1.
</event>
<event>
 5   0  0.1015327E-05  0.2489687E+04  0.7818609E-02  0.8406669E-01
        1   -1    0    0  501    0  0.00000000000E+00  0.00000000000E+00  0.12679172189E+04  0.12679172189E+04  0.50400001928E-02 0.  1.
       -1   -1    0    0    0  501  0.00000000000E+00  0.00000000000E+00 -0.12221899230E+04  0.12221899230E+04  0.50400001928E-02 0. -1.
    10030    2    1    2    0    0  0.00000000000E+00  0.00000000000E+00  0.45727295884E+02  0.24901071419E+04  0.24896872479E+04 0.  0.
        4    1    3    3  502    0  0.65795339724E+03 -0.83634798592E+03  0.66892414273E+03  0.12569175582E+04  0.12699999809E+01 0.  1.
       -4    1    3    3    0  502 -0.65795339724E+03  0.83634798592E+03 -0.62319684685E+03  0.12331895837E+04  0.12699999809E+01 0. -1.
</event>
<event>
 5   0  0.2441340E-05  0.2442001E+04  0.7818609E-02  0.8423944E-01
        2   -1    0    0  501    0  0.00000000000E+00  0.00000000000E+00  0.16263423241E+04  0.16263423241E+04  0.25500000920E-02 0.  1.
       -2   -1    0    0    0  501  0.00000000000E+00  0.00000000000E+00 -0.91668384806E+03  0.91668384806E+03  0.25500000920E-02 0. -1.
    10030    2    1    2    0    0  0.00000000000E+00  0.00000000000E+00  0.70965847600E+03  0.25430261721E+04  0.24420006060E+04 0.  0.
        3    1    3    3  502    0 -0.32800545947E+03  0.91581669195E+03  0.11232826397E+04  0.14859581735E+04  0.10100000352E+00 0.  1.
       -3    1    3    3    0  502  0.32800545947E+03 -0.91581669195E+03 -0.41362416367E+03  0.10570679986E+04  0.10100000352E+00 0. -1.
</event>
<event>
 5   0  0.2345143E-05  0.2491893E+04  0.7818609E-02  0.8405879E-01
       -2   -1    0    0    0  501  0.00000000000E+00  0.00000000000E+00  0.13775797428E+04  0.13775797428E+04  0.25500000920E-02 0.  1.
        2   -1    0    0  501    0  0.00000000000E+00  0.00000000000E+00 -0.11268911440E+04  0.11268911440E+04  0.25500000920E-02 0. -1.
    10030    2    1    2    0    0  0.00000000000E+00  0.00000000000E+00  0.25068859878E+03  0.25044708868E+04  0.24918927845E+04 0.  0.
        5    1    3    3  502    0  0.98309815353E+03  0.39980177655E+03  0.78135395858E+03  0.13178996694E+04  0.46999998093E+01 0.  1.
       -5    1    3    3    0  502 -0.98309815353E+03 -0.39980177655E+03 -0.53066535979E+03  0.11865712175E+04  0.46999998093E+01 0. -1.
</event>
<event>
 5   0  0.1015327E-05  0.2342007E+04  0.7818609E-02  0.8461540E-01
        1   -1    0    0  501    0  0.00000000000E+00  0.00000000000E+00  0.14518056105E+04  0.14518056105E+04  0.50400001928E-02 0. -1.
       -1   -1    0    0    0  501  0.00000000000E+00  0.00000000000E+00 -0.94451315006E+03  0.94451315008E+03  0.50400001928E-02 0.  1.
    10030    2    1    2    0    0  0.00000000000E+00  0.00000000000E+00  0.50729246045E+03  0.23963187606E+04  0.23420072506E+04 0.  0.
        4    1    3    3  502    0  0.63077115764E+03 -0.57354434948E+03 -0.56772918816E+03  0.10242770222E+04  0.12699999809E+01 0.  1.
       -4    1    3    3    0  502 -0.63077115764E+03  0.57354434948E+03  0.10750216486E+04  0.13720417384E+04  0.12699999809E+01 0. -1.
</event>
<event>
 5   0  0.1039688E-05  0.2499967E+04  0.7818609E-02  0.8402997E-01
       -1   -1    0    0    0  501  0.00000000000E+00  0.00000000000E+00  0.12839831714E+04  0.12839831714E+04  0.50400001928E-02 0. -1.
        1   -1    0    0  501    0  0.00000000000E+00  0.00000000000E+00 -0.12168839568E+04  0.12168839568E+04  0.50400001928E-02 0.  1.
    10030    2    1    2    0    0  0.00000000000E+00  0.00000000000E+00  0.67099214641E+02  0.25008671282E+04  0.24999668175E+04 0.  0.
        3    1    3    3  502    0  0.27718148719E+03  0.29036174643E+03 -0.11506499048E+04  0.12186610416E+04  0.10100000352E+00 0.  1.
       -3    1    3    3    0  502 -0.27718148719E+03 -0.29036174643E+03  0.12177491194E+04  0.12822060867E+04  0.10100000352E+00 0. -1.
</event>
<event>
 5   0  0.1015327E-05  0.2487740E+04  0.7818609E-02  0.8407366E-01
        1   -1    0    0  501    0  0.00000000000E+00  0.00000000000E+00  0.23331596452E+04  0.23331596452E+04  0.50400001928E-02 0. -1.
       -1   -1    0    0    0  501  0.00000000000E+00  0.00000000000E+00 -0.66314027403E+03  0.66314027405E+03  0.50400001928E-02 0.  1.
    10030    2    1    2    0    0  0.00000000000E+00  0.00000000000E+00  0.16700193711E+04  0.29962999192E+04  0.24877396379E+04 0.  0.
        4    1    3    3  502    0 -0.52269173041E+03 -0.10677546781E+04  0.12757439680E+04  0.17437978617E+04  0.12699999809E+01 0.  1.
       -4    1    3    3    0  502  0.52269173041E+03  0.10677546781E+04  0.39427540313E+03  0.12525020575E+04  0.12699999809E+01 0. -1.
</event>
<event>
 5   0  0.2345143E-05  0.2523439E+04  0.7818609E-02  0.8394682E-01
        2   -1    0    0  501    0  0.00000000000E+00  0.00000000000E+00  0.17609675597E+04  0.17609675597E+04  0.25500000920E-02 0.  1.
       -2   -1    0    0    0  501  0.00000000000E+00  0.00000000000E+00 -0.90401232546E+03  0.90401232546E+03  0.25500000920E-02 0. -1.
    10030    2    1    2    0    0  0.00000000000E+00  0.00000000000E+00  0.85695523426E+03  0.26649798852E+04  0.25234392235E+04 0.  0.
        5    1    3    3  502    0 -0.51591372502E+03 -0.74518018181E+03 -0.49851097739E+03  0.10344059936E+04  0.46999998093E+01 0. -1.
       -5    1    3    3    0  502  0.51591372502E+03  0.74518018181E+03  0.13554662116E+04  0.16305738916E+04  0.46999998093E+01 0.  1.
</event>
<event>
 5   0  0.1015327E-05  0.2509573E+04  0.7818609E-02  0.8399583E-01
       -1   -1    0    0    0  501  0.00000000000E+00  0.00000000000E+00  0.19923619143E+04  0.19923619143E+04  0.50400001928E-02 0. -1.
        1   -1    0    0  501    0  0.00000000000E+00  0.00000000000E+00 -0.79026254581E+03  0.79026254583E+03  0.50400001928E-02 0.  1.
    10030    2    1    2    0    0  0.00000000000E+00  0.00000000000E+00  0.12020993685E+04  0.27826244602E+04  0.25095728709E+04 0.  0.
        4    1    3    3  502    0  0.14486503645E+03  0.10730242404E+03 -0.77582762155E+03  0.79649846217E+03  0.12699999809E+01 0.  1.
       -4    1    3    3    0  502 -0.14486503645E+03 -0.10730242404E+03  0.19779269901E+04  0.19861259980E+04  0.12699999809E+01 0. -1.
</event>
<event>
 5   0  0.1010338E-05  0.2503245E+04  0.7818609E-02  0.8401830E-01
       -1   -1    0    0    0  501  0.00000000000E+00  0.00000000000E+00  0.14032096826E+04  0.14032096826E+04  0.50400001928E-02 0.  1.
        1   -1    0    0  501    0  0.00000000000E+00  0.00000000000E+00 -0.11164110009E+04  0.11164110010E+04  0.50400001928E-02 0. -1.
    10030    2    1    2    0    0  0.00000000000E+00  0.00000000000E+00  0.28679868165E+03  0.25196206836E+04  0.25032448752E+04 0.  0.
        2    1    3    3  502    0  0.72007676055E+03  0.10161198481E+04  0.17889428624E+02  0.12455240337E+04  0.25500000920E-02 0.  1.
       -2    1    3    3    0  502 -0.72007676055E+03 -0.10161198481E+04  0.26890925303E+03  0.12740966499E+04  0.25500000920E-02 0. -1.
</event>
<event>
 5   0  0.8166500E-06  0.2547714E+04  0.7818609E-02  0.8386182E-01
        3   -1    0    0  501    0  0.00000000000E+00  0.00000000000E+00  0.95660970941E+03  0.95660971474E+03  0.10100000352E+00 0.  1.
       -3   -1    0    0    0  501  0.00000000000E+00  0.00000000000E+00 -0.16963153781E+04  0.16963153811E+04  0.10100000352E+00 0. -1.
    10030    2    1    2    0    0  0.00000000000E+00  0.00000000000E+00 -0.73970566865E+03  0.26529250958E+04  0.25477140907E+04 0.  0.
        2    1    3    3  502    0 -0.35580445939E+03 -0.75413466913E+03 -0.13726356322E+04  0.16060649088E+04  0.25500000920E-02 0. -1.
       -2    1    3    3    0  502  0.35580445939E+03  0.75413466913E+03  0.63292996350E+03  0.10468601870E+04  0.25500000920E-02 0.  1.
</event>
<event>
 5   0  0.2388326E-05  0.2561769E+04  0.7818609E-02  0.8381305E-01
        2   -1    0    0  501    0  0.00000000000E+00  0.00000000000E+00  0.89102750610E+03  0.89102750610E+03  0.25500000920E-02 0. -1.
       -2   -1    0    0    0  501  0.00000000000E+00  0.00000000000E+00 -0.18413184142E+04  0.18413184142E+04  0.25500000920E-02 0.  1.
    10030    2    1    2    0    0  0.00000000000E+00  0.00000000000E+00 -0.95029090806E+03  0.27323459203E+04  0.25617691969E+04 0.  0.
        2    1    3    3  502    0  0.11763987593E+04 -0.43614539629E+03 -0.20003976598E+03  0.12704931151E+04  0.25500000920E-02 0. -1.
       -2    1    3    3    0  502 -0.11763987593E+04  0.43614539629E+03 -0.75025114208E+03  0.14618528051E+04  0.25500000920E-02 0.  1.
</event>
<event>
 5   0  0.2432309E-05  0.2486366E+04  0.7818609E-02  0.8407859E-01
        2   -1    0    0  501    0  0.00000000000E+00  0.00000000000E+00  0.12331942089E+04  0.12331942089E+04  0.25500000920E-02 0. -1.
       -2   -1    0    0    0  501  0.00000000000E+00  0.00000000000E+00 -0.12532522132E+04  0.12532522132E+04  0.25500000920E-02 0.  1.
    10030    2    1    2    0    0  0.00000000000E+00  0.00000000000E+00 -0.20058004337E+02  0.24864464221E+04  0.24863655174E+04 0.  0.
        4    1    3    3  502    0 -0.86912349331E+03 -0.86706377153E+03  0.18574899047E+03  0.12416438825E+04  0.12699999809E+01 0. -1.
       -4    1    3    3    0  502  0.86912349331E+03  0.86706377153E+03 -0.20580699481E+03  0.12448025396E+04  0.12699999809E+01 0.  1.
</event>
<event>
 5   0  0.2441340E-05  0.2506936E+04  0.7818609E-02  0.8400519E-01
       -2   -1    0    0    0  501  0.00000000000E+00  0.00000000000E+00  0.18298249797E+04  0.18298249797E+04  0.25500000920E-02 0.  1.
        2   -1    0    0  501    0  0.00000000000E+00  0.00000000000E+00 -0.85865155716E+03  0.85865155716E+03  0.25500000920E-02 0. -1.
    10030    2    1    2    0    0  0.00000000000E+00  0.00000000000E+00  0.97117342253E+03  0.26884765368E+04  0.25069360328E+04 0.  0.
        3    1    3    3  502    0  0.12053681361E+04 -0.23347627132E+03  0.21479697607E+03  0.12464193772E+04  0.10100000352E+00 0. -1.
       -3    1    3    3    0  502 -0.12053681361E+04  0.23347627132E+03  0.75637644646E+03  0.14420571596E+04  0.10100000352E+00 0.  1.
</event>
<event>
 5   0  0.1008073E-05  0.2080289E+04  0.7818609E-02  0.8569976E-01
       -1   -1    0    0    0  501  0.00000000000E+00  0.00000000000E+00  0.44826258916E+03  0.44826258918E+03  0.50400001928E-02 0.  1.
        1   -1    0    0  501    0  0.00000000000E+00  0.00000000000E+00 -0.24135422668E+04  0.24135422668E+04  0.50400001928E-02 0. -1.
    10030    2    1    2    0    0  0.00000000000E+00  0.00000000000E+00 -0.19652796777E+04  0.28618048560E+04  0.20802891199E+04 0.  0.
        1    1    3    3  502    0 -0.10222758065E+04 -0.14846805576E+03 -0.81522437485E+03  0.13159336493E+04  0.50400001928E-02 0. -1.
       -1    1    3    3    0  502  0.10222758065E+04  0.14846805576E+03 -0.11500553028E+04  0.15458712067E+04  0.50400001928E-02 0.  1.
</event>
<event>
 5   0  0.1039688E-05  0.2470476E+04  0.7818609E-02  0.8413580E-01
        1   -1    0    0  501    0  0.00000000000E+00  0.00000000000E+00  0.95822679449E+03  0.95822679450E+03  0.50400001928E-02 0.  1.
       -1   -1    0    0    0  501  0.00000000000E+00  0.00000000000E+00 -0.15923290984E+04  0.15923290984E+04  0.50400001928E-02 0. -1.
    10030    2    1    2    0    0  0.00000000000E+00  0.00000000000E+00 -0.63410230395E+03  0.25505558929E+04  0.24704755881E+04 0.  0.
        3    1    3    3  502    0  0.37229840137E+03  0.11676285423E+04 -0.47649120314E+03  0.13149168754E+04  0.10100000352E+00 0. -1.
       -3    1    3    3    0  502 -0.37229840137E+03 -0.11676285423E+04 -0.15761110081E+03  0.12356390175E+04  0.10100000352E+00 0.  1.
</event>
<event>
 5   0  0.1002753E-05  0.2503843E+04  0.7818609E-02  0.8401618E-01
       -1   -1    0    0    0  501  0.00000000000E+00  0.00000000000E+00  0.56190511515E+03  0.56190511517E+03  0.50400001928E-02 0.  1.
        1   -1    0    0  501    0  0.00000000000E+00  0.00000000000E+00 -0.27892749230E+04  0.27892749230E+04  0.50400001928E-02 0. -1.
    10030    2    1    2    0    0  0.00000000000E+00  0.00000000000E+00 -0.22273698078E+04  0.33511800381E+04  0.25038433232E+04 0.  0.
        5    1    3    3  502    0  0.10899709418E+04  0.16878709464E+03 -0.32100900534E+03  0.11487360919E+04  0.46999998093E+01 0.  1.
       -5    1    3    3    0  502 -0.10899709418E+04 -0.16878709464E+03 -0.19063608025E+04  0.22024439463E+04  0.46999998093E+01 0. -1.
</event>
<event>
 5   0  0.1002753E-05  0.2493447E+04  0.7818609E-02  0.8405324E-01
       -1   -1    0    0    0  501  0.00000000000E+00  0.00000000000E+00  0.84983307389E+03  0.84983307390E+03  0.50400001928E-02 0. -1.
        1   -1    0    0  501    0  0.00000000000E+00  0.00000000000E+00 -0.18289705602E+04  0.18289705602E+04  0.50400001928E-02 0.  1.
    10030    2    1    2    0    0  0.00000000000E+00  0.00000000000E+00 -0.97913748632E+03  0.26788036341E+04  0.24934471506E+04 0.  0.
        5    1    3    3  502    0  0.12458434731E+04  0.21201905702E+02 -0.44498564249E+03  0.13231061153E+04  0.46999998093E+01 0. -1.
       -5    1    3    3    0  502 -0.12458434731E+04 -0.21201905702E+02 -0.53415184383E+03  0.13556975188E+04  0.46999998093E+01 0.  1.
</event>
<event>
 5   0  0.2388326E-05  0.2494431E+04  0.7818609E-02  0.8404972E-01
       -2   -1    0    0    0  501  0.00000000000E+00  0.00000000000E+00  0.10293096209E+04  0.10293096209E+04  0.25500000920E-02 0. -1.
        2   -1    0    0  501    0  0.00000000000E+00  0.00000000000E+00 -0.15112522841E+04  0.15112522841E+04  0.25500000920E-02 0.  1.
    10030    2    1    2    0    0  0.00000000000E+00  0.00000000000E+00 -0.48194266312E+03  0.25405619050E+04  0.24944310098E+04 0.  0.
        2    1    3    3  502    0  0.18206050302E+02  0.61208831515E+03  0.86565973881E+03  0.10603538792E+04  0.25500000920E-02 0. -1.
       -2    1    3    3    0  502 -0.18206050302E+02 -0.61208831515E+03 -0.13476024019E+04  0.14802080258E+04  0.25500000920E-02 0.  1.
</event>
<event>
 5   0  0.2388326E-05  0.2500117E+04  0.7818609E-02  0.8402944E-01
        2   -1    0    0  501    0  0.00000000000E+00  0.00000000000E+00  0.13108603441E+04  0.13108603441E+04  0.25500000920E-02 0. -1.
       -2   -1    0    0    0  501  0.00000000000E+00  0.00000000000E+00 -0.11920768928E+04  0.11920768928E+04  0.25500000920E-02 0.  1.
    10030    2    1    2    0    0  0.00000000000E+00  0.00000000000E+00  0.11878345123E+03  0.25029372369E+04  0.25001170580E+04 0.  0.
        2    1    3    3  502    0  0.78596134703E+03 -0.66128024344E+03 -0.65388618731E+03  0.12176181443E+04  0.25500000920E-02 0.  1.
       -2    1    3    3    0  502 -0.78596134703E+03  0.66128024344E+03  0.77266963854E+03  0.12853190926E+04  0.25500000920E-02 0. -1.
</event>
<event>
 5   0  0.1039688E-05  0.2492866E+04  0.7818609E-02  0.8405532E-01
        1   -1    0    0  501    0  0.00000000000E+00  0.00000000000E+00  0.95465485333E+03  0.95465485334E+03  0.50400001928E-02 0. -1.
       -1   -1    0    0    0  501  0.00000000000E+00  0.00000000000E+00 -0.16273891478E+04  0.16273891478E+04  0.50400001928E-02 0.  1.
    10030    2    1    2    0    0  0.00000000000E+00  0.00000000000E+00 -0.67273429446E+03  0.25820440011E+04  0.24928657792E+04 0.  0.
        3    1    3    3  502    0  0.73575630463E+03 -0.99290977284E+03 -0.16811284402E+03  0.12471844672E+04  0.10100000352E+00 0.  1.
       -3    1    3    3    0  502 -0.73575630463E+03  0.99290977284E+03 -0.50462145044E+03  0.13348595339E+04  0.10100000352E+00 0. -1.
</event>
<event>
 5   0  0.1008073E-05  0.2506627E+04  0.7818609E-02  0.8400628E-01
       -1   -1    0    0    0  501  0.00000000000E+00  0.00000000000E+00  0.19729430932E+04  0.19729430932E+04  0.50400001928E-02 0.  1.
        1   -1    0    0  501    0  0.00000000000E+00  0.00000000000E+00 -0.79616831546E+03  0.79616831547E+03  0.50400001928E-02 0. -1.
    10030    2    1    2    0    0  0.00000000000E+00  0.00000000000E+00  0.11767747777E+04  0.27691114087E+04  0.25066270397E+04 0.  0.
        1    1    3    3  502    0 -0.65524436170E+03  0.78485823080E+03  0.13891711073E+04  0.17248605687E+04  0.50400001928E-02 0.  1.
       -1    1    3    3    0  502  0.65524436170E+03 -0.78485823080E+03 -0.21239632956E+03  0.10442508400E+04  0.50400001928E-02 0. -1.
</event>
<event>
 5   0  0.2441340E-05  0.2492008E+04  0.7818609E-02  0.8405838E-01
       -2   -1    0    0    0  501  0.00000000000E+00  0.00000000000E+00  0.15682190170E+04  0.15682190170E+04  0.25500000920E-02 0.  1.
        2   -1    0    0  501    0  0.00000000000E+00  0.00000000000E+00 -0.98999282013E+03  0.98999282013E+03  0.25500000920E-02 0. -1.
    10030    2    1    2    0    0  0.00000000000E+00  0.00000000000E+00  0.57822619692E+03  0.25582118372E+04  0.24920076784E+04 0.  0.
        3    1    3    3  502    0 -0.10968857172E+04  0.22533270349E+03  0.85006618440E+03  0.14058967358E+04  0.10100000352E+00 0.  1.
       -3    1    3    3    0  502  0.10968857172E+04 -0.22533270349E+03 -0.27183998749E+03  0.11523151013E+04  0.10100000352E+00 0. -1.
</event>
<event>
 5   0  0.2345143E-05  0.2518495E+04  0.7818609E-02  0.8396426E-01
       -2   -1    0    0    0  501  0.00000000000E+00  0.00000000000E+00  0.69986399062E+03  0.69986399062E+03  0.25500000920E-02 0. -1.
        2   -1    0    0  501    0  0.00000000000E+00  0.00000000000E+00 -0.22657316945E+04  0.22657316945E+04  0.25500000920E-02 0.  1.
    10030    2    1    2    0    0  0.00000000000E+00  0.00000000000E+00 -0.15658677038E+04  0.29655956851E+04  0.25184948087E+04 0.  0.
        5    1    3    3  502    0  0.27873146325E+03  0.11427916183E+04 -0.13121900350E+04  0.17622510291E+04  0.46999998093E+01 0.  1.
       -5    1    3    3    0  502 -0.27873146325E+03 -0.11427916183E+04 -0.25367766886E+03  0.12033446560E+04  0.46999998093E+01 0. -1.
</event>
<event>
 5   0  0.1010338E-05  0.2572808E+04  0.7818609E-02  0.8377497E-01
        1   -1    0    0  501    0  0.00000000000E+00  0.00000000000E+00  0.12912891447E+04  0.12912891447E+04  0.50400001928E-02 0. -1.
       -1   -1    0    0    0  501  0.00000000000E+00  0.00000000000E+00 -0.12815375470E+04  0.12815375470E+04  0.50400001928E-02 0.  1.
    10030    2    1    2    0    0  0.00000000000E+00  0.00000000000E+00  0.97515977629E+01  0.25728266917E+04  0.25728082113E+04 0.  0.
        2    1    3    3  502    0  0.71687563685E+03  0.77135595161E+03  0.74375514162E+03  0.12892138665E+04  0.25500000920E-02 0. -1.
       -2    1    3    3    0  502 -0.71687563685E+03 -0.77135595161E+03 -0.73400354385E+03  0.12836128253E+04  0.25500000920E-02 0.  1.
</event>
<event>
 5   0  0.1010338E-05  0.2491938E+04  0.7818609E-02  0.8405863E-01
        1   -1    0    0  501    0  0.00000000000E+00  0.00000000000E+00  0.13324005222E+04  0.13324005222E+04  0.50400001928E-02 0. -1.
       -1   -1    0    0    0  501  0.00000000000E+00  0.00000000000E+00 -0.11651445226E+04  0.11651445226E+04  0.50400001928E-02 0.  1.
    10030    2    1    2    0    0  0.00000000000E+00  0.00000000000E+00  0.16725599962E+03  0.24975450448E+04  0.24919383382E+04 0.  0.
        2    1    3    3  502    0  0.62419024368E+03  0.36044866630E+03  0.11022327469E+04  0.13169866095E+04  0.25500000920E-02 0. -1.
       -2    1    3    3    0  502 -0.62419024368E+03 -0.36044866630E+03 -0.93497674723E+03  0.11805584353E+04  0.25500000920E-02 0.  1.
</event>
<event>
 5   0  0.1039688E-05  0.2507212E+04  0.7818609E-02  0.8400421E-01
        1   -1    0    0  501    0  0.00000000000E+00  0.00000000000E+00  0.13674781064E+04  0.13674781064E+04  0.50400001928E-02 0. -1.
       -1   -1    0    0    0  501  0.00000000000E+00  0.00000000000E+00 -0.11492166163E+04  0.11492166163E+04  0.50400001928E-02 0.  1.
    10030    2    1    2    0    0  0.00000000000E+00  0.00000000000E+00  0.21826149008E+03  0.25166947227E+04  0.25072124459E+04 0.  0.
        3    1    3    3  502    0 -0.55049887943E+03  0.31775186924E+03  0.11937325405E+04  0.13524099435E+04  0.10100000352E+00 0. -1.
       -3    1    3    3    0  502  0.55049887943E+03 -0.31775186924E+03 -0.97547105044E+03  0.11642847792E+04  0.10100000352E+00 0.  1.
</event>
<event>
 5   0  0.2441340E-05  0.2501912E+04  0.7818609E-02  0.8402305E-01
       -2   -1    0    0    0  501  0.00000000000E+00  0.00000000000E+00  0.88826086221E+03  0.88826086221E+03  0.25500000920E-02 0.  1.
        2   -1    0    0  501    0  0.00000000000E+00  0.00000000000E+00 -0.17617470903E+04  0.17617470903E+04  0.25500000920E-02 0. -1.
    10030    2    1    2    0    0  0.00000000000E+00  0.00000000000E+00 -0.87348622813E+03  0.26500079526E+04  0.25019120604E+04 0.  0.
        3    1    3    3  502    0  0.11061234373E+04 -0.58422812118E+03 -0.42857818311E+03  0.13223126807E+04  0.10100000352E+00 0. -1.
       -3    1    3    3    0  502 -0.11061234373E+04  0.58422812118E+03 -0.44490804503E+03  0.13276952719E+04  0.10100000352E+00 0.  1.
</event>
<event>
 5   0  0.1002753E-05  0.2488988E+04  0.7818609E-02  0.8406919E-01
        1   -1    0    0  501    0  0.00000000000E+00  0.00000000000E+00  0.12886258662E+04  0.12886258662E+04  0.50400001928E-02 0.  1.
       -1   -1    0    0    0  501  0.00000000000E+00  0.00000000000E+00 -0.12018737648E+04  0.12018737649E+04  0.50400001928E-02 0. -1.
    10030    2    1    2    0    0  0.00000000000E+00  0.00000000000E+00  0.86752101387E+02  0.24904996311E+04  0.24889882453E+04 0.  0.
        5    1    3    3  502    0  0.82924516654E+03 -0.80457297055E+03 -0.41924474380E+03  0.12291352474E+04  0.46999998093E+01 0. -1.
       -5    1    3    3    0  502 -0.82924516654E+03  0.80457297055E+03  0.50599684519E+03  0.12613643837E+04  0.46999998093E+01 0.  1.
</event>
<event>
 5   0  0.1015327E-05  0.2252702E+04  0.7818609E-02  0.8496807E-01
       -1   -1    0    0    0  501  0.00000000000E+00  0.00000000000E+00  0.90612895044E+03  0.90612895045E+03  0.50400001928E-02 0.  1.
        1   -1    0    0  501    0  0.00000000000E+00  0.00000000000E+00 -0.14000953657E+04  0.14000953657E+04  0.50400001928E-02 0. -1.
    10030    2    1    2    0    0  0.00000000000E+00  0.00000000000E+00 -0.49396641524E+03  0.23062243161E+04  0.22527023276E+04 0.  0.
        4    1    3    3  502    0  0.39758357417E+03 -0.42508667312E+03  0.74023794221E+03  0.94166087425E+03  0.12699999809E+01 0.  1.
       -4    1    3    3    0  502 -0.39758357417E+03  0.42508667312E+03 -0.12342043574E+04  0.13645634419E+04  0.12699999809E+01 0. -1.
</event>
<event>
 5   0  0.2441340E-05  0.2517293E+04  0.7818609E-02  0.8396850E-01
       -2   -1    0    0    0  501  0.00000000000E+00  0.00000000000E+00  0.11351677436E+04  0.11351677436E+04  0.25500000920E-02 0. -1.
        2   -1    0    0  501    0  0.00000000000E+00  0.00000000000E+00 -0.13955572048E+04  0.13955572048E+04  0.25500000920E-02 0.  1.
    10030    2    1    2    0    0  0.00000000000E+00  0.00000000000E+00 -0.26038946122E+03  0.25307249485E+04  0.25172934063E+04 0.  0.
        3    1    3    3  502    0 -0.61490017212E+03 -0.67685650571E+03 -0.99965294714E+03  0.13548221197E+04  0.10100000352E+00 0.  1.
       -3    1    3    3    0  502  0.61490017212E+03  0.67685650571E+03  0.73926348592E+03  0.11759028288E+04  0.10100000352E+00 0. -1.
</event>
<event>
 5   0  0.2345143E-05  0.2492005E+04  0.7818609E-02  0.8405839E-01
       -2   -1    0    0    0  501  0.00000000000E+00  0.00000000000E+00  0.93644204948E+03  0.93644204948E+03  0.25500000920E-02 0. -1.
        2   -1    0    0  501    0  0.00000000000E+00  0.00000000000E+00 -0.16578943244E+04  0.16578943244E+04  0.25500000920E-02 0.  1.
    10030    2    1    2    0    0  0.00000000000E+00  0.00000000000E+00 -0.72145227493E+03  0.25943363739E+04  0.24920047825E+04 0.  0.
        5    1    3    3  502    0  0.38567787252E+03  0.11791563684E+04 -0.24047217938E+03  0.12637270756E+04  0.46999998093E+01 0.  1.
       -5    1    3    3    0  502 -0.38567787252E+03 -0.11791563684E+04 -0.48098009555E+03  0.13306092983E+04  0.46999998093E+01 0. -1.
</event>
<event>
 5   0  0.2345143E-05  0.2539828E+04  0.7818609E-02  0.8388932E-01
        2   -1    0    0  501    0  0.00000000000E+00  0.00000000000E+00  0.25340144714E+04  0.25340144714E+04  0.25500000920E-02 0.  1.
       -2   -1    0    0    0  501  0.00000000000E+00  0.00000000000E+00 -0.63641394125E+03  0.63641394126E+03  0.25500000920E-02 0. -1.
    10030    2    1    2    0    0  0.00000000000E+00  0.00000000000E+00  0.18976005301E+04  0.31704284126E+04  0.25398284485E+04 0.  0.
        5    1    3    3  502    0 -0.63653322153E+03 -0.33018811100E+03  0.22570960784E+04  0.23682701552E+04  0.46999998093E+01 0.  1.
       -5    1    3    3    0  502  0.63653322153E+03  0.33018811100E+03 -0.35949554829E+03  0.80215825745E+03  0.46999998093E+01 0. -1.
</event>
<event>
 5   0  0.2345143E-05  0.2512170E+04  0.7818609E-02  0.8398663E-01
       -2   -1    0    0    0  501  0.00000000000E+00  0.00000000000E+00  0.17953229703E+04  0.17953229703E+04  0.25500000920E-02 0. -1.
        2   -1    0    0  501    0  0.00000000000E+00  0.00000000000E+00 -0.87881132250E+03  0.87881132251E+03  0.25500000920E-02 0.  1.
    10030    2    1    2    0    0  0.00000000000E+00  0.00000000000E+00  0.91651164780E+03  0.26741342928E+04  0.25121704989E+04 0.  0.
        5    1    3    3  502    0 -0.85055682707E+03  0.37187309522E+02 -0.52481026266E+03  0.10001388473E+04  0.46999998093E+01 0.  1.
       -5    1    3    3    0  502  0.85055682707E+03 -0.37187309522E+02  0.14413219105E+04  0.16739954455E+04  0.46999998093E+01 0. -1.
</event>
<event>
 5   0  0.2388326E-05  0.2460157E+04  0.7818609E-02  0.8417319E-01
        2   -1    0    0  501    0  0.00000000000E+00  0.00000000000E+00  0.19714772528E+04  0.19714772528E+04  0.25500000920E-02 0. -1.
       -2   -1    0    0    0  501  0.00000000000E+00  0.00000000000E+00 -0.76749192481E+03  0.76749192481E+03  0.25500000920E-02 0.  1.
    10030    2    1    2    0    0  0.00000000000E+00  0.00000000000E+00  0.12039853280E+04  0.27389691776E+04  0.24601568011E+04 0.  0.
        2    1    3    3  502    0 -0.11718323619E+04 -0.26800607245E+03  0.31151236042E+03  0.12417963963E+04  0.25500000920E-02 0. -1.
       -2    1    3    3    0  502  0.11718323619E+04  0.26800607245E+03  0.89247296756E+03  0.14971727813E+04  0.25500000920E-02 0.  1.
</event>
<event>
 5   0  0.2432309E-05  0.2475805E+04  0.7818609E-02  0.8411656E-01
        2   -1    0    0  501    0  0.00000000000E+00  0.00000000000E+00  0.24653721180E+04  0.24653721180E+04  0.25500000920E-02 0.  1.
       -2   -1    0    0    0  501  0.00000000000E+00  0.00000000000E+00 -0.62157073683E+03  0.62157073683E+03  0.25500000920E-02 0. -1.
    10030    2    1    2    0    0  0.00000000000E+00  0.00000000000E+00  0.18438013811E+04  0.30869428548E+04  0.24758054559E+04 0.  0.
        4    1    3    3  502    0  0.76258386515E+03  0.75574137608E+02 -0.29027008821E+03  0.81945343898E+03  0.12699999809E+01 0. -1.
       -4    1    3    3    0  502 -0.76258386515E+03 -0.75574137608E+02  0.21340714693E+04  0.22674894158E+04  0.12699999809E+01 0.  1.
</event>
<event>
 5   0  0.2345143E-05  0.2500534E+04  0.7818609E-02  0.8402795E-01
        2   -1    0    0  501    0  0.00000000000E+00  0.00000000000E+00  0.19448791684E+04  0.19448791684E+04  0.25500000920E-02 0.  1.
       -2   -1    0    0    0  501  0.00000000000E+00  0.00000000000E+00 -0.80373519428E+03  0.80373519428E+03  0.25500000920E-02 0. -1.
    10030    2    1    2    0    0  0.00000000000E+00  0.00000000000E+00  0.11411439741E+04  0.27486143626E+04  0.25005342119E+04 0.  0.
        5    1    3    3  502    0 -0.89363124784E+03  0.40665205620E+03  0.14214514004E+04  0.17275673289E+04  0.46999998093E+01 0. -1.
       -5    1    3    3    0  502  0.89363124784E+03 -0.40665205620E+03 -0.28030742635E+03  0.10210470338E+04  0.46999998093E+01 0.  1.
</event>
<event>
 5   0  0.2345143E-05  0.2502534E+04  0.7818609E-02  0.8402083E-01
        2   -1    0    0  501    0  0.00000000000E+00  0.00000000000E+00  0.14061591536E+04  0.14061591536E+04  0.25500000920E-02 0. -1.
       -2   -1    0    0    0  501  0.00000000000E+00  0.00000000000E+00 -0.11134367617E+04  0.11134367617E+04  0.25500000920E-02 0.  1.
    10030    2    1    2    0    0  0.00000000000E+00  0.00000000000E+00  0.29272239195E+03  0.25195959153E+04  0.25025341511E+04 0.  0.
        5    1    3    3  502    0  0.44147746301E+02  0.12414688493E+04  0.29722697929E+03  0.12773252892E+04  0.46999998093E+01 0.  1.
       -5    1    3    3    0  502 -0.44147746301E+02 -0.12414688493E+04 -0.45045873397E+01  0.12422706261E+04  0.46999998093E+01 0. -1.
</event>
<event>
 5   0  0.2452457E-05  0.2502847E+04  0.7818609E-02  0.8401972E-01
        2   -1    0    0  501    0  0.00000000000E+00  0.00000000000E+00  0.89225236415E+03  0.89225236416E+03  0.25500000920E-02 0.  1.
       -2   -1    0    0    0  501  0.00000000000E+00  0.00000000000E+00 -0.17551767254E+04  0.17551767254E+04  0.25500000920E-02 0. -1.
    10030    2    1    2    0    0  0.00000000000E+00  0.00000000000E+00 -0.86292436120E+03  0.26474290895E+04  0.25028468453E+04 0.  0.
        1    1    3    3  502    0 -0.94544842526E+03 -0.37114681292E+03 -0.12047455790E+04  0.15757647640E+04  0.50400001928E-02 0. -1.
       -1    1    3    3    0  502  0.94544842526E+03  0.37114681292E+03  0.34182121775E+03  0.10716643255E+04  0.50400001928E-02 0.  1.
</event>
<event>
 5   0  0.2452457E-05  0.2493362E+04  0.7818609E-02  0.8405354E-01
       -2   -1    0    0    0  501  0.00000000000E+00  0.00000000000E+00  0.16696507651E+04  0.16696507651E+04  0.25500000920E-02 0. -1.
        2   -1    0    0  501    0  0.00000000000E+00  0.00000000000E+00 -0.93086119604E+03  0.93086119605E+03  0.25500000920E-02 0.  1.
    10030    2    1    2    0    0  0.00000000000E+00  0.00000000000E+00  0.73878956901E+03  0.26005119611E+04  0.24933616730E+04 0.  0.
        1    1    3    3  502    0 -0.74664612617E+03 -0.17171310456E+03 -0.65635712676E+03  0.10088461260E+04  0.50400001928E-02 0.  1.
       -1    1    3    3    0  502  0.74664612617E+03  0.17171310456E+03  0.13951466958E+04  0.15916658351E+04  0.50400001928E-02 0. -1.
</event>
<event>
 5   0  0.1010338E-05  0.2487561E+04  0.7818609E-02  0.8407430E-01
        1   -1    0    0  501    0  0.00000000000E+00  0.00000000000E+00  0.27325868974E+04  0.27325868974E+04  0.50400001928E-02 0.  1.
       -1   -1    0    0    0  501  0.00000000000E+00  0.00000000000E+00 -0.56612670442E+03  0.56612670444E+03  0.50400001928E-02 0. -1.
    10030    2    1    2    0    0  0.00000000000E+00  0.00000000000E+00  0.21664601930E+04  0.32987136019E+04  0.24875613880E+04 0.  0.
        2    1    3    3  502    0  0.47352908631E+03  0.35788004309E+03  0.25326594561E+04  0.26012827300E+04  0.25500000920E-02 0.  1.
       -2    1    3    3    0  502 -0.47352908631E+03 -0.35788004309E+03 -0.36619926306E+03  0.69743087191E+03  0.25500000920E-02 0. -1.
</event>
<event>
 5   0  0.2441340E-05  0.2483974E+04  0.7818609E-02  0.8408717E-01
        2   -1    0    0  501    0  0.00000000000E+00  0.00000000000E+00  0.30534996870E+04  0.30534996870E+04  0.25500000920E-02 0. -1.
       -2   -1    0    0    0  501  0.00000000000E+00  0.00000000000E+00 -0.50516831630E+03  0.50516831631E+03  0.25500000920E-02 0.  1.
    10030    2    1    2    0    0  0.00000000000E+00  0.00000000000E+00  0.25483313707E+04  0.35586680033E+04  0.24839736679E+04 0.  0.
        3    1    3    3  502    0  0.48245630556E+03  0.92853993891E+03  0.22326305574E+04  0.24656824048E+04  0.10100000352E+00 0. -1.
       -3    1    3    3    0  502 -0.48245630556E+03 -0.92853993891E+03  0.31570081324E+03  0.10929855985E+04  0.10100000352E+00 0.  1.
</event>
<event>
 5   0  0.1015327E-05  0.2249962E+04  0.7818609E-02  0.8497916E-01
       -1   -1    0    0    0  501  0.00000000000E+00  0.00000000000E+00  0.91380722546E+03  0.91380722547E+03  0.50400001928E-02 0. -1.
        1   -1    0    0  501    0  0.00000000000E+00  0.00000000000E+00 -0.13849554529E+04  0.13849554529E+04  0.50400001928E-02 0.  1.
    10030    2    1    2    0    0  0.00000000000E+00  0.00000000000E+00 -0.47114822746E+03  0.22987626784E+04  0.22499620440E+04 0.  0.
        4    1    3    3  502    0  0.31389081552E+03  0.10802986557E+04 -0.23847423925E+03  0.11499757411E+04  0.12699999809E+01 0.  1.
       -4    1    3    3    0  502 -0.31389081552E+03 -0.10802986557E+04 -0.23267398821E+03  0.11487869373E+04  0.12699999809E+01 0. -1.
</event>
<event>
 5   0  0.1008073E-05  0.2468348E+04  0.7818609E-02  0.8414349E-01
       -1   -1    0    0    0  501  0.00000000000E+00  0.00000000000E+00  0.80983867028E+03  0.80983867030E+03  0.50400001928E-02 0.  1.
        1   -1    0    0  501    0  0.00000000000E+00  0.00000000000E+00 -0.18808502727E+04  0.18808502727E+04  0.50400001928E-02 0. -1.
    10030    2    1    2    0    0  0.00000000000E+00  0.00000000000E+00 -0.10710116024E+04  0.26906889430E+04  0.24683478554E+04 0.  0.
        1    1    3    3  502    0 -0.18034791153E+03  0.12109712263E+04 -0.36589949240E+03  0.12778337601E+04  0.50400001928E-02 0.  1.
       -1    1    3    3    0  502  0.18034791153E+03 -0.12109712263E+04 -0.70511211001E+03  0.14128551829E+04  0.50400001928E-02 0. -1.
</event>
<event>
 5   0  0.1002753E-05  0.2489567E+04  0.7818609E-02  0.8406712E-01
       -1   -1    0    0    0  501  0.00000000000E+00  0.00000000000E+00  0.97454122090E+03  0.97454122091E+03  0.50400001928E-02 0. -1.
        1   -1    0    0  501    0  0.00000000000E+00  0.00000000000E+00 -0.15899640840E+04  0.15899640841E+04  0.50400001928E-02 0.  1.
    10030    2    1    2    0    0  0.00000000000E+00  0.00000000000E+00 -0.61542286314E+03  0.25645053050E+04  0.24895666608E+04 0.  0.
        5    1    3    3  502    0 -0.83815271108E+01  0.80252524072E+03  0.67242659941E+03  0.10470418490E+04  0.46999998093E+01 0. -1.
       -5    1    3    3    0  502  0.83815271108E+01 -0.80252524072E+03 -0.12878494626E+04  0.15174634560E+04  0.46999998093E+01 0.  1.
</event>
<event>
 5   0  0.2432309E-05  0.2499323E+04  0.7818609E-02  0.8403227E-01
       -2   -1    0    0    0  501  0.00000000000E+00  0.00000000000E+00  0.14629597200E+04  0.14629597200E+04  0.25500000920E-02 0.  1.
        2   -1    0    0  501    0  0.00000000000E+00  0.00000000000E+00 -0.10674623009E+04  0.10674623009E+04  0.25500000920E-02 0. -1.
    10030    2    1    2    0    0  0.00000000000E+00  0.00000000000E+00  0.39549741917E+03  0.25304220209E+04  0.24993233875E+04 0.  0.
        4    1    3    3  502    0  0.83001938549E+03  0.47539436747E+03  0.10119445950E+04  0.13924674004E+04  0.12699999809E+01 0.  1.
       -4    1    3    3    0  502 -0.83001938549E+03 -0.47539436747E+03 -0.61644717580E+03  0.11379546205E+04  0.12699999809E+01 0. -1.
</event>
<event>
 5   0  0.1010338E-05  0.2421754E+04  0.7818609E-02  0.8431404E-01
       -1   -1    0    0    0  501  0.00000000000E+00  0.00000000000E+00  0.13154525031E+04  0.13154525031E+04  0.50400001928E-02 0. -1.
        1   -1    0    0  501    0  0.00000000000E+00  0.00000000000E+00 -0.11146147082E+04  0.11146147082E+04  0.50400001928E-02 0.  1.
    10030    2    1    2    0    0  0.00000000000E+00  0.00000000000E+00  0.20083779492E+03  0.24300672112E+04  0.24217536686E+04 0.  0.
        2    1    3    3  502    0  0.68872015645E+02 -0.10066878017E+04 -0.57125107474E+03  0.11595220891E+04  0.25500000920E-02 0.  1.
       -2    1    3    3    0  502 -0.68872015645E+02  0.10066878017E+04  0.77208886966E+03  0.12705451221E+04  0.25500000920E-02 0. -1.
</event>
<event>
 5   0  0.2388326E-05  0.2512959E+04  0.7818609E-02  0.8398383E-01
       -2   -1    0    0    0  501  0.00000000000E+00  0.00000000000E+00  0.12532684532E+04  0.12532684532E+04  0.25500000920E-02 0. -1.
        2   -1    0    0  501    0  0.00000000000E+00  0.00000000000E+00 -0.12596986750E+04  0.12596986750E+04  0.25500000920E-02 0.  1.
    10030    2    1    2    0    0  0.00000000000E+00  0.00000000000E+00 -0.64302218071E+01  0.25129671283E+04  0.25129589014E+04 0.  0.
        2    1    3    3  502    0 -0.10817415342E+04 -0.62876661618E+03 -0.11823029331E+03  0.12567778669E+04  0.25500000920E-02 0.  1.
       -2    1    3    3    0  502  0.10817415342E+04  0.62876661618E+03  0.11180007150E+03  0.12561892614E+04  0.25500000920E-02 0. -1.
</event>
<event>
 5   0  0.2452457E-05  0.2504546E+04  0.7818609E-02  0.8401368E-01
        2   -1    0    0  501    0  0.00000000000E+00  0.00000000000E+00  0.20313436554E+04  0.20313436554E+04  0.25500000920E-02 0. -1.
       -2   -1    0    0    0  501  0.00000000000E+00  0.00000000000E+00 -0.77199517962E+03  0.77199517962E+03  0.25500000920E-02 0.  1.
    10030    2    1    2    0    0  0.00000000000E+00  0.00000000000E+00  0.12593484757E+04  0.28033388350E+04  0.25045458751E+04 0.  0.
        1    1    3    3  502    0  0.14182591668E+03  0.12258223578E+04  0.86825188995E+03  0.15088460451E+04  0.50400001928E-02 0.  1.
       -1    1    3    3    0  502 -0.14182591668E+03 -0.12258223578E+04  0.39109658580E+03  0.12944927898E+04  0.50400001928E-02 0. -1.
</event>
<event>
 5   0  0.2345143E-05  0.2497047E+04  0.7818609E-02  0.8404038E-01
        2   -1    0    0  501    0  0.00000000000E+00  0.00000000000E+00  0.85598344545E+03  0.85598344546E+03  0.25500000920E-02 0.  1.
       -2   -1    0    0    0  501  0.00000000000E+00  0.00000000000E+00 -0.18210759130E+04  0.18210759130E+04  0.25500000920E-02 0. -1.
    10030    2    1    2    0    0  0.00000000000E+00  0.00000000000E+00 -0.96509246751E+03  0.26770593584E+04  0.24970469234E+04 0.  0.
        5    1    3    3  502    0 -0.11571894524E+03  0.68438426581E+03 -0.15951547618E+04  0.17396302773E+04  0.46999998093E+01 0. -1.
       -5    1    3    3    0  502  0.11571894524E+03 -0.68438426581E+03  0.63006229425E+03  0.93742908117E+03  0.46999998093E+01 0.  1.
</event>
<event>
 5   0  0.1010338E-05  0.2493771E+04  0.7818609E-02  0.8405208E-01
        1   -1    0    0  501    0  0.00000000000E+00  0.00000000000E+00  0.94344067556E+03  0.94344067557E+03  0.50400001928E-02 0.  1.
       -1   -1    0    0    0  501  0.00000000000E+00  0.00000000000E+00 -0.16479290657E+04  0.16479290658E+04  0.50400001928E-02 0. -1.
    10030    2    1    2    0    0  0.00000000000E+00  0.00000000000E+00 -0.70448839019E+03  0.25913697413E+04  0.24937708885E+04 0.  0.
        2    1    3    3  502    0  0.32004413878E+03  0.81922473185E+03  0.56618244123E+03  0.10460018971E+04  0.25500000920E-02 0.  1.
       -2    1    3    3    0  502 -0.32004413878E+03 -0.81922473185E+03 -0.12706708314E+04  0.15453678442E+04  0.25500000920E-02 0. -1.
</event>
<event>
 5   0  0.1015327E-05  0.2482147E+04  0.7818609E-02  0.8409374E-01
       -1   -1    0    0    0  501  0.00000000000E+00  0.00000000000E+00  0.81658704614E+03  0.81658704616E+03  0.50400001928E-02 0.  1.
        1   -1    0    0  501    0  0.00000000000E+00  0.00000000000E+00 -0.18862203451E+04  0.18862203451E+04  0.50400001928E-02 0. -1.
    10030    2    1    2    0    0  0.00000000000E+00  0.00000000000E+00 -0.10696332989E+04  0.27028073912E+04  0.24821467322E+04 0.  0.
        4    1    3    3  502    0  0.40145148599E+03  0.10023038879E+04 -0.12011705167E+04  0.16151125665E+04  0.12699999809E+01 0. -1.
       -4    1    3    3    0  502 -0.40145148599E+03 -0.10023038879E+04  0.13153721778E+03  0.10876948248E+04  0.12699999809E+01 0.  1.
</event>
<event>
 5   0  0.2432309E-05  0.2483112E+04  0.7818609E-02  0.8409027E-01
        2   -1    0    0  501    0  0.00000000000E+00  0.00000000000E+00  0.11694204963E+04  0.11694204963E+04  0.25500000920E-02 0. -1.
       -2   -1    0    0    0  501  0.00000000000E+00  0.00000000000E+00 -0.13181410484E+04  0.13181410484E+04  0.25500000920E-02 0.  1.
    10030    2    1    2    0    0  0.00000000000E+00  0.00000000000E+00 -0.14872055214E+03  0.24875615447E+04  0.24831118856E+04 0.  0.
        4    1    3    3  502    0  0.53324416123E+03 -0.45641161994E+03 -0.11003041540E+04  0.13051175221E+04  0.12699999809E+01 0.  1.
       -4    1    3    3    0  502 -0.53324416123E+03  0.45641161994E+03  0.95158360189E+03  0.11824440226E+04  0.12699999809E+01 0. -1.
</event>
<event>
 5   0  0.2441340E-05  0.2500944E+04  0.7818609E-02  0.8402649E-01
       -2   -1    0    0    0  501  0.00000000000E+00  0.00000000000E+00  0.17511448064E+04  0.17511448064E+04  0.25500000920E-02 0.  1.
        2   -1    0    0  501    0  0.00000000000E+00  0.00000000000E+00 -0.89294755072E+03  0.89294755073E+03  0.25500000920E-02 0. -1.
    10030    2    1    2    0    0  0.00000000000E+00  0.00000000000E+00  0.85819725563E+03  0.26440923571E+04  0.25009441943E+04 0.  0.
        3    1    3    3  502    0  0.40002432614E+03  0.10174980950E+03 -0.81884848462E+03  0.91699800229E+03  0.10100000352E+00 0. -1.
       -3    1    3    3    0  502 -0.40002432614E+03 -0.10174980950E+03  0.16770457403E+04  0.17270943548E+04  0.10100000352E+00 0.  1.
</event>
<event>
 5   0  0.1008073E-05  0.2542214E+04  0.7818609E-02  0.8388099E-01
       -1   -1    0    0    0  501  0.00000000000E+00  0.00000000000E+00  0.15108535370E+04  0.15108535371E+04  0.50400001928E-02 0.  1.
        1   -1    0    0  501    0  0.00000000000E+00  0.00000000000E+00 -0.10694041580E+04  0.10694041580E+04  0.50400001928E-02 0. -1.
    10030    2    1    2    0    0  0.00000000000E+00  0.00000000000E+00  0.44144937909E+03  0.25802576950E+04  0.25422140387E+04 0.  0.
        1    1    3    3  502    0 -0.38911111129E+03  0.10893907335E+04 -0.31397338321E+03  0.11986487862E+04  0.50400001928E-02 0. -1.
       -1    1    3    3    0  502  0.38911111129E+03 -0.10893907335E+04  0.75542276230E+03  0.13816089089E+04  0.50400001928E-02 0.  1.
</event>
<event>
 5   0  0.1039688E-05  0.2463038E+04  0.7818609E-02  0.8416273E-01
       -1   -1    0    0    0  501  0.00000000000E+00  0.00000000000E+00  0.67733286658E+03  0.67733286660E+03  0.50400001928E-02 0. -1.
        1   -1    0    0  501    0  0.00000000000E+00  0.00000000000E+00 -0.22391345664E+04  0.22391345664E+04  0.50400001928E-02 0.  1.
    10030    2    1    2    0    0  0.00000000000E+00  0.00000000000E+00 -0.15618016998E+04  0.29164674330E+04  0.24630383144E+04 0.  0.
        3    1    3    3  502    0 -0.47012783355E+03  0.10175254135E+04 -0.17682601748E+03  0.11347447279E+04  0.10100000352E+00 0. -1.
       -3    1    3    3    0  502  0.47012783355E+03 -0.10175254135E+04 -0.13849756823E+04  0.17817227051E+04  0.10100000352E+00 0.  1.
</event>
<event>
 5   0  0.1010338E-05  0.2503672E+04  0.7818609E-02  0.8401679E-01
       -1   -1    0    0    0  501  0.00000000000E+00  0.00000000000E+00  0.11093177518E+04  0.11093177518E+04  0.50400001928E-02 0.  1.
        1   -1    0    0  501    0  0.00000000000E+00  0.00000000000E+00 -0.14126636993E+04  0.14126636994E+04  0.50400001928E-02 0. -1.
    10030    2    1    2    0    0  0.00000000000E+00  0.00000000000E+00 -0.30334594752E+03  0.25219814512E+04  0.25036716391E+04 0.  0.
        2    1    3    3  502    0  0.41411628530E+03  0.95645887231E+03 -0.85013194122E+03  0.13450019292E+04  0.25500000920E-02 0. -1.
       -2    1    3    3    0  502 -0.41411628530E+03 -0.95645887231E+03  0.54678599370E+03  0.11769795219E+04  0.25500000920E-02 0.  1.
</event>
<event>
 5   0  0.1010338E-05  0.2521961E+04  0.7818609E-02  0.8395203E-01
       -1   -1    0    0    0  501  0.00000000000E+00  0.00000000000E+00  0.74114900998E+03  0.74114900999E+03  0.50400001928E-02 0.  1.
        1   -1    0    0  501    0  0.00000000000E+00  0.00000000000E+00 -0.21454141237E+04  0.21454141237E+04  0.50400001928E-02 0. -1.
    10030    2    1    2    0    0  0.00000000000E+00  0.00000000000E+00 -0.14042651137E+04  0.28865631337E+04  0.25219607878E+04 0.  0.
        2    1    3    3  502    0 -0.43242568355E+03 -0.11144126518E+04 -0.24264179799E+03  0.12197469297E+04  0.25500000920E-02 0.  1.
       -2    1    3    3    0  502  0.43242568355E+03  0.11144126518E+04 -0.11616233157E+04  0.16668162040E+04  0.25500000920E-02 0. -1.
</event>
<event>
 5   0  0.2345143E-05  0.2489553E+04  0.7818609E-02  0.8406717E-01
       -2   -1    0    0    0  501  0.00000000000E+00  0.00000000000E+00  0.79409308666E+03  0.79409308666E+03  0.25500000920E-02 0. -1.
        2   -1    0    0  501    0  0.00000000000E+00  0.00000000000E+00 -0.19512422982E+04  0.19512422982E+04  0.25500000920E-02 0.  1.
    10030    2    1    2    0    0  0.00000000000E+00  0.00000000000E+00 -0.11571492115E+04  0.27453353848E+04  0.24895525858E+04 0.  0.
        5    1    3    3  502    0 -0.94097653101E+02  0.57434729708E+03  0.63480133081E+03  0.86123400164E+03  0.46999998093E+01 0. -1.
       -5    1    3    3    0  502  0.94097653101E+02 -0.57434729708E+03 -0.17919505423E+04  0.18841013832E+04  0.46999998093E+01 0.  1.
</event>
<event>
 5   0  0.1002753E-05  0.2484803E+04  0.7818609E-02  0.8408420E-01
       -1   -1    0    0    0  501  0.00000000000E+00  0.00000000000E+00  0.23533831728E+04  0.23533831728E+04  0.50400001928E-02 0. -1.
        1   -1    0    0  501    0  0.00000000000E+00  0.00000000000E+00 -0.65589037354E+03  0.65589037356E+03  0.50400001928E-02 0.  1.
    10030    2    1    2    0    0  0.00000000000E+00  0.00000000000E+00  0.16974927993E+04  0.30092735464E+04  0.24848029043E+04 0.  0.
        5    1    3    3  502    0  0.10977578577E+04  0.23653523351E+03  0.20503259994E+03  0.11415260347E+04  0.46999998093E+01 0.  1.
       -5    1    3    3    0  502 -0.10977578577E+04 -0.23653523351E+03  0.14924601993E+04  0.18677475117E+04  0.46999998093E+01 0. -1.
</event>
<event>
 5   0  0.1039688E-05  0.2514925E+04  0.7818609E-02  0.8397688E-01
       -1   -1    0    0    0  501  0.00000000000E+00  0.00000000000E+00  0.11921691540E+04  0.11921691540E+04  0.50400001928E-02 0. -1.
        1   -1    0    0  501    0  0.00000000000E+00  0.00000000000E+00 -0.13263321490E+04  0.13263321490E+04  0.50400001928E-02 0.  1.
    10030    2    1    2    0    0  0.00000000000E+00  0.00000000000E+00 -0.13416299496E+03  0.25185013030E+04  0.25149252681E+04 0.  0.
        3    1    3    3  502    0 -0.64667882517E+03 -0.63890331520E+03  0.80295841045E+03  0.12129027860E+04  0.10100000352E+00 0. -1.
       -3    1    3    3    0  502  0.64667882517E+03  0.63890331520E+03 -0.93712140541E+03  0.13055985171E+04  0.10100000352E+00 0.  1.
</event>
<event>
 5   0  0.1002753E-05  0.2526869E+04  0.7818609E-02  0.8393475E-01
        1   -1    0    0  501    0  0.00000000000E+00  0.00000000000E+00  0.10300717546E+04  0.10300717547E+04  0.50400001928E-02 0.  1.
       -1   -1    0    0    0  501  0.00000000000E+00  0.00000000000E+00 -0.15496659613E+04  0.15496659613E+04  0.50400001928E-02 0. -1.
    10030    2    1    2    0    0  0.00000000000E+00  0.00000000000E+00 -0.51959420661E+03  0.25797377159E+04  0.25268693166E+04 0.  0.
        5    1    3    3  502    0 -0.87291773447E+03  0.71117123247E+03 -0.84493369007E+03  0.14077233122E+04  0.46999998093E+01 0. -1.
       -5    1    3    3    0  502  0.87291773447E+03 -0.71117123247E+03  0.32533948347E+03  0.11720144037E+04  0.46999998093E+01 0.  1.
</event>
<event>
 5   0  0.1008073E-05  0.2466755E+04  0.7818609E-02  0.8414926E-01
       -1   -1    0    0    0  501  0.00000000000E+00  0.00000000000E+00  0.67248186352E+03  0.67248186354E+03  0.50400001928E-02 0.  1.
        1   -1    0    0  501    0  0.00000000000E+00  0.00000000000E+00 -0.22620976444E+04  0.22620976444E+04  0.50400001928E-02 0. -1.
    10030    2    1    2    0    0  0.00000000000E+00  0.00000000000E+00 -0.15896157809E+04  0.29345795080E+04  0.24667546610E+04 0.  0.
        1    1    3    3  502    0 -0.12070647128E+04 -0.25301752629E+03 -0.81148636622E+03  0.14763242232E+04  0.50400001928E-02 0. -1.
       -1    1    3    3    0  502  0.12070647128E+04  0.25301752629E+03 -0.77812941466E+03  0.14582552847E+04  0.50400001928E-02 0.  1.
</event>
<event>
 5   0  0.2388326E-05  0.2478146E+04  0.7818609E-02  0.8410813E-01
        2   -1    0    0  501    0  0.00000000000E+00  0.00000000000E+00  0.88476487962E+03  0.88476487962E+03  0.25500000920E-02 0.  1.
       -2   -1    0    0    0  501  0.00000000000E+00  0.00000000000E+00 -0.17352655609E+04  0.17352655609E+04  0.25500000920E-02 0. -1.
    10030    2    1    2    0    0  0.00000000000E+00  0.00000000000E+00 -0.85050068127E+03  0.26200304405E+04  0.24781461015E+04 0.  0.
        2    1    3    3  502    0 -0.11812177437E+04 -0.11222761991E+03 -0.47836305343E+02  0.11875010352E+04  0.25500000920E-02 0.  1.
       -2    1    3    3    0  502  0.11812177437E+04  0.11222761991E+03 -0.80266437593E+03  0.14325294053E+04  0.25500000920E-02 0. -1.
</event>
<event>
 5   0  0.2452457E-05  0.2503750E+04  0.7818609E-02  0.8401651E-01
        2   -1    0    0  501    0  0.00000000000E+00  0.00000000000E+00  0.91302110838E+03  0.91302110838E+03  0.25500000920E-02 0. -1.
       -2   -1    0    0    0  501  0.00000000000E+00  0.00000000000E+00 -0.17164887562E+04  0.17164887562E+04  0.25500000920E-02 0.  1.
    10030    2    1    2    0    0  0.00000000000E+00  0.00000000000E+00 -0.80346764782E+03  0.26295098646E+04  0.25037495615E+04 0.  0.
        1    1    3    3  502    0  0.53485233740E+03  0.33674989182E+03 -0.15366239743E+04  0.16615296419E+04  0.50400001928E-02 0.  1.
       -1    1    3    3    0  502 -0.53485233740E+03 -0.33674989182E+03  0.73315632648E+03  0.96798022270E+03  0.50400001928E-02 0. -1.
</event>
<event>
 5   0  0.8166500E-06  0.2482295E+04  0.7818609E-02  0.8409320E-01
        3   -1    0    0  501    0  0.00000000000E+00  0.00000000000E+00  0.15625699125E+04  0.15625699157E+04  0.10100000352E+00 0.  1.
       -3   -1    0    0    0  501  0.00000000000E+00  0.00000000000E+00 -0.98584218293E+03  0.98584218811E+03  0.10100000352E+00 0. -1.
    10030    2    1    2    0    0  0.00000000000E+00  0.00000000000E+00  0.57672772954E+03  0.25484121038E+04  0.24822951833E+04 0.  0.
        1    1    3    3  502    0 -0.12733677490E+03  0.10640948752E+04 -0.35435809737E+03  0.11287525056E+04  0.50400001928E-02 0. -1.
       -1    1    3    3    0  502  0.12733677490E+03 -0.10640948752E+04  0.93108582692E+03  0.14196595982E+04  0.50400001928E-02 0.  1.
</event>
<event>
 5   0  0.1010338E-05  0.2531117E+04  0.7818609E-02  0.8391983E-01
        1   -1    0    0  501    0  0.00000000000E+00  0.00000000000E+00  0.75090139992E+03  0.75090139994E+03  0.50400001928E-02 0.  1.
       -1   -1    0    0    0  501  0.00000000000E+00  0.00000000000E+00 -0.21329540153E+04  0.21329540154E+04  0.50400001928E-02 0. -1.
    10030    2    1    2    0    0  0.00000000000E+00  0.00000000000E+00 -0.13820526154E+04  0.28838554153E+04  0.25311168729E+04 0.  0.
        2    1    3    3  502    0 -0.82607995187E+03 -0.73067339968E+03 -0.13982991238E+04  0.17808795983E+04  0.25500000920E-02 0. -1.
       -2    1    3    3    0  502  0.82607995187E+03  0.73067339968E+03  0.16246508401E+02  0.11029758170E+04  0.25500000920E-02 0.  1.
</event>
<event>
 5   0  0.1039688E-05  0.2489131E+04  0.7818609E-02  0.8406868E-01
       -1   -1    0    0    0  501  0.00000000000E+00  0.00000000000E+00  0.93621280921E+03  0.93621280922E+03  0.50400001928E-02 0. -1.
        1   -1    0    0  501    0  0.00000000000E+00  0.00000000000E+00 -0.16544783782E+04  0.16544783782E+04  0.50400001928E-02 0.  1.
    10030    2    1    2    0    0  0.00000000000E+00  0.00000000000E+00 -0.71826556897E+03  0.25906911874E+04  0.24891314551E+04 0.  0.
        3    1    3    3  502    0 -0.12021397957E+04  0.23873200267E+03 -0.13394710676E+03  0.12329131742E+04  0.10100000352E+00 0. -1.
       -3    1    3    3    0  502  0.12021397957E+04 -0.23873200267E+03 -0.58431846221E+03  0.13577780132E+04  0.10100000352E+00 0.  1.
</event>
<event>
 5   0  0.2388326E-05  0.2525465E+04  0.7818609E-02  0.8393969E-01
        2   -1    0    0  501    0  0.00000000000E+00  0.00000000000E+00  0.13609829110E+04  0.13609829110E+04  0.25500000920E-02 0. -1.
       -2   -1    0    0    0  501  0.00000000000E+00  0.00000000000E+00 -0.11715752789E+04  0.11715752789E+04  0.25500000920E-02 0.  1.
    10030    2    1    2    0    0  0.00000000000E+00  0.00000000000E+00  0.18940763213E+03  0.25325581898E+04  0.25254654490E+04 0.  0.
        2    1    3    3  502    0  0.53375531673E+03  0.10422537950E+04  0.56858385306E+03  0.13017201348E+04  0.25500000920E-02 0. -1.
       -2    1    3    3    0  502 -0.53375531673E+03 -0.10422537950E+04 -0.37917622092E+03  0.12308380551E+04  0.25500000920E-02 0.  1.
</event>
<event>
 5   0  0.2441340E-05  0.2483314E+04  0.7818609E-02  0.8408954E-01
        2   -1    0    0  501    0  0.00000000000E+00  0.00000000000E+00  0.13077794677E+04  0.13077794677E+04  0.25500000920E-02 0.  1.
       -2   -1    0    0    0  501  0.00000000000E+00  0.00000000000E+00 -0.11788780165E+04  0.11788780165E+04  0.25500000920E-02 0. -1.
    10030    2    1    2    0    0  0.00000000000E+00  0.00000000000E+00  0.12890145119E+03  0.24866574843E+04  0.24833142894E+04 0.  0.
        3    1    3    3  502    0 -0.38485145021E+03 -0.11430733779E+04 -0.23087864319E+03  0.12280196839E+04  0.10100000352E+00 0. -1.
       -3    1    3    3    0  502  0.38485145021E+03  0.11430733779E+04  0.35978009438E+03  0.12586378004E+04  0.10100000352E+00 0.  1.
</event>
<event>
 5   0  0.1008073E-05  0.2515312E+04  0.7818609E-02  0.8397551E-01
       -1   -1    0    0    0  501  0.00000000000E+00  0.00000000000E+00  0.19567642677E+04  0.19567642677E+04  0.50400001928E-02 0. -1.
        1   -1    0    0  501    0  0.00000000000E+00  0.00000000000E+00 -0.80832384326E+03  0.80832384328E+03  0.50400001928E-02 0.  1.
    10030    2    1    2    0    0  0.00000000000E+00  0.00000000000E+00  0.11484404244E+04  0.27650881109E+04  0.25153124762E+04 0.  0.
        1    1    3    3  502    0  0.86586836299E+03 -0.43198464531E+03  0.14573371324E+04  0.17493342372E+04  0.50400001928E-02 0. -1.
       -1    1    3    3    0  502 -0.86586836299E+03  0.43198464531E+03 -0.30889670803E+03  0.10157538738E+04  0.50400001928E-02 0.  1.
</event>
<event>
 5   0  0.2388326E-05  0.2508944E+04  0.7818609E-02  0.8399806E-01
       -2   -1    0    0    0  501  0.00000000000E+00  0.00000000000E+00  0.11071519312E+04  0.11071519312E+04  0.25500000920E-02 0.  1.
        2   -1    0    0  501    0  0.00000000000E+00  0.00000000000E+00 -0.14213948884E+04  0.14213948884E+04  0.25500000920E-02 0. -1.
    10030    2    1    2    0    0  0.00000000000E+00  0.00000000000E+00 -0.31424295727E+03  0.25285468196E+04  0.25089440772E+04 0.  0.
        2    1    3    3  502    0 -0.11364294697E+04 -0.36964411641E+03 -0.54166708567E+03  0.13120640015E+04  0.25500000920E-02 0. -1.
       -2    1    3    3    0  502  0.11364294697E+04  0.36964411641E+03  0.22742412840E+03  0.12164828181E+04  0.25500000920E-02 0.  1.
</event>
<event>
 5   0  0.1015327E-05  0.2478749E+04  0.7818609E-02  0.8410596E-01
        1   -1    0    0  501    0  0.00000000000E+00  0.00000000000E+00  0.20768776997E+04  0.20768776997E+04  0.50400001928E-02 0. -1.
       -1   -1    0    0    0  501  0.00000000000E+00  0.00000000000E+00 -0.73959511541E+03  0.73959511543E+03  0.50400001928E-02 0.  1.
    10030    2    1    2    0    0  0.00000000000E+00  0.00000000000E+00  0.13372825843E+04  0.28164728152E+04  0.24787485569E+04 0.  0.
        4    1    3    3  502    0  0.88922708264E+03 -0.86285556231E+03  0.63645390912E+03  0.13929535948E+04  0.12699999809E+01 0.  1.
       -4    1    3    3    0  502 -0.88922708264E+03  0.86285556231E+03  0.70082867521E+03  0.14235192204E+04  0.12699999809E+01 0. -1.
</event>
<event>
 5   0  0.1039688E-05  0.2525965E+04  0.7818609E-02  0.8393793E-01
       -1   -1    0    0    0  501  0.00000000000E+00  0.00000000000E+00  0.10822821757E+04  0.10822821757E+04  0.50400001928E-02 0.  1.
        1   -1    0    0  501    0  0.00000000000E+00  0.00000000000E+00 -0.14738531646E+04  0.14738531646E+04  0.50400001928E-02 0. -1.
    10030    2    1    2    0    0  0.00000000000E+00  0.00000000000E+00 -0.39157098898E+03  0.25561353403E+04  0.25259651697E+04 0.  0.
        3    1    3    3  502    0  0.10669746223E+04 -0.45548433948E+03  0.30940080869E+03  0.12006788491E+04  0.10100000352E+00 0.  1.
       -3    1    3    3    0  502 -0.10669746223E+04  0.45548433948E+03 -0.70097179767E+03  0.13554564912E+04  0.10100000352E+00 0. -1.
</event>
<event>
 5   0  0.2345143E-05  0.2523737E+04  0.7818609E-02  0.8394578E-01
       -2   -1    0    0    0  501  0.00000000000E+00  0.00000000000E+00  0.97339617062E+03  0.97339617062E+03  0.25500000920E-02 0.  1.
        2   -1    0    0  501    0  0.00000000000E+00  0.00000000000E+00 -0.16358315336E+04  0.16358315336E+04  0.25500000920E-02 0. -1.
    10030    2    1    2    0    0  0.00000000000E+00  0.00000000000E+00 -0.66243536299E+03  0.26092277042E+04  0.25237370312E+04 0.  0.
        5    1    3    3  502    0  0.71658741149E+03  0.27635961548E+03 -0.13663414682E+04  0.15674129173E+04  0.46999998093E+01 0. -1.
       -5    1    3    3    0  502 -0.71658741149E+03 -0.27635961548E+03  0.70390610524E+03  0.10418147870E+04  0.46999998093E+01 0.  1.
</event>
<event>
 5   0  0.2388326E-05  0.2490240E+04  0.7818609E-02  0.8406471E-01
        2   -1    0    0  501    0  0.00000000000E+00  0.00000000000E+00  0.26115297496E+04  0.26115297496E+04  0.25500000920E-02 0. -1.
       -2   -1    0    0    0  501  0.00000000000E+00  0.00000000000E+00 -0.59364596914E+03  0.59364596914E+03  0.25500000920E-02 0.  1.
    10030    2    1    2    0    0  0.00000000000E+00  0.00000000000E+00  0.20178837805E+04  0.32051757188E+04  0.24902402367E+04 0.  0.
        2    1    3    3  502    0 -0.58668701891E+03  0.27086279023E+03  0.23788099675E+04  0.24650162618E+04  0.25500000920E-02 0. -1.
       -2    1    3    3    0  502  0.58668701891E+03 -0.27086279023E+03 -0.36092618702E+03  0.74015945699E+03  0.25500000920E-02 0.  1.
</event>
<event>
 5   0  0.8166500E-06  0.2412220E+04  0.7818609E-02  0.8434943E-01
       -3   -1    0    0    0  501  0.00000000000E+00  0.00000000000E+00  0.85329248269E+03  0.85329248866E+03  0.10100000352E+00 0. -1.
        3   -1    0    0  501    0  0.00000000000E+00  0.00000000000E+00 -0.17048090484E+04  0.17048090514E+04  0.10100000352E+00 0.  1.
    10030    2    1    2    0    0  0.00000000000E+00  0.00000000000E+00 -0.85151656572E+03  0.25581015401E+04  0.24122195231E+04 0.  0.
        4    1    3    3  502    0 -0.19012372455E+03 -0.17337784197E+03  0.82384650094E+03  0.86309418764E+03  0.12699999809E+01 0. -1.
       -4    1    3    3    0  502  0.19012372455E+03  0.17337784197E+03 -0.16753630667E+04  0.16950073524E+04  0.12699999809E+01 0.  1.
</event>
<event>
 5   0  0.1010338E-05  0.2517475E+04  0.7818609E-02  0.8396786E-01
       -1   -1    0    0    0  501  0.00000000000E+00  0.00000000000E+00  0.12672253078E+04  0.12672253079E+04  0.50400001928E-02 0. -1.
        1   -1    0    0  501    0  0.00000000000E+00  0.00000000000E+00 -0.12503064873E+04  0.12503064873E+04  0.50400001928E-02 0.  1.
    10030    2    1    2    0    0  0.00000000000E+00  0.00000000000E+00  0.16918820510E+02  0.25175317952E+04  0.25174749439E+04 0.  0.
        2    1    3    3  502    0 -0.11888618904E+04  0.89743926211E+01  0.42192598714E+03  0.12615445584E+04  0.25500000920E-02 0.  1.
       -2    1    3    3    0  502  0.11888618904E+04 -0.89743926211E+01 -0.40500716663E+03  0.12559872368E+04  0.25500000920E-02 0. -1.
</event>
<event>
 5   0  0.1008073E-05  0.2575267E+04  0.7818609E-02  0.8376651E-01
       -1   -1    0    0    0  501  0.00000000000E+00  0.00000000000E+00  0.17859186148E+04  0.17859186148E+04  0.50400001928E-02 0.  1.
        1   -1    0    0  501    0  0.00000000000E+00  0.00000000000E+00 -0.92837368360E+03  0.92837368361E+03  0.50400001928E-02 0. -1.
    10030    2    1    2    0    0  0.00000000000E+00  0.00000000000E+00  0.85754493116E+03  0.27142922984E+04  0.25752668545E+04 0.  0.
        1    1    3    3  502    0  0.71471970482E+02  0.10735488082E+04  0.11743388612E+04  0.15926980401E+04  0.50400001928E-02 0.  1.
       -1    1    3    3    0  502 -0.71471970482E+02 -0.10735488082E+04 -0.31679393000E+03  0.11215942583E+04  0.50400001928E-02 0. -1.
</event>
<event>
 5   0  0.2388326E-05  0.2202130E+04  0.7818609E-02  0.8517542E-01
       -2   -1    0    0    0  501  0.00000000000E+00  0.00000000000E+00  0.81449602539E+03  0.81449602539E+03  0.25500000920E-02 0.  1.
        2   -1    0    0  501    0  0.00000000000E+00  0.00000000000E+00 -0.14884587676E+04  0.14884587676E+04  0.25500000920E-02 0. -1.
    10030    2    1    2    0    0  0.00000000000E+00  0.00000000000E+00 -0.67396274217E+03  0.23029547930E+04  0.22021296512E+04 0.  0.
        2    1    3    3  502    0  0.64932630670E+03  0.21513945892E+03  0.56532840048E+03  0.88741525779E+03  0.25500000920E-02 0.  1.
       -2    1    3    3    0  502 -0.64932630670E+03 -0.21513945892E+03 -0.12392911427E+04  0.14155395352E+04  0.25500000920E-02 0. -1.
</event>
<event>
 5   0  0.1008073E-05  0.2505215E+04  0.7818609E-02  0.8401130E-01
       -1   -1    0    0    0  501  0.00000000000E+00  0.00000000000E+00  0.93382553485E+03  0.93382553487E+03  0.50400001928E-02 0. -1.
        1   -1    0    0  501    0  0.00000000000E+00  0.00000000000E+00 -0.16802120849E+04  0.16802120849E+04  0.50400001928E-02 0.  1.
    10030    2    1    2    0    0  0.00000000000E+00  0.00000000000E+00 -0.74638655006E+03  0.26140376198E+04  0.25052145209E+04 0.  0.
        1    1    3    3  502    0 -0.60436674831E+03  0.36496713684E+03  0.70643285500E+03  0.99875300054E+03  0.50400001928E-02 0. -1.
       -1    1    3    3    0  502  0.60436674831E+03 -0.36496713684E+03 -0.14528194051E+04  0.16152846193E+04  0.50400001928E-02 0.  1.
</event>
<event>
 5   0  0.2345143E-05  0.2496700E+04  0.7818609E-02  0.8404162E-01
       -2   -1    0    0    0  501  0.00000000000E+00  0.00000000000E+00  0.11632245625E+04  0.11632245625E+04  0.25500000920E-02 0. -1.
        2   -1    0    0  501    0  0.00000000000E+00  0.00000000000E+00 -0.13397044945E+04  0.13397044945E+04  0.25500000920E-02 0.  1.
    10030    2    1    2    0    0  0.00000000000E+00  0.00000000000E+00 -0.17647993203E+03  0.25029290571E+04  0.24966995611E+04 0.  0.
        5    1    3    3  502    0  0.17179842805E+02 -0.12472217509E+04 -0.38136854067E+02  0.12479317900E+04  0.46999998093E+01 0.  1.
       -5    1    3    3    0  502 -0.17179842805E+02  0.12472217509E+04 -0.13834307796E+03  0.12549972670E+04  0.46999998093E+01 0. -1.
</event>
<event>
 5   0  0.1039688E-05  0.2510855E+04  0.7818609E-02  0.8399128E-01
       -1   -1    0    0    0  501  0.00000000000E+00  0.00000000000E+00  0.93029615046E+03  0.93029615048E+03  0.50400001928E-02 0. -1.
        1   -1    0    0  501    0  0.00000000000E+00  0.00000000000E+00 -0.16941903585E+04  0.16941903585E+04  0.50400001928E-02 0.  1.
    10030    2    1    2    0    0  0.00000000000E+00  0.00000000000E+00 -0.76389420806E+03  0.26244865090E+04  0.25108554468E+04 0.  0.
        3    1    3    3  502    0  0.87559886153E+03 -0.11776821590E+03  0.55035791588E+03  0.10408825893E+04  0.10100000352E+00 0. -1.
       -3    1    3    3    0  502 -0.87559886153E+03  0.11776821590E+03 -0.13142521239E+04  0.15836039197E+04  0.10100000352E+00 0.  1.
</event>
<event>
 5   0  0.8166500E-06  0.2506741E+04  0.7818609E-02  0.8400588E-01
        3   -1    0    0  501    0  0.00000000000E+00  0.00000000000E+00  0.14588527843E+04  0.14588527878E+04  0.10100000352E+00 0. -1.
       -3   -1    0    0    0  501  0.00000000000E+00  0.00000000000E+00 -0.10768303758E+04  0.10768303806E+04  0.10100000352E+00 0.  1.
    10030    2    1    2    0    0  0.00000000000E+00  0.00000000000E+00  0.38202240844E+03  0.25356831683E+04  0.25067405150E+04 0.  0.
        5    1    3    3  502    0  0.12226142160E+04  0.10252388948E+03  0.45012939794E+03  0.13068799615E+04  0.46999998093E+01 0. -1.
       -5    1    3    3    0  502 -0.12226142160E+04 -0.10252388948E+03 -0.68106989494E+02  0.12288032068E+04  0.46999998093E+01 0.  1.
</event>
<event>
 5   0  0.1002753E-05  0.2541017E+04  0.7818609E-02  0.8388517E-01
       -1   -1    0    0    0  501  0.00000000000E+00  0.00000000000E+00  0.12328273815E+04  0.12328273815E+04  0.50400001928E-02 0. -1.
        1   -1    0    0  501    0  0.00000000000E+00  0.00000000000E+00 -0.13093413942E+04  0.13093413943E+04  0.50400001928E-02 0.  1.
    10030    2    1    2    0    0  0.00000000000E+00  0.00000000000E+00 -0.76514012789E+02  0.25421687757E+04  0.25410170582E+04 0.  0.
        5    1    3    3  502    0  0.67841294392E+03  0.33896192691E+03  0.98153347113E+03  0.12403908075E+04  0.46999998093E+01 0. -1.
       -5    1    3    3    0  502 -0.67841294392E+03 -0.33896192691E+03 -0.10580474839E+04  0.13017779682E+04  0.46999998093E+01 0.  1.
</event>
<event>
 5   0  0.2388326E-05  0.2445403E+04  0.7818609E-02  0.8422698E-01
        2   -1    0    0  501    0  0.00000000000E+00  0.00000000000E+00  0.16985222676E+04  0.16985222676E+04  0.25500000920E-02 0.  1.
       -2   -1    0    0    0  501  0.00000000000E+00  0.00000000000E+00 -0.88017647035E+03  0.88017647035E+03  0.25500000920E-02 0. -1.
    10030    2    1    2    0    0  0.00000000000E+00  0.00000000000E+00  0.81834579727E+03  0.25786987380E+04  0.24454033077E+04 0.  0.
        2    1    3    3  502    0  0.60760902386E+02 -0.12024175485E+04  0.18423980406E+03  0.12179672219E+04  0.25500000920E-02 0. -1.
       -2    1    3    3    0  502 -0.60760902386E+02  0.12024175485E+04  0.63410599322E+03  0.13607315161E+04  0.25500000920E-02 0.  1.
</event>
<event>
 5   0  0.1008073E-05  0.2487375E+04  0.7818609E-02  0.8407497E-01
       -1   -1    0    0    0  501  0.00000000000E+00  0.00000000000E+00  0.90760156107E+03  0.90760156109E+03  0.50400001928E-02 0.  1.
        1   -1    0    0  501    0  0.00000000000E+00  0.00000000000E+00 -0.17042259499E+04  0.17042259499E+04  0.50400001928E-02 0. -1.
    10030    2    1    2    0    0  0.00000000000E+00  0.00000000000E+00 -0.79662438881E+03  0.26118275110E+04  0.24873746260E+04 0.  0.
        1    1    3    3  502    0 -0.40646058142E+03  0.19682503034E+03  0.81846265907E+03  0.93478950632E+03  0.50400001928E-02 0.  1.
       -1    1    3    3    0  502  0.40646058142E+03 -0.19682503034E+03 -0.16150870479E+04  0.16770380047E+04  0.50400001928E-02 0. -1.
</event>
<event>
 5   0  0.2388326E-05  0.2506322E+04  0.7818609E-02  0.8400737E-01
       -2   -1    0    0    0  501  0.00000000000E+00  0.00000000000E+00  0.82959900327E+03  0.82959900327E+03  0.25500000920E-02 0.  1.
        2   -1    0    0  501    0  0.00000000000E+00  0.00000000000E+00 -0.18929775795E+04  0.18929775795E+04  0.25500000920E-02 0. -1.
    10030    2    1    2    0    0  0.00000000000E+00  0.00000000000E+00 -0.10633785762E+04  0.27225765828E+04  0.25063218574E+04 0.  0.
        2    1    3    3  502    0  0.77119604446E+03 -0.36061235248E+03  0.46723567185E+03  0.97113015647E+03  0.25500000920E-02 0.  1.
       -2    1    3    3    0  502 -0.77119604446E+03  0.36061235248E+03 -0.15306142481E+04  0.17514464263E+04  0.25500000920E-02 0. -1.
</event>
<event>
 5   0  0.1010338E-05  0.2510431E+04  0.7818609E-02  0.8399279E-01
       -1   -1    0    0    0  501  0.00000000000E+00  0.00000000000E+00  0.79783432961E+03  0.79783432963E+03  0.50400001928E-02 0. -1.
        1   -1    0    0  501    0  0.00000000000E+00  0.00000000000E+00 -0.19748029568E+04  0.19748029568E+04  0.50400001928E-02 0.  1.
    10030    2    1    2    0    0  0.00000000000E+00  0.00000000000E+00 -0.11769686272E+04  0.27726372865E+04  0.25104307146E+04 0.  0.
        2    1    3    3  502    0 -0.64957075684E+03  0.48679911395E+03 -0.16459020782E+04  0.18351864201E+04  0.25500000920E-02 0.  1.
       -2    1    3    3    0  502  0.64957075684E+03 -0.48679911395E+03  0.46893345094E+03  0.93745086640E+03  0.25500000920E-02 0. -1.
</event>
<event>
 5   0  0.1010338E-05  0.2513074E+04  0.7818609E-02  0.8398343E-01
       -1   -1    0    0    0  501  0.00000000000E+00  0.00000000000E+00  0.12415550102E+04  0.12415550102E+04  0.50400001928E-02 0.  1.
        1   -1    0    0  501    0  0.00000000000E+00  0.00000000000E+00 -0.12716994796E+04  0.12716994796E+04  0.50400001928E-02 0. -1.
    10030    2    1    2    0    0  0.00000000000E+00  0.00000000000E+00 -0.30144469441E+02  0.25132544898E+04  0.25130737040E+04 0.  0.
        2    1    3    3  502    0 -0.61910374220E+03 -0.73575748015E+02  0.10759608863E+04  0.12435411787E+04  0.25500000920E-02 0.  1.
       -2    1    3    3    0  502  0.61910374220E+03  0.73575748015E+02 -0.11061053558E+04  0.12697133111E+04  0.25500000920E-02 0. -1.
</event>
<event>
 5   0  0.1015327E-05  0.2337644E+04  0.7818609E-02  0.8463225E-01
        1   -1    0    0  501    0  0.00000000000E+00  0.00000000000E+00  0.98725701134E+03  0.98725701135E+03  0.50400001928E-02 0. -1.
       -1   -1    0    0    0  501  0.00000000000E+00  0.00000000000E+00 -0.13837781463E+04  0.13837781463E+04  0.50400001928E-02 0.  1.
    10030    2    1    2    0    0  0.00000000000E+00  0.00000000000E+00 -0.39652113499E+03  0.23710351577E+04  0.23376438370E+04 0.  0.
        4    1    3    3  502    0  0.59392626525E+03  0.80616174064E+03  0.41325934913E+03  0.10832497695E+04  0.12699999809E+01 0. -1.
       -4    1    3    3    0  502 -0.59392626525E+03 -0.80616174064E+03 -0.80978048411E+03  0.12877853882E+04  0.12699999809E+01 0.  1.
</event>
<event>
 5   0  0.1015327E-05  0.2495680E+04  0.7818609E-02  0.8404526E-01
       -1   -1    0    0    0  501  0.00000000000E+00  0.00000000000E+00  0.81152759133E+03  0.81152759134E+03  0.50400001928E-02 0. -1.
        1   -1    0    0  501    0  0.00000000000E+00  0.00000000000E+00 -0.19187332047E+04  0.19187332047E+04  0.50400001928E-02 0.  1.
    10030    2    1    2    0    0  0.00000000000E+00  0.00000000000E+00 -0.11072056134E+04  0.27302607960E+04  0.24956802167E+04 0.  0.
        4    1    3    3  502    0 -0.51164404269E+03 -0.49323359479E+03 -0.16757044908E+04  0.18201775075E+04  0.12699999809E+01 0.  1.
       -4    1    3    3    0  502  0.51164404269E+03  0.49323359479E+03  0.56849887746E+03  0.91008328851E+03  0.12699999809E+01 0. -1.
</event>
<event>
 5   0  0.1002753E-05  0.2498721E+04  0.7818609E-02  0.8403441E-01
       -1   -1    0    0    0  501  0.00000000000E+00  0.00000000000E+00  0.96584887210E+03  0.96584887211E+03  0.50400001928E-02 0.  1.
        1   -1    0    0  501    0  0.00000000000E+00  0.00000000000E+00 -0.16160926098E+04  0.16160926098E+04  0.50400001928E-02 0. -1.
    10030    2    1    2    0    0  0.00000000000E+00  0.00000000000E+00 -0.65024373766E+03  0.25819414819E+04  0.24987206522E+04 0.  0.
        5    1    3    3  502    0 -0.45618676629E+03 -0.62088134923E+03 -0.13413813140E+04  0.15469085090E+04  0.46999998093E+01 0. -1.
       -5    1    3    3    0  502  0.45618676629E+03  0.62088134923E+03  0.69113757635E+03  0.10350329729E+04  0.46999998093E+01 0.  1.
</event>
<event>
 5   0  0.1039688E-05  0.2496181E+04  0.7818609E-02  0.8404347E-01
        1   -1    0    0  501    0  0.00000000000E+00  0.00000000000E+00  0.12534862355E+04  0.12534862355E+04  0.50400001928E-02 0. -1.
       -1   -1    0    0    0  501  0.00000000000E+00  0.00000000000E+00 -0.12427180059E+04  0.12427180059E+04  0.50400001928E-02 0.  1.
    10030    2    1    2    0    0  0.00000000000E+00  0.00000000000E+00  0.10768229655E+02  0.24962042414E+04  0.24961810151E+04 0.  0.
        3    1    3    3  502    0  0.12058178403E+04  0.26267628330E+03 -0.18098932027E+03  0.12472981352E+04  0.10100000352E+00 0. -1.
       -3    1    3    3    0  502 -0.12058178403E+04 -0.26267628330E+03  0.19175754993E+03  0.12489061062E+04  0.10100000352E+00 0.  1.
</event>
<event>
 5   0  0.2345143E-05  0.2501634E+04  0.7818609E-02  0.8402404E-01
       -2   -1    0    0    0  501  0.00000000000E+00  0.00000000000E+00  0.67477791887E+03  0.67477791888E+03  0.25500000920E-02 0.  1.
        2   -1    0    0  501    0  0.00000000000E+00  0.00000000000E+00 -0.23186038981E+04  0.23186038981E+04  0.25500000920E-02 0. -1.
    10030    2    1    2    0    0  0.00000000000E+00  0.00000000000E+00 -0.16438259792E+04  0.29933818170E+04  0.25016336367E+04 0.  0.
        5    1    3    3  502    0 -0.48942560369E+03 -0.17494563796E+03 -0.21832599937E+04  0.22442793248E+04  0.46999998093E+01 0. -1.
       -5    1    3    3    0  502  0.48942560369E+03  0.17494563796E+03  0.53943401447E+03  0.74910249215E+03  0.46999998093E+01 0.  1.
</event>
<event>
 5   0  0.1002753E-05  0.2501670E+04  0.7818609E-02  0.8402391E-01
        1   -1    0    0  501    0  0.00000000000E+00  0.00000000000E+00  0.14358096054E+04  0.14358096054E+04  0.50400001928E-02 0.  1.
       -1   -1    0    0    0  501  0.00000000000E+00  0.00000000000E+00 -0.10896905600E+04  0.10896905600E+04  0.50400001928E-02 0. -1.
    10030    2    1    2    0    0  0.00000000000E+00  0.00000000000E+00  0.34611904538E+03  0.25255001654E+04  0.25016699806E+04 0.  0.
        5    1    3    3  502    0  0.29065135647E+03  0.56274052716E+03  0.12619494028E+04  0.14119821164E+04  0.46999998093E+01 0.  1.
       -5    1    3    3    0  502 -0.29065135647E+03 -0.56274052716E+03 -0.91583035740E+03  0.11135180490E+04  0.46999998093E+01 0. -1.
</event>
<event>
 5   0  0.2452457E-05  0.2485865E+04  0.7818609E-02  0.8408039E-01
        2   -1    0    0  501    0  0.00000000000E+00  0.00000000000E+00  0.14209315015E+04  0.14209315015E+04  0.25500000920E-02 0.  1.
       -2   -1    0    0    0  501  0.00000000000E+00  0.00000000000E+00 -0.10872308839E+04  0.10872308839E+04  0.25500000920E-02 0. -1.
    10030    2    1    2    0    0  0.00000000000E+00  0.00000000000E+00  0.33370061758E+03  0.25081623854E+04  0.24858645276E+04 0.  0.
        1    1    3    3  502    0 -0.81024257323E+03  0.71110476115E+03 -0.45734056217E+03  0.11710351825E+04  0.50400001928E-02 0. -1.
       -1    1    3    3    0  502  0.81024257323E+03 -0.71110476115E+03  0.79104117974E+03  0.13371272030E+04  0.50400001928E-02 0.  1.
</event>
<event>
 5   0  0.1039688E-05  0.2502619E+04  0.7818609E-02  0.8402053E-01
        1   -1    0    0  501    0  0.00000000000E+00  0.00000000000E+00  0.15377246212E+04  0.15377246212E+04  0.50400001928E-02 0. -1.
       -1   -1    0    0    0  501  0.00000000000E+00  0.00000000000E+00 -0.10182416544E+04  0.10182416544E+04  0.50400001928E-02 0.  1.
    10030    2    1    2    0    0  0.00000000000E+00  0.00000000000E+00  0.51948296681E+03  0.25559662757E+04  0.25026188383E+04 0.  0.
        3    1    3    3  502    0  0.10929496049E+04  0.15974214386E+03 -0.34077087089E+03  0.11559330379E+04  0.10100000352E+00 0.  1.
       -3    1    3    3    0  502 -0.10929496049E+04 -0.15974214386E+03  0.86025383770E+03  0.14000332378E+04  0.10100000352E+00 0. -1.
</event>
<event>
 5   0  0.1015327E-05  0.2567943E+04  0.7818609E-02  0.8379172E-01
       -1   -1    0    0    0  501  0.00000000000E+00  0.00000000000E+00  0.14161311202E+04  0.14161311202E+04  0.50400001928E-02 0. -1.
        1   -1    0    0  501    0  0.00000000000E+00  0.00000000000E+00 -0.11641458147E+04  0.11641458147E+04  0.50400001928E-02 0.  1.
    10030    2    1    2    0    0  0.00000000000E+00  0.00000000000E+00  0.25198530551E+03  0.25802769349E+04  0.25679432366E+04 0.  0.
        4    1    3    3  502    0  0.16056841155E+02 -0.88209257369E+03 -0.81135245355E+03  0.11985989936E+04  0.12699999809E+01 0.  1.
       -4    1    3    3    0  502 -0.16056841155E+02  0.88209257369E+03  0.10633377591E+04  0.13816779413E+04  0.12699999809E+01 0. -1.
</event>
<event>
 5   0  0.2452457E-05  0.2497384E+04  0.7818609E-02  0.8403918E-01
       -2   -1    0    0    0  501  0.00000000000E+00  0.00000000000E+00  0.80344917628E+03  0.80344917628E+03  0.25500000920E-02 0. -1.
        2   -1    0    0  501    0  0.00000000000E+00  0.00000000000E+00 -0.19406725827E+04  0.19406725827E+04  0.25500000920E-02 0.  1.
    10030    2    1    2    0    0  0.00000000000E+00  0.00000000000E+00 -0.11372234064E+04  0.27441217590E+04  0.24973840618E+04 0.  0.
        1    1    3    3  502    0  0.90296658525E+03  0.64640415987E+03  0.58805869355E+02  0.11120454677E+04  0.50400001928E-02 0. -1.
       -1    1    3    3    0  502 -0.90296658525E+03 -0.64640415987E+03 -0.11960292758E+04  0.16320762913E+04  0.50400001928E-02 0.  1.
</event>
<event>
 5   0  0.2441340E-05  0.2514824E+04  0.7818609E-02  0.8397723E-01
       -2   -1    0    0    0  501  0.00000000000E+00  0.00000000000E+00  0.14236456277E+04  0.14236456277E+04  0.25500000920E-02 0.  1.
        2   -1    0    0  501    0  0.00000000000E+00  0.00000000000E+00 -0.11105888142E+04  0.11105888142E+04  0.25500000920E-02 0. -1.
    10030    2    1    2    0    0  0.00000000000E+00  0.00000000000E+00  0.31305681354E+03  0.25342344419E+04  0.25148239775E+04 0.  0.
        3    1    3    3  502    0 -0.22600240177E+03 -0.12357124028E+04  0.10112523085E+03  0.12602732047E+04  0.10100000352E+00 0. -1.
       -3    1    3    3    0  502  0.22600240177E+03  0.12357124028E+04  0.21193158269E+03  0.12739612372E+04  0.10100000352E+00 0.  1.
</event>
<event>
 5   0  0.2452457E-05  0.2481492E+04  0.7818609E-02  0.8409609E-01
       -2   -1    0    0    0  501  0.00000000000E+00  0.00000000000E+00  0.13785382288E+04  0.13785382288E+04  0.25500000920E-02 0.  1.
        2   -1    0    0  501    0  0.00000000000E+00  0.00000000000E+00 -0.11167267807E+04  0.11167267807E+04  0.25500000920E-02 0. -1.
    10030    2    1    2    0    0  0.00000000000E+00  0.00000000000E+00  0.26181144808E+03  0.24952650095E+04  0.24814919369E+04 0.  0.
        1    1    3    3  502    0  0.10835459042E+04  0.11428824498E+03  0.72776318302E+03  0.13102567611E+04  0.50400001928E-02 0.  1.
       -1    1    3    3    0  502 -0.10835459042E+04 -0.11428824498E+03 -0.46595173493E+03  0.11850082484E+04  0.50400001928E-02 0. -1.
</event>
<event>
 5   0  0.2441340E-05  0.2476255E+04  0.7818609E-02  0.8411494E-01
        2   -1    0    0  501    0  0.00000000000E+00  0.00000000000E+00  0.11214621123E+04  0.11214621123E+04  0.25500000920E-02 0.  1.
       -2   -1    0    0    0  501  0.00000000000E+00  0.00000000000E+00 -0.13669294948E+04  0.13669294948E+04  0.25500000920E-02 0. -1.
    10030    2    1    2    0    0  0.00000000000E+00  0.00000000000E+00 -0.24546738246E+03  0.24883916071E+04  0.24762549454E+04 0.  0.
        3    1    3    3  502    0  0.40833791424E+03  0.92815197171E+03  0.59120862654E+03  0.11737689658E+04  0.10100000352E+00 0.  1.
       -3    1    3    3    0  502 -0.40833791424E+03 -0.92815197171E+03 -0.83667600900E+03  0.13146226413E+04  0.10100000352E+00 0. -1.
</event>
<event>
 5   0  0.2388326E-05  0.2525388E+04  0.7818609E-02  0.8393997E-01
       -2   -1    0    0    0  501  0.00000000000E+00  0.00000000000E+00  0.70079256377E+03  0.70079256378E+03  0.25500000920E-02 0. -1.
        2   -1    0    0  501    0  0.00000000000E+00  0.00000000000E+00 -0.22751321038E+04  0.22751321038E+04  0.25500000920E-02 0.  1.
    10030    2    1    2    0    0  0.00000000000E+00  0.00000000000E+00 -0.15743395400E+04  0.29759246676E+04  0.25253876217E+04 0.  0.
        2    1    3    3  502    0 -0.55726853221E+03 -0.18485001148E+03  0.53015522881E+03  0.79106403683E+03  0.25500000920E-02 0. -1.
       -2    1    3    3    0  502  0.55726853221E+03  0.18485001148E+03 -0.21044947688E+04  0.21848606307E+04  0.25500000920E-02 0.  1.
</event>
<event>
 5   0  0.2452457E-05  0.2342755E+04  0.7818609E-02  0.8461252E-01
       -2   -1    0    0    0  501  0.00000000000E+00  0.00000000000E+00  0.57304523713E+03  0.57304523714E+03  0.25500000920E-02 0.  1.
        2   -1    0    0  501    0  0.00000000000E+00  0.00000000000E+00 -0.23944438906E+04  0.23944438906E+04  0.25500000920E-02 0. -1.
    10030    2    1    2    0    0  0.00000000000E+00  0.00000000000E+00 -0.18213986534E+04  0.29674891277E+04  0.23427545045E+04 0.  0.
        1    1    3    3  502    0  0.43662511830E+02  0.68910133222E+03 -0.21092616416E+04  0.22194034635E+04  0.50400001928E-02 0. -1.
       -1    1    3    3    0  502 -0.43662511830E+02 -0.68910133222E+03  0.28786298817E+03  0.74808566421E+03  0.50400001928E-02 0.  1.
</event>
<event>
 5   0  0.1002753E-05  0.2393585E+04  0.7818609E-02  0.8441909E-01
        1   -1    0    0  501    0  0.00000000000E+00  0.00000000000E+00  0.23190140594E+04  0.23190140594E+04  0.50400001928E-02 0.  1.
       -1   -1    0    0    0  501  0.00000000000E+00  0.00000000000E+00 -0.61763857016E+03  0.61763857018E+03  0.50400001928E-02 0. -1.
    10030    2    1    2    0    0  0.00000000000E+00  0.00000000000E+00  0.17013754892E+04  0.29366526296E+04  0.23935852004E+04 0.  0.
        5    1    3    3  502    0 -0.69351038130E+03  0.77432583864E+03  0.15783381364E+04  0.18898969591E+04  0.46999998093E+01 0.  1.
       -5    1    3    3    0  502  0.69351038130E+03 -0.77432583864E+03  0.12303735279E+03  0.10467556704E+04  0.46999998093E+01 0. -1.
</event>
<event>
 5   0  0.1002753E-05  0.2088192E+04  0.7818609E-02  0.8566463E-01
        1   -1    0    0  501    0  0.00000000000E+00  0.00000000000E+00  0.15569177572E+04  0.15569177572E+04  0.50400001928E-02 0. -1.
       -1   -1    0    0    0  501  0.00000000000E+00  0.00000000000E+00 -0.70018879000E+03  0.70018879002E+03  0.50400001928E-02 0.  1.
    10030    2    1    2    0    0  0.00000000000E+00  0.00000000000E+00  0.85672896717E+03  0.22571065472E+04  0.20881919074E+04 0.  0.
        5    1    3    3  502    0  0.60905822655E+02 -0.96664359787E+03  0.69490325868E+01  0.96859679103E+03  0.46999998093E+01 0.  1.
       -5    1    3    3    0  502 -0.60905822655E+02  0.96664359787E+03  0.84977993459E+03  0.12885097562E+04  0.46999998093E+01 0. -1.
</event>
<event>
 5   0  0.2388326E-05  0.2506116E+04  0.7818609E-02  0.8400810E-01
       -2   -1    0    0    0  501  0.00000000000E+00  0.00000000000E+00  0.56136341166E+03  0.56136341167E+03  0.25500000920E-02 0.  1.
        2   -1    0    0  501    0  0.00000000000E+00  0.00000000000E+00 -0.27970368806E+04  0.27970368806E+04  0.25500000920E-02 0. -1.
    10030    2    1    2    0    0  0.00000000000E+00  0.00000000000E+00 -0.22356734690E+04  0.33584002923E+04  0.25061158520E+04 0.  0.
        2    1    3    3  502    0  0.11944564844E+03  0.46111721105E+02 -0.27882478428E+04  0.27911860538E+04  0.25500000920E-02 0. -1.
       -2    1    3    3    0  502 -0.11944564844E+03 -0.46111721105E+02  0.55257437385E+03  0.56721423853E+03  0.25500000920E-02 0.  1.
</event>
<event>
 5   0  0.1039688E-05  0.2492913E+04  0.7818609E-02  0.8405515E-01
       -1   -1    0    0    0  501  0.00000000000E+00  0.00000000000E+00  0.13016764745E+04  0.13016764745E+04  0.50400001928E-02 0. -1.
        1   -1    0    0  501    0  0.00000000000E+00  0.00000000000E+00 -0.11935794221E+04  0.11935794221E+04  0.50400001928E-02 0.  1.
    10030    2    1    2    0    0  0.00000000000E+00  0.00000000000E+00  0.10809705240E+03  0.24952558966E+04  0.24929133593E+04 0.  0.
        3    1    3    3  502    0  0.20937563967E+03  0.94779325548E+03  0.83677057446E+03  0.12815362726E+04  0.10100000352E+00 0. -1.
       -3    1    3    3    0  502 -0.20937563967E+03 -0.94779325548E+03 -0.72867352206E+03  0.12137196240E+04  0.10100000352E+00 0.  1.
</event>
<event>
 5   0  0.1002753E-05  0.2464770E+04  0.7818609E-02  0.8415645E-01
       -1   -1    0    0    0  501  0.00000000000E+00  0.00000000000E+00  0.11343454416E+04  0.11343454416E+04  0.50400001928E-02 0.  1.
        1   -1    0    0  501    0  0.00000000000E+00  0.00000000000E+00 -0.13388979008E+04  0.13388979008E+04  0.50400001928E-02 0. -1.
    10030    2    1    2    0    0  0.00000000000E+00  0.00000000000E+00 -0.20455245927E+03  0.24732433424E+04  0.24647699532E+04 0.  0.
        5    1    3    3  502    0 -0.16858100360E+03  0.12055840015E+04  0.90473440159E+02  0.12206800862E+04  0.46999998093E+01 0.  1.
       -5    1    3    3    0  502  0.16858100360E+03 -0.12055840015E+04 -0.29502589943E+03  0.12525632562E+04  0.46999998093E+01 0. -1.
</event>
<event>
 5   0  0.8166500E-06  0.2465120E+04  0.7818609E-02  0.8415518E-01
       -4   -1    0    0    0  501  0.00000000000E+00  0.00000000000E+00  0.81278775471E+03  0.81278874691E+03  0.12699999809E+01 0. -1.
        4   -1    0    0  501    0  0.00000000000E+00  0.00000000000E+00 -0.18691251252E+04  0.18691255567E+04  0.12699999809E+01 0.  1.
    10030    2    1    2    0    0  0.00000000000E+00  0.00000000000E+00 -0.10563373705E+04  0.26819143036E+04  0.24651198128E+04 0.  0.
        3    1    3    3  502    0  0.87459428992E+03 -0.33628059779E+03  0.34300552375E+03  0.99782393834E+03  0.10100000352E+00 0. -1.
       -3    1    3    3    0  502 -0.87459428992E+03  0.33628059779E+03 -0.13993428942E+04  0.16840903652E+04  0.10100000352E+00 0.  1.
</event>
<event>
 5   0  0.2441340E-05  0.2483683E+04  0.7818609E-02  0.8408822E-01
       -2   -1    0    0    0  501  0.00000000000E+00  0.00000000000E+00  0.10563076169E+04  0.10563076169E+04  0.25500000920E-02 0. -1.
        2   -1    0    0  501    0  0.00000000000E+00  0.00000000000E+00 -0.14599630015E+04  0.14599630015E+04  0.25500000920E-02 0.  1.
    10030    2    1    2    0    0  0.00000000000E+00  0.00000000000E+00 -0.40365538455E+03  0.25162706184E+04  0.24836827808E+04 0.  0.
        3    1    3    3  502    0 -0.10570144974E+04  0.61720828746E+03 -0.41420717038E+03  0.12922048243E+04  0.10100000352E+00 0. -1.
       -3    1    3    3    0  502  0.10570144974E+04 -0.61720828746E+03  0.10551785830E+02  0.12240657941E+04  0.10100000352E+00 0.  1.
</event>
<event>
 5   0  0.8166500E-06  0.2492161E+04  0.7818609E-02  0.8405783E-01
        3   -1    0    0  501    0  0.00000000000E+00  0.00000000000E+00  0.13463955783E+04  0.13463955821E+04  0.10100000352E+00 0. -1.
       -3   -1    0    0    0  501  0.00000000000E+00  0.00000000000E+00 -0.11532398240E+04  0.11532398284E+04  0.10100000352E+00 0.  1.
    10030    2    1    2    0    0  0.00000000000E+00  0.00000000000E+00  0.19315575425E+03  0.24996354105E+04  0.24921613190E+04 0.  0.
        4    1    3    3  502    0 -0.48662766764E+03 -0.89495366321E+03  0.81634193221E+03  0.13054364440E+04  0.12699999809E+01 0. -1.
       -4    1    3    3    0  502  0.48662766764E+03  0.89495366321E+03 -0.62318617796E+03  0.11941989665E+04  0.12699999809E+01 0.  1.
</event>
<event>
 5   0  0.2388326E-05  0.2509826E+04  0.7818609E-02  0.8399493E-01
        2   -1    0    0  501    0  0.00000000000E+00  0.00000000000E+00  0.10130401901E+04  0.10130401901E+04  0.25500000920E-02 0. -1.
       -2   -1    0    0    0  501  0.00000000000E+00  0.00000000000E+00 -0.15545357989E+04  0.15545357989E+04  0.25500000920E-02 0.  1.
    10030    2    1    2    0    0  0.00000000000E+00  0.00000000000E+00 -0.54149560883E+03  0.25675759890E+04  0.25098264810E+04 0.  0.
        2    1    3    3  502    0 -0.59809472981E+03  0.81524751754E+02  0.85476877497E+03  0.10464192514E+04  0.25500000920E-02 0. -1.
       -2    1    3    3    0  502  0.59809472981E+03 -0.81524751754E+02 -0.13962643838E+04  0.15211567376E+04  0.25500000920E-02 0.  1.
</event>
<event>
 5   0  0.1008073E-05  0.2513196E+04  0.7818609E-02  0.8398299E-01
       -1   -1    0    0    0  501  0.00000000000E+00  0.00000000000E+00  0.11083200199E+04  0.11083200199E+04  0.50400001928E-02 0. -1.
        1   -1    0    0  501    0  0.00000000000E+00  0.00000000000E+00 -0.14247136564E+04  0.14247136564E+04  0.50400001928E-02 0.  1.
    10030    2    1    2    0    0  0.00000000000E+00  0.00000000000E+00 -0.31639363656E+03  0.25330336763E+04  0.25131961070E+04 0.  0.
        1    1    3    3  502    0 -0.57381551326E+03 -0.66048879326E+02 -0.12829859290E+04  0.14070108712E+04  0.50400001928E-02 0.  1.
       -1    1    3    3    0  502  0.57381551326E+03  0.66048879326E+02  0.96659229245E+03  0.11260228051E+04  0.50400001928E-02 0. -1.
</event>
<event>
 5   0  0.2441340E-05  0.2052476E+04  0.7818609E-02  0.8582472E-01
        2   -1    0    0  501    0  0.00000000000E+00  0.00000000000E+00  0.11440518875E+04  0.11440518875E+04  0.25500000920E-02 0.  1.
       -2   -1    0    0    0  501  0.00000000000E+00  0.00000000000E+00 -0.92055650884E+03  0.92055650884E+03  0.25500000920E-02 0. -1.
    10030    2    1    2    0    0  0.00000000000E+00  0.00000000000E+00  0.22349537866E+03  0.20646083963E+04  0.20524759794E+04 0.  0.
        3    1    3    3  502    0  0.89593912588E+01  0.74228405547E+03  0.82452533866E+03  0.11094629034E+04  0.10100000352E+00 0.  1.
       -3    1    3    3    0  502 -0.89593912588E+01 -0.74228405547E+03 -0.60102996000E+03  0.95514549296E+03  0.10100000352E+00 0. -1.
</event>
<event>
 5   0  0.1010338E-05  0.2488205E+04  0.7818609E-02  0.8407200E-01
       -1   -1    0    0    0  501  0.00000000000E+00  0.00000000000E+00  0.94435838128E+03  0.94435838129E+03  0.50400001928E-02 0. -1.
        1   -1    0    0  501    0  0.00000000000E+00  0.00000000000E+00 -0.16389862952E+04  0.16389862952E+04  0.50400001928E-02 0.  1.
    10030    2    1    2    0    0  0.00000000000E+00  0.00000000000E+00 -0.69462791394E+03  0.25833446765E+04  0.24882045291E+04 0.  0.
        2    1    3    3  502    0  0.14487508344E+02  0.30231176917E+03 -0.16001811146E+04  0.16285520849E+04  0.25500000920E-02 0.  1.
       -2    1    3    3    0  502 -0.14487508344E+02 -0.30231176917E+03  0.90555320069E+03  0.95479259159E+03  0.25500000920E-02 0. -1.
</event>
<event>
 5   0  0.1002753E-05  0.2543620E+04  0.7818609E-02  0.8387608E-01
        1   -1    0    0  501    0  0.00000000000E+00  0.00000000000E+00  0.12680664839E+04  0.12680664839E+04  0.50400001928E-02 0. -1.
       -1   -1    0    0    0  501  0.00000000000E+00  0.00000000000E+00 -0.12755645293E+04  0.12755645293E+04  0.50400001928E-02 0.  1.
    10030    2    1    2    0    0  0.00000000000E+00  0.00000000000E+00 -0.74980453770E+01  0.25436310133E+04  0.25436199620E+04 0.  0.
        5    1    3    3  502    0  0.35923672520E+03  0.10017018021E+04 -0.70018654841E+03  0.12738684460E+04  0.46999998093E+01 0.  1.
       -5    1    3    3    0  502 -0.35923672520E+03 -0.10017018021E+04  0.69268850303E+03  0.12697625673E+04  0.46999998093E+01 0. -1.
</event>
<event>
 5   0  0.1002753E-05  0.2498265E+04  0.7818609E-02  0.8403604E-01
       -1   -1    0    0    0  501  0.00000000000E+00  0.00000000000E+00  0.10251019965E+04  0.10251019965E+04  0.50400001928E-02 0.  1.
        1   -1    0    0  501    0  0.00000000000E+00  0.00000000000E+00 -0.15221238918E+04  0.15221238918E+04  0.50400001928E-02 0. -1.
    10030    2    1    2    0    0  0.00000000000E+00  0.00000000000E+00 -0.49702189535E+03  0.25472258883E+04  0.24982651904E+04 0.  0.
        5    1    3    3  502    0  0.28504153554E+03  0.10731183941E+04  0.33496135315E+03  0.11597641841E+04  0.46999998093E+01 0.  1.
       -5    1    3    3    0  502 -0.28504153554E+03 -0.10731183941E+04 -0.83198324849E+03  0.13874617042E+04  0.46999998093E+01 0. -1.
</event>
<event>
 5   0  0.1010338E-05  0.2325597E+04  0.7818609E-02  0.8467896E-01
        1   -1    0    0  501    0  0.00000000000E+00  0.00000000000E+00  0.73280793230E+03  0.73280793232E+03  0.50400001928E-02 0.  1.
       -1   -1    0    0    0  501  0.00000000000E+00  0.00000000000E+00 -0.18450957385E+04  0.18450957385E+04  0.50400001928E-02 0. -1.
    10030    2    1    2    0    0  0.00000000000E+00  0.00000000000E+00 -0.11122878062E+04  0.25779036708E+04  0.23255973796E+04 0.  0.
        2    1    3    3  502    0  0.23661268819E+03 -0.50960622783E+03  0.57235037430E+03  0.80204053677E+03  0.25500000920E-02 0.  1.
       -2    1    3    3    0  502 -0.23661268819E+03  0.50960622783E+03 -0.16846381805E+04  0.17758631340E+04  0.25500000920E-02 0. -1.
</event>
<event>
 5   0  0.2432309E-05  0.2480306E+04  0.7818609E-02  0.8410035E-01
        2   -1    0    0  501    0  0.00000000000E+00  0.00000000000E+00  0.14769108653E+04  0.14769108653E+04  0.25500000920E-02 0.  1.
       -2   -1    0    0    0  501  0.00000000000E+00  0.00000000000E+00 -0.10413488935E+04  0.10413488935E+04  0.25500000920E-02 0. -1.
    10030    2    1    2    0    0  0.00000000000E+00  0.00000000000E+00  0.43556197173E+03  0.25182597588E+04  0.24803060258E+04 0.  0.
        4    1    3    3  502    0 -0.24398140212E+03  0.11958025096E+04 -0.58329570410E+01  0.12204532776E+04  0.12699999809E+01 0. -1.
       -4    1    3    3    0  502  0.24398140212E+03 -0.11958025096E+04  0.44139492877E+03  0.12978064812E+04  0.12699999809E+01 0.  1.
</event>
<event>
 5   0  0.1015327E-05  0.2530935E+04  0.7818609E-02  0.8392047E-01
        1   -1    0    0  501    0  0.00000000000E+00  0.00000000000E+00  0.16653023515E+04  0.16653023515E+04  0.50400001928E-02 0.  1.
       -1   -1    0    0    0  501  0.00000000000E+00  0.00000000000E+00 -0.96163233064E+03  0.96163233065E+03  0.50400001928E-02 0. -1.
    10030    2    1    2    0    0  0.00000000000E+00  0.00000000000E+00  0.70367002088E+03  0.26269346822E+04  0.25309354646E+04 0.  0.
        4    1    3    3  502    0  0.13542430301E+03 -0.82939589361E+03 -0.63018623714E+03  0.10504159160E+04  0.12699999809E+01 0. -1.
       -4    1    3    3    0  502 -0.13542430301E+03  0.82939589361E+03  0.13338562580E+04  0.15765187662E+04  0.12699999809E+01 0.  1.
</event>
<event>
 5   0  0.1002753E-05  0.2469567E+04  0.7818609E-02  0.8413908E-01
        1   -1    0    0  501    0  0.00000000000E+00  0.00000000000E+00  0.14344738127E+04  0.14344738127E+04  0.50400001928E-02 0. -1.
       -1   -1    0    0    0  501  0.00000000000E+00  0.00000000000E+00 -0.10628919386E+04  0.10628919386E+04  0.50400001928E-02 0.  1.
    10030    2    1    2    0    0  0.00000000000E+00  0.00000000000E+00  0.37158187414E+03  0.24973657513E+04  0.24695672914E+04 0.  0.
        5    1    3    3  502    0  0.11664120981E+04  0.32563374411E+03 -0.57991174884E+02  0.12124106500E+04  0.46999998093E+01 0. -1.
       -5    1    3    3    0  502 -0.11664120981E+04 -0.32563374411E+03  0.42957304903E+03  0.12849551013E+04  0.46999998093E+01 0.  1.
</event>
<event>
 5   0  0.1010338E-05  0.2437600E+04  0.7818609E-02  0.8425559E-01
       -1   -1    0    0    0  501  0.00000000000E+00  0.00000000000E+00  0.13904021774E+04  0.13904021775E+04  0.50400001928E-02 0. -1.
        1   -1    0    0  501    0  0.00000000000E+00  0.00000000000E+00 -0.10683769648E+04  0.10683769648E+04  0.50400001928E-02 0.  1.
    10030    2    1    2    0    0  0.00000000000E+00  0.00000000000E+00  0.32202521266E+03  0.24587791422E+04  0.24376001790E+04 0.  0.
        2    1    3    3  502    0  0.86540331109E+03  0.76437694378E+03 -0.23260685583E+03  0.11778374049E+04  0.25500000920E-02 0.  1.
       -2    1    3    3    0  502 -0.86540331109E+03 -0.76437694378E+03  0.55463206849E+03  0.12809417373E+04  0.25500000920E-02 0. -1.
</event>
<event>
 5   0  0.2452457E-05  0.2012498E+04  0.7818609E-02  0.8600800E-01
        2   -1    0    0  501    0  0.00000000000E+00  0.00000000000E+00  0.23535240518E+04  0.23535240518E+04  0.25500000920E-02 0.  1.
       -2   -1    0    0    0  501  0.00000000000E+00  0.00000000000E+00 -0.43022179154E+03  0.43022179155E+03  0.25500000920E-02 0. -1.
    10030    2    1    2    0    0  0.00000000000E+00  0.00000000000E+00  0.19233022603E+04  0.27837458434E+04  0.20124982823E+04 0.  0.
        1    1    3    3  502    0  0.65109570734E+03  0.30392393191E+03  0.19360590470E+04  0.20650956418E+04  0.50400001928E-02 0.  1.
       -1    1    3    3    0  502 -0.65109570734E+03 -0.30392393191E+03 -0.12756786719E+02  0.71865020152E+03  0.50400001928E-02 0. -1.
</event>
<event>
 5   0  0.2441340E-05  0.2474898E+04  0.7818609E-02  0.8411983E-01
        2   -1    0    0  501    0  0.00000000000E+00  0.00000000000E+00  0.21360098266E+04  0.21360098266E+04  0.25500000920E-02 0.  1.
       -2   -1    0    0    0  501  0.00000000000E+00  0.00000000000E+00 -0.71688798066E+03  0.71688798066E+03  0.25500000920E-02 0. -1.
    10030    2    1    2    0    0  0.00000000000E+00  0.00000000000E+00  0.14191218460E+04  0.28528978073E+04  0.24748977929E+04 0.  0.
        3    1    3    3  502    0  0.97182027970E+03 -0.76142396274E+03  0.80654586030E+03  0.14746922872E+04  0.10100000352E+00 0.  1.
       -3    1    3    3    0  502 -0.97182027970E+03  0.76142396274E+03  0.61257598565E+03  0.13782055200E+04  0.10100000352E+00 0. -1.
</event>
<event>
 5   0  0.2441340E-05  0.2476447E+04  0.7818609E-02  0.8411425E-01
        2   -1    0    0  501    0  0.00000000000E+00  0.00000000000E+00  0.14377650340E+04  0.14377650340E+04  0.25500000920E-02 0.  1.
       -2   -1    0    0    0  501  0.00000000000E+00  0.00000000000E+00 -0.10663753577E+04  0.10663753577E+04  0.25500000920E-02 0. -1.
    10030    2    1    2    0    0  0.00000000000E+00  0.00000000000E+00  0.37138967627E+03  0.25041403916E+04  0.24764468113E+04 0.  0.
        3    1    3    3  502    0  0.29249391165E+03 -0.13563433044E+03  0.13945755263E+04  0.14313595875E+04  0.10100000352E+00 0.  1.
       -3    1    3    3    0  502 -0.29249391165E+03  0.13563433044E+03 -0.10231858500E+04  0.10727808042E+04  0.10100000352E+00 0. -1.
</event>
<event>
 5   0  0.1015327E-05  0.2459551E+04  0.7818609E-02  0.8417539E-01
        1   -1    0    0  501    0  0.00000000000E+00  0.00000000000E+00  0.11709728550E+04  0.11709728550E+04  0.50400001928E-02 0. -1.
       -1   -1    0    0    0  501  0.00000000000E+00  0.00000000000E+00 -0.12915311412E+04  0.12915311412E+04  0.50400001928E-02 0.  1.
    10030    2    1    2    0    0  0.00000000000E+00  0.00000000000E+00 -0.12055828619E+03  0.24625039963E+04  0.24595511036E+04 0.  0.
        4    1    3    3  502    0 -0.88756826941E+03  0.41592274403E+03  0.68329489842E+03  0.11948483975E+04  0.12699999809E+01 0. -1.
       -4    1    3    3    0  502  0.88756826941E+03 -0.41592274403E+03 -0.80385318461E+03  0.12676555988E+04  0.12699999809E+01 0.  1.
</event>
<event>
 5   0  0.2452457E-05  0.2504089E+04  0.7818609E-02  0.8401530E-01
        2   -1    0    0  501    0  0.00000000000E+00  0.00000000000E+00  0.87264825386E+03  0.87264825386E+03  0.25500000920E-02 0. -1.
       -2   -1    0    0    0  501  0.00000000000E+00  0.00000000000E+00 -0.17963882051E+04  0.17963882051E+04  0.25500000920E-02 0.  1.
    10030    2    1    2    0    0  0.00000000000E+00  0.00000000000E+00 -0.92373995122E+03  0.26690364589E+04  0.25040886809E+04 0.  0.
        1    1    3    3  502    0 -0.32622155933E+03  0.11758729728E+04 -0.76053709588E+03  0.14378854016E+04  0.50400001928E-02 0.  1.
       -1    1    3    3    0  502  0.32622155933E+03 -0.11758729728E+04 -0.16320285534E+03  0.12311510573E+04  0.50400001928E-02 0. -1.
</event>
<event>
 5   0  0.1010338E-05  0.2493834E+04  0.7818609E-02  0.8405186E-01
       -1   -1    0    0    0  501  0.00000000000E+00  0.00000000000E+00  0.14701071018E+04  0.14701071018E+04  0.50400001928E-02 0.  1.
        1   -1    0    0  501    0  0.00000000000E+00  0.00000000000E+00 -0.10576111585E+04  0.10576111586E+04  0.50400001928E-02 0. -1.
    10030    2    1    2    0    0  0.00000000000E+00  0.00000000000E+00  0.41249594329E+03  0.25277182604E+04  0.24938337356E+04 0.  0.
        2    1    3    3  502    0  0.58379356073E+03 -0.28101523997E+03  0.12860953779E+04  0.14400784033E+04  0.25500000920E-02 0.  1.
       -2    1    3    3    0  502 -0.58379356073E+03  0.28101523997E+03 -0.87359943459E+03  0.10876398571E+04  0.25500000920E-02 0. -1.
</event>
<event>
 5   0  0.1039688E-05  0.2476126E+04  0.7818609E-02  0.8411540E-01
       -1   -1    0    0    0  501  0.00000000000E+00  0.00000000000E+00  0.83997170781E+03  0.83997170782E+03  0.50400001928E-02 0. -1.
        1   -1    0    0  501    0  0.00000000000E+00  0.00000000000E+00 -0.18248231270E+04  0.18248231271E+04  0.50400001928E-02 0.  1.
    10030    2    1    2    0    0  0.00000000000E+00  0.00000000000E+00 -0.98485141924E+03  0.26647948349E+04  0.24761258437E+04 0.  0.
        3    1    3    3  502    0  0.89377655896E+03  0.13785753172E+02  0.42944918699E+03  0.99169208868E+03  0.10100000352E+00 0. -1.
       -3    1    3    3    0  502 -0.89377655896E+03 -0.13785753172E+02 -0.14143006062E+04  0.16731027462E+04  0.10100000352E+00 0.  1.
</event>
<event>
 5   0  0.1002753E-05  0.2271164E+04  0.7818609E-02  0.8489378E-01
       -1   -1    0    0    0  501  0.00000000000E+00  0.00000000000E+00  0.16777920871E+04  0.16777920871E+04  0.50400001928E-02 0.  1.
        1   -1    0    0  501    0  0.00000000000E+00  0.00000000000E+00 -0.76859751070E+03  0.76859751072E+03  0.50400001928E-02 0. -1.
    10030    2    1    2    0    0  0.00000000000E+00  0.00000000000E+00  0.90919457639E+03  0.24463895978E+04  0.22711643020E+04 0.  0.
        5    1    3    3  502    0  0.41481010785E+03  0.74957312008E+03 -0.34829481698E+03  0.92480195580E+03  0.46999998093E+01 0. -1.
       -5    1    3    3    0  502 -0.41481010785E+03 -0.74957312008E+03  0.12574893934E+04  0.15215876420E+04  0.46999998093E+01 0.  1.
</event>
<event>
 5   0  0.2388326E-05  0.2679280E+04  0.7818609E-02  0.8341759E-01
       -2   -1    0    0    0  501  0.00000000000E+00  0.00000000000E+00  0.93022749072E+03  0.93022749073E+03  0.25500000920E-02 0.  1.
        2   -1    0    0  501    0  0.00000000000E+00  0.00000000000E+00 -0.19292428578E+04  0.19292428578E+04  0.25500000920E-02 0. -1.
    10030    2    1    2    0    0  0.00000000000E+00  0.00000000000E+00 -0.99901536705E+03  0.28594703485E+04  0.26792795618E+04 0.  0.
        2    1    3    3  502    0 -0.10214450566E+04 -0.85190674436E+03 -0.67006679842E+03  0.14893235441E+04  0.25500000920E-02 0. -1.
       -2    1    3    3    0  502  0.10214450566E+04  0.85190674436E+03 -0.32894856864E+03  0.13701468044E+04  0.25500000920E-02 0.  1.
</event>
<event>
 5   0  0.2452457E-05  0.2533628E+04  0.7818609E-02  0.8391103E-01
        2   -1    0    0  501    0  0.00000000000E+00  0.00000000000E+00  0.14274081298E+04  0.14274081298E+04  0.25500000920E-02 0.  1.
       -2   -1    0    0    0  501  0.00000000000E+00  0.00000000000E+00 -0.11242875202E+04  0.11242875202E+04  0.25500000920E-02 0. -1.
    10030    2    1    2    0    0  0.00000000000E+00  0.00000000000E+00  0.30312060957E+03  0.25516956500E+04  0.25336275548E+04 0.  0.
        1    1    3    3  502    0 -0.12323577402E+04  0.27976154661E+03  0.62356530351E+02  0.12652511449E+04  0.50400001928E-02 0. -1.
       -1    1    3    3    0  502  0.12323577402E+04 -0.27976154661E+03  0.24076407922E+03  0.12864445051E+04  0.50400001928E-02 0.  1.
</event>
<event>
 5   0  0.2345143E-05  0.2505311E+04  0.7818609E-02  0.8401096E-01
       -2   -1    0    0    0  501  0.00000000000E+00  0.00000000000E+00  0.13929270049E+04  0.13929270049E+04  0.25500000920E-02 0.  1.
        2   -1    0    0  501    0  0.00000000000E+00  0.00000000000E+00 -0.11265098263E+04  0.11265098263E+04  0.25500000920E-02 0. -1.
    10030    2    1    2    0    0  0.00000000000E+00  0.00000000000E+00  0.26641717862E+03  0.25194368312E+04  0.25053111250E+04 0.  0.
        5    1    3    3  502    0  0.52952221764E+03 -0.34616777053E+03 -0.95404314250E+03  0.11447472700E+04  0.46999998093E+01 0. -1.
       -5    1    3    3    0  502 -0.52952221764E+03  0.34616777053E+03  0.12204603211E+04  0.13746895612E+04  0.46999998093E+01 0.  1.
</event>
<event>
 5   0  0.1010338E-05  0.2486563E+04  0.7818609E-02  0.8407788E-01
        1   -1    0    0  501    0  0.00000000000E+00  0.00000000000E+00  0.25805586896E+04  0.25805586896E+04  0.50400001928E-02 0.  1.
       -1   -1    0    0    0  501  0.00000000000E+00  0.00000000000E+00 -0.59899798788E+03  0.59899798790E+03  0.50400001928E-02 0. -1.
    10030    2    1    2    0    0  0.00000000000E+00  0.00000000000E+00  0.19815607017E+04  0.31795566775E+04  0.24865634621E+04 0.  0.
        2    1    3    3  502    0  0.10489881407E+04  0.35686927280E+03  0.17118756191E+04  0.20391787397E+04  0.25500000920E-02 0.  1.
       -2    1    3    3    0  502 -0.10489881407E+04 -0.35686927280E+03  0.26968508262E+03  0.11403779378E+04  0.25500000920E-02 0. -1.
</event>
<event>
 5   0  0.2432309E-05  0.2470878E+04  0.7818609E-02  0.8413435E-01
       -2   -1    0    0    0  501  0.00000000000E+00  0.00000000000E+00  0.84396578939E+03  0.84396578939E+03  0.25500000920E-02 0.  1.
        2   -1    0    0  501    0  0.00000000000E+00  0.00000000000E+00 -0.18084965903E+04  0.18084965903E+04  0.25500000920E-02 0. -1.
    10030    2    1    2    0    0  0.00000000000E+00  0.00000000000E+00 -0.96453080088E+03  0.26524623797E+04  0.24708777812E+04 0.  0.
        4    1    3    3  502    0  0.33735227723E+03 -0.11746528040E+04 -0.28816883287E+03  0.12556506910E+04  0.12699999809E+01 0.  1.
       -4    1    3    3    0  502 -0.33735227723E+03  0.11746528040E+04 -0.67636196802E+03  0.13968116886E+04  0.12699999809E+01 0. -1.
</event>
<event>
 5   0  0.2452457E-05  0.2536106E+04  0.7818609E-02  0.8390234E-01
        2   -1    0    0  501    0  0.00000000000E+00  0.00000000000E+00  0.93314971139E+03  0.93314971139E+03  0.25500000920E-02 0.  1.
       -2   -1    0    0    0  501  0.00000000000E+00  0.00000000000E+00 -0.17231515930E+04  0.17231515930E+04  0.25500000920E-02 0. -1.
    10030    2    1    2    0    0  0.00000000000E+00  0.00000000000E+00 -0.79000188165E+03  0.26563013044E+04  0.25361060007E+04 0.  0.
        1    1    3    3  502    0  0.28254300553E+03  0.12269721381E+04 -0.55269277272E+03  0.13750492641E+04  0.50400001928E-02 0. -1.
       -1    1    3    3    0  502 -0.28254300553E+03 -0.12269721381E+04 -0.23730910893E+03  0.12812520403E+04  0.50400001928E-02 0.  1.
</event>
<event>
 5   0  0.1008073E-05  0.2491283E+04  0.7818609E-02  0.8406098E-01
       -1   -1    0    0    0  501  0.00000000000E+00  0.00000000000E+00  0.73484492463E+03  0.73484492465E+03  0.50400001928E-02 0.  1.
        1   -1    0    0  501    0  0.00000000000E+00  0.00000000000E+00 -0.21114964065E+04  0.21114964065E+04  0.50400001928E-02 0. -1.
    10030    2    1    2    0    0  0.00000000000E+00  0.00000000000E+00 -0.13766514819E+04  0.28463413312E+04  0.24912827361E+04 0.  0.
        1    1    3    3  502    0  0.93344715392E+03 -0.75349222466E+03 -0.10716209780E+04  0.16085538979E+04  0.50400001928E-02 0. -1.
       -1    1    3    3    0  502 -0.93344715392E+03  0.75349222466E+03 -0.30503050390E+03  0.12377874333E+04  0.50400001928E-02 0.  1.
</event>
<event>
 5   0  0.1002753E-05  0.2511597E+04  0.7818609E-02  0.8398866E-01
        1   -1    0    0  501    0  0.00000000000E+00  0.00000000000E+00  0.13836685228E+04  0.13836685229E+04  0.50400001928E-02 0.  1.
       -1   -1    0    0    0  501  0.00000000000E+00  0.00000000000E+00 -0.11397450351E+04  0.11397450351E+04  0.50400001928E-02 0. -1.
    10030    2    1    2    0    0  0.00000000000E+00  0.00000000000E+00  0.24392348772E+03  0.25234135580E+04  0.25115965673E+04 0.  0.
        5    1    3    3  502    0 -0.87028438790E+03 -0.30342833266E+03  0.97893655069E+03  0.13445454731E+04  0.46999998093E+01 0.  1.
       -5    1    3    3    0  502  0.87028438790E+03  0.30342833266E+03 -0.73501306298E+03  0.11788680849E+04  0.46999998093E+01 0. -1.
</event>
<event>
 5   0  0.2345143E-05  0.2443266E+04  0.7818609E-02  0.8423481E-01
       -2   -1    0    0    0  501  0.00000000000E+00  0.00000000000E+00  0.65734698563E+03  0.65734698563E+03  0.25500000920E-02 0. -1.
        2   -1    0    0  501    0  0.00000000000E+00  0.00000000000E+00 -0.22703196351E+04  0.22703196351E+04  0.25500000920E-02 0.  1.
    10030    2    1    2    0    0  0.00000000000E+00  0.00000000000E+00 -0.16129726495E+04  0.29276666208E+04  0.24432664763E+04 0.  0.
        5    1    3    3  502    0  0.91932455982E+03  0.73585310044E+03 -0.11961108630E+04  0.16784935860E+04  0.46999998093E+01 0. -1.
       -5    1    3    3    0  502 -0.91932455982E+03 -0.73585310044E+03 -0.41686178652E+03  0.12491730348E+04  0.46999998093E+01 0.  1.
</event>
<event>
 5   0  0.2345143E-05  0.2535606E+04  0.7818609E-02  0.8390409E-01
       -2   -1    0    0    0  501  0.00000000000E+00  0.00000000000E+00  0.80178958378E+03  0.80178958378E+03  0.25500000920E-02 0. -1.
        2   -1    0    0  501    0  0.00000000000E+00  0.00000000000E+00 -0.20046714960E+04  0.20046714960E+04  0.25500000920E-02 0.  1.
    10030    2    1    2    0    0  0.00000000000E+00  0.00000000000E+00 -0.12028819122E+04  0.28064610798E+04  0.25356062190E+04 0.  0.
        5    1    3    3  502    0  0.73556517904E+03 -0.10321141897E+04 -0.56667196904E+03  0.13883281470E+04  0.46999998093E+01 0.  1.
       -5    1    3    3    0  502 -0.73556517904E+03  0.10321141897E+04 -0.63620994318E+03  0.14181329328E+04  0.46999998093E+01 0. -1.
</event>
<event>
 5   0  0.2345143E-05  0.2513817E+04  0.7818609E-02  0.8398080E-01
        2   -1    0    0  501    0  0.00000000000E+00  0.00000000000E+00  0.18962781869E+04  0.18962781869E+04  0.25500000920E-02 0.  1.
       -2   -1    0    0    0  501  0.00000000000E+00  0.00000000000E+00 -0.83311532434E+03  0.83311532434E+03  0.25500000920E-02 0. -1.
    10030    2    1    2    0    0  0.00000000000E+00  0.00000000000E+00  0.10631628626E+04  0.27293935113E+04  0.25138165540E+04 0.  0.
        5    1    3    3  502    0  0.22163788608E+03 -0.25377231087E+03 -0.78315873374E+03  0.85257458943E+03  0.46999998093E+01 0. -1.
       -5    1    3    3    0  502 -0.22163788608E+03  0.25377231087E+03  0.18463215963E+04  0.18768189218E+04  0.46999998093E+01 0.  1.
</event>
<event>
 5   0  0.2432309E-05  0.2516659E+04  0.7818609E-02  0.8397075E-01
       -2   -1    0    0    0  501  0.00000000000E+00  0.00000000000E+00  0.17219799152E+04  0.17219799152E+04  0.25500000920E-02 0. -1.
        2   -1    0    0  501    0  0.00000000000E+00  0.00000000000E+00 -0.91951875385E+03  0.91951875386E+03  0.25500000920E-02 0.  1.
    10030    2    1    2    0    0  0.00000000000E+00  0.00000000000E+00  0.80246116136E+03  0.26414986691E+04  0.25166587578E+04 0.  0.
        4    1    3    3  502    0 -0.87402953089E+02 -0.55453526320E+03 -0.78079596220E+03  0.96166136547E+03  0.12699999809E+01 0.  1.
       -4    1    3    3    0  502  0.87402953089E+02  0.55453526320E+03  0.15832571236E+04  0.16798373036E+04  0.12699999809E+01 0. -1.
</event>
<event>
 5   0  0.2432309E-05  0.2460169E+04  0.7818609E-02  0.8417314E-01
       -2   -1    0    0    0  501  0.00000000000E+00  0.00000000000E+00  0.13225637222E+04  0.13225637222E+04  0.25500000920E-02 0.  1.
        2   -1    0    0  501    0  0.00000000000E+00  0.00000000000E+00 -0.11440718640E+04  0.11440718640E+04  0.25500000920E-02 0. -1.
    10030    2    1    2    0    0  0.00000000000E+00  0.00000000000E+00  0.17849185817E+03  0.24666355862E+04  0.24601690535E+04 0.  0.
        4    1    3    3  502    0  0.75857192757E+03  0.79806912798E+03 -0.46061205162E+03  0.11935287082E+04  0.12699999809E+01 0. -1.
       -4    1    3    3    0  502 -0.75857192757E+03 -0.79806912798E+03  0.63910390979E+03  0.12731068780E+04  0.12699999809E+01 0.  1.
</event>
<event>
 5   0  0.1002753E-05  0.2483774E+04  0.7818609E-02  0.8408789E-01
        1   -1    0    0  501    0  0.00000000000E+00  0.00000000000E+00  0.90172139292E+03  0.90172139293E+03  0.50400001928E-02 0.  1.
       -1   -1    0    0    0  501  0.00000000000E+00  0.00000000000E+00 -0.17103772400E+04  0.17103772400E+04  0.50400001928E-02 0. -1.
    10030    2    1    2    0    0  0.00000000000E+00  0.00000000000E+00 -0.80865584710E+03  0.26120986330E+04  0.24837743435E+04 0.  0.
        5    1    3    3  502    0  0.10561415136E+04  0.43772869515E+03  0.10572457723E+03  0.11481468040E+04  0.46999998093E+01 0.  1.
       -5    1    3    3    0  502 -0.10561415136E+04 -0.43772869515E+03 -0.91438042433E+03  0.14639518290E+04  0.46999998093E+01 0. -1.
</event>
<event>
 5   0  0.2441340E-05  0.2501286E+04  0.7818609E-02  0.8402527E-01
       -2   -1    0    0    0  501  0.00000000000E+00  0.00000000000E+00  0.62164967591E+03  0.62164967592E+03  0.25500000920E-02 0. -1.
        2   -1    0    0  501    0  0.00000000000E+00  0.00000000000E+00 -0.25160605705E+04  0.25160605705E+04  0.25500000920E-02 0.  1.
    10030    2    1    2    0    0  0.00000000000E+00  0.00000000000E+00 -0.18944108946E+04  0.31377102464E+04  0.25012862597E+04 0.  0.
        3    1    3    3  502    0  0.10220282402E+04  0.71909605142E+03 -0.88489414178E+03  0.15312343084E+04  0.10100000352E+00 0. -1.
       -3    1    3    3    0  502 -0.10220282402E+04 -0.71909605142E+03 -0.10095167528E+04  0.16064759380E+04  0.10100000352E+00 0.  1.
</event>
<event>
 5   0  0.2388326E-05  0.2477525E+04  0.7818609E-02  0.8411036E-01
        2   -1    0    0  501    0  0.00000000000E+00  0.00000000000E+00  0.21500233280E+04  0.21500233280E+04  0.25500000920E-02 0.  1.
       -2   -1    0    0    0  501  0.00000000000E+00  0.00000000000E+00 -0.71372817755E+03  0.71372817755E+03  0.25500000920E-02 0. -1.
    10030    2    1    2    0    0  0.00000000000E+00  0.00000000000E+00  0.14362951505E+04  0.28637515056E+04  0.24775247580E+04 0.  0.
        2    1    3    3  502    0 -0.10745996943E+04 -0.50496168734E+03  0.30983543383E+03  0.12270895667E+04  0.25500000920E-02 0. -1.
       -2    1    3    3    0  502  0.10745996943E+04  0.50496168734E+03  0.11264597166E+04  0.16366619388E+04  0.25500000920E-02 0.  1.
</event>
<event>
 5   0  0.1039688E-05  0.2353470E+04  0.7818609E-02  0.8457132E-01
       -1   -1    0    0    0  501  0.00000000000E+00  0.00000000000E+00  0.15994984501E+04  0.15994984501E+04  0.50400001928E-02 0. -1.
        1   -1    0    0  501    0  0.00000000000E+00  0.00000000000E+00 -0.86571230242E+03  0.86571230243E+03  0.50400001928E-02 0.  1.
    10030    2    1    2    0    0  0.00000000000E+00  0.00000000000E+00  0.73378614764E+03  0.24652107525E+04  0.23534701918E+04 0.  0.
        3    1    3    3  502    0 -0.90285985735E+03  0.33394255503E+03  0.10758065389E+04  0.14436181183E+04  0.10100000352E+00 0. -1.
       -3    1    3    3    0  502  0.90285985735E+03 -0.33394255503E+03 -0.34202039125E+03  0.10215926342E+04  0.10100000352E+00 0.  1.
</event>
<event>
 5   0  0.2345143E-05  0.2490442E+04  0.7818609E-02  0.8406399E-01
       -2   -1    0    0    0  501  0.00000000000E+00  0.00000000000E+00  0.15108618326E+04  0.15108618326E+04  0.25500000920E-02 0. -1.
        2   -1    0    0  501    0  0.00000000000E+00  0.00000000000E+00 -0.10262851945E+04  0.10262851945E+04  0.25500000920E-02 0.  1.
    10030    2    1    2    0    0  0.00000000000E+00  0.00000000000E+00  0.48457663803E+03  0.25371470271E+04  0.24904418321E+04 0.  0.
        5    1    3    3  502    0  0.12348654840E+04  0.14612730166E+03  0.30914750665E+03  0.12813431323E+04  0.46999998093E+01 0. -1.
       -5    1    3    3    0  502 -0.12348654840E+04 -0.14612730166E+03  0.17542913138E+03  0.12558038947E+04  0.46999998093E+01 0.  1.
</event>
<event>
 5   0  0.2388326E-05  0.2515155E+04  0.7818609E-02  0.8397606E-01
       -2   -1    0    0    0  501  0.00000000000E+00  0.00000000000E+00  0.13735965641E+04  0.13735965641E+04  0.25500000920E-02 0.  1.
        2   -1    0    0  501    0  0.00000000000E+00  0.00000000000E+00 -0.11513578393E+04  0.11513578393E+04  0.25500000920E-02 0. -1.
    10030    2    1    2    0    0  0.00000000000E+00  0.00000000000E+00  0.22223872480E+03  0.25249544033E+04  0.25151550028E+04 0.  0.
        2    1    3    3  502    0 -0.12496792620E+04  0.12549589340E+03  0.47202667827E+02  0.12568514507E+04  0.25500000920E-02 0.  1.
       -2    1    3    3    0  502  0.12496792620E+04 -0.12549589340E+03  0.17503605697E+03  0.12681029526E+04  0.25500000920E-02 0. -1.
</event>
<event>
 5   0  0.1008073E-05  0.2491593E+04  0.7818609E-02  0.8405987E-01
       -1   -1    0    0    0  501  0.00000000000E+00  0.00000000000E+00  0.17320767586E+04  0.17320767586E+04  0.50400001928E-02 0. -1.
        1   -1    0    0  501    0  0.00000000000E+00  0.00000000000E+00 -0.89603936681E+03  0.89603936682E+03  0.50400001928E-02 0.  1.
    10030    2    1    2    0    0  0.00000000000E+00  0.00000000000E+00  0.83603739178E+03  0.26281161254E+04  0.24915930342E+04 0.  0.
        1    1    3    3  502    0  0.47463860928E+03  0.11514240217E+04  0.45052747240E+03  0.13243995208E+04  0.50400001928E-02 0.  1.
       -1    1    3    3    0  502 -0.47463860928E+03 -0.11514240217E+04  0.38550991938E+03  0.13037166046E+04  0.50400001928E-02 0. -1.
</event>
<event>
 5   0  0.2345143E-05  0.2496155E+04  0.7818609E-02  0.8404357E-01
       -2   -1    0    0    0  501  0.00000000000E+00  0.00000000000E+00  0.90913038727E+03  0.90913038727E+03  0.25500000920E-02 0.  1.
        2   -1    0    0  501    0  0.00000000000E+00  0.00000000000E+00 -0.17133925279E+04  0.17133925279E+04  0.25500000920E-02 0. -1.
    10030    2    1    2    0    0  0.00000000000E+00  0.00000000000E+00 -0.80426214060E+03  0.26225229151E+04  0.24961548128E+04 0.  0.
        5    1    3    3  502    0  0.12994618140E+03 -0.46091422300E+03  0.80875581512E+03  0.93991275633E+03  0.46999998093E+01 0.  1.
       -5    1    3    3    0  502 -0.12994618140E+03  0.46091422300E+03 -0.16130179557E+04  0.16826101588E+04  0.46999998093E+01 0. -1.
</event>
<event>
 5   0  0.8166500E-06  0.2752167E+04  0.7818609E-02  0.8318274E-01
        4   -1    0    0  501    0  0.00000000000E+00  0.00000000000E+00  0.22135646925E+04  0.22135650569E+04  0.12699999809E+01 0.  1.
       -4   -1    0    0    0  501  0.00000000000E+00  0.00000000000E+00 -0.85545447229E+03  0.85545541500E+03  0.12699999809E+01 0. -1.
    10030    2    1    2    0    0  0.00000000000E+00  0.00000000000E+00  0.13581102203E+04  0.30690204719E+04  0.27521670164E+04 0.  0.
        1    1    3    3  502    0  0.42389338749E+03  0.11929382739E+04  0.12804171481E+04  0.18006263916E+04  0.50400001928E-02 0.  1.
       -1    1    3    3    0  502 -0.42389338749E+03 -0.11929382739E+04  0.77693072199E+02  0.12683940802E+04  0.50400001928E-02 0. -1.
</event>
<event>
 5   0  0.2441340E-05  0.2439522E+04  0.7818609E-02  0.8424854E-01
        2   -1    0    0  501    0  0.00000000000E+00  0.00000000000E+00  0.21364803172E+04  0.21364803172E+04  0.25500000920E-02 0.  1.
       -2   -1    0    0    0  501  0.00000000000E+00  0.00000000000E+00 -0.69638702696E+03  0.69638702696E+03  0.25500000920E-02 0. -1.
    10030    2    1    2    0    0  0.00000000000E+00  0.00000000000E+00  0.14400932903E+04  0.28328673442E+04  0.24395222289E+04 0.  0.
        3    1    3    3  502    0  0.72560166780E+03  0.97946696234E+03  0.66858588269E+03  0.13902734995E+04  0.10100000352E+00 0. -1.
       -3    1    3    3    0  502 -0.72560166780E+03 -0.97946696234E+03  0.77150740758E+03  0.14425938447E+04  0.10100000352E+00 0.  1.
</event>
<event>
 5   0  0.1010338E-05  0.2430648E+04  0.7818609E-02  0.8428118E-01
        1   -1    0    0  501    0  0.00000000000E+00  0.00000000000E+00  0.17374429055E+04  0.17374429055E+04  0.50400001928E-02 0.  1.
       -1   -1    0    0    0  501  0.00000000000E+00  0.00000000000E+00 -0.85010727191E+03  0.85010727193E+03  0.50400001928E-02 0. -1.
    10030    2    1    2    0    0  0.00000000000E+00  0.00000000000E+00  0.88733563361E+03  0.25875501775E+04  0.24306483485E+04 0.  0.
        2    1    3    3  502    0 -0.40166527425E+03  0.89409690771E+03  0.12085675221E+04  0.15560783169E+04  0.25500000920E-02 0.  1.
       -2    1    3    3    0  502  0.40166527425E+03 -0.89409690771E+03 -0.32123188847E+03  0.10314718605E+04  0.25500000920E-02 0. -1.
</event>
<event>
 5   0  0.1002753E-05  0.2446499E+04  0.7818609E-02  0.8422297E-01
        1   -1    0    0  501    0  0.00000000000E+00  0.00000000000E+00  0.13492508752E+04  0.13492508752E+04  0.50400001928E-02 0.  1.
       -1   -1    0    0    0  501  0.00000000000E+00  0.00000000000E+00 -0.11090151660E+04  0.11090151660E+04  0.50400001928E-02 0. -1.
    10030    2    1    2    0    0  0.00000000000E+00  0.00000000000E+00  0.24023570919E+03  0.24582660412E+04  0.24464992813E+04 0.  0.
        5    1    3    3  502    0  0.61807203697E+03  0.25718413483E+03  0.11488392226E+04  0.13296655111E+04  0.46999998093E+01 0.  1.
       -5    1    3    3    0  502 -0.61807203697E+03 -0.25718413483E+03 -0.90860351339E+03  0.11286005301E+04  0.46999998093E+01 0. -1.
</event>
<event>
 5   0  0.2388326E-05  0.2481747E+04  0.7818609E-02  0.8409517E-01
       -2   -1    0    0    0  501  0.00000000000E+00  0.00000000000E+00  0.12398496067E+04  0.12398496067E+04  0.25500000920E-02 0.  1.
        2   -1    0    0  501    0  0.00000000000E+00  0.00000000000E+00 -0.12418983538E+04  0.12418983538E+04  0.25500000920E-02 0. -1.
    10030    2    1    2    0    0  0.00000000000E+00  0.00000000000E+00 -0.20487470880E+01  0.24817479605E+04  0.24817471149E+04 0.  0.
        2    1    3    3  502    0  0.95359214469E+03  0.75040603810E+03  0.25843666595E+03  0.12406597885E+04  0.25500000920E-02 0.  1.
       -2    1    3    3    0  502 -0.95359214469E+03 -0.75040603810E+03 -0.26048541304E+03  0.12410881721E+04  0.25500000920E-02 0. -1.
</event>
<event>
 5   0  0.2452457E-05  0.2414214E+04  0.7818609E-02  0.8434201E-01
        2   -1    0    0  501    0  0.00000000000E+00  0.00000000000E+00  0.26482462836E+04  0.26482462836E+04  0.25500000920E-02 0. -1.
       -2   -1    0    0    0  501  0.00000000000E+00  0.00000000000E+00 -0.55021603213E+03  0.55021603214E+03  0.25500000920E-02 0.  1.
    10030    2    1    2    0    0  0.00000000000E+00  0.00000000000E+00  0.20980302515E+04  0.31984623158E+04  0.24142142095E+04 0.  0.
        1    1    3    3  502    0 -0.11184004279E+04  0.24898089581E+03  0.15522762962E+04  0.19293451488E+04  0.50400001928E-02 0. -1.
       -1    1    3    3    0  502  0.11184004279E+04 -0.24898089581E+03  0.54575395533E+03  0.12691171669E+04  0.50400001928E-02 0.  1.
</event>
<event>
 5   0  0.1015327E-05  0.2525607E+04  0.7818609E-02  0.8393919E-01
       -1   -1    0    0    0  501  0.00000000000E+00  0.00000000000E+00  0.62028427562E+03  0.62028427564E+03  0.50400001928E-02 0. -1.
        1   -1    0    0  501    0  0.00000000000E+00  0.00000000000E+00 -0.25708739833E+04  0.25708739833E+04  0.50400001928E-02 0.  1.
    10030    2    1    2    0    0  0.00000000000E+00  0.00000000000E+00 -0.19505897077E+04  0.31911582590E+04  0.25256070213E+04 0.  0.
        4    1    3    3  502    0 -0.61140919592E+03  0.90332895802E+03 -0.17792426680E+04  0.20869907752E+04  0.12699999809E+01 0.  1.
       -4    1    3    3    0  502  0.61140919592E+03 -0.90332895802E+03 -0.17134703968E+03  0.11041674838E+04  0.12699999809E+01 0. -1.
</event>
<event>
 5   0  0.1039688E-05  0.2501499E+04  0.7818609E-02  0.8402452E-01
        1   -1    0    0  501    0  0.00000000000E+00  0.00000000000E+00  0.15961016180E+04  0.15961016180E+04  0.50400001928E-02 0. -1.
       -1   -1    0    0    0  501  0.00000000000E+00  0.00000000000E+00 -0.98012192575E+03  0.98012192577E+03  0.50400001928E-02 0.  1.
    10030    2    1    2    0    0  0.00000000000E+00  0.00000000000E+00  0.61597969224E+03  0.25762235438E+04  0.25014989039E+04 0.  0.
        3    1    3    3  502    0 -0.10868132272E+03 -0.11547945510E+04 -0.17397712708E+03  0.11728726000E+04  0.10100000352E+00 0.  1.
       -3    1    3    3    0  502  0.10868132272E+03  0.11547945510E+04  0.78995681933E+03  0.14033509438E+04  0.10100000352E+00 0. -1.
</event>
<event>
 5   0  0.2388326E-05  0.2495199E+04  0.7818609E-02  0.8404698E-01
        2   -1    0    0  501    0  0.00000000000E+00  0.00000000000E+00  0.20304589102E+04  0.20304589102E+04  0.25500000920E-02 0. -1.
       -2   -1    0    0    0  501  0.00000000000E+00  0.00000000000E+00 -0.76657755539E+03  0.76657755540E+03  0.25500000920E-02 0.  1.
    10030    2    1    2    0    0  0.00000000000E+00  0.00000000000E+00  0.12638813548E+04  0.27970364656E+04  0.24951987718E+04 0.  0.
        2    1    3    3  502    0  0.19600597368E+03 -0.12000599657E+04  0.94489334275E+03  0.15399304180E+04  0.25500000920E-02 0.  1.
       -2    1    3    3    0  502 -0.19600597368E+03  0.12000599657E+04  0.31898801208E+03  0.12571060476E+04  0.25500000920E-02 0. -1.
</event>
<event>
 5   0  0.1039688E-05  0.2492101E+04  0.7818609E-02  0.8405805E-01
        1   -1    0    0  501    0  0.00000000000E+00  0.00000000000E+00  0.29461030974E+04  0.29461030974E+04  0.50400001928E-02 0.  1.
       -1   -1    0    0    0  501  0.00000000000E+00  0.00000000000E+00 -0.52701528624E+03  0.52701528627E+03  0.50400001928E-02 0. -1.
    10030    2    1    2    0    0  0.00000000000E+00  0.00000000000E+00  0.24190878112E+04  0.34731183837E+04  0.24921006137E+04 0.  0.
        3    1    3    3  502    0  0.49611954843E+03  0.96818657082E+03  0.36282609660E+03  0.11468054015E+04  0.10100000352E+00 0. -1.
       -3    1    3    3    0  502 -0.49611954843E+03 -0.96818657082E+03  0.20562617146E+04  0.23263129822E+04  0.10100000352E+00 0.  1.
</event>
<event>
 5   0  0.1008073E-05  0.2514612E+04  0.7818609E-02  0.8397798E-01
       -1   -1    0    0    0  501  0.00000000000E+00  0.00000000000E+00  0.79314612589E+03  0.79314612590E+03  0.50400001928E-02 0.  1.
        1   -1    0    0  501    0  0.00000000000E+00  0.00000000000E+00 -0.19930988462E+04  0.19930988462E+04  0.50400001928E-02 0. -1.
    10030    2    1    2    0    0  0.00000000000E+00  0.00000000000E+00 -0.11999527203E+04  0.27862449721E+04  0.25146121994E+04 0.  0.
        1    1    3    3  502    0  0.64077327103E+02 -0.89285551232E+03 -0.15782546162E+04  0.18144377926E+04  0.50400001928E-02 0. -1.
       -1    1    3    3    0  502 -0.64077327103E+02  0.89285551232E+03  0.37830189586E+03  0.97180717951E+03  0.50400001928E-02 0.  1.
</event>
<event>
 5   0  0.1010338E-05  0.2504540E+04  0.7818609E-02  0.8401370E-01
        1   -1    0    0  501    0  0.00000000000E+00  0.00000000000E+00  0.21501171966E+04  0.21501171966E+04  0.50400001928E-02 0. -1.
       -1   -1    0    0    0  501  0.00000000000E+00  0.00000000000E+00 -0.72934652512E+03  0.72934652514E+03  0.50400001928E-02 0.  1.
    10030    2    1    2    0    0  0.00000000000E+00  0.00000000000E+00  0.14207706715E+04  0.28794637218E+04  0.25045402820E+04 0.  0.
        2    1    3    3  502    0 -0.11535088177E+04  0.43838143990E+03  0.95540749914E+03  0.15606294784E+04  0.25500000920E-02 0.  1.
       -2    1    3    3    0  502  0.11535088177E+04 -0.43838143990E+03  0.46536317238E+03  0.13188342434E+04  0.25500000920E-02 0. -1.
</event>
<event>
 5   0  0.2432309E-05  0.2501868E+04  0.7818609E-02  0.8402320E-01
       -2   -1    0    0    0  501  0.00000000000E+00  0.00000000000E+00  0.62535167740E+03  0.62535167740E+03  0.25500000920E-02 0.  1.
        2   -1    0    0  501    0  0.00000000000E+00  0.00000000000E+00 -0.25023286974E+04  0.25023286974E+04  0.25500000920E-02 0. -1.
    10030    2    1    2    0    0  0.00000000000E+00  0.00000000000E+00 -0.18769770200E+04  0.31276803748E+04  0.25018676610E+04 0.  0.
        4    1    3    3  502    0 -0.10494911384E+02  0.41334596447E+03 -0.24144294552E+04  0.24495787876E+04  0.12699999809E+01 0. -1.
       -4    1    3    3    0  502  0.10494911384E+02 -0.41334596447E+03  0.53745243524E+03  0.67810158719E+03  0.12699999809E+01 0.  1.
</event>
<event>
 5   0  0.8166500E-06  0.2503291E+04  0.7818609E-02  0.8401814E-01
       -4   -1    0    0    0  501  0.00000000000E+00  0.00000000000E+00  0.14388084877E+04  0.14388090482E+04  0.12699999809E+01 0. -1.
        4   -1    0    0  501    0  0.00000000000E+00  0.00000000000E+00 -0.10888281125E+04  0.10888288532E+04  0.12699999809E+01 0.  1.
    10030    2    1    2    0    0  0.00000000000E+00  0.00000000000E+00  0.34998037517E+03  0.25276379014E+04  0.25032912531E+04 0.  0.
        5    1    3    3  502    0  0.32990924105E+03 -0.36744607011E+03  0.13362793847E+04  0.14246127213E+04  0.46999998093E+01 0. -1.
       -5    1    3    3    0  502 -0.32990924105E+03  0.36744607011E+03 -0.98629900952E+03  0.11030251801E+04  0.46999998093E+01 0.  1.
</event>
<event>
 5   0  0.2432309E-05  0.2452475E+04  0.7818609E-02  0.8420115E-01
        2   -1    0    0  501    0  0.00000000000E+00  0.00000000000E+00  0.17356876394E+04  0.17356876394E+04  0.25500000920E-02 0. -1.
       -2   -1    0    0    0  501  0.00000000000E+00  0.00000000000E+00 -0.86631827638E+03  0.86631827638E+03  0.25500000920E-02 0.  1.
    10030    2    1    2    0    0  0.00000000000E+00  0.00000000000E+00  0.86936936299E+03  0.26020059157E+04  0.24524746067E+04 0.  0.
        4    1    3    3  502    0  0.96328451943E+03 -0.49731524895E+02 -0.36862289070E+03  0.10326058001E+04  0.12699999809E+01 0.  1.
       -4    1    3    3    0  502 -0.96328451943E+03  0.49731524895E+02  0.12379922537E+04  0.15694001157E+04  0.12699999809E+01 0. -1.
</event>
<event>
 5   0  0.2452457E-05  0.2522371E+04  0.7818609E-02  0.8395059E-01
        2   -1    0    0  501    0  0.00000000000E+00  0.00000000000E+00  0.19994723253E+04  0.19994723253E+04  0.25500000920E-02 0. -1.
       -2   -1    0    0    0  501  0.00000000000E+00  0.00000000000E+00 -0.79550409582E+03  0.79550409582E+03  0.25500000920E-02 0.  1.
    10030    2    1    2    0    0  0.00000000000E+00  0.00000000000E+00  0.12039682295E+04  0.27949764212E+04  0.25223706502E+04 0.  0.
        1    1    3    3  502    0 -0.11134860675E+01 -0.66825031238E+03  0.17871733677E+04  0.19080221084E+04  0.50400001928E-02 0. -1.
       -1    1    3    3    0  502  0.11134860675E+01  0.66825031238E+03 -0.58320513814E+03  0.88695431282E+03  0.50400001928E-02 0.  1.
</event>
<event>
 5   0  0.8166500E-06  0.2514166E+04  0.7818609E-02  0.8397956E-01
       -4   -1    0    0    0  501  0.00000000000E+00  0.00000000000E+00  0.15036127109E+04  0.15036132473E+04  0.12699999809E+01 0.  1.
        4   -1    0    0  501    0  0.00000000000E+00  0.00000000000E+00 -0.10509731214E+04  0.10509738887E+04  0.12699999809E+01 0. -1.
    10030    2    1    2    0    0  0.00000000000E+00  0.00000000000E+00  0.45263958955E+03  0.25545871360E+04  0.25141664299E+04 0.  0.
        4    1    3    3  502    0  0.93825907852E+03 -0.82507550147E+03  0.36702691279E+03  0.13022250378E+04  0.12699999809E+01 0. -1.
       -4    1    3    3    0  502 -0.93825907852E+03  0.82507550147E+03  0.85612676760E+02  0.12523620981E+04  0.12699999809E+01 0.  1.
</event>
<event>
 5   0  0.2441340E-05  0.2492263E+04  0.7818609E-02  0.8405747E-01
        2   -1    0    0  501    0  0.00000000000E+00  0.00000000000E+00  0.97707017161E+03  0.97707017161E+03  0.25500000920E-02 0. -1.
       -2   -1    0    0    0  501  0.00000000000E+00  0.00000000000E+00 -0.15892852559E+04  0.15892852559E+04  0.25500000920E-02 0.  1.
    10030    2    1    2    0    0  0.00000000000E+00  0.00000000000E+00 -0.61221508428E+03  0.25663554275E+04  0.24922626007E+04 0.  0.
        3    1    3    3  502    0  0.89471956378E+03 -0.86706515600E+03 -0.32954660553E+03  0.12887692028E+04  0.10100000352E+00 0.  1.
       -3    1    3    3    0  502 -0.89471956378E+03  0.86706515600E+03 -0.28266847874E+03  0.12775862247E+04  0.10100000352E+00 0. -1.
</event>
<event>
 5   0  0.2432309E-05  0.2510264E+04  0.7818609E-02  0.8399338E-01
       -2   -1    0    0    0  501  0.00000000000E+00  0.00000000000E+00  0.78376602995E+03  0.78376602995E+03  0.25500000920E-02 0.  1.
        2   -1    0    0  501    0  0.00000000000E+00  0.00000000000E+00 -0.20099824460E+04  0.20099824460E+04  0.25500000920E-02 0. -1.
    10030    2    1    2    0    0  0.00000000000E+00  0.00000000000E+00 -0.12262164160E+04  0.27937484759E+04  0.25102637009E+04 0.  0.
        4    1    3    3  502    0  0.34596402238E+03 -0.46192744436E+03  0.62734047384E+03  0.85242345794E+03  0.12699999809E+01 0.  1.
       -4    1    3    3    0  502 -0.34596402238E+03  0.46192744436E+03 -0.18535568898E+04  0.19413250180E+04  0.12699999809E+01 0. -1.
</event>
<event>
 5   0  0.1039688E-05  0.2491012E+04  0.7818609E-02  0.8406195E-01
       -1   -1    0    0    0  501  0.00000000000E+00  0.00000000000E+00  0.15718433335E+04  0.15718433335E+04  0.50400001928E-02 0.  1.
        1   -1    0    0  501    0  0.00000000000E+00  0.00000000000E+00 -0.98692061170E+03  0.98692061171E+03  0.50400001928E-02 0. -1.
    10030    2    1    2    0    0  0.00000000000E+00  0.00000000000E+00  0.58492272179E+03  0.25587639452E+04  0.24910115088E+04 0.  0.
        3    1    3    3  502    0 -0.83089502874E+02 -0.73218539458E+03 -0.73898392889E+03  0.10435978990E+04  0.10100000352E+00 0. -1.
       -3    1    3    3    0  502  0.83089502874E+02  0.73218539458E+03  0.13239066507E+04  0.15151660462E+04  0.10100000352E+00 0.  1.
</event>
<event>
 5   0  0.1010338E-05  0.2479595E+04  0.7818609E-02  0.8410291E-01
        1   -1    0    0  501    0  0.00000000000E+00  0.00000000000E+00  0.14475378846E+04  0.14475378846E+04  0.50400001928E-02 0.  1.
       -1   -1    0    0    0  501  0.00000000000E+00  0.00000000000E+00 -0.10618708494E+04  0.10618708494E+04  0.50400001928E-02 0. -1.
    10030    2    1    2    0    0  0.00000000000E+00  0.00000000000E+00  0.38566703519E+03  0.25094087341E+04  0.24795953566E+04 0.  0.
        2    1    3    3  502    0  0.32874716761E+03 -0.26445602386E+03 -0.98698213921E+03  0.10733803761E+04  0.25500000920E-02 0. -1.
       -2    1    3    3    0  502 -0.32874716761E+03  0.26445602386E+03  0.13726491744E+04  0.14360283579E+04  0.25500000920E-02 0.  1.
</event>
<event>
 5   0  0.1002753E-05  0.2470275E+04  0.7818609E-02  0.8413652E-01
        1   -1    0    0  501    0  0.00000000000E+00  0.00000000000E+00  0.18791941258E+04  0.18791941258E+04  0.50400001928E-02 0.  1.
       -1   -1    0    0    0  501  0.00000000000E+00  0.00000000000E+00 -0.81181882598E+03  0.81181882599E+03  0.50400001928E-02 0. -1.
    10030    2    1    2    0    0  0.00000000000E+00  0.00000000000E+00  0.10673752999E+04  0.26910129518E+04  0.24702754252E+04 0.  0.
        5    1    3    3  502    0  0.24290590130E+03  0.58400904887E+02  0.18513730667E+04  0.18681590577E+04  0.46999998093E+01 0.  1.
       -5    1    3    3    0  502 -0.24290590130E+03 -0.58400904887E+02 -0.78399776690E+03  0.82285389413E+03  0.46999998093E+01 0. -1.
</event>
<event>
 5   0  0.2432309E-05  0.2484681E+04  0.7818609E-02  0.8408463E-01
       -2   -1    0    0    0  501  0.00000000000E+00  0.00000000000E+00  0.12149582726E+04  0.12149582726E+04  0.25500000920E-02 0. -1.
        2   -1    0    0  501    0  0.00000000000E+00  0.00000000000E+00 -0.12703396251E+04  0.12703396251E+04  0.25500000920E-02 0.  1.
    10030    2    1    2    0    0  0.00000000000E+00  0.00000000000E+00 -0.55381352506E+02  0.24852978978E+04  0.24846807735E+04 0.  0.
        4    1    3    3  502    0  0.52017765131E+03 -0.93212065038E+03  0.60805693434E+03  0.12284822115E+04  0.12699999809E+01 0. -1.
       -4    1    3    3    0  502 -0.52017765131E+03  0.93212065038E+03 -0.66343828685E+03  0.12568156862E+04  0.12699999809E+01 0.  1.
</event>
<event>
 5   0  0.1008073E-05  0.2502856E+04  0.7818609E-02  0.8401969E-01
        1   -1    0    0  501    0  0.00000000000E+00  0.00000000000E+00  0.18858648291E+04  0.18858648291E+04  0.50400001928E-02 0. -1.
       -1   -1    0    0    0  501  0.00000000000E+00  0.00000000000E+00 -0.83042627701E+03  0.83042627703E+03  0.50400001928E-02 0.  1.
    10030    2    1    2    0    0  0.00000000000E+00  0.00000000000E+00  0.10554385521E+04  0.27162911061E+04  0.25028557362E+04 0.  0.
        1    1    3    3  502    0 -0.46697780539E+03  0.46661877829E+03 -0.62608371963E+03  0.90982535631E+03  0.50400001928E-02 0.  1.
       -1    1    3    3    0  502  0.46697780539E+03 -0.46661877829E+03  0.16815222717E+04  0.18064657498E+04  0.50400001928E-02 0. -1.
</event>
<event>
 5   0  0.1002753E-05  0.2523436E+04  0.7818609E-02  0.8394684E-01
       -1   -1    0    0    0  501  0.00000000000E+00  0.00000000000E+00  0.70813773527E+03  0.70813773529E+03  0.50400001928E-02 0. -1.
        1   -1    0    0  501    0  0.00000000000E+00  0.00000000000E+00 -0.22480542213E+04  0.22480542213E+04  0.50400001928E-02 0.  1.
    10030    2    1    2    0    0  0.00000000000E+00  0.00000000000E+00 -0.15399164860E+04  0.29561919566E+04  0.25234357730E+04 0.  0.
        5    1    3    3  502    0  0.83361912688E+03 -0.83308806696E+03 -0.24219578059E+03  0.12031780675E+04  0.46999998093E+01 0. -1.
       -5    1    3    3    0  502 -0.83361912688E+03  0.83308806696E+03 -0.12977207054E+04  0.17530138891E+04  0.46999998093E+01 0.  1.
</event>
<event>
 5   0  0.1008073E-05  0.2495618E+04  0.7818609E-02  0.8404548E-01
       -1   -1    0    0    0  501  0.00000000000E+00  0.00000000000E+00  0.14663920287E+04  0.14663920287E+04  0.50400001928E-02 0.  1.
        1   -1    0    0  501    0  0.00000000000E+00  0.00000000000E+00 -0.10618087150E+04  0.10618087150E+04  0.50400001928E-02 0. -1.
    10030    2    1    2    0    0  0.00000000000E+00  0.00000000000E+00  0.40458331367E+03  0.25282007437E+04  0.24956184289E+04 0.  0.
        1    1    3    3  502    0 -0.89597422199E+03  0.40972352868E+03  0.97804681269E+03  0.13882430422E+04  0.50400001928E-02 0.  1.
       -1    1    3    3    0  502  0.89597422199E+03 -0.40972352868E+03 -0.57346349902E+03  0.11399577015E+04  0.50400001928E-02 0. -1.
</event>
<event>
 5   0  0.1010338E-05  0.2498491E+04  0.7818609E-02  0.8403523E-01
       -1   -1    0    0    0  501  0.00000000000E+00  0.00000000000E+00  0.24605189914E+04  0.24605189914E+04  0.50400001928E-02 0. -1.
        1   -1    0    0  501    0  0.00000000000E+00  0.00000000000E+00 -0.63426232729E+03  0.63426232731E+03  0.50400001928E-02 0.  1.
    10030    2    1    2    0    0  0.00000000000E+00  0.00000000000E+00  0.18262566641E+04  0.30947813187E+04  0.24984911461E+04 0.  0.
        2    1    3    3  502    0 -0.10757612770E+04 -0.30702742082E+03  0.16017680342E+04  0.19537627793E+04  0.25500000920E-02 0. -1.
       -2    1    3    3    0  502  0.10757612770E+04  0.30702742082E+03  0.22448862984E+03  0.11410185394E+04  0.25500000920E-02 0.  1.
</event>
<event>
 5   0  0.2345143E-05  0.2507558E+04  0.7818609E-02  0.8400298E-01
       -2   -1    0    0    0  501  0.00000000000E+00  0.00000000000E+00  0.11664556874E+04  0.11664556874E+04  0.25500000920E-02 0. -1.
        2   -1    0    0  501    0  0.00000000000E+00  0.00000000000E+00 -0.13476399412E+04  0.13476399412E+04  0.25500000920E-02 0.  1.
    10030    2    1    2    0    0  0.00000000000E+00  0.00000000000E+00 -0.18118425384E+03  0.25140956286E+04  0.25075583933E+04 0.  0.
        5    1    3    3  502    0 -0.95396037129E+03  0.71475496432E+03 -0.48022478739E+03  0.12851276145E+04  0.46999998093E+01 0.  1.
       -5    1    3    3    0  502  0.95396037129E+03 -0.71475496432E+03  0.29904053355E+03  0.12289680141E+04  0.46999998093E+01 0. -1.
</event>
<event>
 5   0  0.2432309E-05  0.2402843E+04  0.7818609E-02  0.8438440E-01
       -2   -1    0    0    0  501  0.00000000000E+00  0.00000000000E+00  0.83101557172E+03  0.83101557173E+03  0.25500000920E-02 0.  1.
        2   -1    0    0  501    0  0.00000000000E+00  0.00000000000E+00 -0.17369266508E+04  0.17369266508E+04  0.25500000920E-02 0. -1.
    10030    2    1    2    0    0  0.00000000000E+00  0.00000000000E+00 -0.90591107907E+03  0.25679422225E+04  0.24028425614E+04 0.  0.
        4    1    3    3  502    0  0.79305701909E+03  0.11647462854E+03  0.50346881398E+03  0.94656655031E+03  0.12699999809E+01 0.  1.
       -4    1    3    3    0  502 -0.79305701909E+03 -0.11647462854E+03 -0.14093798930E+04  0.16213756722E+04  0.12699999809E+01 0. -1.
</event>
<event>
 5   0  0.1002753E-05  0.2441945E+04  0.7818609E-02  0.8423965E-01
       -1   -1    0    0    0  501  0.00000000000E+00  0.00000000000E+00  0.12941876500E+04  0.12941876500E+04  0.50400001928E-02 0.  1.
        1   -1    0    0  501    0  0.00000000000E+00  0.00000000000E+00 -0.11518994759E+04  0.11518994759E+04  0.50400001928E-02 0. -1.
    10030    2    1    2    0    0  0.00000000000E+00  0.00000000000E+00  0.14228817415E+03  0.24460871259E+04  0.24419451884E+04 0.  0.
        5    1    3    3  502    0 -0.34179586661E+03 -0.41222296228E+03 -0.10279863078E+04  0.11591074687E+04  0.46999998093E+01 0. -1.
       -5    1    3    3    0  502  0.34179586661E+03  0.41222296228E+03  0.11702744819E+04  0.12869796572E+04  0.46999998093E+01 0.  1.
</event>
<event>
 5   0  0.1010338E-05  0.2431656E+04  0.7818609E-02  0.8427746E-01
       -1   -1    0    0    0  501  0.00000000000E+00  0.00000000000E+00  0.12952428448E+04  0.12952428449E+04  0.50400001928E-02 0. -1.
        1   -1    0    0  501    0  0.00000000000E+00  0.00000000000E+00 -0.11412823199E+04  0.11412823199E+04  0.50400001928E-02 0.  1.
    10030    2    1    2    0    0  0.00000000000E+00  0.00000000000E+00  0.15396052498E+03  0.24365251647E+04  0.24316560273E+04 0.  0.
        2    1    3    3  502    0 -0.84167343525E+03 -0.36278981081E+03  0.87745861053E+03  0.12688436593E+04  0.25500000920E-02 0. -1.
       -2    1    3    3    0  502  0.84167343525E+03  0.36278981081E+03 -0.72349808555E+03  0.11676815055E+04  0.25500000920E-02 0.  1.
</event>
<event>
 5   0  0.2432309E-05  0.2003694E+04  0.7818609E-02  0.8604895E-01
        2   -1    0    0  501    0  0.00000000000E+00  0.00000000000E+00  0.10325135788E+04  0.10325135788E+04  0.25500000920E-02 0.  1.
       -2   -1    0    0    0  501  0.00000000000E+00  0.00000000000E+00 -0.97209167519E+03  0.97209167519E+03  0.25500000920E-02 0. -1.
    10030    2    1    2    0    0  0.00000000000E+00  0.00000000000E+00  0.60421903649E+02  0.20046052540E+04  0.20036944423E+04 0.  0.
        4    1    3    3  502    0  0.66424006716E+03  0.72704826850E+03 -0.15394387560E+03  0.99675191562E+03  0.12699999809E+01 0.  1.
       -4    1    3    3    0  502 -0.66424006716E+03 -0.72704826850E+03  0.21436577924E+03  0.10078533384E+04  0.12699999809E+01 0. -1.
</event>
<event>
 5   0  0.1008073E-05  0.2482227E+04  0.7818609E-02  0.8409345E-01
        1   -1    0    0  501    0  0.00000000000E+00  0.00000000000E+00  0.66508543565E+03  0.66508543567E+03  0.50400001928E-02 0. -1.
       -1   -1    0    0    0  501  0.00000000000E+00  0.00000000000E+00 -0.23160374509E+04  0.23160374509E+04  0.50400001928E-02 0.  1.
    10030    2    1    2    0    0  0.00000000000E+00  0.00000000000E+00 -0.16509520152E+04  0.29811228866E+04  0.24822270461E+04 0.  0.
        1    1    3    3  502    0  0.44434021096E+03  0.76361330701E+03 -0.18723478712E+04  0.20703212447E+04  0.50400001928E-02 0.  1.
       -1    1    3    3    0  502 -0.44434021096E+03 -0.76361330701E+03  0.22139585593E+03  0.91080164183E+03  0.50400001928E-02 0. -1.
</event>
<event>
 5   0  0.2452457E-05  0.2497139E+04  0.7818609E-02  0.8404005E-01
        2   -1    0    0  501    0  0.00000000000E+00  0.00000000000E+00  0.11074168667E+04  0.11074168667E+04  0.25500000920E-02 0. -1.
       -2   -1    0    0    0  501  0.00000000000E+00  0.00000000000E+00 -0.14077137556E+04  0.14077137556E+04  0.25500000920E-02 0.  1.
    10030    2    1    2    0    0  0.00000000000E+00  0.00000000000E+00 -0.30029688890E+03  0.25151306223E+04  0.24971391283E+04 0.  0.
        1    1    3    3  502    0 -0.65752955271E+03  0.13177103249E+02 -0.12191184404E+04  0.13851962029E+04  0.50400001928E-02 0.  1.
       -1    1    3    3    0  502  0.65752955271E+03 -0.13177103249E+02  0.91882155151E+03  0.11299344195E+04  0.50400001928E-02 0. -1.
</event>
<event>
 5   0  0.1008073E-05  0.2481181E+04  0.7818609E-02  0.8409721E-01
       -1   -1    0    0    0  501  0.00000000000E+00  0.00000000000E+00  0.10954276337E+04  0.10954276338E+04  0.50400001928E-02 0.  1.
        1   -1    0    0  501    0  0.00000000000E+00  0.00000000000E+00 -0.14049895559E+04  0.14049895559E+04  0.50400001928E-02 0. -1.
    10030    2    1    2    0    0  0.00000000000E+00  0.00000000000E+00 -0.30956192219E+03  0.25004171897E+04  0.24811806744E+04 0.  0.
        1    1    3    3  502    0 -0.99561582617E+03  0.67906134605E+03 -0.45149396666E+03  0.12869428841E+04  0.50400001928E-02 0.  1.
       -1    1    3    3    0  502  0.99561582617E+03 -0.67906134605E+03  0.14193204446E+03  0.12134743056E+04  0.50400001928E-02 0. -1.
</event>
<event>
 5   0  0.1008073E-05  0.2498175E+04  0.7818609E-02  0.8403636E-01
       -1   -1    0    0    0  501  0.00000000000E+00  0.00000000000E+00  0.67244171043E+03  0.67244171045E+03  0.50400001928E-02 0.  1.
        1   -1    0    0  501    0  0.00000000000E+00  0.00000000000E+00 -0.23202308680E+04  0.23202308681E+04  0.50400001928E-02 0. -1.
    10030    2    1    2    0    0  0.00000000000E+00  0.00000000000E+00 -0.16477891576E+04  0.29926725785E+04  0.24981753450E+04 0.  0.
        1    1    3    3  502    0  0.78839703590E+03 -0.95060359418E+03 -0.10480186543E+04  0.16197407753E+04  0.50400001928E-02 0. -1.
       -1    1    3    3    0  502 -0.78839703590E+03  0.95060359418E+03 -0.59977050333E+03  0.13729318032E+04  0.50400001928E-02 0.  1.
</event>
<event>
 5   0  0.2345143E-05  0.2497903E+04  0.7818609E-02  0.8403733E-01
        2   -1    0    0  501    0  0.00000000000E+00  0.00000000000E+00  0.15918201511E+04  0.15918201511E+04  0.25500000920E-02 0. -1.
       -2   -1    0    0    0  501  0.00000000000E+00  0.00000000000E+00 -0.97993510248E+03  0.97993510248E+03  0.25500000920E-02 0.  1.
    10030    2    1    2    0    0  0.00000000000E+00  0.00000000000E+00  0.61188504866E+03  0.25717552536E+04  0.24979034753E+04 0.  0.
        5    1    3    3  502    0  0.73030073354E+03 -0.95990803610E+03  0.63971196288E+03  0.13652897438E+04  0.46999998093E+01 0. -1.
       -5    1    3    3    0  502 -0.73030073354E+03  0.95990803610E+03 -0.27826914215E+02  0.12064655098E+04  0.46999998093E+01 0.  1.
</event>
<event>
 5   0  0.8166500E-06  0.2495883E+04  0.7818609E-02  0.8404454E-01
        3   -1    0    0  501    0  0.00000000000E+00  0.00000000000E+00  0.15428723613E+04  0.15428723646E+04  0.10100000352E+00 0. -1.
       -3   -1    0    0    0  501  0.00000000000E+00  0.00000000000E+00 -0.10093887460E+04  0.10093887511E+04  0.10100000352E+00 0.  1.
    10030    2    1    2    0    0  0.00000000000E+00  0.00000000000E+00  0.53348361531E+03  0.25522611157E+04  0.24958830171E+04 0.  0.
        4    1    3    3  502    0 -0.59118375959E+03  0.51118842243E+03  0.12616234305E+04  0.14840846115E+04  0.12699999809E+01 0. -1.
       -4    1    3    3    0  502  0.59118375959E+03 -0.51118842243E+03 -0.72813981516E+03  0.10681765042E+04  0.12699999809E+01 0.  1.
</event>
<event>
 5   0  0.2441340E-05  0.2514597E+04  0.7818609E-02  0.8397804E-01
       -2   -1    0    0    0  501  0.00000000000E+00  0.00000000000E+00  0.76292976164E+03  0.76292976164E+03  0.25500000920E-02 0.  1.
        2   -1    0    0  501    0  0.00000000000E+00  0.00000000000E+00 -0.20720121988E+04  0.20720121988E+04  0.25500000920E-02 0. -1.
    10030    2    1    2    0    0  0.00000000000E+00  0.00000000000E+00 -0.13090824372E+04  0.28349419605E+04  0.25145972027E+04 0.  0.
        3    1    3    3  502    0  0.71332011849E+03  0.66016521146E+03  0.24466143515E+03  0.10022489341E+04  0.10100000352E+00 0.  1.
       -3    1    3    3    0  502 -0.71332011849E+03 -0.66016521146E+03 -0.15537438723E+04  0.18326930264E+04  0.10100000352E+00 0. -1.
</event>
<event>
 5   0  0.2432309E-05  0.2476498E+04  0.7818609E-02  0.8411406E-01
        2   -1    0    0  501    0  0.00000000000E+00  0.00000000000E+00  0.14551454777E+04  0.14551454777E+04  0.25500000920E-02 0.  1.
       -2   -1    0    0    0  501  0.00000000000E+00  0.00000000000E+00 -0.10536819367E+04  0.10536819367E+04  0.25500000920E-02 0. -1.
    10030    2    1    2    0    0  0.00000000000E+00  0.00000000000E+00  0.40146354099E+03  0.25088274144E+04  0.24764979347E+04 0.  0.
        4    1    3    3  502    0  0.24935174695E+03 -0.12192702227E+03 -0.10217595246E+04  0.10587901735E+04  0.12699999809E+01 0. -1.
       -4    1    3    3    0  502 -0.24935174695E+03  0.12192702227E+03  0.14232230656E+04  0.14500372409E+04  0.12699999809E+01 0.  1.
</event>
<event>
 5   0  0.2441340E-05  0.2561956E+04  0.7818609E-02  0.8381240E-01
       -2   -1    0    0    0  501  0.00000000000E+00  0.00000000000E+00  0.63610978707E+03  0.63610978708E+03  0.25500000920E-02 0. -1.
        2   -1    0    0  501    0  0.00000000000E+00  0.00000000000E+00 -0.25795941999E+04  0.25795941999E+04  0.25500000920E-02 0.  1.
    10030    2    1    2    0    0  0.00000000000E+00  0.00000000000E+00 -0.19434844128E+04  0.32157039870E+04  0.25619563753E+04 0.  0.
        3    1    3    3  502    0  0.10066423799E+04  0.77552156899E+03 -0.11746870752E+04  0.17305063767E+04  0.10100000352E+00 0.  1.
       -3    1    3    3    0  502 -0.10066423799E+04 -0.77552156899E+03 -0.76879733758E+03  0.14851976102E+04  0.10100000352E+00 0. -1.
</event>
<event>
 5   0  0.2452457E-05  0.2509863E+04  0.7818609E-02  0.8399480E-01
        2   -1    0    0  501    0  0.00000000000E+00  0.00000000000E+00  0.15334156817E+04  0.15334156817E+04  0.25500000920E-02 0. -1.
       -2   -1    0    0    0  501  0.00000000000E+00  0.00000000000E+00 -0.10270232417E+04  0.10270232417E+04  0.25500000920E-02 0.  1.
    10030    2    1    2    0    0  0.00000000000E+00  0.00000000000E+00  0.50639243998E+03  0.25604389234E+04  0.25098633782E+04 0.  0.
        1    1    3    3  502    0 -0.56846200503E+03  0.10978762232E+04  0.33514652860E+02  0.12367717997E+04  0.50400001928E-02 0. -1.
       -1    1    3    3    0  502  0.56846200503E+03 -0.10978762232E+04  0.47287778712E+03  0.13236671237E+04  0.50400001928E-02 0.  1.
</event>
<event>
 5   0  0.1010338E-05  0.2518969E+04  0.7818609E-02  0.8396259E-01
       -1   -1    0    0    0  501  0.00000000000E+00  0.00000000000E+00  0.86432182773E+03  0.86432182774E+03  0.50400001928E-02 0.  1.
        1   -1    0    0  501    0  0.00000000000E+00  0.00000000000E+00 -0.18353137954E+04  0.18353137954E+04  0.50400001928E-02 0. -1.
    10030    2    1    2    0    0  0.00000000000E+00  0.00000000000E+00 -0.97099196764E+03  0.26996356231E+04  0.25189694513E+04 0.  0.
        2    1    3    3  502    0  0.10242773433E+04  0.47157399418E+03 -0.10867843837E+04  0.15660863337E+04  0.25500000920E-02 0. -1.
       -2    1    3    3    0  502 -0.10242773433E+04 -0.47157399418E+03  0.11579241610E+03  0.11335492894E+04  0.25500000920E-02 0.  1.
</event>
<event>
 5   0  0.1015327E-05  0.2369088E+04  0.7818609E-02  0.8451168E-01
       -1   -1    0    0    0  501  0.00000000000E+00  0.00000000000E+00  0.99429837757E+03  0.99429837759E+03  0.50400001928E-02 0. -1.
        1   -1    0    0  501    0  0.00000000000E+00  0.00000000000E+00 -0.14111905807E+04  0.14111905807E+04  0.50400001928E-02 0.  1.
    10030    2    1    2    0    0  0.00000000000E+00  0.00000000000E+00 -0.41689220309E+03  0.24054889583E+04  0.23690880143E+04 0.  0.
        4    1    3    3  502    0 -0.11559223336E+04  0.10419460057E+03 -0.44900390272E+03  0.12444352428E+04  0.12699999809E+01 0.  1.
       -4    1    3    3    0  502  0.11559223336E+04 -0.10419460057E+03  0.32111699629E+02  0.11610537154E+04  0.12699999809E+01 0. -1.
</event>
<event>
 5   0  0.2345143E-05  0.2480110E+04  0.7818609E-02  0.8410106E-01
        2   -1    0    0  501    0  0.00000000000E+00  0.00000000000E+00  0.18627260888E+04  0.18627260888E+04  0.25500000920E-02 0.  1.
       -2   -1    0    0    0  501  0.00000000000E+00  0.00000000000E+00 -0.82553011951E+03  0.82553011952E+03  0.25500000920E-02 0. -1.
    10030    2    1    2    0    0  0.00000000000E+00  0.00000000000E+00  0.10371959693E+04  0.26882562083E+04  0.24801100707E+04 0.  0.
        5    1    3    3  502    0 -0.84471329250E+03  0.89499108064E+03  0.35362449376E+03  0.12804772366E+04  0.46999998093E+01 0. -1.
       -5    1    3    3    0  502  0.84471329250E+03 -0.89499108064E+03  0.68357147552E+03  0.14077789717E+04  0.46999998093E+01 0.  1.
</event>
<event>
 5   0  0.1008073E-05  0.2557988E+04  0.7818609E-02  0.8382613E-01
       -1   -1    0    0    0  501  0.00000000000E+00  0.00000000000E+00  0.10716038785E+04  0.10716038785E+04  0.50400001928E-02 0.  1.
        1   -1    0    0  501    0  0.00000000000E+00  0.00000000000E+00 -0.15265205435E+04  0.15265205435E+04  0.50400001928E-02 0. -1.
    10030    2    1    2    0    0  0.00000000000E+00  0.00000000000E+00 -0.45491666499E+03  0.25981244220E+04  0.25579877521E+04 0.  0.
        1    1    3    3  502    0 -0.10276944126E+04  0.23435998173E+03 -0.96321737689E+03  0.14278893941E+04  0.50400001928E-02 0. -1.
       -1    1    3    3    0  502  0.10276944126E+04 -0.23435998173E+03  0.50830071190E+03  0.11702350279E+04  0.50400001928E-02 0.  1.
</event>
<event>
 5   0  0.1015327E-05  0.2497737E+04  0.7818609E-02  0.8403792E-01
        1   -1    0    0  501    0  0.00000000000E+00  0.00000000000E+00  0.10427059119E+04  0.10427059119E+04  0.50400001928E-02 0.  1.
       -1   -1    0    0    0  501  0.00000000000E+00  0.00000000000E+00 -0.14957937548E+04  0.14957937548E+04  0.50400001928E-02 0. -1.
    10030    2    1    2    0    0  0.00000000000E+00  0.00000000000E+00 -0.45308784291E+03  0.25384996666E+04  0.24977373689E+04 0.  0.
        4    1    3    3  502    0 -0.40952657802E+03 -0.32326338268E+03 -0.13797242788E+04  0.14750769238E+04  0.12699999809E+01 0. -1.
       -4    1    3    3    0  502  0.40952657802E+03  0.32326338268E+03  0.92663643592E+03  0.10634227428E+04  0.12699999809E+01 0.  1.
</event>
<event>
 5   0  0.1002753E-05  0.2604253E+04  0.7818609E-02  0.8366758E-01
        1   -1    0    0  501    0  0.00000000000E+00  0.00000000000E+00  0.14931470123E+04  0.14931470123E+04  0.50400001928E-02 0. -1.
       -1   -1    0    0    0  501  0.00000000000E+00  0.00000000000E+00 -0.11355434963E+04  0.11355434963E+04  0.50400001928E-02 0.  1.
    10030    2    1    2    0    0  0.00000000000E+00  0.00000000000E+00  0.35760351597E+03  0.26286905086E+04  0.26042529668E+04 0.  0.
        5    1    3    3  502    0 -0.11402994791E+03  0.41142806678E+01 -0.11304788426E+04  0.11362324850E+04  0.46999998093E+01 0.  1.
       -5    1    3    3    0  502  0.11402994791E+03 -0.41142806678E+01  0.14880823586E+04  0.14924580236E+04  0.46999998093E+01 0. -1.
</event>
<event>
 5   0  0.2432309E-05  0.2545214E+04  0.7818609E-02  0.8387053E-01
        2   -1    0    0  501    0  0.00000000000E+00  0.00000000000E+00  0.16649567846E+04  0.16649567846E+04  0.25500000920E-02 0. -1.
       -2   -1    0    0    0  501  0.00000000000E+00  0.00000000000E+00 -0.97271472896E+03  0.97271472897E+03  0.25500000920E-02 0.  1.
    10030    2    1    2    0    0  0.00000000000E+00  0.00000000000E+00  0.69224205566E+03  0.26376715136E+04  0.25452135372E+04 0.  0.
        4    1    3    3  502    0 -0.27595576675E+03  0.84487106018E+03 -0.59777117093E+03  0.10711165573E+04  0.12699999809E+01 0.  1.
       -4    1    3    3    0  502  0.27595576675E+03 -0.84487106018E+03  0.12900132266E+04  0.15665549563E+04  0.12699999809E+01 0. -1.
</event>
<event>
 5   0  0.1008073E-05  0.2505147E+04  0.7818609E-02  0.8401154E-01
        1   -1    0    0  501    0  0.00000000000E+00  0.00000000000E+00  0.12681015432E+04  0.12681015432E+04  0.50400001928E-02 0.  1.
       -1   -1    0    0    0  501  0.00000000000E+00  0.00000000000E+00 -0.12372353654E+04  0.12372353654E+04  0.50400001928E-02 0. -1.
    10030    2    1    2    0    0  0.00000000000E+00  0.00000000000E+00  0.30866177786E+02  0.25053369086E+04  0.25051467631E+04 0.  0.
        1    1    3    3  502    0  0.47684392296E+03 -0.20781375135E+03 -0.11241152864E+04  0.12386290240E+04  0.50400001928E-02 0. -1.
       -1    1    3    3    0  502 -0.47684392296E+03  0.20781375135E+03  0.11549814642E+04  0.12667078845E+04  0.50400001928E-02 0.  1.
</event>
<event>
 5   0  0.2388326E-05  0.2495287E+04  0.7818609E-02  0.8404667E-01
       -2   -1    0    0    0  501  0.00000000000E+00  0.00000000000E+00  0.15470562204E+04  0.15470562204E+04  0.25500000920E-02 0. -1.
        2   -1    0    0  501    0  0.00000000000E+00  0.00000000000E+00 -0.10061778361E+04  0.10061778361E+04  0.25500000920E-02 0.  1.
    10030    2    1    2    0    0  0.00000000000E+00  0.00000000000E+00  0.54087838434E+03  0.25532340565E+04  0.24952865007E+04 0.  0.
        2    1    3    3  502    0  0.26193814408E+03 -0.56761473850E+03  0.13752429488E+04  0.15106592107E+04  0.25500000920E-02 0. -1.
       -2    1    3    3    0  502 -0.26193814408E+03  0.56761473850E+03 -0.83436456446E+03  0.10425748458E+04  0.25500000920E-02 0.  1.
</event>
<event>
 5   0  0.2345143E-05  0.2502806E+04  0.7818609E-02  0.8401987E-01
       -2   -1    0    0    0  501  0.00000000000E+00  0.00000000000E+00  0.92576501799E+03  0.92576501799E+03  0.25500000920E-02 0. -1.
        2   -1    0    0  501    0  0.00000000000E+00  0.00000000000E+00 -0.16915839675E+04  0.16915839675E+04  0.25500000920E-02 0.  1.
    10030    2    1    2    0    0  0.00000000000E+00  0.00000000000E+00 -0.76581894952E+03  0.26173489855E+04  0.25028058352E+04 0.  0.
        5    1    3    3  502    0  0.14065607488E+02 -0.65024894970E+03  0.73511435637E+03  0.98154813679E+03  0.46999998093E+01 0. -1.
       -5    1    3    3    0  502 -0.14065607488E+02  0.65024894970E+03 -0.15009333059E+04  0.16358008487E+04  0.46999998093E+01 0.  1.
</event>
<event>
 5   0  0.1039688E-05  0.2496684E+04  0.7818609E-02  0.8404168E-01
       -1   -1    0    0    0  501  0.00000000000E+00  0.00000000000E+00  0.13212687301E+04  0.13212687301E+04  0.50400001928E-02 0. -1.
        1   -1    0    0  501    0  0.00000000000E+00  0.00000000000E+00 -0.11794404467E+04  0.11794404467E+04  0.50400001928E-02 0.  1.
    10030    2    1    2    0    0  0.00000000000E+00  0.00000000000E+00  0.14182828342E+03  0.25007091768E+04  0.24966840258E+04 0.  0.
        3    1    3    3  502    0 -0.47157280524E+03  0.27367693410E+02 -0.10864693927E+04  0.11847133209E+04  0.10100000352E+00 0.  1.
       -3    1    3    3    0  502  0.47157280524E+03 -0.27367693410E+02  0.12282976761E+04  0.13159958559E+04  0.10100000352E+00 0. -1.
</event>
<event>
 5   0  0.1002753E-05  0.2504955E+04  0.7818609E-02  0.8401222E-01
        1   -1    0    0  501    0  0.00000000000E+00  0.00000000000E+00  0.65792814837E+03  0.65792814839E+03  0.50400001928E-02 0.  1.
       -1   -1    0    0    0  501  0.00000000000E+00  0.00000000000E+00 -0.23843028474E+04  0.23843028474E+04  0.50400001928E-02 0. -1.
    10030    2    1    2    0    0  0.00000000000E+00  0.00000000000E+00 -0.17263746990E+04  0.30422309958E+04  0.25049550556E+04 0.  0.
        5    1    3    3  502    0  0.91803577440E+03  0.45435461698E+03 -0.17385019081E+04  0.20178302147E+04  0.46999998093E+01 0. -1.
       -5    1    3    3    0  502 -0.91803577440E+03 -0.45435461698E+03  0.12127209052E+02  0.10244007811E+04  0.46999998093E+01 0.  1.
</event>
<event>
 5   0  0.2388326E-05  0.2478776E+04  0.7818609E-02  0.8410586E-01
       -2   -1    0    0    0  501  0.00000000000E+00  0.00000000000E+00  0.31595653059E+04  0.31595653059E+04  0.25500000920E-02 0.  1.
        2   -1    0    0  501    0  0.00000000000E+00  0.00000000000E+00 -0.48616906932E+03  0.48616906933E+03  0.25500000920E-02 0. -1.
    10030    2    1    2    0    0  0.00000000000E+00  0.00000000000E+00  0.26733962366E+04  0.36457343752E+04  0.24787762499E+04 0.  0.
        2    1    3    3  502    0  0.30611082575E+03  0.80203378825E+02 -0.42575197163E+03  0.53047258268E+03  0.25500000920E-02 0. -1.
       -2    1    3    3    0  502 -0.30611082575E+03 -0.80203378825E+02  0.30991482082E+04  0.31152617926E+04  0.25500000920E-02 0.  1.
</event>
<event>
 5   0  0.1015327E-05  0.2496424E+04  0.7818609E-02  0.8404261E-01
        1   -1    0    0  501    0  0.00000000000E+00  0.00000000000E+00  0.14258097630E+04  0.14258097630E+04  0.50400001928E-02 0. -1.
       -1   -1    0    0    0  501  0.00000000000E+00  0.00000000000E+00 -0.10927355078E+04  0.10927355078E+04  0.50400001928E-02 0.  1.
    10030    2    1    2    0    0  0.00000000000E+00  0.00000000000E+00  0.33307425524E+03  0.25185452708E+04  0.24964238064E+04 0.  0.
        4    1    3    3  502    0  0.73304522510E+03  0.97798557975E+03  0.42219986191E+03  0.12930836912E+04  0.12699999809E+01 0. -1.
       -4    1    3    3    0  502 -0.73304522510E+03 -0.97798557975E+03 -0.89125606673E+02  0.12254615795E+04  0.12699999809E+01 0.  1.
</event>
<event>
 5   0  0.2441340E-05  0.2385551E+04  0.7818609E-02  0.8444933E-01
       -2   -1    0    0    0  501  0.00000000000E+00  0.00000000000E+00  0.92111554203E+03  0.92111554204E+03  0.25500000920E-02 0.  1.
        2   -1    0    0  501    0  0.00000000000E+00  0.00000000000E+00 -0.15445544833E+04  0.15445544833E+04  0.25500000920E-02 0. -1.
    10030    2    1    2    0    0  0.00000000000E+00  0.00000000000E+00 -0.62343894128E+03  0.24656700254E+04  0.23855507876E+04 0.  0.
        3    1    3    3  502    0 -0.68666739505E+03  0.91791698057E+03  0.28939672292E+02  0.11467001393E+04  0.10100000352E+00 0.  1.
       -3    1    3    3    0  502  0.68666739505E+03 -0.91791698057E+03 -0.65237861357E+03  0.13189698860E+04  0.10100000352E+00 0. -1.
</event>
<event>
 5   0  0.2345143E-05  0.2487624E+04  0.7818609E-02  0.8407408E-01
       -2   -1    0    0    0  501  0.00000000000E+00  0.00000000000E+00  0.64842171896E+03  0.64842171897E+03  0.25500000920E-02 0. -1.
        2   -1    0    0  501    0  0.00000000000E+00  0.00000000000E+00 -0.23858977503E+04  0.23858977503E+04  0.25500000920E-02 0.  1.
    10030    2    1    2    0    0  0.00000000000E+00  0.00000000000E+00 -0.17374760314E+04  0.30343194693E+04  0.24876237019E+04 0.  0.
        5    1    3    3  502    0  0.22632015435E+03  0.98993372276E+03 -0.17448123613E+04  0.20188070373E+04  0.46999998093E+01 0.  1.
       -5    1    3    3    0  502 -0.22632015435E+03 -0.98993372276E+03  0.73363299788E+01  0.10155124320E+04  0.46999998093E+01 0. -1.
</event>
<event>
 5   0  0.2452457E-05  0.2504712E+04  0.7818609E-02  0.8401309E-01
        2   -1    0    0  501    0  0.00000000000E+00  0.00000000000E+00  0.12323217315E+04  0.12323217315E+04  0.25500000920E-02 0. -1.
       -2   -1    0    0    0  501  0.00000000000E+00  0.00000000000E+00 -0.12727163065E+04  0.12727163065E+04  0.25500000920E-02 0.  1.
    10030    2    1    2    0    0  0.00000000000E+00  0.00000000000E+00 -0.40394574998E+02  0.25050380380E+04  0.25047123288E+04 0.  0.
        1    1    3    3  502    0  0.85460444393E+03  0.88772356775E+03  0.20342533511E+03  0.12489130295E+04  0.50400001928E-02 0.  1.
       -1    1    3    3    0  502 -0.85460444393E+03 -0.88772356775E+03 -0.24381991011E+03  0.12561250085E+04  0.50400001928E-02 0. -1.
</event>
<event>
 5   0  0.1008073E-05  0.2502557E+04  0.7818609E-02  0.8402075E-01
        1   -1    0    0  501    0  0.00000000000E+00  0.00000000000E+00  0.13555846654E+04  0.13555846655E+04  0.50400001928E-02 0. -1.
       -1   -1    0    0    0  501  0.00000000000E+00  0.00000000000E+00 -0.11549981172E+04  0.11549981172E+04  0.50400001928E-02 0.  1.
    10030    2    1    2    0    0  0.00000000000E+00  0.00000000000E+00  0.20058654823E+03  0.25105827827E+04  0.25025568815E+04 0.  0.
        1    1    3    3  502    0 -0.87451312239E+03  0.39916240300E+03  0.90385770630E+03  0.13194933037E+04  0.50400001928E-02 0. -1.
       -1    1    3    3    0  502  0.87451312239E+03 -0.39916240300E+03 -0.70327115806E+03  0.11910894790E+04  0.50400001928E-02 0.  1.
</event>
<event>
 5   0  0.2452457E-05  0.2503198E+04  0.7818609E-02  0.8401847E-01
       -2   -1    0    0    0  501  0.00000000000E+00  0.00000000000E+00  0.55019158485E+03  0.55019158485E+03  0.25500000920E-02 0. -1.
        2   -1    0    0  501    0  0.00000000000E+00  0.00000000000E+00 -0.28471901689E+04  0.28471901689E+04  0.25500000920E-02 0.  1.
    10030    2    1    2    0    0  0.00000000000E+00  0.00000000000E+00 -0.22969985840E+04  0.33973817537E+04  0.25031980116E+04 0.  0.
        1    1    3    3  502    0 -0.20806970075E+03 -0.28632984593E+03  0.48085162749E+03  0.59707291742E+03  0.50400001928E-02 0. -1.
       -1    1    3    3    0  502  0.20806970075E+03  0.28632984593E+03 -0.27778502115E+04  0.28003088363E+04  0.50400001928E-02 0.  1.
</event>
<event>
 5   0  0.1008073E-05  0.2519996E+04  0.7818609E-02  0.8395896E-01
        1   -1    0    0  501    0  0.00000000000E+00  0.00000000000E+00  0.22444447721E+04  0.22444447721E+04  0.50400001928E-02 0.  1.
       -1   -1    0    0    0  501  0.00000000000E+00  0.00000000000E+00 -0.70734442963E+03  0.70734442964E+03  0.50400001928E-02 0. -1.
    10030    2    1    2    0    0  0.00000000000E+00  0.00000000000E+00  0.15371003425E+04  0.29517892018E+04  0.25199964343E+04 0.  0.
        1    1    3    3  502    0 -0.10793673410E+04  0.64489876124E+03  0.86419431735E+03  0.15256998680E+04  0.50400001928E-02 0.  1.
       -1    1    3    3    0  502  0.10793673410E+04 -0.64489876124E+03  0.67290602514E+03  0.14260893337E+04  0.50400001928E-02 0. -1.
</event>
<event>
 5   0  0.2432309E-05  0.2267285E+04  0.7818609E-02  0.8490933E-01
        2   -1    0    0  501    0  0.00000000000E+00  0.00000000000E+00  0.11039990183E+04  0.11039990184E+04  0.25500000920E-02 0.  1.
       -2   -1    0    0    0  501  0.00000000000E+00  0.00000000000E+00 -0.11640816678E+04  0.11640816678E+04  0.25500000920E-02 0. -1.
    10030    2    1    2    0    0  0.00000000000E+00  0.00000000000E+00 -0.60082649471E+02  0.22680806862E+04  0.22672847360E+04 0.  0.
        4    1    3    3  502    0 -0.61743447852E+03 -0.25718514022E+03 -0.94566253080E+03  0.11582956301E+04  0.12699999809E+01 0. -1.
       -4    1    3    3    0  502  0.61743447852E+03  0.25718514022E+03  0.88557988132E+03  0.11097850561E+04  0.12699999809E+01 0.  1.
</event>
<event>
 5   0  0.1008073E-05  0.2274028E+04  0.7818609E-02  0.8488233E-01
        1   -1    0    0  501    0  0.00000000000E+00  0.00000000000E+00  0.12604534593E+04  0.12604534593E+04  0.50400001928E-02 0. -1.
       -1   -1    0    0    0  501  0.00000000000E+00  0.00000000000E+00 -0.10256630369E+04  0.10256630369E+04  0.50400001928E-02 0.  1.
    10030    2    1    2    0    0  0.00000000000E+00  0.00000000000E+00  0.23479042239E+03  0.22861164962E+04  0.22740277245E+04 0.  0.
        1    1    3    3  502    0  0.83116166616E+02 -0.73547507568E+03  0.98509920720E+03  0.12321738238E+04  0.50400001928E-02 0. -1.
       -1    1    3    3    0  502 -0.83116166616E+02  0.73547507568E+03 -0.75030878482E+03  0.10539426724E+04  0.50400001928E-02 0.  1.
</event>
<event>
 5   0  0.2345143E-05  0.2518546E+04  0.7818609E-02  0.8396408E-01
        2   -1    0    0  501    0  0.00000000000E+00  0.00000000000E+00  0.15574608295E+04  0.15574608295E+04  0.25500000920E-02 0. -1.
       -2   -1    0    0    0  501  0.00000000000E+00  0.00000000000E+00 -0.10181754979E+04  0.10181754979E+04  0.25500000920E-02 0.  1.
    10030    2    1    2    0    0  0.00000000000E+00  0.00000000000E+00  0.53928533160E+03  0.25756363273E+04  0.25185459737E+04 0.  0.
        5    1    3    3  502    0  0.19478024568E+03  0.43863384712E+02 -0.10018766825E+04  0.10215881350E+04  0.46999998093E+01 0.  1.
       -5    1    3    3    0  502 -0.19478024568E+03 -0.43863384712E+02  0.15411620141E+04  0.15540481924E+04  0.46999998093E+01 0. -1.
</event>
<event>
 5   0  0.2345143E-05  0.2377571E+04  0.7818609E-02  0.8447949E-01
       -2   -1    0    0    0  501  0.00000000000E+00  0.00000000000E+00  0.64749399096E+03  0.64749399096E+03  0.25500000920E-02 0. -1.
        2   -1    0    0  501    0  0.00000000000E+00  0.00000000000E+00 -0.21825859533E+04  0.21825859533E+04  0.25500000920E-02 0.  1.
    10030    2    1    2    0    0  0.00000000000E+00  0.00000000000E+00 -0.15350919623E+04  0.28300799443E+04  0.23775712730E+04 0.  0.
        5    1    3    3  502    0  0.10097767526E+04 -0.51010009188E+03 -0.12021984356E+04  0.16508041563E+04  0.46999998093E+01 0.  1.
       -5    1    3    3    0  502 -0.10097767526E+04  0.51010009188E+03 -0.33289352674E+03  0.11792757880E+04  0.46999998093E+01 0. -1.
</event>
<event>
 5   0  0.2388326E-05  0.2493092E+04  0.7818609E-02  0.8405451E-01
        2   -1    0    0  501    0  0.00000000000E+00  0.00000000000E+00  0.17309773306E+04  0.17309773306E+04  0.25500000920E-02 0.  1.
       -2   -1    0    0    0  501  0.00000000000E+00  0.00000000000E+00 -0.89768729533E+03  0.89768729533E+03  0.25500000920E-02 0. -1.
    10030    2    1    2    0    0  0.00000000000E+00  0.00000000000E+00  0.83329003528E+03  0.26286646259E+04  0.24930915412E+04 0.  0.
        2    1    3    3  502    0  0.11854898375E+04 -0.15852687584E+03  0.78697010828E+03  0.14317258385E+04  0.25500000920E-02 0.  1.
       -2    1    3    3    0  502 -0.11854898375E+04  0.15852687584E+03  0.46319926996E+02  0.11969387875E+04  0.25500000920E-02 0. -1.
</event>
<event>
 5   0  0.2388326E-05  0.2471555E+04  0.7818609E-02  0.8413190E-01
        2   -1    0    0  501    0  0.00000000000E+00  0.00000000000E+00  0.10054533585E+04  0.10054533585E+04  0.25500000920E-02 0. -1.
       -2   -1    0    0    0  501  0.00000000000E+00  0.00000000000E+00 -0.15188629873E+04  0.15188629873E+04  0.25500000920E-02 0.  1.
    10030    2    1    2    0    0  0.00000000000E+00  0.00000000000E+00 -0.51340962878E+03  0.25243163457E+04  0.24715548884E+04 0.  0.
        2    1    3    3  502    0 -0.34762576649E+03 -0.93139524090E+03  0.49299840889E+03  0.11096793228E+04  0.25500000920E-02 0. -1.
       -2    1    3    3    0  502  0.34762576649E+03  0.93139524090E+03 -0.10064080377E+04  0.14146370229E+04  0.25500000920E-02 0.  1.
</event>
<event>
 5   0  0.2452457E-05  0.2500576E+04  0.7818609E-02  0.8402780E-01
        2   -1    0    0  501    0  0.00000000000E+00  0.00000000000E+00  0.20732487505E+04  0.20732487505E+04  0.25500000920E-02 0.  1.
       -2   -1    0    0    0  501  0.00000000000E+00  0.00000000000E+00 -0.75399533858E+03  0.75399533858E+03  0.25500000920E-02 0. -1.
    10030    2    1    2    0    0  0.00000000000E+00  0.00000000000E+00  0.13192534120E+04  0.28272440891E+04  0.25005758486E+04 0.  0.
        1    1    3    3  502    0  0.30802692198E+03  0.59538215395E+03  0.18528959844E+04  0.19704273706E+04  0.50400001928E-02 0.  1.
       -1    1    3    3    0  502 -0.30802692198E+03 -0.59538215395E+03 -0.53364257245E+03  0.85681671848E+03  0.50400001928E-02 0. -1.
</event>
<event>
 5   0  0.1002753E-05  0.2506938E+04  0.7818609E-02  0.8400518E-01
       -1   -1    0    0    0  501  0.00000000000E+00  0.00000000000E+00  0.12399340717E+04  0.12399340717E+04  0.50400001928E-02 0.  1.
        1   -1    0    0  501    0  0.00000000000E+00  0.00000000000E+00 -0.12671519685E+04  0.12671519685E+04  0.50400001928E-02 0. -1.
    10030    2    1    2    0    0  0.00000000000E+00  0.00000000000E+00 -0.27217896781E+02  0.25070860402E+04  0.25069382919E+04 0.  0.
        5    1    3    3  502    0 -0.47834895000E+03 -0.37950753956E+03  0.10811331999E+04  0.12416580755E+04  0.46999998093E+01 0.  1.
       -5    1    3    3    0  502  0.47834895000E+03  0.37950753956E+03 -0.11083510967E+04  0.12654279648E+04  0.46999998093E+01 0. -1.
</event>
<event>
 5   0  0.1039688E-05  0.2544864E+04  0.7818609E-02  0.8387175E-01
        1   -1    0    0  501    0  0.00000000000E+00  0.00000000000E+00  0.20174554880E+04  0.20174554880E+04  0.50400001928E-02 0. -1.
       -1   -1    0    0    0  501  0.00000000000E+00  0.00000000000E+00 -0.80253705174E+03  0.80253705175E+03  0.50400001928E-02 0.  1.
    10030    2    1    2    0    0  0.00000000000E+00  0.00000000000E+00  0.12149184363E+04  0.28199925398E+04  0.25448636737E+04 0.  0.
        3    1    3    3  502    0  0.12388636704E+04  0.28927712834E+03  0.63501352727E+03  0.14218673077E+04  0.10100000352E+00 0.  1.
       -3    1    3    3    0  502 -0.12388636704E+04 -0.28927712834E+03  0.57990490902E+03  0.13981252320E+04  0.10100000352E+00 0. -1.
</event>
<event>
 5   0  0.2441340E-05  0.2491272E+04  0.7818609E-02  0.8406102E-01
       -2   -1    0    0    0  501  0.00000000000E+00  0.00000000000E+00  0.81315025454E+03  0.81315025455E+03  0.25500000920E-02 0. -1.
        2   -1    0    0  501    0  0.00000000000E+00  0.00000000000E+00 -0.19081453072E+04  0.19081453072E+04  0.25500000920E-02 0.  1.
    10030    2    1    2    0    0  0.00000000000E+00  0.00000000000E+00 -0.10949950526E+04  0.27212955617E+04  0.24912718376E+04 0.  0.
        3    1    3    3  502    0  0.63016061801E+03 -0.95134541986E+03 -0.19345548478E+01  0.11411241234E+04  0.10100000352E+00 0.  1.
       -3    1    3    3    0  502 -0.63016061801E+03  0.95134541986E+03 -0.10930604978E+04  0.15801714383E+04  0.10100000352E+00 0. -1.
</event>
<event>
 5   0  0.1008073E-05  0.2492111E+04  0.7818609E-02  0.8405802E-01
        1   -1    0    0  501    0  0.00000000000E+00  0.00000000000E+00  0.11143267793E+04  0.11143267793E+04  0.50400001928E-02 0.  1.
       -1   -1    0    0    0  501  0.00000000000E+00  0.00000000000E+00 -0.13933560951E+04  0.13933560951E+04  0.50400001928E-02 0. -1.
    10030    2    1    2    0    0  0.00000000000E+00  0.00000000000E+00 -0.27902931582E+03  0.25076828745E+04  0.24921107599E+04 0.  0.
        1    1    3    3  502    0 -0.52062934199E+03  0.76569467095E+03 -0.97857800794E+03  0.13472038296E+04  0.50400001928E-02 0. -1.
       -1    1    3    3    0  502  0.52062934199E+03 -0.76569467095E+03  0.69954869212E+03  0.11604790448E+04  0.50400001928E-02 0.  1.
</event>
<event>
 5   0  0.2388326E-05  0.2500986E+04  0.7818609E-02  0.8402634E-01
       -2   -1    0    0    0  501  0.00000000000E+00  0.00000000000E+00  0.72240749577E+03  0.72240749578E+03  0.25500000920E-02 0.  1.
        2   -1    0    0  501    0  0.00000000000E+00  0.00000000000E+00 -0.21646137766E+04  0.21646137766E+04  0.25500000920E-02 0. -1.
    10030    2    1    2    0    0  0.00000000000E+00  0.00000000000E+00 -0.14422062809E+04  0.28870212724E+04  0.25009863796E+04 0.  0.
        2    1    3    3  502    0 -0.22408258313E+03  0.13253572790E+03  0.69077706283E+03  0.73820842163E+03  0.25500000920E-02 0.  1.
       -2    1    3    3    0  502  0.22408258313E+03 -0.13253572790E+03 -0.21329833437E+04  0.21488128508E+04  0.25500000920E-02 0. -1.
</event>
<event>
 5   0  0.1015327E-05  0.2411400E+04  0.7818609E-02  0.8435248E-01
       -1   -1    0    0    0  501  0.00000000000E+00  0.00000000000E+00  0.82693447043E+03  0.82693447045E+03  0.50400001928E-02 0. -1.
        1   -1    0    0  501    0  0.00000000000E+00  0.00000000000E+00 -0.17579531130E+04  0.17579531130E+04  0.50400001928E-02 0.  1.
    10030    2    1    2    0    0  0.00000000000E+00  0.00000000000E+00 -0.93101864254E+03  0.25848875834E+04  0.24113996156E+04 0.  0.
        4    1    3    3  502    0 -0.60970776996E+03  0.30703190494E+03 -0.15308404496E+04  0.16761522157E+04  0.12699999809E+01 0.  1.
       -4    1    3    3    0  502  0.60970776996E+03 -0.30703190494E+03  0.59982180703E+03  0.90873536769E+03  0.12699999809E+01 0. -1.
</event>
<event>
 5   0  0.1008073E-05  0.2497796E+04  0.7818609E-02  0.8403771E-01
        1   -1    0    0  501    0  0.00000000000E+00  0.00000000000E+00  0.20700271061E+04  0.20700271061E+04  0.50400001928E-02 0.  1.
       -1   -1    0    0    0  501  0.00000000000E+00  0.00000000000E+00 -0.75349058370E+03  0.75349058372E+03  0.50400001928E-02 0. -1.
    10030    2    1    2    0    0  0.00000000000E+00  0.00000000000E+00  0.13165365223E+04  0.28235176898E+04  0.24977957742E+04 0.  0.
        1    1    3    3  502    0 -0.26809899205E+03 -0.15452477310E+03 -0.70946933083E+03  0.77401660606E+03  0.50400001928E-02 0. -1.
       -1    1    3    3    0  502  0.26809899205E+03  0.15452477310E+03  0.20260058532E+04  0.20495010837E+04  0.50400001928E-02 0.  1.
</event>
<event>
 5   0  0.1010338E-05  0.2513407E+04  0.7818609E-02  0.8398225E-01
        1   -1    0    0  501    0  0.00000000000E+00  0.00000000000E+00  0.74435523154E+03  0.74435523155E+03  0.50400001928E-02 0. -1.
       -1   -1    0    0    0  501  0.00000000000E+00  0.00000000000E+00 -0.21217067769E+04  0.21217067769E+04  0.50400001928E-02 0.  1.
    10030    2    1    2    0    0  0.00000000000E+00  0.00000000000E+00 -0.13773515454E+04  0.28660620085E+04  0.25134068825E+04 0.  0.
        2    1    3    3  502    0  0.60151022173E+03  0.18659850695E+03  0.55141812573E+03  0.83707556351E+03  0.25500000920E-02 0. -1.
       -2    1    3    3    0  502 -0.60151022173E+03 -0.18659850695E+03 -0.19287696711E+04  0.20289864450E+04  0.25500000920E-02 0.  1.
</event>
<event>
 5   0  0.1002753E-05  0.2437028E+04  0.7818609E-02  0.8425769E-01
       -1   -1    0    0    0  501  0.00000000000E+00  0.00000000000E+00  0.77697878269E+03  0.77697878271E+03  0.50400001928E-02 0.  1.
        1   -1    0    0  501    0  0.00000000000E+00  0.00000000000E+00 -0.19109615961E+04  0.19109615961E+04  0.50400001928E-02 0. -1.
    10030    2    1    2    0    0  0.00000000000E+00  0.00000000000E+00 -0.11339828134E+04  0.26879403788E+04  0.24370282023E+04 0.  0.
        5    1    3    3  502    0  0.80274123244E+02  0.98320586100E+03 -0.13559087169E+04  0.16767970177E+04  0.46999998093E+01 0. -1.
       -5    1    3    3    0  502 -0.80274123244E+02 -0.98320586100E+03  0.22192590355E+03  0.10111433611E+04  0.46999998093E+01 0.  1.
</event>
<event>
 5   0  0.2432309E-05  0.2475992E+04  0.7818609E-02  0.8411589E-01
       -2   -1    0    0    0  501  0.00000000000E+00  0.00000000000E+00  0.80334644768E+03  0.80334644768E+03  0.25500000920E-02 0. -1.
        2   -1    0    0  501    0  0.00000000000E+00  0.00000000000E+00 -0.19078123154E+04  0.19078123154E+04  0.25500000920E-02 0.  1.
    10030    2    1    2    0    0  0.00000000000E+00  0.00000000000E+00 -0.11044658678E+04  0.27111587631E+04  0.24759921215E+04 0.  0.
        4    1    3    3  502    0 -0.52867175776E+02 -0.82616974710E+03 -0.15601376752E+04  0.17661773886E+04  0.12699999809E+01 0.  1.
       -4    1    3    3    0  502  0.52867175776E+02  0.82616974710E+03  0.45567180745E+03  0.94498137458E+03  0.12699999809E+01 0. -1.
</event>
<event>
 5   0  0.2432309E-05  0.2577320E+04  0.7818609E-02  0.8375946E-01
       -2   -1    0    0    0  501  0.00000000000E+00  0.00000000000E+00  0.92337664384E+03  0.92337664384E+03  0.25500000920E-02 0. -1.
        2   -1    0    0  501    0  0.00000000000E+00  0.00000000000E+00 -0.17984479541E+04  0.17984479541E+04  0.25500000920E-02 0.  1.
    10030    2    1    2    0    0  0.00000000000E+00  0.00000000000E+00 -0.87507131029E+03  0.27218245980E+04  0.25773201866E+04 0.  0.
        4    1    3    3  502    0  0.11967734146E+04 -0.20700051792E+03 -0.89241455460E+03  0.15071566510E+04  0.12699999809E+01 0.  1.
       -4    1    3    3    0  502 -0.11967734146E+04  0.20700051792E+03  0.17343244311E+02  0.12146679470E+04  0.12699999809E+01 0. -1.
</event>
<event>
 5   0  0.1010338E-05  0.2466573E+04  0.7818609E-02  0.8414992E-01
       -1   -1    0    0    0  501  0.00000000000E+00  0.00000000000E+00  0.15174151111E+04  0.15174151111E+04  0.50400001928E-02 0.  1.
        1   -1    0    0  501    0  0.00000000000E+00  0.00000000000E+00 -0.10023592950E+04  0.10023592950E+04  0.50400001928E-02 0. -1.
    10030    2    1    2    0    0  0.00000000000E+00  0.00000000000E+00  0.51505581614E+03  0.25197744061E+04  0.24665726350E+04 0.  0.
        2    1    3    3  502    0  0.93594128036E+03 -0.46783649443E+03 -0.40934476494E+03  0.11235747427E+04  0.25500000920E-02 0. -1.
       -2    1    3    3    0  502 -0.93594128036E+03  0.46783649443E+03  0.92440058108E+03  0.13961996634E+04  0.25500000920E-02 0.  1.
</event>
<event>
 5   0  0.2432309E-05  0.2493462E+04  0.7818609E-02  0.8405319E-01
        2   -1    0    0  501    0  0.00000000000E+00  0.00000000000E+00  0.12111346713E+04  0.12111346713E+04  0.25500000920E-02 0.  1.
       -2   -1    0    0    0  501  0.00000000000E+00  0.00000000000E+00 -0.12833732069E+04  0.12833732069E+04  0.25500000920E-02 0. -1.
    10030    2    1    2    0    0  0.00000000000E+00  0.00000000000E+00 -0.72238535601E+02  0.24945078783E+04  0.24934616798E+04 0.  0.
        4    1    3    3  502    0  0.87797294167E+01  0.97139456167E+03  0.74565066905E+03  0.12246146379E+04  0.12699999809E+01 0.  1.
       -4    1    3    3    0  502 -0.87797294167E+01 -0.97139456167E+03 -0.81788920465E+03  0.12698932404E+04  0.12699999809E+01 0. -1.
</event>
<event>
 5   0  0.2452457E-05  0.2487397E+04  0.7818609E-02  0.8407489E-01
       -2   -1    0    0    0  501  0.00000000000E+00  0.00000000000E+00  0.10769446746E+04  0.10769446746E+04  0.25500000920E-02 0.  1.
        2   -1    0    0  501    0  0.00000000000E+00  0.00000000000E+00 -0.14362718710E+04  0.14362718710E+04  0.25500000920E-02 0. -1.
    10030    2    1    2    0    0  0.00000000000E+00  0.00000000000E+00 -0.35932719640E+03  0.25132165457E+04  0.24873965046E+04 0.  0.
        1    1    3    3  502    0 -0.88751976941E+03  0.50726288639E+03  0.53605261736E+03  0.11542787296E+04  0.50400001928E-02 0.  1.
       -1    1    3    3    0  502  0.88751976941E+03 -0.50726288639E+03 -0.89537981376E+03  0.13589378161E+04  0.50400001928E-02 0. -1.
</event>
<event>
 5   0  0.2432309E-05  0.2498849E+04  0.7818609E-02  0.8403396E-01
       -2   -1    0    0    0  501  0.00000000000E+00  0.00000000000E+00  0.57002383735E+03  0.57002383735E+03  0.25500000920E-02 0. -1.
        2   -1    0    0  501    0  0.00000000000E+00  0.00000000000E+00 -0.27385889645E+04  0.27385889645E+04  0.25500000920E-02 0.  1.
    10030    2    1    2    0    0  0.00000000000E+00  0.00000000000E+00 -0.21685651271E+04  0.33086128018E+04  0.24988485272E+04 0.  0.
        4    1    3    3  502    0 -0.11806853010E+04  0.40005559341E+03 -0.11950381570E+04  0.17268989742E+04  0.12699999809E+01 0.  1.
       -4    1    3    3    0  502  0.11806853010E+04 -0.40005559341E+03 -0.97352697018E+03  0.15817138276E+04  0.12699999809E+01 0. -1.
</event>
<event>
 5   0  0.1002753E-05  0.2411565E+04  0.7818609E-02  0.8435186E-01
        1   -1    0    0  501    0  0.00000000000E+00  0.00000000000E+00  0.14979613387E+04  0.14979613387E+04  0.50400001928E-02 0.  1.
       -1   -1    0    0    0  501  0.00000000000E+00  0.00000000000E+00 -0.97059371450E+03  0.97059371451E+03  0.50400001928E-02 0. -1.
    10030    2    1    2    0    0  0.00000000000E+00  0.00000000000E+00  0.52736762417E+03  0.24685550532E+04  0.24115653505E+04 0.  0.
        5    1    3    3  502    0 -0.70773092905E+03 -0.38944034984E+03  0.11800160858E+04  0.14300373795E+04  0.46999998093E+01 0.  1.
       -5    1    3    3    0  502  0.70773092905E+03  0.38944034984E+03 -0.65264846166E+03  0.10385176737E+04  0.46999998093E+01 0. -1.
</event>
<event>
 5   0  0.2345143E-05  0.2520265E+04  0.7818609E-02  0.8395802E-01
       -2   -1    0    0    0  501  0.00000000000E+00  0.00000000000E+00  0.10126691790E+04  0.10126691790E+04  0.25500000920E-02 0. -1.
        2   -1    0    0  501    0  0.00000000000E+00  0.00000000000E+00 -0.15680673340E+04  0.15680673340E+04  0.25500000920E-02 0.  1.
    10030    2    1    2    0    0  0.00000000000E+00  0.00000000000E+00 -0.55539815500E+03  0.25807365131E+04  0.25202646368E+04 0.  0.
        5    1    3    3  502    0  0.50505658501E+03 -0.40169409299E+03 -0.13860143173E+04  0.15288878560E+04  0.46999998093E+01 0.  1.
       -5    1    3    3    0  502 -0.50505658501E+03  0.40169409299E+03  0.83061616228E+03  0.10518486571E+04  0.46999998093E+01 0. -1.
</event>
<event>
 5   0  0.1002753E-05  0.2459949E+04  0.7818609E-02  0.8417394E-01
       -1   -1    0    0    0  501  0.00000000000E+00  0.00000000000E+00  0.20816988951E+04  0.20816988951E+04  0.50400001928E-02 0. -1.
        1   -1    0    0  501    0  0.00000000000E+00  0.00000000000E+00 -0.72673224278E+03  0.72673224280E+03  0.50400001928E-02 0.  1.
    10030    2    1    2    0    0  0.00000000000E+00  0.00000000000E+00  0.13549666523E+04  0.28084311379E+04  0.24599493546E+04 0.  0.
        5    1    3    3  502    0  0.22180617272E+03 -0.35829549953E+03  0.19967044646E+04  0.20406921503E+04  0.46999998093E+01 0. -1.
       -5    1    3    3    0  502 -0.22180617272E+03  0.35829549953E+03 -0.64173781234E+03  0.76773898757E+03  0.46999998093E+01 0.  1.
</event>
<event>
 5   0  0.1039688E-05  0.2187542E+04  0.7818609E-02  0.8523631E-01
       -1   -1    0    0    0  501  0.00000000000E+00  0.00000000000E+00  0.65092337337E+03  0.65092337339E+03  0.50400001928E-02 0.  1.
        1   -1    0    0  501    0  0.00000000000E+00  0.00000000000E+00 -0.18379049582E+04  0.18379049582E+04  0.50400001928E-02 0. -1.
    10030    2    1    2    0    0  0.00000000000E+00  0.00000000000E+00 -0.11869815848E+04  0.24888283316E+04  0.21875422696E+04 0.  0.
        3    1    3    3  502    0  0.16118100236E+03 -0.74739763748E+03  0.29637897110E+03  0.82001405399E+03  0.10100000352E+00 0.  1.
       -3    1    3    3    0  502 -0.16118100236E+03  0.74739763748E+03 -0.14833605559E+04  0.16688142776E+04  0.10100000352E+00 0. -1.
</event>
<event>
 5   0  0.2345143E-05  0.2515618E+04  0.7818609E-02  0.8397442E-01
        2   -1    0    0  501    0  0.00000000000E+00  0.00000000000E+00  0.17517498724E+04  0.17517498724E+04  0.25500000920E-02 0.  1.
       -2   -1    0    0    0  501  0.00000000000E+00  0.00000000000E+00 -0.90314492294E+03  0.90314492294E+03  0.25500000920E-02 0. -1.
    10030    2    1    2    0    0  0.00000000000E+00  0.00000000000E+00  0.84860494950E+03  0.26548947954E+04  0.25156184159E+04 0.  0.
        5    1    3    3  502    0  0.12351214457E+04 -0.94115203610E+02  0.19385747618E+03  0.12537884464E+04  0.46999998093E+01 0. -1.
       -5    1    3    3    0  502 -0.12351214457E+04  0.94115203610E+02  0.65474747332E+03  0.14011063490E+04  0.46999998093E+01 0.  1.
</event>
<event>
 5   0  0.1008073E-05  0.2380534E+04  0.7818609E-02  0.8446827E-01
       -1   -1    0    0    0  501  0.00000000000E+00  0.00000000000E+00  0.15036026720E+04  0.15036026720E+04  0.50400001928E-02 0.  1.
        1   -1    0    0  501    0  0.00000000000E+00  0.00000000000E+00 -0.94222764671E+03  0.94222764672E+03  0.50400001928E-02 0. -1.
    10030    2    1    2    0    0  0.00000000000E+00  0.00000000000E+00  0.56137502526E+03  0.24458303187E+04  0.23805343998E+04 0.  0.
        1    1    3    3  502    0  0.58463466988E+03 -0.10338814224E+04  0.36045409604E+03  0.12412234481E+04  0.50400001928E-02 0.  1.
       -1    1    3    3    0  502 -0.58463466988E+03  0.10338814224E+04  0.20092092921E+03  0.12046068706E+04  0.50400001928E-02 0. -1.
</event>
<event>
 5   0  0.1015327E-05  0.2141392E+04  0.7818609E-02  0.8543226E-01
       -1   -1    0    0    0  501  0.00000000000E+00  0.00000000000E+00  0.70413994653E+03  0.70413994655E+03  0.50400001928E-02 0.  1.
        1   -1    0    0  501    0  0.00000000000E+00  0.00000000000E+00 -0.16280706601E+04  0.16280706601E+04  0.50400001928E-02 0. -1.
    10030    2    1    2    0    0  0.00000000000E+00  0.00000000000E+00 -0.92393071353E+03  0.23322106066E+04  0.21413916854E+04 0.  0.
        4    1    3    3  502    0  0.78985612565E+03 -0.15694293870E+03 -0.12304511119E+04  0.14705493317E+04  0.12699999809E+01 0. -1.
       -4    1    3    3    0  502 -0.78985612565E+03  0.15694293870E+03  0.30652039835E+03  0.86166127495E+03  0.12699999809E+01 0.  1.
</event>
<event>
 5   0  0.1002753E-05  0.2511845E+04  0.7818609E-02  0.8398778E-01
       -1   -1    0    0    0  501  0.00000000000E+00  0.00000000000E+00  0.83083717238E+03  0.83083717239E+03  0.50400001928E-02 0.  1.
        1   -1    0    0  501    0  0.00000000000E+00  0.00000000000E+00 -0.18984957383E+04  0.18984957383E+04  0.50400001928E-02 0. -1.
    10030    2    1    2    0    0  0.00000000000E+00  0.00000000000E+00 -0.10676585659E+04  0.27293329107E+04  0.25118446058E+04 0.  0.
        5    1    3    3  502    0  0.70507778032E+03 -0.96467691794E+03 -0.11358273968E+03  0.12002747023E+04  0.46999998093E+01 0. -1.
       -5    1    3    3    0  502 -0.70507778032E+03  0.96467691794E+03 -0.95407582621E+03  0.15290582083E+04  0.46999998093E+01 0.  1.
</event>
<event>
 5   0  0.1008073E-05  0.2442095E+04  0.7818609E-02  0.8423910E-01
       -1   -1    0    0    0  501  0.00000000000E+00  0.00000000000E+00  0.92021313248E+03  0.92021313249E+03  0.50400001928E-02 0.  1.
        1   -1    0    0  501    0  0.00000000000E+00  0.00000000000E+00 -0.16202299766E+04  0.16202299766E+04  0.50400001928E-02 0. -1.
    10030    2    1    2    0    0  0.00000000000E+00  0.00000000000E+00 -0.70001684415E+03  0.25404431091E+04  0.24420949221E+04 0.  0.
        1    1    3    3  502    0  0.53468173222E+03  0.10777115868E+04 -0.13276812407E+03  0.12103611832E+04  0.50400001928E-02 0.  1.
       -1    1    3    3    0  502 -0.53468173222E+03 -0.10777115868E+04 -0.56724872008E+03  0.13300819259E+04  0.50400001928E-02 0. -1.
</event>
<event>
 5   0  0.1008073E-05  0.2468618E+04  0.7818609E-02  0.8414251E-01
       -1   -1    0    0    0  501  0.00000000000E+00  0.00000000000E+00  0.93561663042E+03  0.93561663044E+03  0.50400001928E-02 0.  1.
        1   -1    0    0  501    0  0.00000000000E+00  0.00000000000E+00 -0.16283583186E+04  0.16283583186E+04  0.50400001928E-02 0. -1.
    10030    2    1    2    0    0  0.00000000000E+00  0.00000000000E+00 -0.69274168821E+03  0.25639749491E+04  0.24686183368E+04 0.  0.
        1    1    3    3  502    0  0.69682133751E+03 -0.54655929085E+03 -0.12393683219E+04  0.15232599490E+04  0.50400001928E-02 0. -1.
       -1    1    3    3    0  502 -0.69682133751E+03  0.54655929085E+03  0.54662663366E+03  0.10407150001E+04  0.50400001928E-02 0.  1.
</event>
<event>
 5   0  0.2432309E-05  0.2373045E+04  0.7818609E-02  0.8449664E-01
       -2   -1    0    0    0  501  0.00000000000E+00  0.00000000000E+00  0.71421868605E+03  0.71421868605E+03  0.25500000920E-02 0. -1.
        2   -1    0    0  501    0  0.00000000000E+00  0.00000000000E+00 -0.19711553513E+04  0.19711553513E+04  0.25500000920E-02 0.  1.
    10030    2    1    2    0    0  0.00000000000E+00  0.00000000000E+00 -0.12569366653E+04  0.26853740373E+04  0.23730452882E+04 0.  0.
        4    1    3    3  502    0 -0.11826128014E+04  0.94312835767E+02 -0.60680675031E+03  0.13325479331E+04  0.12699999809E+01 0.  1.
       -4    1    3    3    0  502  0.11826128014E+04 -0.94312835767E+02 -0.65012991494E+03  0.13528261042E+04  0.12699999809E+01 0. -1.
</event>
<event>
 5   0  0.1015327E-05  0.2495781E+04  0.7818609E-02  0.8404490E-01
        1   -1    0    0  501    0  0.00000000000E+00  0.00000000000E+00  0.17778524533E+04  0.17778524533E+04  0.50400001928E-02 0. -1.
       -1   -1    0    0    0  501  0.00000000000E+00  0.00000000000E+00 -0.87590582613E+03  0.87590582614E+03  0.50400001928E-02 0.  1.
    10030    2    1    2    0    0  0.00000000000E+00  0.00000000000E+00  0.90194662716E+03  0.26537582794E+04  0.24957814983E+04 0.  0.
        4    1    3    3  502    0  0.12087178625E+04  0.10771757682E+03  0.76029561165E+03  0.14320101178E+04  0.12699999809E+01 0. -1.
       -4    1    3    3    0  502 -0.12087178625E+04 -0.10771757682E+03  0.14165101550E+03  0.12217481617E+04  0.12699999809E+01 0.  1.
</event>
<event>
 5   0  0.1008073E-05  0.2518833E+04  0.7818609E-02  0.8396307E-01
       -1   -1    0    0    0  501  0.00000000000E+00  0.00000000000E+00  0.11722466447E+04  0.11722466447E+04  0.50400001928E-02 0. -1.
        1   -1    0    0  501    0  0.00000000000E+00  0.00000000000E+00 -0.13530685495E+04  0.13530685495E+04  0.50400001928E-02 0.  1.
    10030    2    1    2    0    0  0.00000000000E+00  0.00000000000E+00 -0.18082190484E+03  0.25253151942E+04  0.25188331165E+04 0.  0.
        1    1    3    3  502    0  0.10757125270E+04  0.50252192697E+03 -0.51154471680E+03  0.12928123317E+04  0.50400001928E-02 0.  1.
       -1    1    3    3    0  502 -0.10757125270E+04 -0.50252192697E+03  0.33072281196E+03  0.12325028625E+04  0.50400001928E-02 0. -1.
</event>
<event>
 5   0  0.1039688E-05  0.2468721E+04  0.7818609E-02  0.8414214E-01
        1   -1    0    0  501    0  0.00000000000E+00  0.00000000000E+00  0.12238671297E+04  0.12238671298E+04  0.50400001928E-02 0.  1.
       -1   -1    0    0    0  501  0.00000000000E+00  0.00000000000E+00 -0.12449439495E+04  0.12449439495E+04  0.50400001928E-02 0. -1.
    10030    2    1    2    0    0  0.00000000000E+00  0.00000000000E+00 -0.21076819770E+02  0.24688110793E+04  0.24687211088E+04 0.  0.
        3    1    3    3  502    0 -0.71984127383E+02  0.55026831664E+03 -0.11131524144E+04  0.12438188142E+04  0.10100000352E+00 0. -1.
       -3    1    3    3    0  502  0.71984127383E+02 -0.55026831664E+03  0.10920755946E+04  0.12249922650E+04  0.10100000352E+00 0.  1.
</event>
<event>
 5   0  0.1002753E-05  0.2025814E+04  0.7818609E-02  0.8594646E-01
       -1   -1    0    0    0  501  0.00000000000E+00  0.00000000000E+00  0.89318870681E+03  0.89318870682E+03  0.50400001928E-02 0. -1.
        1   -1    0    0  501    0  0.00000000000E+00  0.00000000000E+00 -0.11486717527E+04  0.11486717527E+04  0.50400001928E-02 0.  1.
    10030    2    1    2    0    0  0.00000000000E+00  0.00000000000E+00 -0.25548304587E+03  0.20418604595E+04  0.20258140461E+04 0.  0.
        5    1    3    3  502    0  0.31720337216E+03 -0.56369296138E+02  0.84015815249E+03  0.89982403171E+03  0.46999998093E+01 0. -1.
       -5    1    3    3    0  502 -0.31720337216E+03  0.56369296138E+02 -0.10956411984E+04  0.11420364278E+04  0.46999998093E+01 0.  1.
</event>
<event>
 5   0  0.2432309E-05  0.2505532E+04  0.7818609E-02  0.8401018E-01
       -2   -1    0    0    0  501  0.00000000000E+00  0.00000000000E+00  0.97811365651E+03  0.97811365651E+03  0.25500000920E-02 0. -1.
        2   -1    0    0  501    0  0.00000000000E+00  0.00000000000E+00 -0.16045397315E+04  0.16045397315E+04  0.25500000920E-02 0.  1.
    10030    2    1    2    0    0  0.00000000000E+00  0.00000000000E+00 -0.62642607496E+03  0.25826533880E+04  0.25055316592E+04 0.  0.
        4    1    3    3  502    0  0.38349587510E+03 -0.94990739889E+03  0.43011303731E+03  0.11110319484E+04  0.12699999809E+01 0. -1.
       -4    1    3    3    0  502 -0.38349587510E+03  0.94990739889E+03 -0.10565391123E+04  0.14716214395E+04  0.12699999809E+01 0.  1.
</event>
<event>
 5   0  0.1010338E-05  0.2470259E+04  0.7818609E-02  0.8413658E-01
       -1   -1    0    0    0  501  0.00000000000E+00  0.00000000000E+00  0.89322860394E+03  0.89322860395E+03  0.50400001928E-02 0. -1.
        1   -1    0    0  501    0  0.00000000000E+00  0.00000000000E+00 -0.17078990792E+04  0.17078990792E+04  0.50400001928E-02 0.  1.
    10030    2    1    2    0    0  0.00000000000E+00  0.00000000000E+00 -0.81467047526E+03  0.26011276832E+04  0.24702585372E+04 0.  0.
        2    1    3    3  502    0  0.80014281971E+03 -0.64377826967E+03 -0.11298847526E+04  0.15268655955E+04  0.25500000920E-02 0.  1.
       -2    1    3    3    0  502 -0.80014281971E+03  0.64377826967E+03  0.31521427734E+03  0.10742620877E+04  0.25500000920E-02 0. -1.
</event>
<event>
 5   0  0.1015327E-05  0.2486730E+04  0.7818609E-02  0.8407728E-01
        1   -1    0    0  501    0  0.00000000000E+00  0.00000000000E+00  0.91058156436E+03  0.91058156438E+03  0.50400001928E-02 0.  1.
       -1   -1    0    0    0  501  0.00000000000E+00  0.00000000000E+00 -0.16977689701E+04  0.16977689701E+04  0.50400001928E-02 0. -1.
    10030    2    1    2    0    0  0.00000000000E+00  0.00000000000E+00 -0.78718740569E+03  0.26083505344E+04  0.24867304838E+04 0.  0.
        4    1    3    3  502    0  0.39565837369E+03 -0.96840476436E+03 -0.10984738031E+04  0.15169046263E+04  0.12699999809E+01 0.  1.
       -4    1    3    3    0  502 -0.39565837369E+03  0.96840476436E+03  0.31128639739E+03  0.10914459081E+04  0.12699999809E+01 0. -1.
</event>
<event>
 5   0  0.2432309E-05  0.2507384E+04  0.7818609E-02  0.8400359E-01
       -2   -1    0    0    0  501  0.00000000000E+00  0.00000000000E+00  0.97924494545E+03  0.97924494545E+03  0.25500000920E-02 0.  1.
        2   -1    0    0  501    0  0.00000000000E+00  0.00000000000E+00 -0.16050572974E+04  0.16050572974E+04  0.25500000920E-02 0. -1.
    10030    2    1    2    0    0  0.00000000000E+00  0.00000000000E+00 -0.62581235196E+03  0.25843022429E+04  0.25073844904E+04 0.  0.
        4    1    3    3  502    0 -0.11069368959E+04 -0.17728233728E+03  0.26556353003E+03  0.11520694076E+04  0.12699999809E+01 0.  1.
       -4    1    3    3    0  502  0.11069368959E+04  0.17728233728E+03 -0.89137588200E+03  0.14322328353E+04  0.12699999809E+01 0. -1.
</event>
<event>
 5   0  0.2345143E-05  0.2521462E+04  0.7818609E-02  0.8395379E-01
       -2   -1    0    0    0  501  0.00000000000E+00  0.00000000000E+00  0.22589888258E+04  0.22589888258E+04  0.25500000920E-02 0. -1.
        2   -1    0    0  501    0  0.00000000000E+00  0.00000000000E+00 -0.70360802132E+03  0.70360802133E+03  0.25500000920E-02 0.  1.
    10030    2    1    2    0    0  0.00000000000E+00  0.00000000000E+00  0.15553808045E+04  0.29625968472E+04  0.25214620028E+04 0.  0.
        5    1    3    3  502    0 -0.15061646790E+03 -0.75576281072E+02 -0.69030550641E+03  0.71059192005E+03  0.46999998093E+01 0.  1.
       -5    1    3    3    0  502  0.15061646790E+03  0.75576281072E+02  0.22456863109E+04  0.22520049271E+04  0.46999998093E+01 0. -1.
</event>
<event>
 5   0  0.1015327E-05  0.2500252E+04  0.7818609E-02  0.8402896E-01
       -1   -1    0    0    0  501  0.00000000000E+00  0.00000000000E+00  0.10117167503E+04  0.10117167503E+04  0.50400001928E-02 0. -1.
        1   -1    0    0  501    0  0.00000000000E+00  0.00000000000E+00 -0.15447159638E+04  0.15447159638E+04  0.50400001928E-02 0.  1.
    10030    2    1    2    0    0  0.00000000000E+00  0.00000000000E+00 -0.53299921350E+03  0.25564327140E+04  0.25002519993E+04 0.  0.
        4    1    3    3  502    0  0.10467671936E+03 -0.12103855860E+04 -0.56777785404E+03  0.13410308672E+04  0.12699999809E+01 0. -1.
       -4    1    3    3    0  502 -0.10467671936E+03  0.12103855860E+04  0.34778640531E+02  0.12154018468E+04  0.12699999809E+01 0.  1.
</event>
<event>
 5   0  0.2432309E-05  0.2700552E+04  0.7818609E-02  0.8334826E-01
        2   -1    0    0  501    0  0.00000000000E+00  0.00000000000E+00  0.14920587638E+04  0.14920587638E+04  0.25500000920E-02 0.  1.
       -2   -1    0    0    0  501  0.00000000000E+00  0.00000000000E+00 -0.12219657316E+04  0.12219657316E+04  0.25500000920E-02 0. -1.
    10030    2    1    2    0    0  0.00000000000E+00  0.00000000000E+00  0.27009303225E+03  0.27140244954E+04  0.27005515576E+04 0.  0.
        4    1    3    3  502    0  0.26262177441E+03 -0.12755326572E+04  0.49360273223E+03  0.13926948791E+04  0.12699999809E+01 0. -1.
       -4    1    3    3    0  502 -0.26262177441E+03  0.12755326572E+04 -0.22350969997E+03  0.13213296163E+04  0.12699999809E+01 0.  1.
</event>
<event>
 5   0  0.2441340E-05  0.2558296E+04  0.7818609E-02  0.8382507E-01
       -2   -1    0    0    0  501  0.00000000000E+00  0.00000000000E+00  0.93147357458E+03  0.93147357458E+03  0.25500000920E-02 0.  1.
        2   -1    0    0  501    0  0.00000000000E+00  0.00000000000E+00 -0.17565926913E+04  0.17565926913E+04  0.25500000920E-02 0. -1.
    10030    2    1    2    0    0  0.00000000000E+00  0.00000000000E+00 -0.82511911676E+03  0.26880662659E+04  0.25582960527E+04 0.  0.
        3    1    3    3  502    0  0.71069969203E+03 -0.58213662320E+03  0.52267006667E+03  0.10569584235E+04  0.10100000352E+00 0.  1.
       -3    1    3    3    0  502 -0.71069969203E+03  0.58213662320E+03 -0.13477891834E+04  0.16311078424E+04  0.10100000352E+00 0. -1.
</event>
<event>
 5   0  0.1002753E-05  0.2470353E+04  0.7818609E-02  0.8413624E-01
        1   -1    0    0  501    0  0.00000000000E+00  0.00000000000E+00  0.12857518719E+04  0.12857518720E+04  0.50400001928E-02 0.  1.
       -1   -1    0    0    0  501  0.00000000000E+00  0.00000000000E+00 -0.11865908575E+04  0.11865908575E+04  0.50400001928E-02 0. -1.
    10030    2    1    2    0    0  0.00000000000E+00  0.00000000000E+00  0.99161014426E+02  0.24723427295E+04  0.24703533483E+04 0.  0.
        5    1    3    3  502    0 -0.57215724838E+03 -0.37014690256E+03  0.10805880965E+04  0.12775231390E+04  0.46999998093E+01 0.  1.
       -5    1    3    3    0  502  0.57215724838E+03  0.37014690256E+03 -0.98142708209E+03  0.11948195905E+04  0.46999998093E+01 0. -1.
</event>
<event>
 5   0  0.2388326E-05  0.2667439E+04  0.7818609E-02  0.8345648E-01
        2   -1    0    0  501    0  0.00000000000E+00  0.00000000000E+00  0.16350428584E+04  0.16350428585E+04  0.25500000920E-02 0.  1.
       -2   -1    0    0    0  501  0.00000000000E+00  0.00000000000E+00 -0.10879273102E+04  0.10879273102E+04  0.25500000920E-02 0. -1.
    10030    2    1    2    0    0  0.00000000000E+00  0.00000000000E+00  0.54711554825E+03  0.27229701687E+04  0.26674390558E+04 0.  0.
        2    1    3    3  502    0  0.91365223925E+03  0.51997386651E+03 -0.56430606234E+03  0.11931364415E+04  0.25500000920E-02 0. -1.
       -2    1    3    3    0  502 -0.91365223925E+03 -0.51997386651E+03  0.11114216106E+04  0.15298337271E+04  0.25500000920E-02 0.  1.
</event>
<event>
 5   0  0.8166500E-06  0.2511501E+04  0.7818609E-02  0.8398900E-01
        3   -1    0    0  501    0  0.00000000000E+00  0.00000000000E+00  0.12916730571E+04  0.12916730611E+04  0.10100000352E+00 0. -1.
       -3   -1    0    0    0  501  0.00000000000E+00  0.00000000000E+00 -0.12208266033E+04  0.12208266075E+04  0.10100000352E+00 0.  1.
    10030    2    1    2    0    0  0.00000000000E+00  0.00000000000E+00  0.70846453778E+02  0.25124996686E+04  0.25115006200E+04 0.  0.
        3    1    3    3  502    0  0.11628407106E+04 -0.41780717180E+03  0.25944863660E+03  0.12625668126E+04  0.10100000352E+00 0. -1.
       -3    1    3    3    0  502 -0.11628407106E+04  0.41780717180E+03 -0.18860218282E+03  0.12499328560E+04  0.10100000352E+00 0.  1.
</event>
<event>
 5   0  0.2388326E-05  0.2715639E+04  0.7818609E-02  0.8329949E-01
       -2   -1    0    0    0  501  0.00000000000E+00  0.00000000000E+00  0.86075244351E+03  0.86075244352E+03  0.25500000920E-02 0. -1.
        2   -1    0    0  501    0  0.00000000000E+00  0.00000000000E+00 -0.21419322296E+04  0.21419322296E+04  0.25500000920E-02 0.  1.
    10030    2    1    2    0    0  0.00000000000E+00  0.00000000000E+00 -0.12811797861E+04  0.30026846732E+04  0.27156387098E+04 0.  0.
        2    1    3    3  502    0  0.58249147649E+03 -0.69077893739E+03 -0.17612284670E+04  0.19794942722E+04  0.25500000920E-02 0.  1.
       -2    1    3    3    0  502 -0.58249147649E+03  0.69077893739E+03  0.48004868093E+03  0.10231904009E+04  0.25500000920E-02 0. -1.
</event>
<event>
 5   0  0.1039688E-05  0.2494988E+04  0.7818609E-02  0.8404773E-01
       -1   -1    0    0    0  501  0.00000000000E+00  0.00000000000E+00  0.56059045063E+03  0.56059045066E+03  0.50400001928E-02 0. -1.
        1   -1    0    0  501    0  0.00000000000E+00  0.00000000000E+00 -0.27760758643E+04  0.27760758643E+04  0.50400001928E-02 0.  1.
    10030    2    1    2    0    0  0.00000000000E+00  0.00000000000E+00 -0.22154854136E+04  0.33366663149E+04  0.24949882723E+04 0.  0.
        3    1    3    3  502    0  0.41194574048E+03 -0.26713058551E+03  0.42594683190E+03  0.64999135119E+03  0.10100000352E+00 0. -1.
       -3    1    3    3    0  502 -0.41194574048E+03  0.26713058551E+03 -0.26414322455E+04  0.26866749637E+04  0.10100000352E+00 0.  1.
</event>
<event>
 5   0  0.2441340E-05  0.2495050E+04  0.7818609E-02  0.8404751E-01
        2   -1    0    0  501    0  0.00000000000E+00  0.00000000000E+00  0.16657209480E+04  0.16657209480E+04  0.25500000920E-02 0.  1.
       -2   -1    0    0    0  501  0.00000000000E+00  0.00000000000E+00 -0.93432096931E+03  0.93432096931E+03  0.25500000920E-02 0. -1.
    10030    2    1    2    0    0  0.00000000000E+00  0.00000000000E+00  0.73139997874E+03  0.26000419174E+04  0.24950495071E+04 0.  0.
        3    1    3    3  502    0 -0.35258253885E+03  0.11026750063E+04 -0.11874002118E+03  0.11637464582E+04  0.10100000352E+00 0. -1.
       -3    1    3    3    0  502  0.35258253885E+03 -0.11026750063E+04  0.85013999991E+03  0.14362954591E+04  0.10100000352E+00 0.  1.
</event>
<event>
 5   0  0.1015327E-05  0.2506706E+04  0.7818609E-02  0.8400600E-01
        1   -1    0    0  501    0  0.00000000000E+00  0.00000000000E+00  0.14319465976E+04  0.14319465976E+04  0.50400001928E-02 0.  1.
       -1   -1    0    0    0  501  0.00000000000E+00  0.00000000000E+00 -0.10970334791E+04  0.10970334791E+04  0.50400001928E-02 0. -1.
    10030    2    1    2    0    0  0.00000000000E+00  0.00000000000E+00  0.33491311854E+03  0.25289800767E+04  0.25067056930E+04 0.  0.
        4    1    3    3  502    0 -0.81294498668E+03 -0.37253396538E+02 -0.79423156472E+03  0.11371335710E+04  0.12699999809E+01 0. -1.
       -4    1    3    3    0  502  0.81294498668E+03  0.37253396538E+02  0.11291446833E+04  0.13918465057E+04  0.12699999809E+01 0.  1.
</event>
<event>
 5   0  0.1008073E-05  0.2034252E+04  0.7818609E-02  0.8590772E-01
        1   -1    0    0  501    0  0.00000000000E+00  0.00000000000E+00  0.17430519299E+04  0.17430519299E+04  0.50400001928E-02 0. -1.
       -1   -1    0    0    0  501  0.00000000000E+00  0.00000000000E+00 -0.59352526576E+03  0.59352526578E+03  0.50400001928E-02 0.  1.
    10030    2    1    2    0    0  0.00000000000E+00  0.00000000000E+00  0.11495266641E+04  0.23365771957E+04  0.20342520591E+04 0.  0.
        1    1    3    3  502    0 -0.24465607342E+03 -0.86125649029E+03  0.20412918490E+02  0.89556463954E+03  0.50400001928E-02 0.  1.
       -1    1    3    3    0  502  0.24465607342E+03  0.86125649029E+03  0.11291137456E+04  0.14410125561E+04  0.50400001928E-02 0. -1.
</event>
<event>
 5   0  0.2388326E-05  0.2435597E+04  0.7818609E-02  0.8426296E-01
       -2   -1    0    0    0  501  0.00000000000E+00  0.00000000000E+00  0.11328716612E+04  0.11328716612E+04  0.25500000920E-02 0.  1.
        2   -1    0    0  501    0  0.00000000000E+00  0.00000000000E+00 -0.13090918514E+04  0.13090918514E+04  0.25500000920E-02 0. -1.
    10030    2    1    2    0    0  0.00000000000E+00  0.00000000000E+00 -0.17622019020E+03  0.24419635126E+04  0.24355968963E+04 0.  0.
        2    1    3    3  502    0  0.11976822526E+04 -0.10352704358E+03 -0.28322720912E+03  0.12350620547E+04  0.25500000920E-02 0. -1.
       -2    1    3    3    0  502 -0.11976822526E+04  0.10352704358E+03  0.10700701892E+03  0.12069014579E+04  0.25500000920E-02 0.  1.
</event>
<event>
 5   0  0.1002753E-05  0.2500230E+04  0.7818609E-02  0.8402904E-01
       -1   -1    0    0    0  501  0.00000000000E+00  0.00000000000E+00  0.10982296657E+04  0.10982296657E+04  0.50400001928E-02 0. -1.
        1   -1    0    0  501    0  0.00000000000E+00  0.00000000000E+00 -0.14230060678E+04  0.14230060678E+04  0.50400001928E-02 0.  1.
    10030    2    1    2    0    0  0.00000000000E+00  0.00000000000E+00 -0.32477640214E+03  0.25212357335E+04  0.25002299719E+04 0.  0.
        5    1    3    3  502    0 -0.12077061652E+04 -0.28016955841E+03 -0.32409828654E+03  0.12814487708E+04  0.46999998093E+01 0.  1.
       -5    1    3    3    0  502  0.12077061652E+04  0.28016955841E+03 -0.67811560103E+00  0.12397869627E+04  0.46999998093E+01 0. -1.
</event>
<event>
 5   0  0.2432309E-05  0.2568082E+04  0.7818609E-02  0.8379124E-01
       -2   -1    0    0    0  501  0.00000000000E+00  0.00000000000E+00  0.68080569631E+03  0.68080569631E+03  0.25500000920E-02 0.  1.
        2   -1    0    0  501    0  0.00000000000E+00  0.00000000000E+00 -0.24217799834E+04  0.24217799834E+04  0.25500000920E-02 0. -1.
    10030    2    1    2    0    0  0.00000000000E+00  0.00000000000E+00 -0.17409742871E+04  0.31025856797E+04  0.25680822478E+04 0.  0.
        4    1    3    3  502    0 -0.92838974882E+03  0.13530486858E+03  0.18864347452E+03  0.95697591743E+03  0.12699999809E+01 0.  1.
       -4    1    3    3    0  502  0.92838974882E+03 -0.13530486858E+03 -0.19296177616E+04  0.21456097623E+04  0.12699999809E+01 0. -1.
</event>
<event>
 5   0  0.2441340E-05  0.2527417E+04  0.7818609E-02  0.8393283E-01
        2   -1    0    0  501    0  0.00000000000E+00  0.00000000000E+00  0.10094700559E+04  0.10094700559E+04  0.25500000920E-02 0.  1.
       -2   -1    0    0    0  501  0.00000000000E+00  0.00000000000E+00 -0.15819774287E+04  0.15819774287E+04  0.25500000920E-02 0. -1.
    10030    2    1    2    0    0  0.00000000000E+00  0.00000000000E+00 -0.57250737279E+03  0.25914474846E+04  0.25274167391E+04 0.  0.
        3    1    3    3  502    0  0.10457539523E+03 -0.26538769736E+02 -0.15772464874E+04  0.15809322604E+04  0.10100000352E+00 0. -1.
       -3    1    3    3    0  502 -0.10457539523E+03  0.26538769736E+02  0.10047391146E+04  0.10105152242E+04  0.10100000352E+00 0.  1.
</event>
<event>
 5   0  0.2345143E-05  0.2492880E+04  0.7818609E-02  0.8405527E-01
        2   -1    0    0  501    0  0.00000000000E+00  0.00000000000E+00  0.12758185103E+04  0.12758185103E+04  0.25500000920E-02 0. -1.
       -2   -1    0    0    0  501  0.00000000000E+00  0.00000000000E+00 -0.12177377053E+04  0.12177377053E+04  0.25500000920E-02 0.  1.
    10030    2    1    2    0    0  0.00000000000E+00  0.00000000000E+00  0.58080805021E+02  0.24935562157E+04  0.24928797044E+04 0.  0.
        5    1    3    3  502    0  0.29122552801E+03  0.70591096377E+03  0.10144308915E+04  0.12697301763E+04  0.46999998093E+01 0. -1.
       -5    1    3    3    0  502 -0.29122552801E+03 -0.70591096377E+03 -0.95635008644E+03  0.12238260394E+04  0.46999998093E+01 0.  1.
</event>
<event>
 5   0  0.1015327E-05  0.2499501E+04  0.7818609E-02  0.8403163E-01
       -1   -1    0    0    0  501  0.00000000000E+00  0.00000000000E+00  0.14031256671E+04  0.14031256671E+04  0.50400001928E-02 0.  1.
        1   -1    0    0  501    0  0.00000000000E+00  0.00000000000E+00 -0.11131410137E+04  0.11131410137E+04  0.50400001928E-02 0. -1.
    10030    2    1    2    0    0  0.00000000000E+00  0.00000000000E+00  0.28998465340E+03  0.25162666808E+04  0.24995013322E+04 0.  0.
        4    1    3    3  502    0 -0.29613728658E+03 -0.39052300768E+03 -0.10123577511E+04  0.11247556807E+04  0.12699999809E+01 0. -1.
       -4    1    3    3    0  502  0.29613728658E+03  0.39052300768E+03  0.13023424045E+04  0.13915110001E+04  0.12699999809E+01 0.  1.
</event>
<event>
 5   0  0.1039688E-05  0.2505840E+04  0.7818609E-02  0.8400908E-01
       -1   -1    0    0    0  501  0.00000000000E+00  0.00000000000E+00  0.13605266028E+04  0.13605266029E+04  0.50400001928E-02 0.  1.
        1   -1    0    0  501    0  0.00000000000E+00  0.00000000000E+00 -0.11538239232E+04  0.11538239233E+04  0.50400001928E-02 0. -1.
    10030    2    1    2    0    0  0.00000000000E+00  0.00000000000E+00  0.20670267960E+03  0.25143505261E+04  0.25058396937E+04 0.  0.
        3    1    3    3  502    0 -0.15541679897E+03  0.12414074731E+04  0.17111765046E+03  0.12627462755E+04  0.10100000352E+00 0.  1.
       -3    1    3    3    0  502  0.15541679897E+03 -0.12414074731E+04  0.35585029146E+02  0.12516042506E+04  0.10100000352E+00 0. -1.
</event>
<event>
 5   0  0.1002753E-05  0.2596547E+04  0.7818609E-02  0.8369375E-01
       -1   -1    0    0    0  501  0.00000000000E+00  0.00000000000E+00  0.14630967868E+04  0.14630967868E+04  0.50400001928E-02 0.  1.
        1   -1    0    0  501    0  0.00000000000E+00  0.00000000000E+00 -0.11520186041E+04  0.11520186041E+04  0.50400001928E-02 0. -1.
    10030    2    1    2    0    0  0.00000000000E+00  0.00000000000E+00  0.31107818268E+03  0.26151153909E+04  0.25965474908E+04 0.  0.
        5    1    3    3  502    0  0.74291598357E+03  0.10124608249E+04  0.48727504143E+03  0.13470189815E+04  0.46999998093E+01 0.  1.
       -5    1    3    3    0  502 -0.74291598357E+03 -0.10124608249E+04 -0.17619685875E+03  0.12680964094E+04  0.46999998093E+01 0. -1.
</event>
<event>
 5   0  0.2432309E-05  0.2531713E+04  0.7818609E-02  0.8391774E-01
       -2   -1    0    0    0  501  0.00000000000E+00  0.00000000000E+00  0.23087146985E+04  0.23087146985E+04  0.25500000920E-02 0. -1.
        2   -1    0    0  501    0  0.00000000000E+00  0.00000000000E+00 -0.69406270103E+03  0.69406270103E+03  0.25500000920E-02 0.  1.
    10030    2    1    2    0    0  0.00000000000E+00  0.00000000000E+00  0.16146519975E+04  0.30027773995E+04  0.25317130640E+04 0.  0.
        4    1    3    3  502    0 -0.16790143545E+03  0.69318682519E+03 -0.43305821152E+03  0.83440990772E+03  0.12699999809E+01 0.  1.
       -4    1    3    3    0  502  0.16790143545E+03 -0.69318682519E+03  0.20477102090E+04  0.21683674918E+04  0.12699999809E+01 0. -1.
</event>
<event>
 5   0  0.2452457E-05  0.2438030E+04  0.7818609E-02  0.8425401E-01
        2   -1    0    0  501    0  0.00000000000E+00  0.00000000000E+00  0.13803702767E+04  0.13803702767E+04  0.25500000920E-02 0. -1.
       -2   -1    0    0    0  501  0.00000000000E+00  0.00000000000E+00 -0.10765209146E+04  0.10765209146E+04  0.25500000920E-02 0.  1.
    10030    2    1    2    0    0  0.00000000000E+00  0.00000000000E+00  0.30384936215E+03  0.24568911913E+04  0.24380299200E+04 0.  0.
        1    1    3    3  502    0 -0.36778104857E+03  0.75121910006E+03  0.10455796401E+04  0.13389659517E+04  0.50400001928E-02 0. -1.
       -1    1    3    3    0  502  0.36778104857E+03 -0.75121910006E+03 -0.74173027798E+03  0.11179252396E+04  0.50400001928E-02 0.  1.
</event>
<event>
 5   0  0.2345143E-05  0.2469405E+04  0.7818609E-02  0.8413967E-01
        2   -1    0    0  501    0  0.00000000000E+00  0.00000000000E+00  0.14835963480E+04  0.14835963480E+04  0.25500000920E-02 0.  1.
       -2   -1    0    0    0  501  0.00000000000E+00  0.00000000000E+00 -0.10275640796E+04  0.10275640796E+04  0.25500000920E-02 0. -1.
    10030    2    1    2    0    0  0.00000000000E+00  0.00000000000E+00  0.45603226843E+03  0.25111604276E+04  0.24694050424E+04 0.  0.
        5    1    3    3  502    0 -0.10063562741E+04 -0.65853602614E+03  0.51210635076E+03  0.13071716233E+04  0.46999998093E+01 0.  1.
       -5    1    3    3    0  502  0.10063562741E+04  0.65853602614E+03 -0.56074082333E+02  0.12039888043E+04  0.46999998093E+01 0. -1.
</event>
<event>
 5   0  0.2432309E-05  0.2488032E+04  0.7818609E-02  0.8407262E-01
       -2   -1    0    0    0  501  0.00000000000E+00  0.00000000000E+00  0.84247296894E+03  0.84247296895E+03  0.25500000920E-02 0. -1.
        2   -1    0    0  501    0  0.00000000000E+00  0.00000000000E+00 -0.18369445223E+04  0.18369445223E+04  0.25500000920E-02 0.  1.
    10030    2    1    2    0    0  0.00000000000E+00  0.00000000000E+00 -0.99447155335E+03  0.26794174912E+04  0.24880322389E+04 0.  0.
        4    1    3    3  502    0  0.16016751023E+02  0.10091276752E+04  0.28602020441E+03  0.10490016070E+04  0.12699999809E+01 0. -1.
       -4    1    3    3    0  502 -0.16016751023E+02 -0.10091276752E+04 -0.12804917578E+04  0.16304158843E+04  0.12699999809E+01 0.  1.
</event>
<event>
 5   0  0.2388326E-05  0.2516607E+04  0.7818609E-02  0.8397093E-01
        2   -1    0    0  501    0  0.00000000000E+00  0.00000000000E+00  0.25954059881E+04  0.25954059881E+04  0.25500000920E-02 0. -1.
       -2   -1    0    0    0  501  0.00000000000E+00  0.00000000000E+00 -0.61004993178E+03  0.61004993179E+03  0.25500000920E-02 0.  1.
    10030    2    1    2    0    0  0.00000000000E+00  0.00000000000E+00  0.19853560563E+04  0.32054559199E+04  0.25166066407E+04 0.  0.
        2    1    3    3  502    0  0.81666850589E+03 -0.79735707459E+03  0.31796443535E+03  0.11848321126E+04  0.25500000920E-02 0.  1.
       -2    1    3    3    0  502 -0.81666850589E+03  0.79735707459E+03  0.16673916210E+04  0.20206238073E+04  0.25500000920E-02 0. -1.
</event>
<event>
 5   0  0.2345143E-05  0.2484534E+04  0.7818609E-02  0.8408516E-01
       -2   -1    0    0    0  501  0.00000000000E+00  0.00000000000E+00  0.73414445347E+03  0.73414445347E+03  0.25500000920E-02 0.  1.
        2   -1    0    0  501    0  0.00000000000E+00  0.00000000000E+00 -0.21020755793E+04  0.21020755793E+04  0.25500000920E-02 0. -1.
    10030    2    1    2    0    0  0.00000000000E+00  0.00000000000E+00 -0.13679311258E+04  0.28362200328E+04  0.24845338616E+04 0.  0.
        5    1    3    3  502    0 -0.92834399414E+03  0.27499155235E+03  0.20451115810E+03  0.98959073819E+03  0.46999998093E+01 0.  1.
       -5    1    3    3    0  502  0.92834399414E+03 -0.27499155235E+03 -0.15724422839E+04  0.18466292946E+04  0.46999998093E+01 0. -1.
</event>
<event>
 5   0  0.2345143E-05  0.2463755E+04  0.7818609E-02  0.8416013E-01
        2   -1    0    0  501    0  0.00000000000E+00  0.00000000000E+00  0.14983280797E+04  0.14983280797E+04  0.25500000920E-02 0.  1.
       -2   -1    0    0    0  501  0.00000000000E+00  0.00000000000E+00 -0.10128104616E+04  0.10128104616E+04  0.25500000920E-02 0. -1.
    10030    2    1    2    0    0  0.00000000000E+00  0.00000000000E+00  0.48551761810E+03  0.25111385414E+04  0.24637551454E+04 0.  0.
        5    1    3    3  502    0 -0.54105410244E+03 -0.30822264082E+03 -0.84058457493E+03  0.10461095811E+04  0.46999998093E+01 0. -1.
       -5    1    3    3    0  502  0.54105410244E+03  0.30822264082E+03  0.13261021930E+04  0.14650289603E+04  0.46999998093E+01 0.  1.
</event>
<event>
 5   0  0.1010338E-05  0.2474162E+04  0.7818609E-02  0.8412249E-01
        1   -1    0    0  501    0  0.00000000000E+00  0.00000000000E+00  0.12948765902E+04  0.12948765902E+04  0.50400001928E-02 0.  1.
       -1   -1    0    0    0  501  0.00000000000E+00  0.00000000000E+00 -0.11818649508E+04  0.11818649508E+04  0.50400001928E-02 0. -1.
    10030    2    1    2    0    0  0.00000000000E+00  0.00000000000E+00  0.11301163937E+03  0.24767415410E+04  0.24741618844E+04 0.  0.
        2    1    3    3  502    0 -0.33767939723E+03  0.10781431501E+04 -0.44795335672E+03  0.12153527214E+04  0.25500000920E-02 0. -1.
       -2    1    3    3    0  502  0.33767939723E+03 -0.10781431501E+04  0.56096499610E+03  0.12613888197E+04  0.25500000920E-02 0.  1.
</event>
<event>
 5   0  0.1010338E-05  0.2441161E+04  0.7818609E-02  0.8424252E-01
        1   -1    0    0  501    0  0.00000000000E+00  0.00000000000E+00  0.12621221727E+04  0.12621221727E+04  0.50400001928E-02 0.  1.
       -1   -1    0    0    0  501  0.00000000000E+00  0.00000000000E+00 -0.11804058376E+04  0.11804058376E+04  0.50400001928E-02 0. -1.
    10030    2    1    2    0    0  0.00000000000E+00  0.00000000000E+00  0.81716335038E+02  0.24425280103E+04  0.24411606915E+04 0.  0.
        2    1    3    3  502    0  0.58002648945E+03 -0.66247934836E+03  0.88661664016E+03  0.12495593952E+04  0.25500000920E-02 0.  1.
       -2    1    3    3    0  502 -0.58002648945E+03  0.66247934836E+03 -0.80490030512E+03  0.11929686151E+04  0.25500000920E-02 0. -1.
</event>
<event>
 5   0  0.1010338E-05  0.2632550E+04  0.7818609E-02  0.8357228E-01
       -1   -1    0    0    0  501  0.00000000000E+00  0.00000000000E+00  0.84424534335E+03  0.84424534336E+03  0.50400001928E-02 0.  1.
        1   -1    0    0  501    0  0.00000000000E+00  0.00000000000E+00 -0.20522229148E+04  0.20522229148E+04  0.50400001928E-02 0. -1.
    10030    2    1    2    0    0  0.00000000000E+00  0.00000000000E+00 -0.12079775715E+04  0.28964682582E+04  0.26325498205E+04 0.  0.
        2    1    3    3  502    0 -0.12247748213E+04 -0.43768922102E+03 -0.82659460178E+03  0.15410723062E+04  0.25500000920E-02 0. -1.
       -2    1    3    3    0  502  0.12247748213E+04  0.43768922102E+03 -0.38138296968E+03  0.13553959520E+04  0.25500000920E-02 0.  1.
</event>
<event>
 5   0  0.1002753E-05  0.2491876E+04  0.7818609E-02  0.8405886E-01
       -1   -1    0    0    0  501  0.00000000000E+00  0.00000000000E+00  0.67728441568E+03  0.67728441570E+03  0.50400001928E-02 0. -1.
        1   -1    0    0  501    0  0.00000000000E+00  0.00000000000E+00 -0.22920371759E+04  0.22920371759E+04  0.50400001928E-02 0.  1.
    10030    2    1    2    0    0  0.00000000000E+00  0.00000000000E+00 -0.16147527602E+04  0.29693215916E+04  0.24918756465E+04 0.  0.
        5    1    3    3  502    0  0.66197546418E+03 -0.59751476131E+03 -0.18442086749E+04  0.20485026561E+04  0.46999998093E+01 0.  1.
       -5    1    3    3    0  502 -0.66197546418E+03  0.59751476131E+03  0.22945591476E+03  0.92081893550E+03  0.46999998093E+01 0. -1.
</event>
<event>
 5   0  0.2441340E-05  0.2518533E+04  0.7818609E-02  0.8396413E-01
        2   -1    0    0  501    0  0.00000000000E+00  0.00000000000E+00  0.11635094340E+04  0.11635094340E+04  0.25500000920E-02 0.  1.
       -2   -1    0    0    0  501  0.00000000000E+00  0.00000000000E+00 -0.13629047253E+04  0.13629047253E+04  0.25500000920E-02 0. -1.
    10030    2    1    2    0    0  0.00000000000E+00  0.00000000000E+00 -0.19939529133E+03  0.25264141593E+04  0.25185333077E+04 0.  0.
        3    1    3    3  502    0 -0.81418477895E+03  0.48098226814E+03  0.73447628590E+03  0.11973705447E+04  0.10100000352E+00 0.  1.
       -3    1    3    3    0  502  0.81418477895E+03 -0.48098226814E+03 -0.93387157722E+03  0.13290436146E+04  0.10100000352E+00 0. -1.
</event>
<event>
 5   0  0.1039688E-05  0.2475449E+04  0.7818609E-02  0.8411784E-01
       -1   -1    0    0    0  501  0.00000000000E+00  0.00000000000E+00  0.11836335082E+04  0.11836335082E+04  0.50400001928E-02 0. -1.
        1   -1    0    0  501    0  0.00000000000E+00  0.00000000000E+00 -0.12942875085E+04  0.12942875085E+04  0.50400001928E-02 0.  1.
    10030    2    1    2    0    0  0.00000000000E+00  0.00000000000E+00 -0.11065400028E+03  0.24779210167E+04  0.24754491021E+04 0.  0.
        3    1    3    3  502    0  0.76569917986E+03  0.34304060906E+03 -0.96617517720E+03  0.12796353296E+04  0.10100000352E+00 0.  1.
       -3    1    3    3    0  502 -0.76569917986E+03 -0.34304060906E+03  0.85552117692E+03  0.11982856871E+04  0.10100000352E+00 0. -1.
</event>
<event>
 5   0  0.1010338E-05  0.2480990E+04  0.7818609E-02  0.8409789E-01
        1   -1    0    0  501    0  0.00000000000E+00  0.00000000000E+00  0.18263491358E+04  0.18263491358E+04  0.50400001928E-02 0.  1.
       -1   -1    0    0    0  501  0.00000000000E+00  0.00000000000E+00 -0.84257077746E+03  0.84257077748E+03  0.50400001928E-02 0. -1.
    10030    2    1    2    0    0  0.00000000000E+00  0.00000000000E+00  0.98377835832E+03  0.26689199133E+04  0.24809904565E+04 0.  0.
        2    1    3    3  502    0  0.62970501670E+03  0.39084589161E+03  0.15619957088E+04  0.17289070285E+04  0.25500000920E-02 0.  1.
       -2    1    3    3    0  502 -0.62970501670E+03 -0.39084589161E+03 -0.57821735048E+03  0.94001288472E+03  0.25500000920E-02 0. -1.
</event>
<event>
 5   0  0.1002753E-05  0.2499899E+04  0.7818609E-02  0.8403022E-01
       -1   -1    0    0    0  501  0.00000000000E+00  0.00000000000E+00  0.10869471919E+04  0.10869471919E+04  0.50400001928E-02 0. -1.
        1   -1    0    0  501    0  0.00000000000E+00  0.00000000000E+00 -0.14373958515E+04  0.14373958515E+04  0.50400001928E-02 0.  1.
    10030    2    1    2    0    0  0.00000000000E+00  0.00000000000E+00 -0.35044865962E+03  0.25243430433E+04  0.24998987054E+04 0.  0.
        5    1    3    3  502    0  0.96615523582E+03  0.76027337829E+03  0.52546667698E+02  0.12305506051E+04  0.46999998093E+01 0.  1.
       -5    1    3    3    0  502 -0.96615523582E+03 -0.76027337829E+03 -0.40299532731E+03  0.12937924382E+04  0.46999998093E+01 0. -1.
</event>
<event>
 5   0  0.2388326E-05  0.2436807E+04  0.7818609E-02  0.8425851E-01
        2   -1    0    0  501    0  0.00000000000E+00  0.00000000000E+00  0.17294746988E+04  0.17294746988E+04  0.25500000920E-02 0. -1.
       -2   -1    0    0    0  501  0.00000000000E+00  0.00000000000E+00 -0.85835727007E+03  0.85835727007E+03  0.25500000920E-02 0.  1.
    10030    2    1    2    0    0  0.00000000000E+00  0.00000000000E+00  0.87111742878E+03  0.25878319689E+04  0.24368070758E+04 0.  0.
        2    1    3    3  502    0 -0.75651935595E+03  0.65842233808E+03  0.11702942871E+04  0.15412430793E+04  0.25500000920E-02 0. -1.
       -2    1    3    3    0  502  0.75651935595E+03 -0.65842233808E+03 -0.29917685832E+03  0.10465888896E+04  0.25500000920E-02 0.  1.
</event>
<event>
 5   0  0.2432309E-05  0.2483882E+04  0.7818609E-02  0.8408750E-01
        2   -1    0    0  501    0  0.00000000000E+00  0.00000000000E+00  0.71133307478E+03  0.71133307478E+03  0.25500000920E-02 0.  1.
       -2   -1    0    0    0  501  0.00000000000E+00  0.00000000000E+00 -0.21683473713E+04  0.21683473713E+04  0.25500000920E-02 0. -1.
    10030    2    1    2    0    0  0.00000000000E+00  0.00000000000E+00 -0.14570142965E+04  0.28796804461E+04  0.24838818030E+04 0.  0.
        4    1    3    3  502    0 -0.71448695851E+03 -0.97610500876E+03 -0.10546588079E+04  0.16048611828E+04  0.12699999809E+01 0. -1.
       -4    1    3    3    0  502  0.71448695851E+03  0.97610500876E+03 -0.40235548863E+03  0.12748192633E+04  0.12699999809E+01 0.  1.
</event>
<event>
 5   0  0.1039688E-05  0.2458843E+04  0.7818609E-02  0.8417796E-01
       -1   -1    0    0    0  501  0.00000000000E+00  0.00000000000E+00  0.95794286254E+03  0.95794286255E+03  0.50400001928E-02 0.  1.
        1   -1    0    0  501    0  0.00000000000E+00  0.00000000000E+00 -0.15778368760E+04  0.15778368760E+04  0.50400001928E-02 0. -1.
    10030    2    1    2    0    0  0.00000000000E+00  0.00000000000E+00 -0.61989401347E+03  0.25357797386E+04  0.24588432839E+04 0.  0.
        3    1    3    3  502    0  0.43411110731E+03 -0.77081401993E+03 -0.11903995873E+04  0.14831243692E+04  0.10100000352E+00 0. -1.
       -3    1    3    3    0  502 -0.43411110731E+03  0.77081401993E+03  0.57050557380E+03  0.10526553694E+04  0.10100000352E+00 0.  1.
</event>
<event>
 5   0  0.2388326E-05  0.2497987E+04  0.7818609E-02  0.8403703E-01
        2   -1    0    0  501    0  0.00000000000E+00  0.00000000000E+00  0.12197907241E+04  0.12197907241E+04  0.25500000920E-02 0. -1.
       -2   -1    0    0    0  501  0.00000000000E+00  0.00000000000E+00 -0.12788958819E+04  0.12788958819E+04  0.25500000920E-02 0.  1.
    10030    2    1    2    0    0  0.00000000000E+00  0.00000000000E+00 -0.59105157795E+02  0.24986866059E+04  0.24979874569E+04 0.  0.
        2    1    3    3  502    0 -0.12227461507E+04 -0.23016044398E+03 -0.13868561133E+03  0.12519247892E+04  0.25500000920E-02 0.  1.
       -2    1    3    3    0  502  0.12227461507E+04  0.23016044398E+03  0.79580453535E+02  0.12467618167E+04  0.25500000920E-02 0. -1.
</event>
<event>
 5   0  0.1002753E-05  0.2499166E+04  0.7818609E-02  0.8403283E-01
        1   -1    0    0  501    0  0.00000000000E+00  0.00000000000E+00  0.14353460859E+04  0.14353460859E+04  0.50400001928E-02 0. -1.
       -1   -1    0    0    0  501  0.00000000000E+00  0.00000000000E+00 -0.10878614492E+04  0.10878614492E+04  0.50400001928E-02 0.  1.
    10030    2    1    2    0    0  0.00000000000E+00  0.00000000000E+00  0.34748463670E+03  0.25232075351E+04  0.24991659994E+04 0.  0.
        5    1    3    3  502    0  0.25991247663E+03  0.93508462397E+03 -0.62091111691E+03  0.11521677198E+04  0.46999998093E+01 0.  1.
       -5    1    3    3    0  502 -0.25991247663E+03 -0.93508462397E+03  0.96839575360E+03  0.13710398153E+04  0.46999998093E+01 0. -1.
</event>
<event>
 5   0  0.1008073E-05  0.2483343E+04  0.7818609E-02  0.8408944E-01
        1   -1    0    0  501    0  0.00000000000E+00  0.00000000000E+00  0.13295508136E+04  0.13295508136E+04  0.50400001928E-02 0. -1.
       -1   -1    0    0    0  501  0.00000000000E+00  0.00000000000E+00 -0.11596002795E+04  0.11596002795E+04  0.50400001928E-02 0.  1.
    10030    2    1    2    0    0  0.00000000000E+00  0.00000000000E+00  0.16995053408E+03  0.24891510931E+04  0.24833425016E+04 0.  0.
        1    1    3    3  502    0 -0.10906849207E+04 -0.57471116298E+03 -0.63225151426E+02  0.12344569401E+04  0.50400001928E-02 0.  1.
       -1    1    3    3    0  502  0.10906849207E+04  0.57471116298E+03  0.23317568551E+03  0.12546941530E+04  0.50400001928E-02 0. -1.
</event>
<event>
 5   0  0.1010338E-05  0.2520066E+04  0.7818609E-02  0.8395872E-01
        1   -1    0    0  501    0  0.00000000000E+00  0.00000000000E+00  0.15889074775E+04  0.15889074775E+04  0.50400001928E-02 0.  1.
       -1   -1    0    0    0  501  0.00000000000E+00  0.00000000000E+00 -0.99922945863E+03  0.99922945864E+03  0.50400001928E-02 0. -1.
    10030    2    1    2    0    0  0.00000000000E+00  0.00000000000E+00  0.58967801886E+03  0.25881369361E+04  0.25200659980E+04 0.  0.
        2    1    3    3  502    0 -0.52063895065E+03 -0.24209282308E+03 -0.85706758117E+03  0.10316194505E+04  0.25500000920E-02 0. -1.
       -2    1    3    3    0  502  0.52063895065E+03  0.24209282308E+03  0.14467456000E+04  0.15565174856E+04  0.25500000920E-02 0.  1.
</event>
<event>
 5   0  0.1002753E-05  0.2438369E+04  0.7818609E-02  0.8425277E-01
       -1   -1    0    0    0  501  0.00000000000E+00  0.00000000000E+00  0.16107184539E+04  0.16107184539E+04  0.50400001928E-02 0.  1.
        1   -1    0    0  501    0  0.00000000000E+00  0.00000000000E+00 -0.92282470799E+03  0.92282470800E+03  0.50400001928E-02 0. -1.
    10030    2    1    2    0    0  0.00000000000E+00  0.00000000000E+00  0.68789374590E+03  0.25335431619E+04  0.24383689523E+04 0.  0.
        5    1    3    3  502    0  0.96941328774E+03 -0.70093550295E+03  0.99573292198E+02  0.12004206064E+04  0.46999998093E+01 0.  1.
       -5    1    3    3    0  502 -0.96941328774E+03  0.70093550295E+03  0.58832045370E+03  0.13331225555E+04  0.46999998093E+01 0. -1.
</event>
<event>
 5   0  0.1008073E-05  0.2501128E+04  0.7818609E-02  0.8402584E-01
       -1   -1    0    0    0  501  0.00000000000E+00  0.00000000000E+00  0.12172490388E+04  0.12172490388E+04  0.50400001928E-02 0.  1.
        1   -1    0    0  501    0  0.00000000000E+00  0.00000000000E+00 -0.12847911853E+04  0.12847911853E+04  0.50400001928E-02 0. -1.
    10030    2    1    2    0    0  0.00000000000E+00  0.00000000000E+00 -0.67542146501E+02  0.25020402242E+04  0.25011284137E+04 0.  0.
        1    1    3    3  502    0  0.12282424189E+04 -0.37684478052E+02  0.19850159152E+03  0.12447499514E+04  0.50400001928E-02 0.  1.
       -1    1    3    3    0  502 -0.12282424189E+04  0.37684478052E+02 -0.26604373802E+03  0.12572902728E+04  0.50400001928E-02 0. -1.
</event>
<event>
 5   0  0.2441340E-05  0.2429194E+04  0.7818609E-02  0.8428654E-01
       -2   -1    0    0    0  501  0.00000000000E+00  0.00000000000E+00  0.55188049183E+03  0.55188049183E+03  0.25500000920E-02 0.  1.
        2   -1    0    0  501    0  0.00000000000E+00  0.00000000000E+00 -0.26731247830E+04  0.26731247830E+04  0.25500000920E-02 0. -1.
    10030    2    1    2    0    0  0.00000000000E+00  0.00000000000E+00 -0.21212442912E+04  0.32250052749E+04  0.24291936275E+04 0.  0.
        3    1    3    3  502    0  0.11739721440E+04 -0.25837752574E+03 -0.12916246058E+04  0.17644442959E+04  0.10100000352E+00 0. -1.
       -3    1    3    3    0  502 -0.11739721440E+04  0.25837752574E+03 -0.82961968537E+03  0.14605609790E+04  0.10100000352E+00 0.  1.
</event>
<event>
 5   0  0.2441340E-05  0.2507160E+04  0.7818609E-02  0.8400439E-01
       -2   -1    0    0    0  501  0.00000000000E+00  0.00000000000E+00  0.10073667072E+04  0.10073667072E+04  0.25500000920E-02 0. -1.
        2   -1    0    0  501    0  0.00000000000E+00  0.00000000000E+00 -0.15599704728E+04  0.15599704728E+04  0.25500000920E-02 0.  1.
    10030    2    1    2    0    0  0.00000000000E+00  0.00000000000E+00 -0.55260376554E+03  0.25673371800E+04  0.25071596029E+04 0.  0.
        3    1    3    3  502    0 -0.23297664454E+03 -0.59713092664E+03  0.82687648781E+03  0.10462161329E+04  0.10100000352E+00 0. -1.
       -3    1    3    3    0  502  0.23297664454E+03  0.59713092664E+03 -0.13794802533E+04  0.15211210471E+04  0.10100000352E+00 0.  1.
</event>
<event>
 5   0  0.1002753E-05  0.2424021E+04  0.7818609E-02  0.8430565E-01
        1   -1    0    0  501    0  0.00000000000E+00  0.00000000000E+00  0.11894055982E+04  0.11894055982E+04  0.50400001928E-02 0.  1.
       -1   -1    0    0    0  501  0.00000000000E+00  0.00000000000E+00 -0.12350452347E+04  0.12350452347E+04  0.50400001928E-02 0. -1.
    10030    2    1    2    0    0  0.00000000000E+00  0.00000000000E+00 -0.45639636482E+02  0.24244508329E+04  0.24240212178E+04 0.  0.
        5    1    3    3  502    0  0.49205352543E+03  0.94781043479E+03 -0.59605866993E+03  0.12230164840E+04  0.46999998093E+01 0.  1.
       -5    1    3    3    0  502 -0.49205352543E+03 -0.94781043479E+03  0.55041903345E+03  0.12014343488E+04  0.46999998093E+01 0. -1.
</event>
<event>
 5   0  0.1039688E-05  0.2417279E+04  0.7818609E-02  0.8433063E-01
       -1   -1    0    0    0  501  0.00000000000E+00  0.00000000000E+00  0.81317734717E+03  0.81317734718E+03  0.50400001928E-02 0. -1.
        1   -1    0    0  501    0  0.00000000000E+00  0.00000000000E+00 -0.17964218869E+04  0.17964218869E+04  0.50400001928E-02 0.  1.
    10030    2    1    2    0    0  0.00000000000E+00  0.00000000000E+00 -0.98324453972E+03  0.26095992341E+04  0.24172791187E+04 0.  0.
        3    1    3    3  502    0 -0.59534814541E+03  0.97122210118E+03 -0.55637765351E+02  0.11405294188E+04  0.10100000352E+00 0. -1.
       -3    1    3    3    0  502  0.59534814541E+03 -0.97122210118E+03 -0.92760677437E+03  0.14690698153E+04  0.10100000352E+00 0.  1.
</event>
<event>
 5   0  0.1039688E-05  0.2202008E+04  0.7818609E-02  0.8517593E-01
        1   -1    0    0  501    0  0.00000000000E+00  0.00000000000E+00  0.90349846586E+03  0.90349846588E+03  0.50400001928E-02 0.  1.
       -1   -1    0    0    0  501  0.00000000000E+00  0.00000000000E+00 -0.13416841573E+04  0.13416841573E+04  0.50400001928E-02 0. -1.
    10030    2    1    2    0    0  0.00000000000E+00  0.00000000000E+00 -0.43818569140E+03  0.22451826232E+04  0.22020077909E+04 0.  0.
        3    1    3    3  502    0 -0.10517424033E+04 -0.10448390559E+03  0.95387084860E+02  0.10612151881E+04  0.10100000352E+00 0. -1.
       -3    1    3    3    0  502  0.10517424033E+04  0.10448390559E+03 -0.53357277626E+03  0.11839674350E+04  0.10100000352E+00 0.  1.
</event>
<event>
 5   0  0.2388326E-05  0.2676497E+04  0.7818609E-02  0.8342671E-01
        2   -1    0    0  501    0  0.00000000000E+00  0.00000000000E+00  0.22738703177E+04  0.22738703177E+04  0.25500000920E-02 0.  1.
       -2   -1    0    0    0  501  0.00000000000E+00  0.00000000000E+00 -0.78760392859E+03  0.78760392859E+03  0.25500000920E-02 0. -1.
    10030    2    1    2    0    0  0.00000000000E+00  0.00000000000E+00  0.14862663891E+04  0.30614742463E+04  0.26764971103E+04 0.  0.
        2    1    3    3  502    0 -0.11671571570E+04  0.21794070265E+03  0.14493121407E+04  0.18735686964E+04  0.25500000920E-02 0.  1.
       -2    1    3    3    0  502  0.11671571570E+04 -0.21794070265E+03  0.36954248466E+02  0.11879055499E+04  0.25500000920E-02 0. -1.
</event>
<event>
 5   0  0.2388326E-05  0.2513599E+04  0.7818609E-02  0.8398157E-01
        2   -1    0    0  501    0  0.00000000000E+00  0.00000000000E+00  0.10113530042E+04  0.10113530042E+04  0.25500000920E-02 0. -1.
       -2   -1    0    0    0  501  0.00000000000E+00  0.00000000000E+00 -0.15618139838E+04  0.15618139838E+04  0.25500000920E-02 0.  1.
    10030    2    1    2    0    0  0.00000000000E+00  0.00000000000E+00 -0.55046097965E+03  0.25731669880E+04  0.25135992239E+04 0.  0.
        2    1    3    3  502    0 -0.21955901204E+03 -0.49888885944E+03  0.88405924653E+03  0.10385841349E+04  0.25500000920E-02 0. -1.
       -2    1    3    3    0  502  0.21955901204E+03  0.49888885944E+03 -0.14345202262E+04  0.15345828531E+04  0.25500000920E-02 0.  1.
</event>
<event>
 5   0  0.1015327E-05  0.2518891E+04  0.7818609E-02  0.8396286E-01
       -1   -1    0    0    0  501  0.00000000000E+00  0.00000000000E+00  0.10887337568E+04  0.10887337568E+04  0.50400001928E-02 0. -1.
        1   -1    0    0  501    0  0.00000000000E+00  0.00000000000E+00 -0.14569249019E+04  0.14569249019E+04  0.50400001928E-02 0.  1.
    10030    2    1    2    0    0  0.00000000000E+00  0.00000000000E+00 -0.36819114517E+03  0.25456586587E+04  0.25188912814E+04 0.  0.
        4    1    3    3  502    0 -0.10317389571E+04 -0.25660579408E+03  0.49826072692E+03  0.11741367782E+04  0.12699999809E+01 0. -1.
       -4    1    3    3    0  502  0.10317389571E+04  0.25660579408E+03 -0.86645187209E+03  0.13715218805E+04  0.12699999809E+01 0.  1.
</event>
<event>
 5   0  0.2452457E-05  0.2340190E+04  0.7818609E-02  0.8462241E-01
       -2   -1    0    0    0  501  0.00000000000E+00  0.00000000000E+00  0.11502977885E+04  0.11502977885E+04  0.25500000920E-02 0. -1.
        2   -1    0    0  501    0  0.00000000000E+00  0.00000000000E+00 -0.11902326010E+04  0.11902326010E+04  0.25500000920E-02 0.  1.
    10030    2    1    2    0    0  0.00000000000E+00  0.00000000000E+00 -0.39934812454E+02  0.23405303895E+04  0.23401896750E+04 0.  0.
        1    1    3    3  502    0 -0.32648535374E+03 -0.35236920482E+03 -0.10870647239E+04  0.11884723206E+04  0.50400001928E-02 0.  1.
       -1    1    3    3    0  502  0.32648535374E+03  0.35236920482E+03  0.10471299115E+04  0.11520580689E+04  0.50400001928E-02 0. -1.
</event>
<event>
 5   0  0.2345143E-05  0.2461230E+04  0.7818609E-02  0.8416929E-01
       -2   -1    0    0    0  501  0.00000000000E+00  0.00000000000E+00  0.75934159898E+03  0.75934159898E+03  0.25500000920E-02 0. -1.
        2   -1    0    0  501    0  0.00000000000E+00  0.00000000000E+00 -0.19943773409E+04  0.19943773409E+04  0.25500000920E-02 0.  1.
    10030    2    1    2    0    0  0.00000000000E+00  0.00000000000E+00 -0.12350357419E+04  0.27537189398E+04  0.24612303257E+04 0.  0.
        5    1    3    3  502    0 -0.74408576517E+03  0.93824894230E+03 -0.93479661531E+03  0.15191581569E+04  0.46999998093E+01 0.  1.
       -5    1    3    3    0  502  0.74408576517E+03 -0.93824894230E+03 -0.30023912656E+03  0.12345607829E+04  0.46999998093E+01 0. -1.
</event>
<event>
 5   0  0.2345143E-05  0.2562377E+04  0.7818609E-02  0.8381094E-01
       -2   -1    0    0    0  501  0.00000000000E+00  0.00000000000E+00  0.12748793613E+04  0.12748793613E+04  0.25500000920E-02 0.  1.
        2   -1    0    0  501    0  0.00000000000E+00  0.00000000000E+00 -0.12875283743E+04  0.12875283743E+04  0.25500000920E-02 0. -1.
    10030    2    1    2    0    0  0.00000000000E+00  0.00000000000E+00 -0.12649013040E+02  0.25624077356E+04  0.25623765152E+04 0.  0.
        5    1    3    3  502    0  0.12574442599E+03  0.10182853356E+04 -0.77360471731E+03  0.12849914529E+04  0.46999998093E+01 0. -1.
       -5    1    3    3    0  502 -0.12574442599E+03 -0.10182853356E+04  0.76095570427E+03  0.12774162827E+04  0.46999998093E+01 0.  1.
</event>
<event>
 5   0  0.2388326E-05  0.2617197E+04  0.7818609E-02  0.8362383E-01
       -2   -1    0    0    0  501  0.00000000000E+00  0.00000000000E+00  0.97002121663E+03  0.97002121664E+03  0.25500000920E-02 0. -1.
        2   -1    0    0  501    0  0.00000000000E+00  0.00000000000E+00 -0.17653528392E+04  0.17653528392E+04  0.25500000920E-02 0.  1.
    10030    2    1    2    0    0  0.00000000000E+00  0.00000000000E+00 -0.79533162260E+03  0.27353740559E+04  0.26171967514E+04 0.  0.
        2    1    3    3  502    0  0.80669671983E+03  0.73931879181E+03  0.35243007169E+03  0.11495907224E+04  0.25500000920E-02 0. -1.
       -2    1    3    3    0  502 -0.80669671983E+03 -0.73931879181E+03 -0.11477616943E+04  0.15857833334E+04  0.25500000920E-02 0.  1.
</event>
<event>
 5   0  0.8166500E-06  0.2488007E+04  0.7818609E-02  0.8407271E-01
        3   -1    0    0  501    0  0.00000000000E+00  0.00000000000E+00  0.23614542978E+04  0.23614543000E+04  0.10100000352E+00 0. -1.
       -3   -1    0    0    0  501  0.00000000000E+00  0.00000000000E+00 -0.65533547640E+03  0.65533548418E+03  0.10100000352E+00 0.  1.
    10030    2    1    2    0    0  0.00000000000E+00  0.00000000000E+00  0.17061188214E+04  0.30167897841E+04  0.24880070677E+04 0.  0.
        4    1    3    3  502    0  0.11771553834E+04 -0.25292784886E+03  0.12324017272E+04  0.17229285892E+04  0.12699999809E+01 0. -1.
       -4    1    3    3    0  502 -0.11771553834E+04  0.25292784886E+03  0.47371709424E+03  0.12938611949E+04  0.12699999809E+01 0.  1.
</event>
<event>
 5   0  0.2441340E-05  0.2480038E+04  0.7818609E-02  0.8410132E-01
       -2   -1    0    0    0  501  0.00000000000E+00  0.00000000000E+00  0.12656402371E+04  0.12656402371E+04  0.25500000920E-02 0.  1.
        2   -1    0    0  501    0  0.00000000000E+00  0.00000000000E+00 -0.12149165900E+04  0.12149165900E+04  0.25500000920E-02 0. -1.
    10030    2    1    2    0    0  0.00000000000E+00  0.00000000000E+00  0.50723647087E+02  0.24805568271E+04  0.24800381619E+04 0.  0.
        3    1    3    3  502    0 -0.13719776970E+03  0.11892796502E+04 -0.29787444387E+03  0.12336687193E+04  0.10100000352E+00 0. -1.
       -3    1    3    3    0  502  0.13719776970E+03 -0.11892796502E+04  0.34859809095E+03  0.12468881079E+04  0.10100000352E+00 0.  1.
</event>
<event>
 5   0  0.1039688E-05  0.2451381E+04  0.7818609E-02  0.8420514E-01
        1   -1    0    0  501    0  0.00000000000E+00  0.00000000000E+00  0.11844837456E+04  0.11844837457E+04  0.50400001928E-02 0. -1.
       -1   -1    0    0    0  501  0.00000000000E+00  0.00000000000E+00 -0.12683303781E+04  0.12683303781E+04  0.50400001928E-02 0.  1.
    10030    2    1    2    0    0  0.00000000000E+00  0.00000000000E+00 -0.83846632449E+02  0.24528141238E+04  0.24513806045E+04 0.  0.
        3    1    3    3  502    0  0.10899359367E+04 -0.49949935168E+03  0.21289551047E+03  0.12176963731E+04  0.10100000352E+00 0.  1.
       -3    1    3    3    0  502 -0.10899359367E+04  0.49949935168E+03 -0.29674214292E+03  0.12351177507E+04  0.10100000352E+00 0. -1.
</event>
<event>
 5   0  0.2432309E-05  0.2543996E+04  0.7818609E-02  0.8387477E-01
       -2   -1    0    0    0  501  0.00000000000E+00  0.00000000000E+00  0.98855205724E+03  0.98855205724E+03  0.25500000920E-02 0.  1.
        2   -1    0    0  501    0  0.00000000000E+00  0.00000000000E+00 -0.16367165330E+04  0.16367165330E+04  0.25500000920E-02 0. -1.
    10030    2    1    2    0    0  0.00000000000E+00  0.00000000000E+00 -0.64816447575E+03  0.26252685902E+04  0.25439964590E+04 0.  0.
        4    1    3    3  502    0 -0.18969714138E+03 -0.43292487873E+03  0.89456282161E+03  0.10117574862E+04  0.12699999809E+01 0.  1.
       -4    1    3    3    0  502  0.18969714138E+03  0.43292487873E+03 -0.15427272974E+04  0.16135111041E+04  0.12699999809E+01 0. -1.
</event>
<event>
 5   0  0.1010338E-05  0.2520288E+04  0.7818609E-02  0.8395793E-01
        1   -1    0    0  501    0  0.00000000000E+00  0.00000000000E+00  0.15162364689E+04  0.15162364689E+04  0.50400001928E-02 0. -1.
       -1   -1    0    0    0  501  0.00000000000E+00  0.00000000000E+00 -0.10473058052E+04  0.10473058052E+04  0.50400001928E-02 0.  1.
    10030    2    1    2    0    0  0.00000000000E+00  0.00000000000E+00  0.46893066369E+03  0.25635422742E+04  0.25202882819E+04 0.  0.
        2    1    3    3  502    0 -0.61578692849E+03  0.15297832225E+03  0.13418965025E+04  0.14843456915E+04  0.25500000920E-02 0. -1.
       -2    1    3    3    0  502  0.61578692849E+03 -0.15297832225E+03 -0.87296583881E+03  0.10791965827E+04  0.25500000920E-02 0.  1.
</event>
<event>
 5   0  0.1008073E-05  0.2533540E+04  0.7818609E-02  0.8391133E-01
       -1   -1    0    0    0  501  0.00000000000E+00  0.00000000000E+00  0.12104111024E+04  0.12104111024E+04  0.50400001928E-02 0. -1.
        1   -1    0    0  501    0  0.00000000000E+00  0.00000000000E+00 -0.13257535718E+04  0.13257535718E+04  0.50400001928E-02 0.  1.
    10030    2    1    2    0    0  0.00000000000E+00  0.00000000000E+00 -0.11534246941E+03  0.25361646742E+04  0.25335404811E+04 0.  0.
        1    1    3    3  502    0  0.58961750994E+03 -0.34332665025E+03  0.10107603072E+04  0.12194910395E+04  0.50400001928E-02 0. -1.
       -1    1    3    3    0  502 -0.58961750994E+03  0.34332665025E+03 -0.11261027766E+04  0.13166736347E+04  0.50400001928E-02 0.  1.
</event>
<event>
 5   0  0.2345143E-05  0.2480564E+04  0.7818609E-02  0.8409943E-01
       -2   -1    0    0    0  501  0.00000000000E+00  0.00000000000E+00  0.93087621202E+03  0.93087621202E+03  0.25500000920E-02 0. -1.
        2   -1    0    0  501    0  0.00000000000E+00  0.00000000000E+00 -0.16525280397E+04  0.16525280397E+04  0.25500000920E-02 0.  1.
    10030    2    1    2    0    0  0.00000000000E+00  0.00000000000E+00 -0.72165182769E+03  0.25834042517E+04  0.24805636794E+04 0.  0.
        5    1    3    3  502    0  0.36164855550E+03  0.38075171769E+03  0.80937472895E+03  0.96481660956E+03  0.46999998093E+01 0. -1.
       -5    1    3    3    0  502 -0.36164855550E+03 -0.38075171769E+03 -0.15310265566E+04  0.16185876422E+04  0.46999998093E+01 0.  1.
</event>
<event>
 5   0  0.1002753E-05  0.2497514E+04  0.7818609E-02  0.8403872E-01
       -1   -1    0    0    0  501  0.00000000000E+00  0.00000000000E+00  0.15572267288E+04  0.15572267288E+04  0.50400001928E-02 0. -1.
        1   -1    0    0  501    0  0.00000000000E+00  0.00000000000E+00 -0.10013918108E+04  0.10013918108E+04  0.50400001928E-02 0.  1.
    10030    2    1    2    0    0  0.00000000000E+00  0.00000000000E+00  0.55583491797E+03  0.25586185396E+04  0.24975140390E+04 0.  0.
        5    1    3    3  502    0  0.87167578524E+02 -0.76213996564E+03 -0.73154121192E+03  0.10600142210E+04  0.46999998093E+01 0.  1.
       -5    1    3    3    0  502 -0.87167578524E+02  0.76213996564E+03  0.12873761299E+04  0.14986043186E+04  0.46999998093E+01 0. -1.
</event>
<event>
 5   0  0.2441340E-05  0.2372074E+04  0.7818609E-02  0.8450033E-01
        2   -1    0    0  501    0  0.00000000000E+00  0.00000000000E+00  0.17476607213E+04  0.17476607213E+04  0.25500000920E-02 0. -1.
       -2   -1    0    0    0  501  0.00000000000E+00  0.00000000000E+00 -0.80489509971E+03  0.80489509972E+03  0.25500000920E-02 0.  1.
    10030    2    1    2    0    0  0.00000000000E+00  0.00000000000E+00  0.94276562155E+03  0.25525558210E+04  0.23720738188E+04 0.  0.
        3    1    3    3  502    0  0.22373947781E+03  0.11395110877E+04  0.73084828975E+03  0.13721093636E+04  0.10100000352E+00 0.  1.
       -3    1    3    3    0  502 -0.22373947781E+03 -0.11395110877E+04  0.21191733180E+03  0.11804464573E+04  0.10100000352E+00 0. -1.
</event>
<event>
 5   0  0.2452457E-05  0.2483073E+04  0.7818609E-02  0.8409041E-01
        2   -1    0    0  501    0  0.00000000000E+00  0.00000000000E+00  0.20599371591E+04  0.20599371591E+04  0.25500000920E-02 0. -1.
       -2   -1    0    0    0  501  0.00000000000E+00  0.00000000000E+00 -0.74828139035E+03  0.74828139035E+03  0.25500000920E-02 0.  1.
    10030    2    1    2    0    0  0.00000000000E+00  0.00000000000E+00  0.13116557688E+04  0.28082185495E+04  0.24830728072E+04 0.  0.
        1    1    3    3  502    0 -0.86660413473E+03  0.71205180068E+03  0.53774008596E+02  0.11229034407E+04  0.50400001928E-02 0.  1.
       -1    1    3    3    0  502  0.86660413473E+03 -0.71205180068E+03  0.12578817602E+04  0.16853151088E+04  0.50400001928E-02 0. -1.
</event>
<event>
 5   0  0.1010338E-05  0.2477101E+04  0.7818609E-02  0.8411189E-01
       -1   -1    0    0    0  501  0.00000000000E+00  0.00000000000E+00  0.70789248589E+03  0.70789248591E+03  0.50400001928E-02 0. -1.
        1   -1    0    0  501    0  0.00000000000E+00  0.00000000000E+00 -0.21670062669E+04  0.21670062669E+04  0.50400001928E-02 0.  1.
    10030    2    1    2    0    0  0.00000000000E+00  0.00000000000E+00 -0.14591137810E+04  0.28748987528E+04  0.24771010906E+04 0.  0.
        2    1    3    3  502    0 -0.75508753186E+03  0.47033483527E+03 -0.17297103744E+04  0.19450629854E+04  0.25500000920E-02 0.  1.
       -2    1    3    3    0  502  0.75508753186E+03 -0.47033483527E+03  0.27059659333E+03  0.92983576742E+03  0.25500000920E-02 0. -1.
</event>
<event>
 5   0  0.1010338E-05  0.2480709E+04  0.7818609E-02  0.8409890E-01
       -1   -1    0    0    0  501  0.00000000000E+00  0.00000000000E+00  0.84237716386E+03  0.84237716388E+03  0.50400001928E-02 0. -1.
        1   -1    0    0  501    0  0.00000000000E+00  0.00000000000E+00 -0.18263551841E+04  0.18263551841E+04  0.50400001928E-02 0.  1.
    10030    2    1    2    0    0  0.00000000000E+00  0.00000000000E+00 -0.98397802020E+03  0.26687323479E+04  0.24807094954E+04 0.  0.
        2    1    3    3  502    0 -0.10946057457E+03 -0.34518152664E+03  0.78424366733E+03  0.86381134137E+03  0.25500000920E-02 0. -1.
       -2    1    3    3    0  502  0.10946057457E+03  0.34518152664E+03 -0.17682216875E+04  0.18049210066E+04  0.25500000920E-02 0.  1.
</event>
<event>
 5   0  0.2441340E-05  0.2157639E+04  0.7818609E-02  0.8536270E-01
        2   -1    0    0  501    0  0.00000000000E+00  0.00000000000E+00  0.22242450778E+04  0.22242450778E+04  0.25500000920E-02 0.  1.
       -2   -1    0    0    0  501  0.00000000000E+00  0.00000000000E+00 -0.52325677785E+03  0.52325677786E+03  0.25500000920E-02 0. -1.
    10030    2    1    2    0    0  0.00000000000E+00  0.00000000000E+00  0.17009882999E+04  0.27475018556E+04  0.21576388137E+04 0.  0.
        3    1    3    3  502    0  0.40964575528E+03  0.66503075360E+03 -0.97108392000E+02  0.78708677924E+03  0.10100000352E+00 0. -1.
       -3    1    3    3    0  502 -0.40964575528E+03 -0.66503075360E+03  0.17980966919E+04  0.19604150764E+04  0.10100000352E+00 0.  1.
</event>
<event>
 5   0  0.2345143E-05  0.2476240E+04  0.7818609E-02  0.8411499E-01
        2   -1    0    0  501    0  0.00000000000E+00  0.00000000000E+00  0.16586983372E+04  0.16586983372E+04  0.25500000920E-02 0.  1.
       -2   -1    0    0    0  501  0.00000000000E+00  0.00000000000E+00 -0.92418301855E+03  0.92418301855E+03  0.25500000920E-02 0. -1.
    10030    2    1    2    0    0  0.00000000000E+00  0.00000000000E+00  0.73451531864E+03  0.25828813557E+04  0.24762397591E+04 0.  0.
        5    1    3    3  502    0  0.63253376788E+03  0.15742035937E+03  0.14652244679E+04  0.16036785739E+04  0.46999998093E+01 0.  1.
       -5    1    3    3    0  502 -0.63253376788E+03 -0.15742035937E+03 -0.73070914930E+03  0.97920278181E+03  0.46999998093E+01 0. -1.
</event>
<event>
 5   0  0.1015327E-05  0.2502507E+04  0.7818609E-02  0.8402093E-01
        1   -1    0    0  501    0  0.00000000000E+00  0.00000000000E+00  0.13018476534E+04  0.13018476534E+04  0.50400001928E-02 0. -1.
       -1   -1    0    0    0  501  0.00000000000E+00  0.00000000000E+00 -0.12026260322E+04  0.12026260322E+04  0.50400001928E-02 0.  1.
    10030    2    1    2    0    0  0.00000000000E+00  0.00000000000E+00  0.99221621257E+02  0.25044736856E+04  0.25025074449E+04 0.  0.
        4    1    3    3  502    0  0.11127358351E+04 -0.29234321117E+03 -0.44269914007E+03  0.12327326285E+04  0.12699999809E+01 0.  1.
       -4    1    3    3    0  502 -0.11127358351E+04  0.29234321117E+03  0.54192076133E+03  0.12717410571E+04  0.12699999809E+01 0. -1.
</event>
<event>
 5   0  0.1015327E-05  0.2542178E+04  0.7818609E-02  0.8388112E-01
        1   -1    0    0  501    0  0.00000000000E+00  0.00000000000E+00  0.16991995912E+04  0.16991995912E+04  0.50400001928E-02 0. -1.
       -1   -1    0    0    0  501  0.00000000000E+00  0.00000000000E+00 -0.95083986290E+03  0.95083986291E+03  0.50400001928E-02 0.  1.
    10030    2    1    2    0    0  0.00000000000E+00  0.00000000000E+00  0.74835972826E+03  0.26500394541E+04  0.25421775755E+04 0.  0.
        4    1    3    3  502    0  0.34562813857E+03 -0.92611429525E+03 -0.45879756012E+03  0.10897904900E+04  0.12699999809E+01 0.  1.
       -4    1    3    3    0  502 -0.34562813857E+03  0.92611429525E+03  0.12071572884E+04  0.15602489641E+04  0.12699999809E+01 0. -1.
</event>
<event>
 5   0  0.1008073E-05  0.2522036E+04  0.7818609E-02  0.8395177E-01
       -1   -1    0    0    0  501  0.00000000000E+00  0.00000000000E+00  0.10537299527E+04  0.10537299527E+04  0.50400001928E-02 0. -1.
        1   -1    0    0  501    0  0.00000000000E+00  0.00000000000E+00 -0.15090840049E+04  0.15090840049E+04  0.50400001928E-02 0.  1.
    10030    2    1    2    0    0  0.00000000000E+00  0.00000000000E+00 -0.45535405225E+03  0.25628139576E+04  0.25220364923E+04 0.  0.
        1    1    3    3  502    0 -0.80146558896E+03  0.90167028747E+03  0.14542513667E+03  0.12151151666E+04  0.50400001928E-02 0. -1.
       -1    1    3    3    0  502  0.80146558896E+03 -0.90167028747E+03 -0.60077918892E+03  0.13476987911E+04  0.50400001928E-02 0.  1.
</event>
<event>
 5   0  0.1008073E-05  0.2493227E+04  0.7818609E-02  0.8405403E-01
        1   -1    0    0  501    0  0.00000000000E+00  0.00000000000E+00  0.18627504959E+04  0.18627504959E+04  0.50400001928E-02 0.  1.
       -1   -1    0    0    0  501  0.00000000000E+00  0.00000000000E+00 -0.83427424886E+03  0.83427424887E+03  0.50400001928E-02 0. -1.
    10030    2    1    2    0    0  0.00000000000E+00  0.00000000000E+00  0.10284762470E+04  0.26970247447E+04  0.24932266409E+04 0.  0.
        1    1    3    3  502    0  0.44757927201E+03  0.12450236825E+03  0.17656100253E+04  0.18257072070E+04  0.50400001928E-02 0.  1.
       -1    1    3    3    0  502 -0.44757927201E+03 -0.12450236825E+03 -0.73713377827E+03  0.87131753771E+03  0.50400001928E-02 0. -1.
</event>
<event>
 5   0  0.1010338E-05  0.2478756E+04  0.7818609E-02  0.8410593E-01
        1   -1    0    0  501    0  0.00000000000E+00  0.00000000000E+00  0.11945939704E+04  0.11945939704E+04  0.50400001928E-02 0. -1.
       -1   -1    0    0    0  501  0.00000000000E+00  0.00000000000E+00 -0.12858414327E+04  0.12858414327E+04  0.50400001928E-02 0.  1.
    10030    2    1    2    0    0  0.00000000000E+00  0.00000000000E+00 -0.91247462287E+02  0.24804354031E+04  0.24787564805E+04 0.  0.
        2    1    3    3  502    0  0.11803024404E+04  0.18759593572E+03 -0.37410257769E+03  0.12523014112E+04  0.25500000920E-02 0.  1.
       -2    1    3    3    0  502 -0.11803024404E+04 -0.18759593572E+03  0.28285511540E+03  0.12281339919E+04  0.25500000920E-02 0. -1.
</event>
<event>
 5   0  0.1002753E-05  0.2514002E+04  0.7818609E-02  0.8398014E-01
       -1   -1    0    0    0  501  0.00000000000E+00  0.00000000000E+00  0.80320969802E+03  0.80320969803E+03  0.50400001928E-02 0.  1.
        1   -1    0    0  501    0  0.00000000000E+00  0.00000000000E+00 -0.19671720246E+04  0.19671720246E+04  0.50400001928E-02 0. -1.
    10030    2    1    2    0    0  0.00000000000E+00  0.00000000000E+00 -0.11639623266E+04  0.27703817226E+04  0.25140021065E+04 0.  0.
        5    1    3    3  502    0 -0.32009804234E+02  0.41495902781E+03 -0.18890314807E+04  0.19343416574E+04  0.46999998093E+01 0. -1.
       -5    1    3    3    0  502  0.32009804234E+02 -0.41495902781E+03  0.72506915417E+03  0.83604006522E+03  0.46999998093E+01 0.  1.
</event>
<event>
 5   0  0.1010338E-05  0.2520931E+04  0.7818609E-02  0.8395566E-01
       -1   -1    0    0    0  501  0.00000000000E+00  0.00000000000E+00  0.12213336534E+04  0.12213336534E+04  0.50400001928E-02 0.  1.
        1   -1    0    0  501    0  0.00000000000E+00  0.00000000000E+00 -0.13008515223E+04  0.13008515223E+04  0.50400001928E-02 0. -1.
    10030    2    1    2    0    0  0.00000000000E+00  0.00000000000E+00 -0.79517868889E+02  0.25221851757E+04  0.25209313694E+04 0.  0.
        2    1    3    3  502    0  0.55344743397E+03  0.23272265091E+03 -0.11486015617E+04  0.12960514812E+04  0.25500000920E-02 0. -1.
       -2    1    3    3    0  502 -0.55344743397E+03 -0.23272265091E+03  0.10690836928E+04  0.12261336945E+04  0.25500000920E-02 0.  1.
</event>
<event>
 5   0  0.2452457E-05  0.2456636E+04  0.7818609E-02  0.8418599E-01
        2   -1    0    0  501    0  0.00000000000E+00  0.00000000000E+00  0.18751305128E+04  0.18751305128E+04  0.25500000920E-02 0.  1.
       -2   -1    0    0    0  501  0.00000000000E+00  0.00000000000E+00 -0.80461880940E+03  0.80461880941E+03  0.25500000920E-02 0. -1.
    10030    2    1    2    0    0  0.00000000000E+00  0.00000000000E+00  0.10705117034E+04  0.26797493222E+04  0.24566361397E+04 0.  0.
        1    1    3    3  502    0  0.54277048313E+03 -0.10320125676E+04  0.95648148452E+03  0.15081467327E+04  0.50400001928E-02 0.  1.
       -1    1    3    3    0  502 -0.54277048313E+03  0.10320125676E+04  0.11403021890E+03  0.11716025896E+04  0.50400001928E-02 0. -1.
</event>
<event>
 5   0  0.2452457E-05  0.2742910E+04  0.7818609E-02  0.8321215E-01
        2   -1    0    0  501    0  0.00000000000E+00  0.00000000000E+00  0.11246284052E+04  0.11246284052E+04  0.25500000920E-02 0.  1.
       -2   -1    0    0    0  501  0.00000000000E+00  0.00000000000E+00 -0.16724530981E+04  0.16724530981E+04  0.25500000920E-02 0. -1.
    10030    2    1    2    0    0  0.00000000000E+00  0.00000000000E+00 -0.54782469289E+03  0.27970815034E+04  0.27429095943E+04 0.  0.
        1    1    3    3  502    0 -0.12599248534E+04  0.31919052258E+03  0.17244815076E+03  0.13111184503E+04  0.50400001928E-02 0. -1.
       -1    1    3    3    0  502  0.12599248534E+04 -0.31919052258E+03 -0.72027284365E+03  0.14859630531E+04  0.50400001928E-02 0.  1.
</event>
<event>
 5   0  0.2388326E-05  0.2337246E+04  0.7818609E-02  0.8463379E-01
       -2   -1    0    0    0  501  0.00000000000E+00  0.00000000000E+00  0.11343676369E+04  0.11343676369E+04  0.25500000920E-02 0. -1.
        2   -1    0    0  501    0  0.00000000000E+00  0.00000000000E+00 -0.12039130615E+04  0.12039130615E+04  0.25500000920E-02 0.  1.
    10030    2    1    2    0    0  0.00000000000E+00  0.00000000000E+00 -0.69545424576E+02  0.23382806984E+04  0.23372462555E+04 0.  0.
        2    1    3    3  502    0 -0.20755746445E+02 -0.11246649270E+04  0.28219240878E+03  0.11597131346E+04  0.25500000920E-02 0. -1.
       -2    1    3    3    0  502  0.20755746445E+02  0.11246649270E+04 -0.35173783335E+03  0.11785675638E+04  0.25500000920E-02 0.  1.
</event>
<event>
 5   0  0.1015327E-05  0.2444097E+04  0.7818609E-02  0.8423177E-01
       -1   -1    0    0    0  501  0.00000000000E+00  0.00000000000E+00  0.77842597099E+03  0.77842597101E+03  0.50400001928E-02 0. -1.
        1   -1    0    0  501    0  0.00000000000E+00  0.00000000000E+00 -0.19184894779E+04  0.19184894779E+04  0.50400001928E-02 0.  1.
    10030    2    1    2    0    0  0.00000000000E+00  0.00000000000E+00 -0.11400635069E+04  0.26969154489E+04  0.24440965895E+04 0.  0.
        4    1    3    3  502    0 -0.90001630895E+03 -0.55595812510E+03  0.10503733390E+03  0.10630866605E+04  0.12699999809E+01 0. -1.
       -4    1    3    3    0  502  0.90001630895E+03  0.55595812510E+03 -0.12451008408E+04  0.16338287884E+04  0.12699999809E+01 0.  1.
</event>
<event>
 5   0  0.1015327E-05  0.2513777E+04  0.7818609E-02  0.8398094E-01
       -1   -1    0    0    0  501  0.00000000000E+00  0.00000000000E+00  0.11463272421E+04  0.11463272421E+04  0.50400001928E-02 0.  1.
        1   -1    0    0  501    0  0.00000000000E+00  0.00000000000E+00 -0.13781136043E+04  0.13781136043E+04  0.50400001928E-02 0. -1.
    10030    2    1    2    0    0  0.00000000000E+00  0.00000000000E+00 -0.23178636223E+03  0.25244408464E+04  0.25137773707E+04 0.  0.
        4    1    3    3  502    0  0.46330238377E+03  0.11665278097E+04 -0.18198516192E+03  0.12682887848E+04  0.12699999809E+01 0.  1.
       -4    1    3    3    0  502 -0.46330238377E+03 -0.11665278097E+04 -0.49801200307E+02  0.12561520616E+04  0.12699999809E+01 0. -1.
</event>
<event>
 5   0  0.1008073E-05  0.2358953E+04  0.7818609E-02  0.8455033E-01
       -1   -1    0    0    0  501  0.00000000000E+00  0.00000000000E+00  0.57444311926E+03  0.57444311928E+03  0.50400001928E-02 0.  1.
        1   -1    0    0  501    0  0.00000000000E+00  0.00000000000E+00 -0.24217631186E+04  0.24217631186E+04  0.50400001928E-02 0. -1.
    10030    2    1    2    0    0  0.00000000000E+00  0.00000000000E+00 -0.18473199993E+04  0.29962062379E+04  0.23589532933E+04 0.  0.
        1    1    3    3  502    0 -0.96572390024E+03  0.28430886669E+03 -0.14305349674E+03  0.10168178235E+04  0.50400001928E-02 0. -1.
       -1    1    3    3    0  502  0.96572390024E+03 -0.28430886669E+03 -0.17042665026E+04  0.19793884144E+04  0.50400001928E-02 0.  1.
</event>
<event>
 5   0  0.1010338E-05  0.2504158E+04  0.7818609E-02  0.8401506E-01
       -1   -1    0    0    0  501  0.00000000000E+00  0.00000000000E+00  0.11297324642E+04  0.11297324642E+04  0.50400001928E-02 0.  1.
        1   -1    0    0  501    0  0.00000000000E+00  0.00000000000E+00 -0.13876751809E+04  0.13876751809E+04  0.50400001928E-02 0. -1.
    10030    2    1    2    0    0  0.00000000000E+00  0.00000000000E+00 -0.25794271666E+03  0.25174076451E+04  0.25041579036E+04 0.  0.
        2    1    3    3  502    0 -0.82890285011E+03  0.92677229353E+03 -0.27711075764E+03  0.12738827226E+04  0.25500000920E-02 0. -1.
       -2    1    3    3    0  502  0.82890285011E+03 -0.92677229353E+03  0.19168040975E+02  0.12435249225E+04  0.25500000920E-02 0.  1.
</event>
<event>
 5   0  0.1010338E-05  0.2456929E+04  0.7818609E-02  0.8418493E-01
       -1   -1    0    0    0  501  0.00000000000E+00  0.00000000000E+00  0.14836212202E+04  0.14836212202E+04  0.50400001928E-02 0. -1.
        1   -1    0    0  501    0  0.00000000000E+00  0.00000000000E+00 -0.10171899064E+04  0.10171899064E+04  0.50400001928E-02 0.  1.
    10030    2    1    2    0    0  0.00000000000E+00  0.00000000000E+00  0.46643131379E+03  0.25008111267E+04  0.24569285950E+04 0.  0.
        2    1    3    3  502    0 -0.18049052168E+03 -0.44051725316E+03 -0.91948285634E+03  0.10354134449E+04  0.25500000920E-02 0.  1.
       -2    1    3    3    0  502  0.18049052168E+03  0.44051725316E+03  0.13859141701E+04  0.14653976818E+04  0.25500000920E-02 0. -1.
</event>
<event>
 5   0  0.2441340E-05  0.2467930E+04  0.7818609E-02  0.8414500E-01
        2   -1    0    0  501    0  0.00000000000E+00  0.00000000000E+00  0.18597502709E+04  0.18597502709E+04  0.25500000920E-02 0. -1.
       -2   -1    0    0    0  501  0.00000000000E+00  0.00000000000E+00 -0.81874971019E+03  0.81874971020E+03  0.25500000920E-02 0.  1.
    10030    2    1    2    0    0  0.00000000000E+00  0.00000000000E+00  0.10410005607E+04  0.26784999811E+04  0.24679303032E+04 0.  0.
        3    1    3    3  502    0 -0.42852427401E+03 -0.11177913493E+04  0.19566521283E+03  0.12130026544E+04  0.10100000352E+00 0.  1.
       -3    1    3    3    0  502  0.42852427401E+03  0.11177913493E+04  0.84533534787E+03  0.14654973267E+04  0.10100000352E+00 0. -1.
</event>
<event>
 5   0  0.2452457E-05  0.2466661E+04  0.7818609E-02  0.8414960E-01
        2   -1    0    0  501    0  0.00000000000E+00  0.00000000000E+00  0.21661938380E+04  0.21661938380E+04  0.25500000920E-02 0. -1.
       -2   -1    0    0    0  501  0.00000000000E+00  0.00000000000E+00 -0.70220112067E+03  0.70220112067E+03  0.25500000920E-02 0.  1.
    10030    2    1    2    0    0  0.00000000000E+00  0.00000000000E+00  0.14639927173E+04  0.28683949587E+04  0.24666606906E+04 0.  0.
        1    1    3    3  502    0  0.39486047663E+03 -0.11552021006E+04  0.93573709324E+03  0.15381841883E+04  0.50400001928E-02 0.  1.
       -1    1    3    3    0  502 -0.39486047663E+03  0.11552021006E+04  0.52825562407E+03  0.13302107704E+04  0.50400001928E-02 0. -1.
</event>
<event>
 5   0  0.2441340E-05  0.2518941E+04  0.7818609E-02  0.8396269E-01
       -2   -1    0    0    0  501  0.00000000000E+00  0.00000000000E+00  0.74318099393E+03  0.74318099393E+03  0.25500000920E-02 0. -1.
        2   -1    0    0  501    0  0.00000000000E+00  0.00000000000E+00 -0.21344274175E+04  0.21344274175E+04  0.25500000920E-02 0.  1.
    10030    2    1    2    0    0  0.00000000000E+00  0.00000000000E+00 -0.13912464236E+04  0.28776084115E+04  0.25189409597E+04 0.  0.
        3    1    3    3  502    0 -0.50354453761E+03  0.30066028924E+03 -0.19689183344E+04  0.20544082186E+04  0.10100000352E+00 0.  1.
       -3    1    3    3    0  502  0.50354453761E+03 -0.30066028924E+03  0.57767191078E+03  0.82320019289E+03  0.10100000352E+00 0. -1.
</event>
<event>
 5   0  0.1008073E-05  0.2486871E+04  0.7818609E-02  0.8407678E-01
        1   -1    0    0  501    0  0.00000000000E+00  0.00000000000E+00  0.10291475445E+04  0.10291475445E+04  0.50400001928E-02 0.  1.
       -1   -1    0    0    0  501  0.00000000000E+00  0.00000000000E+00 -0.15023422216E+04  0.15023422216E+04  0.50400001928E-02 0. -1.
    10030    2    1    2    0    0  0.00000000000E+00  0.00000000000E+00 -0.47319467718E+03  0.25314897661E+04  0.24868709724E+04 0.  0.
        1    1    3    3  502    0  0.58605476961E+03  0.44582600817E+02  0.87881972973E+03  0.10572473309E+04  0.50400001928E-02 0.  1.
       -1    1    3    3    0  502 -0.58605476961E+03 -0.44582600817E+02 -0.13520144069E+04  0.14742424352E+04  0.50400001928E-02 0. -1.
</event>
<event>
 5   0  0.2388326E-05  0.2498441E+04  0.7818609E-02  0.8403541E-01
        2   -1    0    0  501    0  0.00000000000E+00  0.00000000000E+00  0.99313677115E+03  0.99313677115E+03  0.25500000920E-02 0.  1.
       -2   -1    0    0    0  501  0.00000000000E+00  0.00000000000E+00 -0.15713360541E+04  0.15713360541E+04  0.25500000920E-02 0. -1.
    10030    2    1    2    0    0  0.00000000000E+00  0.00000000000E+00 -0.57819928299E+03  0.25644728253E+04  0.24984408060E+04 0.  0.
        2    1    3    3  502    0 -0.12649206419E+02 -0.18670071597E+02 -0.15711271007E+04  0.15712889424E+04  0.25500000920E-02 0. -1.
       -2    1    3    3    0  502  0.12649206419E+02  0.18670071597E+02  0.99292781772E+03  0.99318388287E+03  0.25500000920E-02 0.  1.
</event>
<event>
 5   0  0.2388326E-05  0.2503016E+04  0.7818609E-02  0.8401912E-01
       -2   -1    0    0    0  501  0.00000000000E+00  0.00000000000E+00  0.61112352072E+03  0.61112352072E+03  0.25500000920E-02 0.  1.
        2   -1    0    0  501    0  0.00000000000E+00  0.00000000000E+00 -0.25629385137E+04  0.25629385137E+04  0.25500000920E-02 0. -1.
    10030    2    1    2    0    0  0.00000000000E+00  0.00000000000E+00 -0.19518149930E+04  0.31740620344E+04  0.25030157873E+04 0.  0.
        2    1    3    3  502    0  0.82726929423E+02  0.12353360518E+04 -0.12075669946E+04  0.17294845914E+04  0.25500000920E-02 0. -1.
       -2    1    3    3    0  502 -0.82726929423E+02 -0.12353360518E+04 -0.74424799843E+03  0.14445774430E+04  0.25500000920E-02 0.  1.
</event>
<event>
 5   0  0.1008073E-05  0.2501094E+04  0.7818609E-02  0.8402596E-01
       -1   -1    0    0    0  501  0.00000000000E+00  0.00000000000E+00  0.88466424061E+03  0.88466424062E+03  0.50400001928E-02 0.  1.
        1   -1    0    0  501    0  0.00000000000E+00  0.00000000000E+00 -0.17677531095E+04  0.17677531095E+04  0.50400001928E-02 0. -1.
    10030    2    1    2    0    0  0.00000000000E+00  0.00000000000E+00 -0.88308886888E+03  0.26524173501E+04  0.25010941303E+04 0.  0.
        1    1    3    3  502    0  0.10942390381E+01 -0.11615363695E+04 -0.93293619800E+03  0.14898113587E+04  0.50400001928E-02 0. -1.
       -1    1    3    3    0  502 -0.10942390381E+01  0.11615363695E+04  0.49847329114E+02  0.11626059914E+04  0.50400001928E-02 0.  1.
</event>
<event>
 5   0  0.1015327E-05  0.2490327E+04  0.7818609E-02  0.8406440E-01
       -1   -1    0    0    0  501  0.00000000000E+00  0.00000000000E+00  0.88812230566E+03  0.88812230567E+03  0.50400001928E-02 0.  1.
        1   -1    0    0  501    0  0.00000000000E+00  0.00000000000E+00 -0.17457423557E+04  0.17457423557E+04  0.50400001928E-02 0. -1.
    10030    2    1    2    0    0  0.00000000000E+00  0.00000000000E+00 -0.85762005006E+03  0.26338646614E+04  0.24903274693E+04 0.  0.
        4    1    3    3  502    0  0.37067743930E+03 -0.65282098188E+03  0.62185306211E+03  0.97482297990E+03  0.12699999809E+01 0.  1.
       -4    1    3    3    0  502 -0.37067743930E+03  0.65282098188E+03 -0.14794731122E+04  0.16590416815E+04  0.12699999809E+01 0. -1.
</event>
<event>
 5   0  0.1002753E-05  0.2475804E+04  0.7818609E-02  0.8411657E-01
       -1   -1    0    0    0  501  0.00000000000E+00  0.00000000000E+00  0.65891238325E+03  0.65891238327E+03  0.50400001928E-02 0.  1.
        1   -1    0    0  501    0  0.00000000000E+00  0.00000000000E+00 -0.23256526315E+04  0.23256526316E+04  0.50400001928E-02 0. -1.
    10030    2    1    2    0    0  0.00000000000E+00  0.00000000000E+00 -0.16667402483E+04  0.29845650148E+04  0.24758039649E+04 0.  0.
        5    1    3    3  502    0 -0.55283620605E+03  0.10673754192E+04 -0.47685973709E+03  0.12931880973E+04  0.46999998093E+01 0.  1.
       -5    1    3    3    0  502  0.55283620605E+03 -0.10673754192E+04 -0.11898805112E+04  0.16913769175E+04  0.46999998093E+01 0. -1.
</event>
<event>
 5   0  0.2432309E-05  0.2319205E+04  0.7818609E-02  0.8470387E-01
       -2   -1    0    0    0  501  0.00000000000E+00  0.00000000000E+00  0.14317612432E+04  0.14317612432E+04  0.25500000920E-02 0. -1.
        2   -1    0    0  501    0  0.00000000000E+00  0.00000000000E+00 -0.93917714489E+03  0.93917714489E+03  0.25500000920E-02 0.  1.
    10030    2    1    2    0    0  0.00000000000E+00  0.00000000000E+00  0.49258409830E+03  0.23709383881E+04  0.23192045503E+04 0.  0.
        4    1    3    3  502    0 -0.56109389477E+03 -0.93720114395E+03 -0.15162497429E+03  0.11027982992E+04  0.12699999809E+01 0.  1.
       -4    1    3    3    0  502  0.56109389477E+03  0.93720114395E+03  0.64420907259E+03  0.12681400889E+04  0.12699999809E+01 0. -1.
</event>
<event>
 5   0  0.1002753E-05  0.2477871E+04  0.7818609E-02  0.8410912E-01
       -1   -1    0    0    0  501  0.00000000000E+00  0.00000000000E+00  0.11472716658E+04  0.11472716659E+04  0.50400001928E-02 0.  1.
        1   -1    0    0  501    0  0.00000000000E+00  0.00000000000E+00 -0.13379227896E+04  0.13379227896E+04  0.50400001928E-02 0. -1.
    10030    2    1    2    0    0  0.00000000000E+00  0.00000000000E+00 -0.19065112375E+03  0.24851944555E+04  0.24778707857E+04 0.  0.
        5    1    3    3  502    0  0.83684291700E+03  0.88033023243E+03 -0.34028386042E+03  0.12613891475E+04  0.46999998093E+01 0.  1.
       -5    1    3    3    0  502 -0.83684291700E+03 -0.88033023243E+03  0.14963273667E+03  0.12238053079E+04  0.46999998093E+01 0. -1.
</event>
<event>
 5   0  0.2441340E-05  0.2521629E+04  0.7818609E-02  0.8395320E-01
        2   -1    0    0  501    0  0.00000000000E+00  0.00000000000E+00  0.15366168652E+04  0.15366168652E+04  0.25500000920E-02 0. -1.
       -2   -1    0    0    0  501  0.00000000000E+00  0.00000000000E+00 -0.10345150181E+04  0.10345150181E+04  0.25500000920E-02 0.  1.
    10030    2    1    2    0    0  0.00000000000E+00  0.00000000000E+00  0.50210184708E+03  0.25711318833E+04  0.25216290164E+04 0.  0.
        3    1    3    3  502    0 -0.28628504334E+03 -0.11689659428E+04  0.63421082962E+03  0.13603910791E+04  0.10100000352E+00 0. -1.
       -3    1    3    3    0  502  0.28628504334E+03  0.11689659428E+04 -0.13210898253E+03  0.12107408042E+04  0.10100000352E+00 0.  1.
</event>
<event>
 5   0  0.1002753E-05  0.2674792E+04  0.7818609E-02  0.8343231E-01
       -1   -1    0    0    0  501  0.00000000000E+00  0.00000000000E+00  0.11053511325E+04  0.11053511325E+04  0.50400001928E-02 0. -1.
        1   -1    0    0  501    0  0.00000000000E+00  0.00000000000E+00 -0.16181534166E+04  0.16181534166E+04  0.50400001928E-02 0.  1.
    10030    2    1    2    0    0  0.00000000000E+00  0.00000000000E+00 -0.51280228405E+03  0.27235045491E+04  0.26747917389E+04 0.  0.
        5    1    3    3  502    0 -0.51623148820E+03  0.12168076543E+04 -0.46380117770E+03  0.14008031408E+04  0.46999998093E+01 0.  1.
       -5    1    3    3    0  502  0.51623148820E+03 -0.12168076543E+04 -0.49001106350E+02  0.13227014083E+04  0.46999998093E+01 0. -1.
</event>
<event>
 5   0  0.1039688E-05  0.2536559E+04  0.7818609E-02  0.8390076E-01
        1   -1    0    0  501    0  0.00000000000E+00  0.00000000000E+00  0.16148586770E+04  0.16148586770E+04  0.50400001928E-02 0. -1.
       -1   -1    0    0    0  501  0.00000000000E+00  0.00000000000E+00 -0.99608293170E+03  0.99608293171E+03  0.50400001928E-02 0.  1.
    10030    2    1    2    0    0  0.00000000000E+00  0.00000000000E+00  0.61877574526E+03  0.26109416087E+04  0.25365592169E+04 0.  0.
        3    1    3    3  502    0 -0.83050591933E+03 -0.90340353621E+03 -0.20405914039E+02  0.12273118767E+04  0.10100000352E+00 0.  1.
       -3    1    3    3    0  502  0.83050591933E+03  0.90340353621E+03  0.63918165930E+03  0.13836297319E+04  0.10100000352E+00 0. -1.
</event>
<event>
 5   0  0.1039688E-05  0.2472292E+04  0.7818609E-02  0.8412924E-01
       -1   -1    0    0    0  501  0.00000000000E+00  0.00000000000E+00  0.11479404342E+04  0.11479404343E+04  0.50400001928E-02 0. -1.
        1   -1    0    0  501    0  0.00000000000E+00  0.00000000000E+00 -0.13311290430E+04  0.13311290430E+04  0.50400001928E-02 0.  1.
    10030    2    1    2    0    0  0.00000000000E+00  0.00000000000E+00 -0.18318860876E+03  0.24790694773E+04  0.24722919340E+04 0.  0.
        3    1    3    3  502    0  0.22226671541E+03 -0.60590171559E+03  0.96559070915E+03  0.11614150031E+04  0.10100000352E+00 0. -1.
       -3    1    3    3    0  502 -0.22226671541E+03  0.60590171559E+03 -0.11487793179E+04  0.13176544741E+04  0.10100000352E+00 0.  1.
</event>
<event>
 5   0  0.8166500E-06  0.2519168E+04  0.7818609E-02  0.8396189E-01
        3   -1    0    0  501    0  0.00000000000E+00  0.00000000000E+00  0.13968708524E+04  0.13968708561E+04  0.10100000352E+00 0.  1.
       -3   -1    0    0    0  501  0.00000000000E+00  0.00000000000E+00 -0.11357898320E+04  0.11357898365E+04  0.10100000352E+00 0. -1.
    10030    2    1    2    0    0  0.00000000000E+00  0.00000000000E+00  0.26108102042E+03  0.25326606926E+04  0.25191678952E+04 0.  0.
        2    1    3    3  502    0 -0.95571554635E+03  0.43877777208E+03 -0.56645014143E+03  0.11944805991E+04  0.25500000920E-02 0. -1.
       -2    1    3    3    0  502  0.95571554635E+03 -0.43877777208E+03  0.82753116185E+03  0.13381800935E+04  0.25500000920E-02 0.  1.
</event>
<event>
 5   0  0.2432309E-05  0.2503090E+04  0.7818609E-02  0.8401886E-01
        2   -1    0    0  501    0  0.00000000000E+00  0.00000000000E+00  0.63741794289E+03  0.63741794289E+03  0.25500000920E-02 0.  1.
       -2   -1    0    0    0  501  0.00000000000E+00  0.00000000000E+00 -0.24573586236E+04  0.24573586236E+04  0.25500000920E-02 0. -1.
    10030    2    1    2    0    0  0.00000000000E+00  0.00000000000E+00 -0.18199406807E+04  0.30947765665E+04  0.25030896738E+04 0.  0.
        4    1    3    3  502    0  0.42306879083E+03  0.97266990433E+03 -0.88646548723E+02  0.10643936152E+04  0.12699999809E+01 0.  1.
       -4    1    3    3    0  502 -0.42306879083E+03 -0.97266990433E+03 -0.17312941320E+04  0.20303829513E+04  0.12699999809E+01 0. -1.
</event>
<event>
 5   0  0.2441340E-05  0.2478522E+04  0.7818609E-02  0.8410677E-01
        2   -1    0    0  501    0  0.00000000000E+00  0.00000000000E+00  0.27038921195E+04  0.27038921195E+04  0.25500000920E-02 0. -1.
       -2   -1    0    0    0  501  0.00000000000E+00  0.00000000000E+00 -0.56798432176E+03  0.56798432177E+03  0.25500000920E-02 0.  1.
    10030    2    1    2    0    0  0.00000000000E+00  0.00000000000E+00  0.21359077978E+04  0.32718764413E+04  0.24785224079E+04 0.  0.
        3    1    3    3  502    0  0.74965398226E+03 -0.12166230585E+03 -0.22478277028E+03  0.79202911171E+03  0.10100000352E+00 0.  1.
       -3    1    3    3    0  502 -0.74965398226E+03  0.12166230585E+03  0.23606905680E+04  0.24798473296E+04  0.10100000352E+00 0. -1.
</event>
<event>
 5   0  0.2388326E-05  0.2497331E+04  0.7818609E-02  0.8403937E-01
        2   -1    0    0  501    0  0.00000000000E+00  0.00000000000E+00  0.19422941124E+04  0.19422941124E+04  0.25500000920E-02 0. -1.
       -2   -1    0    0    0  501  0.00000000000E+00  0.00000000000E+00 -0.80274412968E+03  0.80274412969E+03  0.25500000920E-02 0.  1.
    10030    2    1    2    0    0  0.00000000000E+00  0.00000000000E+00  0.11395499828E+04  0.27450382421E+04  0.24973307325E+04 0.  0.
        2    1    3    3  502    0 -0.79527511791E+03 -0.92984134466E+03  0.84368651010E+03  0.14862282351E+04  0.25500000920E-02 0. -1.
       -2    1    3    3    0  502  0.79527511791E+03  0.92984134466E+03  0.29586347266E+03  0.12588100071E+04  0.25500000920E-02 0.  1.
</event>
<event>
 5   0  0.2452457E-05  0.2506584E+04  0.7818609E-02  0.8400644E-01
       -2   -1    0    0    0  501  0.00000000000E+00  0.00000000000E+00  0.14284839975E+04  0.14284839975E+04  0.25500000920E-02 0.  1.
        2   -1    0    0  501    0  0.00000000000E+00  0.00000000000E+00 -0.10995859486E+04  0.10995859486E+04  0.25500000920E-02 0. -1.
    10030    2    1    2    0    0  0.00000000000E+00  0.00000000000E+00  0.32889804890E+03  0.25280699460E+04  0.25065840751E+04 0.  0.
        1    1    3    3  502    0 -0.18595405127E+03 -0.50586325875E+03  0.13056355675E+04  0.14125016039E+04  0.50400001928E-02 0.  1.
       -1    1    3    3    0  502  0.18595405127E+03  0.50586325875E+03 -0.97673751863E+03  0.11155683422E+04  0.50400001928E-02 0. -1.
</event>
<event>
 5   0  0.2345143E-05  0.2503602E+04  0.7818609E-02  0.8401703E-01
       -2   -1    0    0    0  501  0.00000000000E+00  0.00000000000E+00  0.11711627116E+04  0.11711627116E+04  0.25500000920E-02 0. -1.
        2   -1    0    0  501    0  0.00000000000E+00  0.00000000000E+00 -0.13379914917E+04  0.13379914917E+04  0.25500000920E-02 0.  1.
    10030    2    1    2    0    0  0.00000000000E+00  0.00000000000E+00 -0.16682878005E+03  0.25091542033E+04  0.25036020000E+04 0.  0.
        5    1    3    3  502    0 -0.43826566022E+03 -0.74758159012E+01  0.10917263310E+04  0.11764442820E+04  0.46999998093E+01 0. -1.
       -5    1    3    3    0  502  0.43826566022E+03  0.74758159012E+01 -0.12585551111E+04  0.13327099213E+04  0.46999998093E+01 0.  1.
</event>
<event>
 5   0  0.2441340E-05  0.2511153E+04  0.7818609E-02  0.8399023E-01
       -2   -1    0    0    0  501  0.00000000000E+00  0.00000000000E+00  0.11301944469E+04  0.11301944469E+04  0.25500000920E-02 0. -1.
        2   -1    0    0  501    0  0.00000000000E+00  0.00000000000E+00 -0.13948687373E+04  0.13948687373E+04  0.25500000920E-02 0.  1.
    10030    2    1    2    0    0  0.00000000000E+00  0.00000000000E+00 -0.26467429046E+03  0.25250631842E+04  0.25111534410E+04 0.  0.
        3    1    3    3  502    0 -0.10131598770E+03 -0.56122892005E+03 -0.12571171420E+04  0.13804297696E+04  0.10100000352E+00 0.  1.
       -3    1    3    3    0  502  0.10131598770E+03  0.56122892005E+03  0.99244285151E+03  0.11446334146E+04  0.10100000352E+00 0. -1.
</event>
<event>
 5   0  0.1039688E-05  0.2501175E+04  0.7818609E-02  0.8402567E-01
       -1   -1    0    0    0  501  0.00000000000E+00  0.00000000000E+00  0.17336132635E+04  0.17336132635E+04  0.50400001928E-02 0.  1.
        1   -1    0    0  501    0  0.00000000000E+00  0.00000000000E+00 -0.90214442753E+03  0.90214442754E+03  0.50400001928E-02 0. -1.
    10030    2    1    2    0    0  0.00000000000E+00  0.00000000000E+00  0.83146883601E+03  0.26357576911E+04  0.25011753599E+04 0.  0.
        3    1    3    3  502    0 -0.10258485636E+04  0.59181877634E+03 -0.75694915704E+01  0.11843445642E+04  0.10100000352E+00 0. -1.
       -3    1    3    3    0  502  0.10258485636E+04 -0.59181877634E+03  0.83903832758E+03  0.14514131269E+04  0.10100000352E+00 0.  1.
</event>
<event>
 5   0  0.1039688E-05  0.2493093E+04  0.7818609E-02  0.8405450E-01
        1   -1    0    0  501    0  0.00000000000E+00  0.00000000000E+00  0.15873472705E+04  0.15873472705E+04  0.50400001928E-02 0. -1.
       -1   -1    0    0    0  501  0.00000000000E+00  0.00000000000E+00 -0.97891511726E+03  0.97891511728E+03  0.50400001928E-02 0.  1.
    10030    2    1    2    0    0  0.00000000000E+00  0.00000000000E+00  0.60843215324E+03  0.25662623878E+04  0.24930930504E+04 0.  0.
        3    1    3    3  502    0  0.80377123597E+03 -0.33079693569E+03 -0.61554232610E+03  0.10650667481E+04  0.10100000352E+00 0.  1.
       -3    1    3    3    0  502 -0.80377123597E+03  0.33079693569E+03  0.12239744793E+04  0.15011956397E+04  0.10100000352E+00 0. -1.
</event>
<event>
 5   0  0.1002753E-05  0.2556839E+04  0.7818609E-02  0.8383012E-01
        1   -1    0    0  501    0  0.00000000000E+00  0.00000000000E+00  0.16319709513E+04  0.16319709513E+04  0.50400001928E-02 0. -1.
       -1   -1    0    0    0  501  0.00000000000E+00  0.00000000000E+00 -0.10014614917E+04  0.10014614917E+04  0.50400001928E-02 0.  1.
    10030    2    1    2    0    0  0.00000000000E+00  0.00000000000E+00  0.63050945964E+03  0.26334324430E+04  0.25568387225E+04 0.  0.
        5    1    3    3  502    0 -0.59217781504E+02 -0.84920556770E+03 -0.66708675557E+03  0.10815191498E+04  0.46999998093E+01 0.  1.
       -5    1    3    3    0  502  0.59217781504E+02  0.84920556770E+03  0.12975962152E+04  0.15519132932E+04  0.46999998093E+01 0. -1.
</event>
<event>
 5   0  0.1039688E-05  0.2502795E+04  0.7818609E-02  0.8401990E-01
        1   -1    0    0  501    0  0.00000000000E+00  0.00000000000E+00  0.18556148408E+04  0.18556148408E+04  0.50400001928E-02 0.  1.
       -1   -1    0    0    0  501  0.00000000000E+00  0.00000000000E+00 -0.84392280419E+03  0.84392280421E+03  0.50400001928E-02 0. -1.
    10030    2    1    2    0    0  0.00000000000E+00  0.00000000000E+00  0.10116920366E+04  0.26995376450E+04  0.25027949816E+04 0.  0.
        3    1    3    3  502    0 -0.84434902023E+03 -0.89779040433E+03  0.27190269454E+03  0.12620950692E+04  0.10100000352E+00 0. -1.
       -3    1    3    3    0  502  0.84434902023E+03  0.89779040433E+03  0.73978934206E+03  0.14374425759E+04  0.10100000352E+00 0.  1.
</event>
<event>
 5   0  0.2388326E-05  0.2490555E+04  0.7818609E-02  0.8406358E-01
        2   -1    0    0  501    0  0.00000000000E+00  0.00000000000E+00  0.26293150042E+04  0.26293150042E+04  0.25500000920E-02 0.  1.
       -2   -1    0    0    0  501  0.00000000000E+00  0.00000000000E+00 -0.58977966896E+03  0.58977966896E+03  0.25500000920E-02 0. -1.
    10030    2    1    2    0    0  0.00000000000E+00  0.00000000000E+00  0.20395353353E+04  0.32190946732E+04  0.24905553861E+04 0.  0.
        2    1    3    3  502    0 -0.89752612862E+03 -0.49826208256E+03  0.10865666509E+03  0.10322909112E+04  0.25500000920E-02 0. -1.
       -2    1    3    3    0  502  0.89752612862E+03  0.49826208256E+03  0.19308786702E+04  0.21868037620E+04  0.25500000920E-02 0.  1.
</event>
<event>
 5   0  0.2441340E-05  0.2481598E+04  0.7818609E-02  0.8409571E-01
        2   -1    0    0  501    0  0.00000000000E+00  0.00000000000E+00  0.19513034624E+04  0.19513034624E+04  0.25500000920E-02 0.  1.
       -2   -1    0    0    0  501  0.00000000000E+00  0.00000000000E+00 -0.78900191233E+03  0.78900191234E+03  0.25500000920E-02 0. -1.
    10030    2    1    2    0    0  0.00000000000E+00  0.00000000000E+00  0.11623015501E+04  0.27403053748E+04  0.24815980040E+04 0.  0.
        3    1    3    3  502    0  0.60678602279E+03  0.86185467575E+03  0.13040758813E+04  0.16767816417E+04  0.10100000352E+00 0.  1.
       -3    1    3    3    0  502 -0.60678602279E+03 -0.86185467575E+03 -0.14177433123E+03  0.10635237330E+04  0.10100000352E+00 0. -1.
</event>
<event>
 5   0  0.1039688E-05  0.2504753E+04  0.7818609E-02  0.8401294E-01
        1   -1    0    0  501    0  0.00000000000E+00  0.00000000000E+00  0.17019385747E+04  0.17019385747E+04  0.50400001928E-02 0. -1.
       -1   -1    0    0    0  501  0.00000000000E+00  0.00000000000E+00 -0.92156460171E+03  0.92156460173E+03  0.50400001928E-02 0.  1.
    10030    2    1    2    0    0  0.00000000000E+00  0.00000000000E+00  0.78037397295E+03  0.26235031764E+04  0.25047525584E+04 0.  0.
        3    1    3    3  502    0 -0.73617221282E+02 -0.11965030588E+04  0.10499345087E+02  0.11988116246E+04  0.10100000352E+00 0.  1.
       -3    1    3    3    0  502  0.73617221282E+02  0.11965030588E+04  0.76987462787E+03  0.14246915518E+04  0.10100000352E+00 0. -1.
</event>
<event>
 5   0  0.1010338E-05  0.2430819E+04  0.7818609E-02  0.8428055E-01
        1   -1    0    0  501    0  0.00000000000E+00  0.00000000000E+00  0.14857028132E+04  0.14857028132E+04  0.50400001928E-02 0.  1.
       -1   -1    0    0    0  501  0.00000000000E+00  0.00000000000E+00 -0.99429072630E+03  0.99429072632E+03  0.50400001928E-02 0. -1.
    10030    2    1    2    0    0  0.00000000000E+00  0.00000000000E+00  0.49141208688E+03  0.24799935395E+04  0.24308192275E+04 0.  0.
        2    1    3    3  502    0 -0.29035341732E+03  0.81015015623E+03 -0.62989351237E+03  0.10664962351E+04  0.25500000920E-02 0. -1.
       -2    1    3    3    0  502  0.29035341732E+03 -0.81015015623E+03  0.11213055992E+04  0.14134973044E+04  0.25500000920E-02 0.  1.
</event>
<event>
 5   0  0.2388326E-05  0.2496890E+04  0.7818609E-02  0.8404094E-01
        2   -1    0    0  501    0  0.00000000000E+00  0.00000000000E+00  0.19029991847E+04  0.19029991847E+04  0.25500000920E-02 0. -1.
       -2   -1    0    0    0  501  0.00000000000E+00  0.00000000000E+00 -0.81903055275E+03  0.81903055275E+03  0.25500000920E-02 0.  1.
    10030    2    1    2    0    0  0.00000000000E+00  0.00000000000E+00  0.10839686320E+04  0.27220297375E+04  0.24968896445E+04 0.  0.
        2    1    3    3  502    0  0.69086940188E+03  0.24610932890E+03 -0.55943316582E+03  0.92240761014E+03  0.25500000920E-02 0.  1.
       -2    1    3    3    0  502 -0.69086940188E+03 -0.24610932890E+03  0.16434017978E+04  0.17996221274E+04  0.25500000920E-02 0. -1.
</event>
<event>
 5   0  0.1015327E-05  0.2469605E+04  0.7818609E-02  0.8413895E-01
        1   -1    0    0  501    0  0.00000000000E+00  0.00000000000E+00  0.16866358656E+04  0.16866358656E+04  0.50400001928E-02 0.  1.
       -1   -1    0    0    0  501  0.00000000000E+00  0.00000000000E+00 -0.90401088130E+03  0.90401088132E+03  0.50400001928E-02 0. -1.
    10030    2    1    2    0    0  0.00000000000E+00  0.00000000000E+00  0.78262498425E+03  0.25906467469E+04  0.24696049686E+04 0.  0.
        4    1    3    3  502    0  0.77114410725E+03 -0.37878115025E+03 -0.53906007641E+03  0.10142611956E+04  0.12699999809E+01 0. -1.
       -4    1    3    3    0  502 -0.77114410725E+03  0.37878115025E+03  0.13216850607E+04  0.15763855513E+04  0.12699999809E+01 0.  1.
</event>
<event>
 5   0  0.2452457E-05  0.2489808E+04  0.7818609E-02  0.8406625E-01
       -2   -1    0    0    0  501  0.00000000000E+00  0.00000000000E+00  0.86974019534E+03  0.86974019534E+03  0.25500000920E-02 0. -1.
        2   -1    0    0  501    0  0.00000000000E+00  0.00000000000E+00 -0.17818953942E+04  0.17818953942E+04  0.25500000920E-02 0.  1.
    10030    2    1    2    0    0  0.00000000000E+00  0.00000000000E+00 -0.91215519889E+03  0.26516355896E+04  0.24898080635E+04 0.  0.
        1    1    3    3  502    0  0.32781875503E+03 -0.58038533931E+02  0.82145264457E+03  0.88635097725E+03  0.50400001928E-02 0. -1.
       -1    1    3    3    0  502 -0.32781875503E+03  0.58038533931E+02 -0.17336078435E+04  0.17652846123E+04  0.50400001928E-02 0.  1.
</event>
<event>
 5   0  0.1015327E-05  0.2414110E+04  0.7818609E-02  0.8434240E-01
       -1   -1    0    0    0  501  0.00000000000E+00  0.00000000000E+00  0.17366551007E+04  0.17366551007E+04  0.50400001928E-02 0. -1.
        1   -1    0    0  501    0  0.00000000000E+00  0.00000000000E+00 -0.83895829353E+03  0.83895829355E+03  0.50400001928E-02 0.  1.
    10030    2    1    2    0    0  0.00000000000E+00  0.00000000000E+00  0.89769680718E+03  0.25756133943E+04  0.24141095251E+04 0.  0.
        4    1    3    3  502    0  0.97248727566E+03 -0.56698134153E+03  0.91363030210E+03  0.14498004293E+04  0.12699999809E+01 0. -1.
       -4    1    3    3    0  502 -0.97248727566E+03  0.56698134153E+03 -0.15933494917E+02  0.11258129650E+04  0.12699999809E+01 0.  1.
</event>
<event>
 5   0  0.1039688E-05  0.2492674E+04  0.7818609E-02  0.8405600E-01
       -1   -1    0    0    0  501  0.00000000000E+00  0.00000000000E+00  0.11446592511E+04  0.11446592511E+04  0.50400001928E-02 0. -1.
        1   -1    0    0  501    0  0.00000000000E+00  0.00000000000E+00 -0.13570465668E+04  0.13570465668E+04  0.50400001928E-02 0.  1.
    10030    2    1    2    0    0  0.00000000000E+00  0.00000000000E+00 -0.21238731569E+03  0.25017058179E+04  0.24926739914E+04 0.  0.
        3    1    3    3  502    0  0.59005122424E+03 -0.10917175519E+04  0.97595317713E+01  0.12410088312E+04  0.10100000352E+00 0.  1.
       -3    1    3    3    0  502 -0.59005122424E+03  0.10917175519E+04 -0.22214684746E+03  0.12606969868E+04  0.10100000352E+00 0. -1.
</event>
<event>
 5   0  0.1010338E-05  0.2475590E+04  0.7818609E-02  0.8411734E-01
       -1   -1    0    0    0  501  0.00000000000E+00  0.00000000000E+00  0.56222018902E+03  0.56222018905E+03  0.50400001928E-02 0. -1.
        1   -1    0    0  501    0  0.00000000000E+00  0.00000000000E+00 -0.27251528111E+04  0.27251528111E+04  0.50400001928E-02 0.  1.
    10030    2    1    2    0    0  0.00000000000E+00  0.00000000000E+00 -0.21629326221E+04  0.32873730002E+04  0.24755895691E+04 0.  0.
        2    1    3    3  502    0  0.12106245383E+04 -0.15385637741E+03 -0.13563555688E+04  0.18245503518E+04  0.25500000920E-02 0.  1.
       -2    1    3    3    0  502 -0.12106245383E+04  0.15385637741E+03 -0.80657705334E+03  0.14628226483E+04  0.25500000920E-02 0. -1.
</event>
<event>
 5   0  0.2452457E-05  0.2551187E+04  0.7818609E-02  0.8384974E-01
        2   -1    0    0  501    0  0.00000000000E+00  0.00000000000E+00  0.24268931647E+04  0.24268931647E+04  0.25500000920E-02 0.  1.
       -2   -1    0    0    0  501  0.00000000000E+00  0.00000000000E+00 -0.67046141286E+03  0.67046141286E+03  0.25500000920E-02 0. -1.
    10030    2    1    2    0    0  0.00000000000E+00  0.00000000000E+00  0.17564317518E+04  0.30973545775E+04  0.25511865632E+04 0.  0.
        1    1    3    3  502    0  0.16311491838E+03 -0.99844491770E+03 -0.65057394467E+02  0.10137707802E+04  0.50400001928E-02 0. -1.
       -1    1    3    3    0  502 -0.16311491838E+03  0.99844491770E+03  0.18214891463E+04  0.20835837973E+04  0.50400001928E-02 0.  1.
</event>
<event>
 5   0  0.2345143E-05  0.2509152E+04  0.7818609E-02  0.8399732E-01
        2   -1    0    0  501    0  0.00000000000E+00  0.00000000000E+00  0.12069831384E+04  0.12069831384E+04  0.25500000920E-02 0. -1.
       -2   -1    0    0    0  501  0.00000000000E+00  0.00000000000E+00 -0.13040454349E+04  0.13040454349E+04  0.25500000920E-02 0.  1.
    10030    2    1    2    0    0  0.00000000000E+00  0.00000000000E+00 -0.97062296506E+02  0.25110285734E+04  0.25091519298E+04 0.  0.
        5    1    3    3  502    0  0.11659656820E+04 -0.45890881200E+03  0.13688437223E+02  0.12531092261E+04  0.46999998093E+01 0. -1.
       -5    1    3    3    0  502 -0.11659656820E+04  0.45890881200E+03 -0.11075073373E+03  0.12579193473E+04  0.46999998093E+01 0.  1.
</event>
<event>
 5   0  0.1002753E-05  0.2510630E+04  0.7818609E-02  0.8399208E-01
       -1   -1    0    0    0  501  0.00000000000E+00  0.00000000000E+00  0.11762556653E+04  0.11762556653E+04  0.50400001928E-02 0.  1.
        1   -1    0    0  501    0  0.00000000000E+00  0.00000000000E+00 -0.13396879747E+04  0.13396879747E+04  0.50400001928E-02 0. -1.
    10030    2    1    2    0    0  0.00000000000E+00  0.00000000000E+00 -0.16343230934E+03  0.25159436400E+04  0.25106298572E+04 0.  0.
        5    1    3    3  502    0 -0.17610135156E+03 -0.92313555298E+03 -0.91570503538E+03  0.13121466141E+04  0.46999998093E+01 0. -1.
       -5    1    3    3    0  502  0.17610135156E+03  0.92313555298E+03  0.75227272604E+03  0.12037970259E+04  0.46999998093E+01 0.  1.
</event>
<event>
 5   0  0.2432309E-05  0.2547724E+04  0.7818609E-02  0.8386178E-01
       -2   -1    0    0    0  501  0.00000000000E+00  0.00000000000E+00  0.11680005280E+04  0.11680005281E+04  0.25500000920E-02 0.  1.
        2   -1    0    0  501    0  0.00000000000E+00  0.00000000000E+00 -0.13893182174E+04  0.13893182174E+04  0.25500000920E-02 0. -1.
    10030    2    1    2    0    0  0.00000000000E+00  0.00000000000E+00 -0.22131768933E+03  0.25573187454E+04  0.25477240129E+04 0.  0.
        4    1    3    3  502    0 -0.84779530609E+03 -0.35715303877E+03 -0.99511717646E+03  0.13552029302E+04  0.12699999809E+01 0. -1.
       -4    1    3    3    0  502  0.84779530609E+03  0.35715303877E+03  0.77379948713E+03  0.12021158153E+04  0.12699999809E+01 0.  1.
</event>
<event>
 5   0  0.1008073E-05  0.2548888E+04  0.7818609E-02  0.8385773E-01
       -1   -1    0    0    0  501  0.00000000000E+00  0.00000000000E+00  0.12574039865E+04  0.12574039865E+04  0.50400001928E-02 0.  1.
        1   -1    0    0  501    0  0.00000000000E+00  0.00000000000E+00 -0.12917148432E+04  0.12917148432E+04  0.50400001928E-02 0. -1.
    10030    2    1    2    0    0  0.00000000000E+00  0.00000000000E+00 -0.34310856656E+02  0.25491188297E+04  0.25488879091E+04 0.  0.
        1    1    3    3  502    0 -0.10775662192E+04 -0.26834425147E+03  0.60824097231E+03  0.12661416487E+04  0.50400001928E-02 0.  1.
       -1    1    3    3    0  502  0.10775662192E+04  0.26834425147E+03 -0.64255182896E+03  0.12829771810E+04  0.50400001928E-02 0. -1.
</event>
<event>
 5   0  0.1002753E-05  0.2502042E+04  0.7818609E-02  0.8402258E-01
       -1   -1    0    0    0  501  0.00000000000E+00  0.00000000000E+00  0.10283141712E+04  0.10283141712E+04  0.50400001928E-02 0. -1.
        1   -1    0    0  501    0  0.00000000000E+00  0.00000000000E+00 -0.15219608896E+04  0.15219608896E+04  0.50400001928E-02 0.  1.
    10030    2    1    2    0    0  0.00000000000E+00  0.00000000000E+00 -0.49364671843E+03  0.25502750608E+04  0.25020423264E+04 0.  0.
        5    1    3    3  502    0 -0.38404001341E+03 -0.10925467253E+04 -0.72911151728E+03  0.13684921533E+04  0.46999998093E+01 0. -1.
       -5    1    3    3    0  502  0.38404001341E+03  0.10925467253E+04  0.23546479885E+03  0.11817829075E+04  0.46999998093E+01 0.  1.
</event>
<event>
 5   0  0.1010338E-05  0.2502974E+04  0.7818609E-02  0.8401927E-01
       -1   -1    0    0    0  501  0.00000000000E+00  0.00000000000E+00  0.15469799068E+04  0.15469799069E+04  0.50400001928E-02 0. -1.
        1   -1    0    0  501    0  0.00000000000E+00  0.00000000000E+00 -0.10124366829E+04  0.10124366829E+04  0.50400001928E-02 0.  1.
    10030    2    1    2    0    0  0.00000000000E+00  0.00000000000E+00  0.53454322398E+03  0.25594165897E+04  0.25029735958E+04 0.  0.
        2    1    3    3  502    0  0.71019799845E+03  0.20709930848E+03 -0.76492088650E+03  0.10641312340E+04  0.25500000920E-02 0.  1.
       -2    1    3    3    0  502 -0.71019799845E+03 -0.20709930848E+03  0.12994641105E+04  0.14952853557E+04  0.25500000920E-02 0. -1.
</event>
<event>
 5   0  0.1010338E-05  0.2607702E+04  0.7818609E-02  0.8365590E-01
        1   -1    0    0  501    0  0.00000000000E+00  0.00000000000E+00  0.31131576905E+04  0.31131576905E+04  0.50400001928E-02 0. -1.
       -1   -1    0    0    0  501  0.00000000000E+00  0.00000000000E+00 -0.54607829388E+03  0.54607829390E+03  0.50400001928E-02 0.  1.
    10030    2    1    2    0    0  0.00000000000E+00  0.00000000000E+00  0.25670793966E+04  0.36592359844E+04  0.26077023145E+04 0.  0.
        2    1    3    3  502    0  0.45946239830E+03 -0.31847023226E+03 -0.36936845706E+03  0.67004629793E+03  0.25500000920E-02 0.  1.
       -2    1    3    3    0  502 -0.45946239830E+03  0.31847023226E+03  0.29364478537E+04  0.29891896865E+04  0.25500000920E-02 0. -1.
</event>
<event>
 5   0  0.8166500E-06  0.2576126E+04  0.7818609E-02  0.8376356E-01
       -3   -1    0    0    0  501  0.00000000000E+00  0.00000000000E+00  0.12360062516E+04  0.12360062557E+04  0.10100000352E+00 0. -1.
        3   -1    0    0  501    0  0.00000000000E+00  0.00000000000E+00 -0.13423121954E+04  0.13423121992E+04  0.10100000352E+00 0.  1.
    10030    2    1    2    0    0  0.00000000000E+00  0.00000000000E+00 -0.10630594382E+03  0.25783184549E+04  0.25761259871E+04 0.  0.
        4    1    3    3  502    0  0.40474487323E+03 -0.12209353234E+04 -0.12105749797E+03  0.12919589804E+04  0.12699999809E+01 0.  1.
       -4    1    3    3    0  502 -0.40474487323E+03  0.12209353234E+04  0.14751554147E+02  0.12863594745E+04  0.12699999809E+01 0. -1.
</event>
<event>
 5   0  0.8166500E-06  0.2503698E+04  0.7818609E-02  0.8401669E-01
       -3   -1    0    0    0  501  0.00000000000E+00  0.00000000000E+00  0.13388421333E+04  0.13388421371E+04  0.10100000352E+00 0. -1.
        3   -1    0    0  501    0  0.00000000000E+00  0.00000000000E+00 -0.11705085030E+04  0.11705085074E+04  0.10100000352E+00 0.  1.
    10030    2    1    2    0    0  0.00000000000E+00  0.00000000000E+00  0.16833363029E+03  0.25093506445E+04  0.25036981539E+04 0.  0.
        2    1    3    3  502    0 -0.32008518811E+03 -0.41468535267E+03  0.12237067271E+04  0.13311185609E+04  0.25500000920E-02 0. -1.
       -2    1    3    3    0  502  0.32008518811E+03  0.41468535267E+03 -0.10553730968E+04  0.11782320836E+04  0.25500000920E-02 0.  1.
</event>
<event>
 5   0  0.1010338E-05  0.2190483E+04  0.7818609E-02  0.8522400E-01
       -1   -1    0    0    0  501  0.00000000000E+00  0.00000000000E+00  0.15460879684E+04  0.15460879684E+04  0.50400001928E-02 0.  1.
        1   -1    0    0  501    0  0.00000000000E+00  0.00000000000E+00 -0.77586368084E+03  0.77586368085E+03  0.50400001928E-02 0. -1.
    10030    2    1    2    0    0  0.00000000000E+00  0.00000000000E+00  0.77022428759E+03  0.23219516493E+04  0.21904825972E+04 0.  0.
        2    1    3    3  502    0 -0.36315024832E+03  0.72749286416E+03  0.11629298066E+04  0.14189889729E+04  0.25500000920E-02 0.  1.
       -2    1    3    3    0  502  0.36315024832E+03 -0.72749286416E+03 -0.39270551899E+03  0.90296267636E+03  0.25500000920E-02 0. -1.
</event>
<event>
 5   0  0.1010338E-05  0.2450997E+04  0.7818609E-02  0.8420654E-01
       -1   -1    0    0    0  501  0.00000000000E+00  0.00000000000E+00  0.10690611622E+04  0.10690611623E+04  0.50400001928E-02 0. -1.
        1   -1    0    0  501    0  0.00000000000E+00  0.00000000000E+00 -0.14048277925E+04  0.14048277925E+04  0.50400001928E-02 0.  1.
    10030    2    1    2    0    0  0.00000000000E+00  0.00000000000E+00 -0.33576663026E+03  0.24738889548E+04  0.24509972115E+04 0.  0.
        2    1    3    3  502    0 -0.10282404378E+04 -0.45396167424E+03  0.32502932118E+03  0.11700442980E+04  0.25500000920E-02 0. -1.
       -2    1    3    3    0  502  0.10282404378E+04  0.45396167424E+03 -0.66079595144E+03  0.13038446568E+04  0.25500000920E-02 0.  1.
</event>
<event>
 5   0  0.1010338E-05  0.2513816E+04  0.7818609E-02  0.8398080E-01
       -1   -1    0    0    0  501  0.00000000000E+00  0.00000000000E+00  0.13361668160E+04  0.13361668160E+04  0.50400001928E-02 0.  1.
        1   -1    0    0  501    0  0.00000000000E+00  0.00000000000E+00 -0.11823510057E+04  0.11823510057E+04  0.50400001928E-02 0. -1.
    10030    2    1    2    0    0  0.00000000000E+00  0.00000000000E+00  0.15381581031E+03  0.25185178217E+04  0.25138163646E+04 0.  0.
        2    1    3    3  502    0 -0.43250348234E+03 -0.56505168424E+03  0.11149322757E+04  0.13226551506E+04  0.25500000920E-02 0.  1.
       -2    1    3    3    0  502  0.43250348234E+03  0.56505168424E+03 -0.96111646536E+03  0.11958626711E+04  0.25500000920E-02 0. -1.
</event>
<event>
 5   0  0.2452457E-05  0.2498282E+04  0.7818609E-02  0.8403598E-01
        2   -1    0    0  501    0  0.00000000000E+00  0.00000000000E+00  0.17841661597E+04  0.17841661597E+04  0.25500000920E-02 0.  1.
       -2   -1    0    0    0  501  0.00000000000E+00  0.00000000000E+00 -0.87455633105E+03  0.87455633105E+03  0.25500000920E-02 0. -1.
    10030    2    1    2    0    0  0.00000000000E+00  0.00000000000E+00  0.90960982862E+03  0.26587224907E+04  0.24982824585E+04 0.  0.
        1    1    3    3  502    0 -0.74977074987E+03 -0.24994766687E+03  0.14842550329E+04  0.16815596975E+04  0.50400001928E-02 0.  1.
       -1    1    3    3    0  502  0.74977074987E+03  0.24994766687E+03 -0.57464520431E+03  0.97716279319E+03  0.50400001928E-02 0. -1.
</event>
<event>
 5   0  0.1002753E-05  0.2510358E+04  0.7818609E-02  0.8399305E-01
        1   -1    0    0  501    0  0.00000000000E+00  0.00000000000E+00  0.10340498830E+04  0.10340498830E+04  0.50400001928E-02 0. -1.
       -1   -1    0    0    0  501  0.00000000000E+00  0.00000000000E+00 -0.15235958117E+04  0.15235958118E+04  0.50400001928E-02 0.  1.
    10030    2    1    2    0    0  0.00000000000E+00  0.00000000000E+00 -0.48954592872E+03  0.25576456948E+04  0.25103577999E+04 0.  0.
        5    1    3    3  502    0 -0.14580264980E+03  0.58268828084E+02  0.10239956197E+04  0.10359743183E+04  0.46999998093E+01 0. -1.
       -5    1    3    3    0  502  0.14580264980E+03 -0.58268828084E+02 -0.15135415485E+04  0.15216713765E+04  0.46999998093E+01 0.  1.
</event>
<event>
 5   0  0.1010338E-05  0.2663622E+04  0.7818609E-02  0.8346906E-01
       -1   -1    0    0    0  501  0.00000000000E+00  0.00000000000E+00  0.21541950133E+04  0.21541950133E+04  0.50400001928E-02 0. -1.
        1   -1    0    0  501    0  0.00000000000E+00  0.00000000000E+00 -0.82337981006E+03  0.82337981008E+03  0.50400001928E-02 0.  1.
    10030    2    1    2    0    0  0.00000000000E+00  0.00000000000E+00  0.13308152032E+04  0.29775748233E+04  0.26636221060E+04 0.  0.
        2    1    3    3  502    0 -0.92014001313E+02  0.11824947036E+04  0.13425806454E+04  0.17914472054E+04  0.25500000920E-02 0. -1.
       -2    1    3    3    0  502  0.92014001313E+02 -0.11824947036E+04 -0.11765442171E+02  0.11861276179E+04  0.25500000920E-02 0.  1.
</event>
<event>
 5   0  0.1008073E-05  0.2496205E+04  0.7818609E-02  0.8404339E-01
       -1   -1    0    0    0  501  0.00000000000E+00  0.00000000000E+00  0.94734841141E+03  0.94734841143E+03  0.50400001928E-02 0. -1.
        1   -1    0    0  501    0  0.00000000000E+00  0.00000000000E+00 -0.16443364503E+04  0.16443364503E+04  0.50400001928E-02 0.  1.
    10030    2    1    2    0    0  0.00000000000E+00  0.00000000000E+00 -0.69698803891E+03  0.25916848618E+04  0.24962047385E+04 0.  0.
        1    1    3    3  502    0  0.20950380985E+03 -0.42080274505E+03 -0.15489162398E+04  0.16186748638E+04  0.50400001928E-02 0.  1.
       -1    1    3    3    0  502 -0.20950380985E+03  0.42080274505E+03  0.85192820093E+03  0.97300999797E+03  0.50400001928E-02 0. -1.
</event>
<event>
 5   0  0.2345143E-05  0.2389383E+04  0.7818609E-02  0.8443489E-01
       -2   -1    0    0    0  501  0.00000000000E+00  0.00000000000E+00  0.78069197130E+03  0.78069197130E+03  0.25500000920E-02 0.  1.
        2   -1    0    0  501    0  0.00000000000E+00  0.00000000000E+00 -0.18282339128E+04  0.18282339128E+04  0.25500000920E-02 0. -1.
    10030    2    1    2    0    0  0.00000000000E+00  0.00000000000E+00 -0.10475419415E+04  0.26089258841E+04  0.23893827968E+04 0.  0.
        5    1    3    3  502    0 -0.76333605919E+03  0.49989998794E+03  0.31824234039E+03  0.96637581428E+03  0.46999998093E+01 0.  1.
       -5    1    3    3    0  502  0.76333605919E+03 -0.49989998794E+03 -0.13657842819E+04  0.16425500698E+04  0.46999998093E+01 0. -1.
</event>
<event>
 5   0  0.2345143E-05  0.2503561E+04  0.7818609E-02  0.8401718E-01
       -2   -1    0    0    0  501  0.00000000000E+00  0.00000000000E+00  0.23747804922E+04  0.23747804922E+04  0.25500000920E-02 0.  1.
        2   -1    0    0  501    0  0.00000000000E+00  0.00000000000E+00 -0.65983116122E+03  0.65983116122E+03  0.25500000920E-02 0. -1.
    10030    2    1    2    0    0  0.00000000000E+00  0.00000000000E+00  0.17149493310E+04  0.30346116534E+04  0.25035608000E+04 0.  0.
        5    1    3    3  502    0 -0.14263537428E+03 -0.12374187858E+04  0.70714279019E+03  0.14323488113E+04  0.46999998093E+01 0. -1.
       -5    1    3    3    0  502  0.14263537428E+03  0.12374187858E+04  0.10078065408E+04  0.16022628421E+04  0.46999998093E+01 0.  1.
</event>
<event>
 5   0  0.2432309E-05  0.2577521E+04  0.7818609E-02  0.8375877E-01
        2   -1    0    0  501    0  0.00000000000E+00  0.00000000000E+00  0.23804310888E+04  0.23804310888E+04  0.25500000920E-02 0.  1.
       -2   -1    0    0    0  501  0.00000000000E+00  0.00000000000E+00 -0.69773216651E+03  0.69773216651E+03  0.25500000920E-02 0. -1.
    10030    2    1    2    0    0  0.00000000000E+00  0.00000000000E+00  0.16826989223E+04  0.30781632553E+04  0.25775207784E+04 0.  0.
        4    1    3    3  502    0 -0.12407229045E+04 -0.38043024090E+02  0.12551496540E+04  0.17652883233E+04  0.12699999809E+01 0.  1.
       -4    1    3    3    0  502  0.12407229045E+04  0.38043024090E+02  0.42754926831E+03  0.13128749321E+04  0.12699999809E+01 0. -1.
</event>
<event>
 5   0  0.1002753E-05  0.2505344E+04  0.7818609E-02  0.8401084E-01
        1   -1    0    0  501    0  0.00000000000E+00  0.00000000000E+00  0.16247249311E+04  0.16247249312E+04  0.50400001928E-02 0.  1.
       -1   -1    0    0    0  501  0.00000000000E+00  0.00000000000E+00 -0.96581736528E+03  0.96581736530E+03  0.50400001928E-02 0. -1.
    10030    2    1    2    0    0  0.00000000000E+00  0.00000000000E+00  0.65890756586E+03  0.25905422965E+04  0.25053443295E+04 0.  0.
        5    1    3    3  502    0  0.17054459020E+03  0.10323731463E+04  0.10415575385E+04  0.14763955996E+04  0.46999998093E+01 0.  1.
       -5    1    3    3    0  502 -0.17054459020E+03 -0.10323731463E+04 -0.38264997265E+03  0.11141466968E+04  0.46999998093E+01 0. -1.
</event>
<event>
 5   0  0.2388326E-05  0.2489706E+04  0.7818609E-02  0.8406662E-01
        2   -1    0    0  501    0  0.00000000000E+00  0.00000000000E+00  0.14076592084E+04  0.14076592084E+04  0.25500000920E-02 0. -1.
       -2   -1    0    0    0  501  0.00000000000E+00  0.00000000000E+00 -0.11008765193E+04  0.11008765193E+04  0.25500000920E-02 0.  1.
    10030    2    1    2    0    0  0.00000000000E+00  0.00000000000E+00  0.30678268903E+03  0.25085357277E+04  0.24897059824E+04 0.  0.
        2    1    3    3  502    0  0.11691959844E+03  0.77787544224E+03 -0.81873656188E+03  0.11353809730E+04  0.25500000920E-02 0.  1.
       -2    1    3    3    0  502 -0.11691959844E+03 -0.77787544224E+03  0.11255192509E+04  0.13731547547E+04  0.25500000920E-02 0. -1.
</event>
<event>
 5   0  0.1010338E-05  0.2510329E+04  0.7818609E-02  0.8399315E-01
        1   -1    0    0  501    0  0.00000000000E+00  0.00000000000E+00  0.14713269229E+04  0.14713269229E+04  0.50400001928E-02 0. -1.
       -1   -1    0    0    0  501  0.00000000000E+00  0.00000000000E+00 -0.10707596187E+04  0.10707596187E+04  0.50400001928E-02 0.  1.
    10030    2    1    2    0    0  0.00000000000E+00  0.00000000000E+00  0.40056730414E+03  0.25420865416E+04  0.25103286279E+04 0.  0.
        2    1    3    3  502    0  0.11984467881E+04 -0.18158570568E+03 -0.12970598385E+03  0.12190454113E+04  0.25500000920E-02 0.  1.
       -2    1    3    3    0  502 -0.11984467881E+04  0.18158570568E+03  0.53027328799E+03  0.13230411303E+04  0.25500000920E-02 0. -1.
</event>
<event>
 5   0  0.2388326E-05  0.2480287E+04  0.7818609E-02  0.8410042E-01
       -2   -1    0    0    0  501  0.00000000000E+00  0.00000000000E+00  0.71737534668E+03  0.71737534669E+03  0.25500000920E-02 0. -1.
        2   -1    0    0  501    0  0.00000000000E+00  0.00000000000E+00 -0.21438645208E+04  0.21438645208E+04  0.25500000920E-02 0.  1.
    10030    2    1    2    0    0  0.00000000000E+00  0.00000000000E+00 -0.14264891741E+04  0.28612398675E+04  0.24802867204E+04 0.  0.
        2    1    3    3  502    0  0.12343517070E+04 -0.10787877075E+03 -0.77311578717E+03  0.14604690980E+04  0.25500000920E-02 0. -1.
       -2    1    3    3    0  502 -0.12343517070E+04  0.10787877075E+03 -0.65337338694E+03  0.14007707695E+04  0.25500000920E-02 0.  1.
</event>
<event>
 5   0  0.1002753E-05  0.2515910E+04  0.7818609E-02  0.8397339E-01
       -1   -1    0    0    0  501  0.00000000000E+00  0.00000000000E+00  0.17340108424E+04  0.17340108424E+04  0.50400001928E-02 0.  1.
        1   -1    0    0  501    0  0.00000000000E+00  0.00000000000E+00 -0.91259583647E+03  0.91259583648E+03  0.50400001928E-02 0. -1.
    10030    2    1    2    0    0  0.00000000000E+00  0.00000000000E+00  0.82141500592E+03  0.26466066789E+04  0.25159102330E+04 0.  0.
        5    1    3    3  502    0  0.98468346252E+03  0.78271768268E+03  0.39657482424E+03  0.13189170457E+04  0.46999998093E+01 0. -1.
       -5    1    3    3    0  502 -0.98468346252E+03 -0.78271768268E+03  0.42484018168E+03  0.13276896332E+04  0.46999998093E+01 0.  1.
</event>
<event>
 5   0  0.2432309E-05  0.2533323E+04  0.7818609E-02  0.8391209E-01
       -2   -1    0    0    0  501  0.00000000000E+00  0.00000000000E+00  0.11819213229E+04  0.11819213229E+04  0.25500000920E-02 0.  1.
        2   -1    0    0  501    0  0.00000000000E+00  0.00000000000E+00 -0.13574775918E+04  0.13574775918E+04  0.25500000920E-02 0. -1.
    10030    2    1    2    0    0  0.00000000000E+00  0.00000000000E+00 -0.17555626896E+03  0.25393989147E+04  0.25333232807E+04 0.  0.
        4    1    3    3  502    0  0.79296585033E+03  0.95362789674E+03  0.17018920170E+03  0.12518654011E+04  0.12699999809E+01 0.  1.
       -4    1    3    3    0  502 -0.79296585033E+03 -0.95362789674E+03 -0.34574547065E+03  0.12875335136E+04  0.12699999809E+01 0. -1.
</event>
<event>
 5   0  0.1008073E-05  0.2470609E+04  0.7818609E-02  0.8413532E-01
       -1   -1    0    0    0  501  0.00000000000E+00  0.00000000000E+00  0.61188161853E+03  0.61188161855E+03  0.50400001928E-02 0. -1.
        1   -1    0    0  501    0  0.00000000000E+00  0.00000000000E+00 -0.24939083788E+04  0.24939083788E+04  0.50400001928E-02 0.  1.
    10030    2    1    2    0    0  0.00000000000E+00  0.00000000000E+00 -0.18820267603E+04  0.31057899974E+04  0.24706085852E+04 0.  0.
        1    1    3    3  502    0 -0.48650331397E+03 -0.35410780304E+03 -0.22972197089E+04  0.23747202365E+04  0.50400001928E-02 0.  1.
       -1    1    3    3    0  502  0.48650331397E+03  0.35410780304E+03  0.41519294861E+03  0.73106976088E+03  0.50400001928E-02 0. -1.
</event>
<event>
 5   0  0.1002753E-05  0.2504655E+04  0.7818609E-02  0.8401329E-01
       -1   -1    0    0    0  501  0.00000000000E+00  0.00000000000E+00  0.85463086781E+03  0.85463086783E+03  0.50400001928E-02 0. -1.
        1   -1    0    0  501    0  0.00000000000E+00  0.00000000000E+00 -0.18350900485E+04  0.18350900485E+04  0.50400001928E-02 0.  1.
    10030    2    1    2    0    0  0.00000000000E+00  0.00000000000E+00 -0.98045918070E+03  0.26897209163E+04  0.25046553461E+04 0.  0.
        5    1    3    3  502    0  0.13289847893E+03  0.43069522931E+03 -0.17449535210E+04  0.18022334107E+04  0.46999998093E+01 0.  1.
       -5    1    3    3    0  502 -0.13289847893E+03 -0.43069522931E+03  0.76449434031E+03  0.88748750562E+03  0.46999998093E+01 0. -1.
</event>
<event>
 5   0  0.1008073E-05  0.2539192E+04  0.7818609E-02  0.8389155E-01
        1   -1    0    0  501    0  0.00000000000E+00  0.00000000000E+00  0.20427839594E+04  0.20427839594E+04  0.50400001928E-02 0.  1.
       -1   -1    0    0    0  501  0.00000000000E+00  0.00000000000E+00 -0.78905737685E+03  0.78905737687E+03  0.50400001928E-02 0. -1.
    10030    2    1    2    0    0  0.00000000000E+00  0.00000000000E+00  0.12537265825E+04  0.28318413363E+04  0.25391918025E+04 0.  0.
        1    1    3    3  502    0 -0.15073944235E+03 -0.32194868607E+03 -0.73241943665E+03  0.81413240149E+03  0.50400001928E-02 0. -1.
       -1    1    3    3    0  502  0.15073944235E+03  0.32194868607E+03  0.19861460192E+04  0.20177089348E+04  0.50400001928E-02 0.  1.
</event>
<event>
 5   0  0.2388326E-05  0.2416519E+04  0.7818609E-02  0.8433345E-01
        2   -1    0    0  501    0  0.00000000000E+00  0.00000000000E+00  0.92609804230E+03  0.92609804231E+03  0.25500000920E-02 0.  1.
       -2   -1    0    0    0  501  0.00000000000E+00  0.00000000000E+00 -0.15763897825E+04  0.15763897825E+04  0.25500000920E-02 0. -1.
    10030    2    1    2    0    0  0.00000000000E+00  0.00000000000E+00 -0.65029174017E+03  0.25024878248E+04  0.24165193907E+04 0.  0.
        2    1    3    3  502    0  0.98843372146E+01  0.90427792143E+03  0.50465645536E+03  0.10356130538E+04  0.25500000920E-02 0.  1.
       -2    1    3    3    0  502 -0.98843372146E+01 -0.90427792143E+03 -0.11549481955E+04  0.14668747710E+04  0.25500000920E-02 0. -1.
</event>
<event>
 5   0  0.2441340E-05  0.2411807E+04  0.7818609E-02  0.8435096E-01
        2   -1    0    0  501    0  0.00000000000E+00  0.00000000000E+00  0.20007881426E+04  0.20007881426E+04  0.25500000920E-02 0. -1.
       -2   -1    0    0    0  501  0.00000000000E+00  0.00000000000E+00 -0.72681539393E+03  0.72681539394E+03  0.25500000920E-02 0.  1.
    10030    2    1    2    0    0  0.00000000000E+00  0.00000000000E+00  0.12739727486E+04  0.27276035365E+04  0.24118073074E+04 0.  0.
        3    1    3    3  502    0  0.81655263843E+03  0.28946979665E+03 -0.31168937298E+03  0.92070692944E+03  0.10100000352E+00 0.  1.
       -3    1    3    3    0  502 -0.81655263843E+03 -0.28946979665E+03  0.15856621216E+04  0.18068966071E+04  0.10100000352E+00 0. -1.
</event>
<event>
 5   0  0.1002753E-05  0.2515848E+04  0.7818609E-02  0.8397361E-01
       -1   -1    0    0    0  501  0.00000000000E+00  0.00000000000E+00  0.85858228285E+03  0.85858228287E+03  0.50400001928E-02 0.  1.
        1   -1    0    0  501    0  0.00000000000E+00  0.00000000000E+00 -0.18430062732E+04  0.18430062732E+04  0.50400001928E-02 0. -1.
    10030    2    1    2    0    0  0.00000000000E+00  0.00000000000E+00 -0.98442399035E+03  0.27015885561E+04  0.25158477962E+04 0.  0.
        5    1    3    3  502    0  0.63157849800E+03 -0.52628201013E+03  0.53017534795E+03  0.97824952997E+03  0.46999998093E+01 0.  1.
       -5    1    3    3    0  502 -0.63157849800E+03  0.52628201013E+03 -0.15145993383E+04  0.17233390261E+04  0.46999998093E+01 0. -1.
</event>
<event>
 5   0  0.2345143E-05  0.2479215E+04  0.7818609E-02  0.8410428E-01
       -2   -1    0    0    0  501  0.00000000000E+00  0.00000000000E+00  0.14167941290E+04  0.14167941290E+04  0.25500000920E-02 0. -1.
        2   -1    0    0  501    0  0.00000000000E+00  0.00000000000E+00 -0.10845800728E+04  0.10845800728E+04  0.25500000920E-02 0.  1.
    10030    2    1    2    0    0  0.00000000000E+00  0.00000000000E+00  0.33221405618E+03  0.25013742018E+04  0.24792149399E+04 0.  0.
        5    1    3    3  502    0  0.11880643868E+04  0.33382095501E+03  0.48138172253E+02  0.12350193483E+04  0.46999998093E+01 0. -1.
       -5    1    3    3    0  502 -0.11880643868E+04 -0.33382095501E+03  0.28407588392E+03  0.12663548535E+04  0.46999998093E+01 0.  1.
</event>
<event>
 5   0  0.2345143E-05  0.2605168E+04  0.7818609E-02  0.8366448E-01
        2   -1    0    0  501    0  0.00000000000E+00  0.00000000000E+00  0.12929301549E+04  0.12929301549E+04  0.25500000920E-02 0. -1.
       -2   -1    0    0    0  501  0.00000000000E+00  0.00000000000E+00 -0.13123097290E+04  0.13123097290E+04  0.25500000920E-02 0.  1.
    10030    2    1    2    0    0  0.00000000000E+00  0.00000000000E+00 -0.19379574180E+02  0.26052398839E+04  0.26051678036E+04 0.  0.
        5    1    3    3  502    0 -0.49479771139E+03 -0.28914981216E+03 -0.11794530359E+04  0.13113214492E+04  0.46999998093E+01 0.  1.
       -5    1    3    3    0  502  0.49479771139E+03  0.28914981216E+03  0.11600734618E+04  0.12939184347E+04  0.46999998093E+01 0. -1.
</event>
<event>
 5   0  0.2345143E-05  0.2535553E+04  0.7818609E-02  0.8390428E-01
       -2   -1    0    0    0  501  0.00000000000E+00  0.00000000000E+00  0.11125637319E+04  0.11125637319E+04  0.25500000920E-02 0. -1.
        2   -1    0    0  501    0  0.00000000000E+00  0.00000000000E+00 -0.14446425786E+04  0.14446425786E+04  0.25500000920E-02 0.  1.
    10030    2    1    2    0    0  0.00000000000E+00  0.00000000000E+00 -0.33207884672E+03  0.25572063105E+04  0.25355527512E+04 0.  0.
        5    1    3    3  502    0 -0.89998715478E+03 -0.88431962547E+03 -0.41547960539E+02  0.12624366922E+04  0.46999998093E+01 0. -1.
       -5    1    3    3    0  502  0.89998715478E+03  0.88431962547E+03 -0.29053088618E+03  0.12947696183E+04  0.46999998093E+01 0.  1.
</event>
<event>
 5   0  0.1008073E-05  0.2489627E+04  0.7818609E-02  0.8406690E-01
       -1   -1    0    0    0  501  0.00000000000E+00  0.00000000000E+00  0.18877180350E+04  0.18877180350E+04  0.50400001928E-02 0. -1.
        1   -1    0    0  501    0  0.00000000000E+00  0.00000000000E+00 -0.82086463177E+03  0.82086463179E+03  0.50400001928E-02 0.  1.
    10030    2    1    2    0    0  0.00000000000E+00  0.00000000000E+00  0.10668534032E+04  0.27085826668E+04  0.24896272570E+04 0.  0.
        1    1    3    3  502    0  0.10886040075E+04 -0.52457081670E+03  0.20826383420E+03  0.12262165598E+04  0.50400001928E-02 0.  1.
       -1    1    3    3    0  502 -0.10886040075E+04  0.52457081670E+03  0.85858956900E+03  0.14823661069E+04  0.50400001928E-02 0. -1.
</event>
<event>
 5   0  0.2432309E-05  0.2490430E+04  0.7818609E-02  0.8406403E-01
       -2   -1    0    0    0  501  0.00000000000E+00  0.00000000000E+00  0.30857305549E+04  0.30857305549E+04  0.25500000920E-02 0. -1.
        2   -1    0    0  501    0  0.00000000000E+00  0.00000000000E+00 -0.50249397027E+03  0.50249397028E+03  0.25500000920E-02 0.  1.
    10030    2    1    2    0    0  0.00000000000E+00  0.00000000000E+00  0.25832365846E+04  0.35882245251E+04  0.24904304830E+04 0.  0.
        4    1    3    3  502    0 -0.22003772744E+03  0.73844444399E+03 -0.11775304497E+03  0.77947686999E+03  0.12699999809E+01 0.  1.
       -4    1    3    3    0  502  0.22003772744E+03 -0.73844444399E+03  0.27009896296E+04  0.28087476551E+04  0.12699999809E+01 0. -1.
</event>
<event>
 5   0  0.1008073E-05  0.2472169E+04  0.7818609E-02  0.8412968E-01
        1   -1    0    0  501    0  0.00000000000E+00  0.00000000000E+00  0.16780062672E+04  0.16780062672E+04  0.50400001928E-02 0.  1.
       -1   -1    0    0    0  501  0.00000000000E+00  0.00000000000E+00 -0.91054794131E+03  0.91054794132E+03  0.50400001928E-02 0. -1.
    10030    2    1    2    0    0  0.00000000000E+00  0.00000000000E+00  0.76745832593E+03  0.25885542086E+04  0.24721692112E+04 0.  0.
        1    1    3    3  502    0  0.75136647780E+03  0.37761991852E+03 -0.56487779645E+03  0.10130327299E+04  0.50400001928E-02 0. -1.
       -1    1    3    3    0  502 -0.75136647780E+03 -0.37761991852E+03  0.13323361224E+04  0.15755214787E+04  0.50400001928E-02 0.  1.
</event>
<event>
 5   0  0.1039688E-05  0.2566877E+04  0.7818609E-02  0.8379540E-01
       -1   -1    0    0    0  501  0.00000000000E+00  0.00000000000E+00  0.73113554339E+03  0.73113554340E+03  0.50400001928E-02 0. -1.
        1   -1    0    0  501    0  0.00000000000E+00  0.00000000000E+00 -0.22529535458E+04  0.22529535458E+04  0.50400001928E-02 0.  1.
    10030    2    1    2    0    0  0.00000000000E+00  0.00000000000E+00 -0.15218180024E+04  0.29840890892E+04  0.25668770247E+04 0.  0.
        3    1    3    3  502    0  0.99631414205E+03 -0.60947581264E+03 -0.14234351585E+03  0.11765901251E+04  0.10100000352E+00 0. -1.
       -3    1    3    3    0  502 -0.99631414205E+03  0.60947581264E+03 -0.13794744865E+04  0.18074989641E+04  0.10100000352E+00 0.  1.
</event>
<event>
 5   0  0.1015327E-05  0.2493159E+04  0.7818609E-02  0.8405427E-01
       -1   -1    0    0    0  501  0.00000000000E+00  0.00000000000E+00  0.14774744408E+04  0.14774744408E+04  0.50400001928E-02 0.  1.
        1   -1    0    0  501    0  0.00000000000E+00  0.00000000000E+00 -0.10517678547E+04  0.10517678547E+04  0.50400001928E-02 0. -1.
    10030    2    1    2    0    0  0.00000000000E+00  0.00000000000E+00  0.42570658605E+03  0.25292422955E+04  0.24931587378E+04 0.  0.
        4    1    3    3  502    0 -0.73371022977E+03  0.99428723544E+03  0.46094470098E+02  0.12365533231E+04  0.12699999809E+01 0.  1.
       -4    1    3    3    0  502  0.73371022977E+03 -0.99428723544E+03  0.37961211596E+03  0.12926889724E+04  0.12699999809E+01 0. -1.
</event>
<event>
 5   0  0.2432309E-05  0.2476040E+04  0.7818609E-02  0.8411571E-01
       -2   -1    0    0    0  501  0.00000000000E+00  0.00000000000E+00  0.12382348564E+04  0.12382348564E+04  0.25500000920E-02 0.  1.
        2   -1    0    0  501    0  0.00000000000E+00  0.00000000000E+00 -0.12378052429E+04  0.12378052429E+04  0.25500000920E-02 0. -1.
    10030    2    1    2    0    0  0.00000000000E+00  0.00000000000E+00  0.42961356712E+00  0.24760400993E+04  0.24760400620E+04 0.  0.
        4    1    3    3  502    0 -0.37940350604E+03 -0.11724527109E+04  0.11895656410E+03  0.12380406523E+04  0.12699999809E+01 0. -1.
       -4    1    3    3    0  502  0.37940350604E+03  0.11724527109E+04 -0.11852695054E+03  0.12379994470E+04  0.12699999809E+01 0.  1.
</event>
<event>
 5   0  0.1015327E-05  0.2561970E+04  0.7818609E-02  0.8381235E-01
       -1   -1    0    0    0  501  0.00000000000E+00  0.00000000000E+00  0.12498067443E+04  0.12498067443E+04  0.50400001928E-02 0. -1.
        1   -1    0    0  501    0  0.00000000000E+00  0.00000000000E+00 -0.13129413121E+04  0.13129413121E+04  0.50400001928E-02 0.  1.
    10030    2    1    2    0    0  0.00000000000E+00  0.00000000000E+00 -0.63134567854E+02  0.25627480564E+04  0.25619702627E+04 0.  0.
        4    1    3    3  502    0  0.30944884467E+03 -0.58227473665E+03 -0.11301351174E+04  0.13084377910E+04  0.12699999809E+01 0.  1.
       -4    1    3    3    0  502 -0.30944884467E+03  0.58227473665E+03  0.10670005495E+04  0.12543102655E+04  0.12699999809E+01 0. -1.
</event>
<event>
 5   0  0.1039688E-05  0.2499020E+04  0.7818609E-02  0.8403335E-01
       -1   -1    0    0    0  501  0.00000000000E+00  0.00000000000E+00  0.15006899943E+04  0.15006899943E+04  0.50400001928E-02 0.  1.
        1   -1    0    0  501    0  0.00000000000E+00  0.00000000000E+00 -0.10403714722E+04  0.10403714722E+04  0.50400001928E-02 0. -1.
    10030    2    1    2    0    0  0.00000000000E+00  0.00000000000E+00  0.46031852213E+03  0.25410614665E+04  0.24990198548E+04 0.  0.
        3    1    3    3  502    0  0.58584606842E+03  0.62525502700E+03  0.11549182587E+04  0.14380527317E+04  0.10100000352E+00 0.  1.
       -3    1    3    3    0  502 -0.58584606842E+03 -0.62525502700E+03 -0.69459973660E+03  0.11030087348E+04  0.10100000352E+00 0. -1.
</event>
<event>
 5   0  0.2452457E-05  0.2514391E+04  0.7818609E-02  0.8397877E-01
       -2   -1    0    0    0  501  0.00000000000E+00  0.00000000000E+00  0.72846022255E+03  0.72846022256E+03  0.25500000920E-02 0. -1.
        2   -1    0    0  501    0  0.00000000000E+00  0.00000000000E+00 -0.21696997476E+04  0.21696997476E+04  0.25500000920E-02 0.  1.
    10030    2    1    2    0    0  0.00000000000E+00  0.00000000000E+00 -0.14412395250E+04  0.28981599701E+04  0.25143905512E+04 0.  0.
        1    1    3    3  502    0 -0.67467502772E+03 -0.78344315230E+03 -0.15450279940E+04  0.18590538099E+04  0.50400001928E-02 0.  1.
       -1    1    3    3    0  502  0.67467502772E+03  0.78344315230E+03  0.10378846896E+03  0.10391061602E+04  0.50400001928E-02 0. -1.
</event>
<event>
 5   0  0.2345143E-05  0.2478446E+04  0.7818609E-02  0.8410705E-01
        2   -1    0    0  501    0  0.00000000000E+00  0.00000000000E+00  0.16798719885E+04  0.16798719885E+04  0.25500000920E-02 0. -1.
       -2   -1    0    0    0  501  0.00000000000E+00  0.00000000000E+00 -0.91416091090E+03  0.91416091090E+03  0.25500000920E-02 0.  1.
    10030    2    1    2    0    0  0.00000000000E+00  0.00000000000E+00  0.76571107762E+03  0.25940328994E+04  0.24784457284E+04 0.  0.
        5    1    3    3  502    0  0.47984319864E+03  0.61096881286E+03  0.13933448116E+04  0.15952944053E+04  0.46999998093E+01 0. -1.
       -5    1    3    3    0  502 -0.47984319864E+03 -0.61096881286E+03 -0.62763373399E+03  0.99873849411E+03  0.46999998093E+01 0.  1.
</event>
<event>
 5   0  0.1015327E-05  0.2483907E+04  0.7818609E-02  0.8408741E-01
       -1   -1    0    0    0  501  0.00000000000E+00  0.00000000000E+00  0.88546730400E+03  0.88546730402E+03  0.50400001928E-02 0.  1.
        1   -1    0    0  501    0  0.00000000000E+00  0.00000000000E+00 -0.17419593972E+04  0.17419593972E+04  0.50400001928E-02 0. -1.
    10030    2    1    2    0    0  0.00000000000E+00  0.00000000000E+00 -0.85649209320E+03  0.26274267012E+04  0.24839066739E+04 0.  0.
        4    1    3    3  502    0  0.85189197391E+03 -0.34771651455E+03 -0.13106017887E+04  0.16013448633E+04  0.12699999809E+01 0. -1.
       -4    1    3    3    0  502 -0.85189197391E+03  0.34771651455E+03  0.45410969551E+03  0.10260818379E+04  0.12699999809E+01 0.  1.
</event>
<event>
 5   0  0.2432309E-05  0.2500531E+04  0.7818609E-02  0.8402797E-01
        2   -1    0    0  501    0  0.00000000000E+00  0.00000000000E+00  0.18204945502E+04  0.18204945502E+04  0.25500000920E-02 0.  1.
       -2   -1    0    0    0  501  0.00000000000E+00  0.00000000000E+00 -0.85864758218E+03  0.85864758218E+03  0.25500000920E-02 0. -1.
    10030    2    1    2    0    0  0.00000000000E+00  0.00000000000E+00  0.96184696805E+03  0.26791421324E+04  0.25005305388E+04 0.  0.
        4    1    3    3  502    0  0.99398592101E+02 -0.27660254867E+03 -0.82110474858E+03  0.87212594909E+03  0.12699999809E+01 0. -1.
       -4    1    3    3    0  502 -0.99398592101E+02  0.27660254867E+03  0.17829517166E+04  0.18070161833E+04  0.12699999809E+01 0.  1.
</event>
<event>
 5   0  0.2388326E-05  0.2742045E+04  0.7818609E-02  0.8321490E-01
        2   -1    0    0  501    0  0.00000000000E+00  0.00000000000E+00  0.87633411890E+03  0.87633411891E+03  0.25500000920E-02 0. -1.
       -2   -1    0    0    0  501  0.00000000000E+00  0.00000000000E+00 -0.21449615927E+04  0.21449615927E+04  0.25500000920E-02 0.  1.
    10030    2    1    2    0    0  0.00000000000E+00  0.00000000000E+00 -0.12686274738E+04  0.30212957116E+04  0.27420452421E+04 0.  0.
        2    1    3    3  502    0  0.87639326366E+03  0.82685289014E+02  0.52382516811E+03  0.10243509244E+04  0.25500000920E-02 0. -1.
       -2    1    3    3    0  502 -0.87639326366E+03 -0.82685289014E+02 -0.17924526419E+04  0.19969447872E+04  0.25500000920E-02 0.  1.
</event>
<event>
 5   0  0.1008073E-05  0.2569785E+04  0.7818609E-02  0.8378538E-01
       -1   -1    0    0    0  501  0.00000000000E+00  0.00000000000E+00  0.16392033911E+04  0.16392033912E+04  0.50400001928E-02 0.  1.
        1   -1    0    0  501    0  0.00000000000E+00  0.00000000000E+00 -0.10071652412E+04  0.10071652412E+04  0.50400001928E-02 0. -1.
    10030    2    1    2    0    0  0.00000000000E+00  0.00000000000E+00  0.63203814992E+03  0.26463686324E+04  0.25697849551E+04 0.  0.
        1    1    3    3  502    0  0.52295052539E+03  0.71471882186E+03  0.12747020963E+04  0.15521487302E+04  0.50400001928E-02 0.  1.
       -1    1    3    3    0  502 -0.52295052539E+03 -0.71471882186E+03 -0.64266394640E+03  0.10942199022E+04  0.50400001928E-02 0. -1.
</event>
<event>
 5   0  0.2388326E-05  0.2509533E+04  0.7818609E-02  0.8399597E-01
        2   -1    0    0  501    0  0.00000000000E+00  0.00000000000E+00  0.20027007347E+04  0.20027007347E+04  0.25500000920E-02 0. -1.
       -2   -1    0    0    0  501  0.00000000000E+00  0.00000000000E+00 -0.78615791507E+03  0.78615791508E+03  0.25500000920E-02 0.  1.
    10030    2    1    2    0    0  0.00000000000E+00  0.00000000000E+00  0.12165428196E+04  0.27888586498E+04  0.25095330515E+04 0.  0.
        2    1    3    3  502    0  0.10233302182E+04 -0.25862236204E+03  0.13622813616E+04  0.17233400041E+04  0.25500000920E-02 0. -1.
       -2    1    3    3    0  502 -0.10233302182E+04  0.25862236204E+03 -0.14573854196E+03  0.10655186457E+04  0.25500000920E-02 0.  1.
</event>
<event>
 5   0  0.1010338E-05  0.2198418E+04  0.7818609E-02  0.8519087E-01
        1   -1    0    0  501    0  0.00000000000E+00  0.00000000000E+00  0.21607853865E+04  0.21607853865E+04  0.50400001928E-02 0. -1.
       -1   -1    0    0    0  501  0.00000000000E+00  0.00000000000E+00 -0.55917633882E+03  0.55917633885E+03  0.50400001928E-02 0.  1.
    10030    2    1    2    0    0  0.00000000000E+00  0.00000000000E+00  0.16016090477E+04  0.27199617254E+04  0.21984176686E+04 0.  0.
        2    1    3    3  502    0  0.10881819453E+04 -0.60578895393E+02  0.62387408087E+03  0.12557980002E+04  0.25500000920E-02 0.  1.
       -2    1    3    3    0  502 -0.10881819453E+04  0.60578895393E+02  0.97773496681E+03  0.14641637251E+04  0.25500000920E-02 0. -1.
</event>
<event>
 5   0  0.1008073E-05  0.2337986E+04  0.7818609E-02  0.8463093E-01
       -1   -1    0    0    0  501  0.00000000000E+00  0.00000000000E+00  0.13297751945E+04  0.13297751945E+04  0.50400001928E-02 0.  1.
        1   -1    0    0  501    0  0.00000000000E+00  0.00000000000E+00 -0.10276508478E+04  0.10276508478E+04  0.50400001928E-02 0. -1.
    10030    2    1    2    0    0  0.00000000000E+00  0.00000000000E+00  0.30212434668E+03  0.23574260423E+04  0.23379859760E+04 0.  0.
        1    1    3    3  502    0 -0.31117374348E+03 -0.35684228282E+03 -0.92664630171E+03  0.10405954459E+04  0.50400001928E-02 0. -1.
       -1    1    3    3    0  502  0.31117374348E+03  0.35684228282E+03  0.12287706484E+04  0.13168305965E+04  0.50400001928E-02 0.  1.
</event>
<event>
 5   0  0.2452457E-05  0.2351422E+04  0.7818609E-02  0.8457918E-01
        2   -1    0    0  501    0  0.00000000000E+00  0.00000000000E+00  0.17971933294E+04  0.17971933294E+04  0.25500000920E-02 0. -1.
       -2   -1    0    0    0  501  0.00000000000E+00  0.00000000000E+00 -0.76914139546E+03  0.76914139546E+03  0.25500000920E-02 0.  1.
    10030    2    1    2    0    0  0.00000000000E+00  0.00000000000E+00  0.10280519339E+04  0.25663347248E+04  0.23514215150E+04 0.  0.
        1    1    3    3  502    0 -0.30660097564E+03 -0.52168084426E+03 -0.58614388874E+03  0.84244864524E+03  0.50400001928E-02 0.  1.
       -1    1    3    3    0  502  0.30660097564E+03  0.52168084426E+03  0.16141958226E+04  0.17238860796E+04  0.50400001928E-02 0. -1.
</event>
<event>
 5   0  0.2388326E-05  0.2510343E+04  0.7818609E-02  0.8399310E-01
       -2   -1    0    0    0  501  0.00000000000E+00  0.00000000000E+00  0.11307477155E+04  0.11307477155E+04  0.25500000920E-02 0.  1.
        2   -1    0    0  501    0  0.00000000000E+00  0.00000000000E+00 -0.13932864329E+04  0.13932864329E+04  0.25500000920E-02 0. -1.
    10030    2    1    2    0    0  0.00000000000E+00  0.00000000000E+00 -0.26253871741E+03  0.25240341484E+04  0.25103429654E+04 0.  0.
        2    1    3    3  502    0 -0.53474337070E+03 -0.81914576300E+03 -0.92200960526E+03  0.13442663299E+04  0.25500000920E-02 0. -1.
       -2    1    3    3    0  502  0.53474337070E+03  0.81914576300E+03  0.65947088785E+03  0.11797678185E+04  0.25500000920E-02 0.  1.
</event>
<event>
 5   0  0.1008073E-05  0.2500081E+04  0.7818609E-02  0.8402957E-01
       -1   -1    0    0    0  501  0.00000000000E+00  0.00000000000E+00  0.12633372607E+04  0.12633372607E+04  0.50400001928E-02 0.  1.
        1   -1    0    0  501    0  0.00000000000E+00  0.00000000000E+00 -0.12368835252E+04  0.12368835252E+04  0.50400001928E-02 0. -1.
    10030    2    1    2    0    0  0.00000000000E+00  0.00000000000E+00  0.26453735487E+02  0.25002207859E+04  0.25000808344E+04 0.  0.
        1    1    3    3  502    0  0.55378195277E+03  0.74071392365E+03  0.85426709454E+03  0.12590090694E+04  0.50400001928E-02 0.  1.
       -1    1    3    3    0  502 -0.55378195277E+03 -0.74071392365E+03 -0.82781335905E+03  0.12412117166E+04  0.50400001928E-02 0. -1.
</event>
<event>
 5   0  0.1010338E-05  0.2507105E+04  0.7818609E-02  0.8400459E-01
        1   -1    0    0  501    0  0.00000000000E+00  0.00000000000E+00  0.22456981046E+04  0.22456981046E+04  0.50400001928E-02 0. -1.
       -1   -1    0    0    0  501  0.00000000000E+00  0.00000000000E+00 -0.69973535945E+03  0.69973535947E+03  0.50400001928E-02 0.  1.
    10030    2    1    2    0    0  0.00000000000E+00  0.00000000000E+00  0.15459627452E+04  0.29454334641E+04  0.25071053991E+04 0.  0.
        2    1    3    3  502    0 -0.75360304078E+03 -0.63534634846E+03 -0.13689867878E+03  0.99515012628E+03  0.25500000920E-02 0.  1.
       -2    1    3    3    0  502  0.75360304078E+03  0.63534634846E+03  0.16828614240E+04  0.19502833378E+04  0.25500000920E-02 0. -1.
</event>
<event>
 5   0  0.2452457E-05  0.2461922E+04  0.7818609E-02  0.8416678E-01
        2   -1    0    0  501    0  0.00000000000E+00  0.00000000000E+00  0.13858856935E+04  0.13858856935E+04  0.25500000920E-02 0.  1.
       -2   -1    0    0    0  501  0.00000000000E+00  0.00000000000E+00 -0.10933548983E+04  0.10933548983E+04  0.25500000920E-02 0. -1.
    10030    2    1    2    0    0  0.00000000000E+00  0.00000000000E+00  0.29253079523E+03  0.24792405918E+04  0.24619219415E+04 0.  0.
        1    1    3    3  502    0  0.40123715876E+03  0.79694459415E+03 -0.70772902319E+03  0.11388557038E+04  0.50400001928E-02 0. -1.
       -1    1    3    3    0  502 -0.40123715876E+03 -0.79694459415E+03  0.10002598184E+04  0.13403848880E+04  0.50400001928E-02 0.  1.
</event>
<event>
 5   0  0.1010338E-05  0.2471705E+04  0.7818609E-02  0.8413136E-01
       -1   -1    0    0    0  501  0.00000000000E+00  0.00000000000E+00  0.71741202261E+03  0.71741202263E+03  0.50400001928E-02 0.  1.
        1   -1    0    0  501    0  0.00000000000E+00  0.00000000000E+00 -0.21289460491E+04  0.21289460491E+04  0.50400001928E-02 0. -1.
    10030    2    1    2    0    0  0.00000000000E+00  0.00000000000E+00 -0.14115340264E+04  0.28463580717E+04  0.24717050723E+04 0.  0.
        2    1    3    3  502    0  0.67418024136E+03  0.59134015122E+03 -0.16850334496E+04  0.19088058829E+04  0.25500000920E-02 0. -1.
       -2    1    3    3    0  502 -0.67418024136E+03 -0.59134015122E+03  0.27349942314E+03  0.93755218882E+03  0.25500000920E-02 0.  1.
</event>
<event>
 5   0  0.1039688E-05  0.2503021E+04  0.7818609E-02  0.8401910E-01
        1   -1    0    0  501    0  0.00000000000E+00  0.00000000000E+00  0.14450966368E+04  0.14450966369E+04  0.50400001928E-02 0.  1.
       -1   -1    0    0    0  501  0.00000000000E+00  0.00000000000E+00 -0.10838570604E+04  0.10838570604E+04  0.50400001928E-02 0. -1.
    10030    2    1    2    0    0  0.00000000000E+00  0.00000000000E+00  0.36123957646E+03  0.25289536973E+04  0.25030207293E+04 0.  0.
        3    1    3    3  502    0  0.19274081753E+03  0.10150527642E+03 -0.10645552905E+04  0.10866141544E+04  0.10100000352E+00 0. -1.
       -3    1    3    3    0  502 -0.19274081753E+03 -0.10150527642E+03  0.14257948670E+04  0.14423395428E+04  0.10100000352E+00 0.  1.
</event>
<event>
 5   0  0.2432309E-05  0.2495824E+04  0.7818609E-02  0.8404475E-01
       -2   -1    0    0    0  501  0.00000000000E+00  0.00000000000E+00  0.10673185314E+04  0.10673185314E+04  0.25500000920E-02 0. -1.
        2   -1    0    0  501    0  0.00000000000E+00  0.00000000000E+00 -0.14590627551E+04  0.14590627551E+04  0.25500000920E-02 0.  1.
    10030    2    1    2    0    0  0.00000000000E+00  0.00000000000E+00 -0.39174422365E+03  0.25263812865E+04  0.24958242863E+04 0.  0.
        4    1    3    3  502    0  0.10705117706E+04 -0.64094102670E+03 -0.17364297690E+03  0.12597437624E+04  0.12699999809E+01 0. -1.
       -4    1    3    3    0  502 -0.10705117706E+04  0.64094102670E+03 -0.21810124676E+03  0.12666375241E+04  0.12699999809E+01 0.  1.
</event>
<event>
 5   0  0.2432309E-05  0.2593615E+04  0.7818609E-02  0.8370373E-01
        2   -1    0    0  501    0  0.00000000000E+00  0.00000000000E+00  0.19772806566E+04  0.19772806566E+04  0.25500000920E-02 0. -1.
       -2   -1    0    0    0  501  0.00000000000E+00  0.00000000000E+00 -0.85051662806E+03  0.85051662806E+03  0.25500000920E-02 0.  1.
    10030    2    1    2    0    0  0.00000000000E+00  0.00000000000E+00  0.11267640285E+04  0.28277972846E+04  0.25936152967E+04 0.  0.
        4    1    3    3  502    0 -0.13098627815E+03 -0.12885487651E+04  0.49278077289E+03  0.13857668736E+04  0.12699999809E+01 0.  1.
       -4    1    3    3    0  502  0.13098627815E+03  0.12885487651E+04  0.63398325565E+03  0.14420304110E+04  0.12699999809E+01 0. -1.
</event>
<event>
 5   0  0.2432309E-05  0.2514761E+04  0.7818609E-02  0.8397746E-01
       -2   -1    0    0    0  501  0.00000000000E+00  0.00000000000E+00  0.11652593759E+04  0.11652593759E+04  0.25500000920E-02 0.  1.
        2   -1    0    0  501    0  0.00000000000E+00  0.00000000000E+00 -0.13567838477E+04  0.13567838477E+04  0.25500000920E-02 0. -1.
    10030    2    1    2    0    0  0.00000000000E+00  0.00000000000E+00 -0.19152447184E+03  0.25220432236E+04  0.25147605052E+04 0.  0.
        4    1    3    3  502    0 -0.45001797837E+03  0.10031479025E+04  0.51607138554E+03  0.12145588430E+04  0.12699999809E+01 0. -1.
       -4    1    3    3    0  502  0.45001797837E+03 -0.10031479025E+04 -0.70759585738E+03  0.13074843806E+04  0.12699999809E+01 0.  1.
</event>
<event>
 5   0  0.2441340E-05  0.2472756E+04  0.7818609E-02  0.8412756E-01
       -2   -1    0    0    0  501  0.00000000000E+00  0.00000000000E+00  0.87473472136E+03  0.87473472136E+03  0.25500000920E-02 0. -1.
        2   -1    0    0  501    0  0.00000000000E+00  0.00000000000E+00 -0.17475360448E+04  0.17475360448E+04  0.25500000920E-02 0.  1.
    10030    2    1    2    0    0  0.00000000000E+00  0.00000000000E+00 -0.87280132344E+03  0.26222707662E+04  0.24727559162E+04 0.  0.
        3    1    3    3  502    0 -0.87177279960E+03  0.86472991028E+03 -0.58965457784E+03  0.13621446925E+04  0.10100000352E+00 0. -1.
       -3    1    3    3    0  502  0.87177279960E+03 -0.86472991028E+03 -0.28314674560E+03  0.12601260737E+04  0.10100000352E+00 0.  1.
</event>
<event>
 5   0  0.1008073E-05  0.2404604E+04  0.7818609E-02  0.8437782E-01
        1   -1    0    0  501    0  0.00000000000E+00  0.00000000000E+00  0.18774495591E+04  0.18774495591E+04  0.50400001928E-02 0. -1.
       -1   -1    0    0    0  501  0.00000000000E+00  0.00000000000E+00 -0.76994344075E+03  0.76994344077E+03  0.50400001928E-02 0.  1.
    10030    2    1    2    0    0  0.00000000000E+00  0.00000000000E+00  0.11075061183E+04  0.26473929998E+04  0.24046038953E+04 0.  0.
        1    1    3    3  502    0  0.76148606451E+02  0.33109812613E+03 -0.71599599266E+03  0.79251172920E+03  0.50400001928E-02 0.  1.
       -1    1    3    3    0  502 -0.76148606451E+02 -0.33109812613E+03  0.18235021110E+04  0.18548812706E+04  0.50400001928E-02 0. -1.
</event>
<event>
 5   0  0.2388326E-05  0.2448821E+04  0.7818609E-02  0.8421449E-01
        2   -1    0    0  501    0  0.00000000000E+00  0.00000000000E+00  0.87168001187E+03  0.87168001187E+03  0.25500000920E-02 0.  1.
       -2   -1    0    0    0  501  0.00000000000E+00  0.00000000000E+00 -0.17198757318E+04  0.17198757318E+04  0.25500000920E-02 0. -1.
    10030    2    1    2    0    0  0.00000000000E+00  0.00000000000E+00 -0.84819571997E+03  0.25915557437E+04  0.24488211845E+04 0.  0.
        2    1    3    3  502    0 -0.48291089904E+03 -0.35501474946E+03  0.70581519946E+03  0.92596625454E+03  0.25500000920E-02 0.  1.
       -2    1    3    3    0  502  0.48291089904E+03  0.35501474946E+03 -0.15540109194E+04  0.16655894892E+04  0.25500000920E-02 0. -1.
</event>
<event>
 5   0  0.2452457E-05  0.2505824E+04  0.7818609E-02  0.8400914E-01
       -2   -1    0    0    0  501  0.00000000000E+00  0.00000000000E+00  0.94377285279E+03  0.94377285279E+03  0.25500000920E-02 0. -1.
        2   -1    0    0  501    0  0.00000000000E+00  0.00000000000E+00 -0.16633117101E+04  0.16633117101E+04  0.25500000920E-02 0.  1.
    10030    2    1    2    0    0  0.00000000000E+00  0.00000000000E+00 -0.71953885732E+03  0.26070845629E+04  0.25058239665E+04 0.  0.
        1    1    3    3  502    0  0.13333619381E+03  0.61289723991E+03  0.76866402292E+03  0.99210178279E+03  0.50400001928E-02 0. -1.
       -1    1    3    3    0  502 -0.13333619381E+03 -0.61289723991E+03 -0.14882028802E+04  0.16149827801E+04  0.50400001928E-02 0.  1.
</event>
<event>
 5   0  0.1010338E-05  0.2464657E+04  0.7818609E-02  0.8415686E-01
        1   -1    0    0  501    0  0.00000000000E+00  0.00000000000E+00  0.14419374703E+04  0.14419374703E+04  0.50400001928E-02 0.  1.
       -1   -1    0    0    0  501  0.00000000000E+00  0.00000000000E+00 -0.10531894800E+04  0.10531894800E+04  0.50400001928E-02 0. -1.
    10030    2    1    2    0    0  0.00000000000E+00  0.00000000000E+00  0.38874799032E+03  0.24951269502E+04  0.24646568722E+04 0.  0.
        2    1    3    3  502    0 -0.51097471680E+03 -0.69230439202E+02  0.13274722817E+04  0.14241034631E+04  0.25500000920E-02 0.  1.
       -2    1    3    3    0  502  0.51097471680E+03  0.69230439202E+02 -0.93872429135E+03  0.10710234872E+04  0.25500000920E-02 0. -1.
</event>
<event>
 5   0  0.1010338E-05  0.2517824E+04  0.7818609E-02  0.8396663E-01
       -1   -1    0    0    0  501  0.00000000000E+00  0.00000000000E+00  0.12466961217E+04  0.12466961217E+04  0.50400001928E-02 0. -1.
        1   -1    0    0  501    0  0.00000000000E+00  0.00000000000E+00 -0.12712472000E+04  0.12712472000E+04  0.50400001928E-02 0.  1.
    10030    2    1    2    0    0  0.00000000000E+00  0.00000000000E+00 -0.24551078354E+02  0.25179433217E+04  0.25178236269E+04 0.  0.
        2    1    3    3  502    0 -0.57726725525E+03 -0.11144374158E+03 -0.11255228550E+04  0.12698263222E+04  0.25500000920E-02 0.  1.
       -2    1    3    3    0  502  0.57726725525E+03  0.11144374158E+03  0.11009717766E+04  0.12481169995E+04  0.25500000920E-02 0. -1.
</event>
<event>
 5   0  0.2452457E-05  0.2463632E+04  0.7818609E-02  0.8416058E-01
        2   -1    0    0  501    0  0.00000000000E+00  0.00000000000E+00  0.13098669025E+04  0.13098669025E+04  0.25500000920E-02 0. -1.
       -2   -1    0    0    0  501  0.00000000000E+00  0.00000000000E+00 -0.11584155290E+04  0.11584155291E+04  0.25500000920E-02 0.  1.
    10030    2    1    2    0    0  0.00000000000E+00  0.00000000000E+00  0.15145137341E+03  0.24682824315E+04  0.24636315965E+04 0.  0.
        1    1    3    3  502    0 -0.84007658781E+03  0.77231570983E+03  0.54046549846E+03  0.12626571918E+04  0.50400001928E-02 0. -1.
       -1    1    3    3    0  502  0.84007658781E+03 -0.77231570983E+03 -0.38901412505E+03  0.12056252397E+04  0.50400001928E-02 0.  1.
</event>
<event>
 5   0  0.2432309E-05  0.2511032E+04  0.7818609E-02  0.8399066E-01
        2   -1    0    0  501    0  0.00000000000E+00  0.00000000000E+00  0.22176290321E+04  0.22176290321E+04  0.25500000920E-02 0. -1.
       -2   -1    0    0    0  501  0.00000000000E+00  0.00000000000E+00 -0.71081314557E+03  0.71081314558E+03  0.25500000920E-02 0.  1.
    10030    2    1    2    0    0  0.00000000000E+00  0.00000000000E+00  0.15068158865E+04  0.29284421777E+04  0.25110315554E+04 0.  0.
        4    1    3    3  502    0  0.34934334549E+03 -0.10907476105E+04  0.13532487566E+04  0.17728663043E+04  0.12699999809E+01 0. -1.
       -4    1    3    3    0  502 -0.34934334549E+03  0.10907476105E+04  0.15356712989E+03  0.11555758733E+04  0.12699999809E+01 0.  1.
</event>
<event>
 5   0  0.2432309E-05  0.2432564E+04  0.7818609E-02  0.8427412E-01
        2   -1    0    0  501    0  0.00000000000E+00  0.00000000000E+00  0.21229128283E+04  0.21229128283E+04  0.25500000920E-02 0. -1.
       -2   -1    0    0    0  501  0.00000000000E+00  0.00000000000E+00 -0.69684558061E+03  0.69684558062E+03  0.25500000920E-02 0.  1.
    10030    2    1    2    0    0  0.00000000000E+00  0.00000000000E+00  0.14260672477E+04  0.28197584089E+04  0.24325644266E+04 0.  0.
        4    1    3    3  502    0 -0.10384696835E+04 -0.45935421816E+03  0.12181918667E+04  0.16653584054E+04  0.12699999809E+01 0. -1.
       -4    1    3    3    0  502  0.10384696835E+04  0.45935421816E+03  0.20787538103E+03  0.11544000036E+04  0.12699999809E+01 0.  1.
</event>
<event>
 5   0  0.1039688E-05  0.2510564E+04  0.7818609E-02  0.8399232E-01
        1   -1    0    0  501    0  0.00000000000E+00  0.00000000000E+00  0.14380096833E+04  0.14380096833E+04  0.50400001928E-02 0. -1.
       -1   -1    0    0    0  501  0.00000000000E+00  0.00000000000E+00 -0.10957733949E+04  0.10957733949E+04  0.50400001928E-02 0.  1.
    10030    2    1    2    0    0  0.00000000000E+00  0.00000000000E+00  0.34223628834E+03  0.25337830782E+04  0.25105638829E+04 0.  0.
        3    1    3    3  502    0  0.99398435507E+03 -0.48878527549E+03  0.76718757618E+03  0.13474022157E+04  0.10100000352E+00 0. -1.
       -3    1    3    3    0  502 -0.99398435507E+03  0.48878527549E+03 -0.42495128783E+03  0.11863808625E+04  0.10100000352E+00 0.  1.
</event>
<event>
 5   0  0.1002753E-05  0.2488110E+04  0.7818609E-02  0.8407234E-01
        1   -1    0    0  501    0  0.00000000000E+00  0.00000000000E+00  0.11646732057E+04  0.11646732057E+04  0.50400001928E-02 0.  1.
       -1   -1    0    0    0  501  0.00000000000E+00  0.00000000000E+00 -0.13288475572E+04  0.13288475572E+04  0.50400001928E-02 0. -1.
    10030    2    1    2    0    0  0.00000000000E+00  0.00000000000E+00 -0.16417435144E+03  0.24935207629E+04  0.24881102422E+04 0.  0.
        5    1    3    3  502    0  0.34452412825E+03 -0.11877359319E+04  0.53252909223E+02  0.12378495390E+04  0.46999998093E+01 0. -1.
       -5    1    3    3    0  502 -0.34452412825E+03  0.11877359319E+04 -0.21742726066E+03  0.12556712239E+04  0.46999998093E+01 0.  1.
</event>
<event>
 5   0  0.2388326E-05  0.2479839E+04  0.7818609E-02  0.8410203E-01
        2   -1    0    0  501    0  0.00000000000E+00  0.00000000000E+00  0.64962812879E+03  0.64962812880E+03  0.25500000920E-02 0.  1.
       -2   -1    0    0    0  501  0.00000000000E+00  0.00000000000E+00 -0.23665859491E+04  0.23665859491E+04  0.25500000920E-02 0. -1.
    10030    2    1    2    0    0  0.00000000000E+00  0.00000000000E+00 -0.17169578203E+04  0.30162140779E+04  0.24798393511E+04 0.  0.
        2    1    3    3  502    0 -0.39210489703E+03  0.14324199005E+03 -0.22785440107E+04  0.23164687191E+04  0.25500000920E-02 0. -1.
       -2    1    3    3    0  502  0.39210489703E+03 -0.14324199005E+03  0.56158619035E+03  0.69974535882E+03  0.25500000920E-02 0.  1.
</event>
<event>
 5   0  0.1010338E-05  0.2463661E+04  0.7818609E-02  0.8416047E-01
        1   -1    0    0  501    0  0.00000000000E+00  0.00000000000E+00  0.16297874573E+04  0.16297874573E+04  0.50400001928E-02 0. -1.
       -1   -1    0    0    0  501  0.00000000000E+00  0.00000000000E+00 -0.93104549089E+03  0.93104549090E+03  0.50400001928E-02 0.  1.
    10030    2    1    2    0    0  0.00000000000E+00  0.00000000000E+00  0.69874196643E+03  0.25608329482E+04  0.24636609046E+04 0.  0.
        2    1    3    3  502    0  0.95518542701E+03 -0.53389772517E+03 -0.23860816629E+03  0.11199820704E+04  0.25500000920E-02 0.  1.
       -2    1    3    3    0  502 -0.95518542701E+03  0.53389772517E+03  0.93735013272E+03  0.14408508779E+04  0.25500000920E-02 0. -1.
</event>
<event>
 5   0  0.1010338E-05  0.2522220E+04  0.7818609E-02  0.8395112E-01
        1   -1    0    0  501    0  0.00000000000E+00  0.00000000000E+00  0.89382437492E+03  0.89382437493E+03  0.50400001928E-02 0. -1.
       -1   -1    0    0    0  501  0.00000000000E+00  0.00000000000E+00 -0.17793192181E+04  0.17793192181E+04  0.50400001928E-02 0.  1.
    10030    2    1    2    0    0  0.00000000000E+00  0.00000000000E+00 -0.88549484315E+03  0.26731435930E+04  0.25222203614E+04 0.  0.
        2    1    3    3  502    0  0.62657241129E+03 -0.33802099054E+03 -0.15459703533E+04  0.17020210075E+04  0.25500000920E-02 0.  1.
       -2    1    3    3    0  502 -0.62657241129E+03  0.33802099054E+03  0.66047551014E+03  0.97112258553E+03  0.25500000920E-02 0. -1.
</event>
<event>
 5   0  0.1008073E-05  0.2500289E+04  0.7818609E-02  0.8402882E-01
        1   -1    0    0  501    0  0.00000000000E+00  0.00000000000E+00  0.74568585385E+03  0.74568585387E+03  0.50400001928E-02 0.  1.
       -1   -1    0    0    0  501  0.00000000000E+00  0.00000000000E+00 -0.20958712992E+04  0.20958712992E+04  0.50400001928E-02 0. -1.
    10030    2    1    2    0    0  0.00000000000E+00  0.00000000000E+00 -0.13501854454E+04  0.28415571531E+04  0.25002892468E+04 0.  0.
        1    1    3    3  502    0 -0.57396897077E+03 -0.10278349366E+04 -0.19698694017E+03  0.11936033222E+04  0.50400001928E-02 0.  1.
       -1    1    3    3    0  502  0.57396897077E+03  0.10278349366E+04 -0.11531985052E+04  0.16479538309E+04  0.50400001928E-02 0. -1.
</event>
<event>
 5   0  0.2388326E-05  0.2449742E+04  0.7818609E-02  0.8421112E-01
       -2   -1    0    0    0  501  0.00000000000E+00  0.00000000000E+00  0.14025533934E+04  0.14025533934E+04  0.25500000920E-02 0.  1.
        2   -1    0    0  501    0  0.00000000000E+00  0.00000000000E+00 -0.10696984349E+04  0.10696984349E+04  0.25500000920E-02 0. -1.
    10030    2    1    2    0    0  0.00000000000E+00  0.00000000000E+00  0.33285495846E+03  0.24722518283E+04  0.24497421658E+04 0.  0.
        2    1    3    3  502    0 -0.34316127859E+03  0.91323358991E+03 -0.58102225098E+03  0.11354920119E+04  0.25500000920E-02 0. -1.
       -2    1    3    3    0  502  0.34316127859E+03 -0.91323358991E+03  0.91387720944E+03  0.13367598164E+04  0.25500000920E-02 0.  1.
</event>
<event>
 5   0  0.2432309E-05  0.2505581E+04  0.7818609E-02  0.8401000E-01
       -2   -1    0    0    0  501  0.00000000000E+00  0.00000000000E+00  0.16912329450E+04  0.16912329450E+04  0.25500000920E-02 0. -1.
        2   -1    0    0  501    0  0.00000000000E+00  0.00000000000E+00 -0.92801185493E+03  0.92801185493E+03  0.25500000920E-02 0.  1.
    10030    2    1    2    0    0  0.00000000000E+00  0.00000000000E+00  0.76322109004E+03  0.26192447999E+04  0.25055811481E+04 0.  0.
        4    1    3    3  502    0 -0.11779207136E+04 -0.23470599049E+03  0.92223871275E+01  0.12011123073E+04  0.12699999809E+01 0. -1.
       -4    1    3    3    0  502  0.11779207136E+04  0.23470599049E+03  0.75399870291E+03  0.14181324925E+04  0.12699999809E+01 0.  1.
</event>
<event>
 5   0  0.1039688E-05  0.2504751E+04  0.7818609E-02  0.8401295E-01
        1   -1    0    0  501    0  0.00000000000E+00  0.00000000000E+00  0.16304155985E+04  0.16304155985E+04  0.50400001928E-02 0. -1.
       -1   -1    0    0    0  501  0.00000000000E+00  0.00000000000E+00 -0.96199057420E+03  0.96199057421E+03  0.50400001928E-02 0.  1.
    10030    2    1    2    0    0  0.00000000000E+00  0.00000000000E+00  0.66842502429E+03  0.25924061727E+04  0.25047510358E+04 0.  0.
        3    1    3    3  502    0 -0.94398947099E+03  0.28037328253E+03  0.11350604265E+04  0.15026934089E+04  0.10100000352E+00 0. -1.
       -3    1    3    3    0  502  0.94398947099E+03 -0.28037328253E+03 -0.46663540226E+03  0.10897127639E+04  0.10100000352E+00 0.  1.
</event>
<event>
 5   0  0.2452457E-05  0.2492938E+04  0.7818609E-02  0.8405506E-01
        2   -1    0    0  501    0  0.00000000000E+00  0.00000000000E+00  0.21709582908E+04  0.21709582908E+04  0.25500000920E-02 0. -1.
       -2   -1    0    0    0  501  0.00000000000E+00  0.00000000000E+00 -0.71566765170E+03  0.71566765170E+03  0.25500000920E-02 0.  1.
    10030    2    1    2    0    0  0.00000000000E+00  0.00000000000E+00  0.14552906391E+04  0.28866259425E+04  0.24929377224E+04 0.  0.
        1    1    3    3  502    0 -0.11000999373E+04  0.56590610189E+03  0.55121885094E+03  0.13543676789E+04  0.50400001928E-02 0. -1.
       -1    1    3    3    0  502  0.11000999373E+04 -0.56590610189E+03  0.90407178817E+03  0.15322582636E+04  0.50400001928E-02 0.  1.
</event>
<event>
 5   0  0.1010338E-05  0.2497115E+04  0.7818609E-02  0.8404014E-01
        1   -1    0    0  501    0  0.00000000000E+00  0.00000000000E+00  0.71972885203E+03  0.71972885205E+03  0.50400001928E-02 0.  1.
       -1   -1    0    0    0  501  0.00000000000E+00  0.00000000000E+00 -0.21659479718E+04  0.21659479718E+04  0.50400001928E-02 0. -1.
    10030    2    1    2    0    0  0.00000000000E+00  0.00000000000E+00 -0.14462191198E+04  0.28856768239E+04  0.24971145327E+04 0.  0.
        2    1    3    3  502    0 -0.81419008952E+03  0.11075618350E+03  0.36323417112E+03  0.89839384300E+03  0.25500000920E-02 0. -1.
       -2    1    3    3    0  502  0.81419008952E+03 -0.11075618350E+03 -0.18094532909E+04  0.19872829809E+04  0.25500000920E-02 0.  1.
</event>
<event>
 5   0  0.1008073E-05  0.2468988E+04  0.7818609E-02  0.8414118E-01
        1   -1    0    0  501    0  0.00000000000E+00  0.00000000000E+00  0.85404211060E+03  0.85404211061E+03  0.50400001928E-02 0. -1.
       -1   -1    0    0    0  501  0.00000000000E+00  0.00000000000E+00 -0.17844269708E+04  0.17844269708E+04  0.50400001928E-02 0.  1.
    10030    2    1    2    0    0  0.00000000000E+00  0.00000000000E+00 -0.93038486016E+03  0.26384690814E+04  0.24689882757E+04 0.  0.
        1    1    3    3  502    0  0.10855377086E+04  0.44763404166E+03 -0.87241082940E+03  0.14628291108E+04  0.50400001928E-02 0.  1.
       -1    1    3    3    0  502 -0.10855377086E+04 -0.44763404166E+03 -0.57974030762E+02  0.11756399706E+04  0.50400001928E-02 0. -1.
</event>
<event>
 5   0  0.1039688E-05  0.2377107E+04  0.7818609E-02  0.8448125E-01
        1   -1    0    0  501    0  0.00000000000E+00  0.00000000000E+00  0.13325585981E+04  0.13325585981E+04  0.50400001928E-02 0. -1.
       -1   -1    0    0    0  501  0.00000000000E+00  0.00000000000E+00 -0.10601101446E+04  0.10601101446E+04  0.50400001928E-02 0.  1.
    10030    2    1    2    0    0  0.00000000000E+00  0.00000000000E+00  0.27244845347E+03  0.23926687427E+04  0.23771065505E+04 0.  0.
        3    1    3    3  502    0 -0.30890236022E+03 -0.18863186039E+03 -0.10032898747E+04  0.10665801563E+04  0.10100000352E+00 0.  1.
       -3    1    3    3    0  502  0.30890236022E+03  0.18863186039E+03  0.12757383282E+04  0.13260885864E+04  0.10100000352E+00 0. -1.
</event>
<event>
 5   0  0.1008073E-05  0.2497317E+04  0.7818609E-02  0.8403942E-01
        1   -1    0    0  501    0  0.00000000000E+00  0.00000000000E+00  0.84785951068E+03  0.84785951069E+03  0.50400001928E-02 0. -1.
       -1   -1    0    0    0  501  0.00000000000E+00  0.00000000000E+00 -0.18389223492E+04  0.18389223492E+04  0.50400001928E-02 0.  1.
    10030    2    1    2    0    0  0.00000000000E+00  0.00000000000E+00 -0.99106283853E+03  0.26867818599E+04  0.24973168026E+04 0.  0.
        1    1    3    3  502    0 -0.82303061156E+03 -0.46332896375E+03  0.38319262309E+03  0.10192593893E+04  0.50400001928E-02 0. -1.
       -1    1    3    3    0  502  0.82303061156E+03  0.46332896375E+03 -0.13742554616E+04  0.16675224706E+04  0.50400001928E-02 0.  1.
</event>
<event>
 5   0  0.1008073E-05  0.2350014E+04  0.7818609E-02  0.8458458E-01
        1   -1    0    0  501    0  0.00000000000E+00  0.00000000000E+00  0.16615287689E+04  0.16615287689E+04  0.50400001928E-02 0. -1.
       -1   -1    0    0    0  501  0.00000000000E+00  0.00000000000E+00 -0.83094658065E+03  0.83094658066E+03  0.50400001928E-02 0.  1.
    10030    2    1    2    0    0  0.00000000000E+00  0.00000000000E+00  0.83058218820E+03  0.24924753495E+04  0.23500141694E+04 0.  0.
        1    1    3    3  502    0  0.10535375600E+04 -0.43222302249E+03  0.10810701160E+03  0.11438729202E+04  0.50400001928E-02 0.  1.
       -1    1    3    3    0  502 -0.10535375600E+04  0.43222302249E+03  0.72247517660E+03  0.13486024293E+04  0.50400001928E-02 0. -1.
</event>
<event>
 5   0  0.1010338E-05  0.2512203E+04  0.7818609E-02  0.8398651E-01
        1   -1    0    0  501    0  0.00000000000E+00  0.00000000000E+00  0.17190223633E+04  0.17190223633E+04  0.50400001928E-02 0. -1.
       -1   -1    0    0    0  501  0.00000000000E+00  0.00000000000E+00 -0.91784169460E+03  0.91784169461E+03  0.50400001928E-02 0.  1.
    10030    2    1    2    0    0  0.00000000000E+00  0.00000000000E+00  0.80118066874E+03  0.26368640580E+04  0.25122025388E+04 0.  0.
        2    1    3    3  502    0  0.39403327638E+03  0.45920882296E+03  0.15559645133E+04  0.16694791201E+04  0.25500000920E-02 0. -1.
       -2    1    3    3    0  502 -0.39403327638E+03 -0.45920882296E+03 -0.75478384453E+03  0.96738493783E+03  0.25500000920E-02 0.  1.
</event>
<event>
 5   0  0.1008073E-05  0.2509085E+04  0.7818609E-02  0.8399756E-01
        1   -1    0    0  501    0  0.00000000000E+00  0.00000000000E+00  0.26131064437E+04  0.26131064437E+04  0.50400001928E-02 0.  1.
       -1   -1    0    0    0  501  0.00000000000E+00  0.00000000000E+00 -0.60230108332E+03  0.60230108334E+03  0.50400001928E-02 0. -1.
    10030    2    1    2    0    0  0.00000000000E+00  0.00000000000E+00  0.20108053603E+04  0.32154075270E+04  0.25090849662E+04 0.  0.
        1    1    3    3  502    0 -0.56806482736E+03 -0.53735448783E+03 -0.25179938209E+03  0.82149280126E+03  0.50400001928E-02 0. -1.
       -1    1    3    3    0  502  0.56806482736E+03  0.53735448783E+03  0.22626047424E+04  0.23939147258E+04  0.50400001928E-02 0.  1.
</event>
<event>
 5   0  0.2388326E-05  0.2473373E+04  0.7818609E-02  0.8412533E-01
        2   -1    0    0  501    0  0.00000000000E+00  0.00000000000E+00  0.20474554931E+04  0.20474554931E+04  0.25500000920E-02 0. -1.
       -2   -1    0    0    0  501  0.00000000000E+00  0.00000000000E+00 -0.74697293750E+03  0.74697293750E+03  0.25500000920E-02 0.  1.
    10030    2    1    2    0    0  0.00000000000E+00  0.00000000000E+00  0.13004825556E+04  0.27944284306E+04  0.24733732788E+04 0.  0.
        2    1    3    3  502    0 -0.65045232382E+03 -0.32829363214E+03  0.17792145184E+04  0.19226204090E+04  0.25500000920E-02 0. -1.
       -2    1    3    3    0  502  0.65045232382E+03  0.32829363214E+03 -0.47873196277E+03  0.87180802167E+03  0.25500000920E-02 0.  1.
</event>
<event>
 5   0  0.1010338E-05  0.2304796E+04  0.7818609E-02  0.8476033E-01
       -1   -1    0    0    0  501  0.00000000000E+00  0.00000000000E+00  0.76433351923E+03  0.76433351924E+03  0.50400001928E-02 0.  1.
        1   -1    0    0  501    0  0.00000000000E+00  0.00000000000E+00 -0.17374890660E+04  0.17374890660E+04  0.50400001928E-02 0. -1.
    10030    2    1    2    0    0  0.00000000000E+00  0.00000000000E+00 -0.97315554679E+03  0.25018225853E+04  0.23047959844E+04 0.  0.
        2    1    3    3  502    0 -0.10417799273E+04  0.49094381921E+03 -0.44195544647E+03  0.12335541606E+04  0.25500000920E-02 0. -1.
       -2    1    3    3    0  502  0.10417799273E+04 -0.49094381921E+03 -0.53120010032E+03  0.12682684247E+04  0.25500000920E-02 0.  1.
</event>
<event>
 5   0  0.1002753E-05  0.2474743E+04  0.7818609E-02  0.8412039E-01
        1   -1    0    0  501    0  0.00000000000E+00  0.00000000000E+00  0.12481462655E+04  0.12481462655E+04  0.50400001928E-02 0.  1.
       -1   -1    0    0    0  501  0.00000000000E+00  0.00000000000E+00 -0.12266897487E+04  0.12266897487E+04  0.50400001928E-02 0. -1.
    10030    2    1    2    0    0  0.00000000000E+00  0.00000000000E+00  0.21456516857E+02  0.24748360142E+04  0.24747429998E+04 0.  0.
        5    1    3    3  502    0  0.87826981668E+03  0.60471002536E+03 -0.61701665279E+03  0.12319755377E+04  0.46999998093E+01 0. -1.
       -5    1    3    3    0  502 -0.87826981668E+03 -0.60471002536E+03  0.63847316965E+03  0.12428604765E+04  0.46999998093E+01 0.  1.
</event>
<event>
 5   0  0.2452457E-05  0.2499125E+04  0.7818609E-02  0.8403297E-01
       -2   -1    0    0    0  501  0.00000000000E+00  0.00000000000E+00  0.18742051068E+04  0.18742051068E+04  0.25500000920E-02 0.  1.
        2   -1    0    0  501    0  0.00000000000E+00  0.00000000000E+00 -0.83310304491E+03  0.83310304491E+03  0.25500000920E-02 0. -1.
    10030    2    1    2    0    0  0.00000000000E+00  0.00000000000E+00  0.10411020619E+04  0.27073081517E+04  0.24991246318E+04 0.  0.
        1    1    3    3  502    0  0.54056359222E+03 -0.65991572278E+03  0.15096888756E+04  0.17340294864E+04  0.50400001928E-02 0.  1.
       -1    1    3    3    0  502 -0.54056359222E+03  0.65991572278E+03 -0.46858681372E+03  0.97327866535E+03  0.50400001928E-02 0. -1.
</event>
<event>
 5   0  0.2452457E-05  0.2490154E+04  0.7818609E-02  0.8406502E-01
        2   -1    0    0  501    0  0.00000000000E+00  0.00000000000E+00  0.26305523577E+04  0.26305523577E+04  0.25500000920E-02 0.  1.
       -2   -1    0    0    0  501  0.00000000000E+00  0.00000000000E+00 -0.58931224221E+03  0.58931224221E+03  0.25500000920E-02 0. -1.
    10030    2    1    2    0    0  0.00000000000E+00  0.00000000000E+00  0.20412401155E+04  0.32198645999E+04  0.24901539777E+04 0.  0.
        1    1    3    3  502    0  0.89286229475E+03  0.12155861220E+03  0.21316080130E+04  0.23142455131E+04  0.50400001928E-02 0.  1.
       -1    1    3    3    0  502 -0.89286229475E+03 -0.12155861220E+03 -0.90367897494E+02  0.90561908687E+03  0.50400001928E-02 0. -1.
</event>
<event>
 5   0  0.2388326E-05  0.2422430E+04  0.7818609E-02  0.8431154E-01
        2   -1    0    0  501    0  0.00000000000E+00  0.00000000000E+00  0.10813967661E+04  0.10813967661E+04  0.25500000920E-02 0. -1.
       -2   -1    0    0    0  501  0.00000000000E+00  0.00000000000E+00 -0.13566172040E+04  0.13566172040E+04  0.25500000920E-02 0.  1.
    10030    2    1    2    0    0  0.00000000000E+00  0.00000000000E+00 -0.27522043791E+03  0.24380139701E+04  0.24224297367E+04 0.  0.
        2    1    3    3  502    0 -0.36305408290E+03 -0.22254208768E+02 -0.13003512644E+04  0.13502655027E+04  0.25500000920E-02 0.  1.
       -2    1    3    3    0  502  0.36305408290E+03  0.22254208768E+02  0.10251308265E+04  0.10877484674E+04  0.25500000920E-02 0. -1.
</event>
<event>
 5   0  0.2345143E-05  0.2494894E+04  0.7818609E-02  0.8404807E-01
       -2   -1    0    0    0  501  0.00000000000E+00  0.00000000000E+00  0.90569632251E+03  0.90569632251E+03  0.25500000920E-02 0. -1.
        2   -1    0    0  501    0  0.00000000000E+00  0.00000000000E+00 -0.17181523076E+04  0.17181523076E+04  0.25500000920E-02 0.  1.
    10030    2    1    2    0    0  0.00000000000E+00  0.00000000000E+00 -0.81245598504E+03  0.26238486301E+04  0.24948941673E+04 0.  0.
        5    1    3    3  502    0  0.51189297609E+03 -0.60853640815E+03 -0.14170254645E+04  0.16249105317E+04  0.46999998093E+01 0.  1.
       -5    1    3    3    0  502 -0.51189297609E+03  0.60853640815E+03  0.60456947941E+03  0.99893809840E+03  0.46999998093E+01 0. -1.
</event>
<event>
 5   0  0.1015327E-05  0.2513232E+04  0.7818609E-02  0.8398287E-01
       -1   -1    0    0    0  501  0.00000000000E+00  0.00000000000E+00  0.90605787672E+03  0.90605787673E+03  0.50400001928E-02 0. -1.
        1   -1    0    0  501    0  0.00000000000E+00  0.00000000000E+00 -0.17428071062E+04  0.17428071062E+04  0.50400001928E-02 0.  1.
    10030    2    1    2    0    0  0.00000000000E+00  0.00000000000E+00 -0.83674922948E+03  0.26488649829E+04  0.25132322664E+04 0.  0.
        4    1    3    3  502    0 -0.74261740191E+03  0.24741849705E+03 -0.14544765970E+04  0.16517264611E+04  0.12699999809E+01 0.  1.
       -4    1    3    3    0  502  0.74261740191E+03 -0.24741849705E+03  0.61772736748E+03  0.99713852184E+03  0.12699999809E+01 0. -1.
</event>
<event>
 5   0  0.2452457E-05  0.2471773E+04  0.7818609E-02  0.8413111E-01
        2   -1    0    0  501    0  0.00000000000E+00  0.00000000000E+00  0.11287850525E+04  0.11287850526E+04  0.25500000920E-02 0.  1.
       -2   -1    0    0    0  501  0.00000000000E+00  0.00000000000E+00 -0.13531502789E+04  0.13531502789E+04  0.25500000920E-02 0. -1.
    10030    2    1    2    0    0  0.00000000000E+00  0.00000000000E+00 -0.22436522635E+03  0.24819353314E+04  0.24717732976E+04 0.  0.
        1    1    3    3  502    0 -0.90788018224E+03 -0.81838148476E+03  0.71383444889E+02  0.12243734219E+04  0.50400001928E-02 0. -1.
       -1    1    3    3    0  502  0.90788018224E+03  0.81838148476E+03 -0.29574867124E+03  0.12575619096E+04  0.50400001928E-02 0.  1.
</event>
<event>
 5   0  0.1008073E-05  0.2494378E+04  0.7818609E-02  0.8404991E-01
       -1   -1    0    0    0  501  0.00000000000E+00  0.00000000000E+00  0.10493461317E+04  0.10493461317E+04  0.50400001928E-02 0.  1.
        1   -1    0    0  501    0  0.00000000000E+00  0.00000000000E+00 -0.14823333323E+04  0.14823333323E+04  0.50400001928E-02 0. -1.
    10030    2    1    2    0    0  0.00000000000E+00  0.00000000000E+00 -0.43298720062E+03  0.25316794640E+04  0.24943782777E+04 0.  0.
        1    1    3    3  502    0  0.73221700953E+03  0.83833041244E+03  0.35453974486E+03  0.11681772383E+04  0.50400001928E-02 0.  1.
       -1    1    3    3    0  502 -0.73221700953E+03 -0.83833041244E+03 -0.78752694549E+03  0.13635022257E+04  0.50400001928E-02 0. -1.
</event>
<event>
 5   0  0.1010338E-05  0.2484766E+04  0.7818609E-02  0.8408433E-01
        1   -1    0    0  501    0  0.00000000000E+00  0.00000000000E+00  0.15680751998E+04  0.15680751998E+04  0.50400001928E-02 0.  1.
       -1   -1    0    0    0  501  0.00000000000E+00  0.00000000000E+00 -0.98433767156E+03  0.98433767157E+03  0.50400001928E-02 0. -1.
    10030    2    1    2    0    0  0.00000000000E+00  0.00000000000E+00  0.58373752822E+03  0.25524128714E+04  0.24847659777E+04 0.  0.
        2    1    3    3  502    0  0.97554668631E+03 -0.76888723310E+03  0.31778612470E+03  0.12821337432E+04  0.25500000920E-02 0. -1.
       -2    1    3    3    0  502 -0.97554668631E+03  0.76888723310E+03  0.26595140352E+03  0.12702791282E+04  0.25500000920E-02 0.  1.
</event>
<event>
 5   0  0.1039688E-05  0.2485399E+04  0.7818609E-02  0.8408206E-01
       -1   -1    0    0    0  501  0.00000000000E+00  0.00000000000E+00  0.81067900530E+03  0.81067900531E+03  0.50400001928E-02 0. -1.
        1   -1    0    0  501    0  0.00000000000E+00  0.00000000000E+00 -0.19049483781E+04  0.19049483781E+04  0.50400001928E-02 0.  1.
    10030    2    1    2    0    0  0.00000000000E+00  0.00000000000E+00 -0.10942693728E+04  0.27156273834E+04  0.24853986854E+04 0.  0.
        3    1    3    3  502    0 -0.11867258815E+04 -0.29906529383E+03 -0.78285803385E+03  0.14527990498E+04  0.10100000352E+00 0.  1.
       -3    1    3    3    0  502  0.11867258815E+04  0.29906529383E+03 -0.31141133892E+03  0.12628283336E+04  0.10100000352E+00 0. -1.
</event>
<event>
 5   0  0.1002753E-05  0.2512063E+04  0.7818609E-02  0.8398701E-01
       -1   -1    0    0    0  501  0.00000000000E+00  0.00000000000E+00  0.16345023950E+04  0.16345023950E+04  0.50400001928E-02 0. -1.
        1   -1    0    0  501    0  0.00000000000E+00  0.00000000000E+00 -0.96519574949E+03  0.96519574950E+03  0.50400001928E-02 0.  1.
    10030    2    1    2    0    0  0.00000000000E+00  0.00000000000E+00  0.66930664554E+03  0.25996981445E+04  0.25120627096E+04 0.  0.
        5    1    3    3  502    0 -0.40143866482E+03 -0.82276864053E+03 -0.55528318304E+03  0.10707300037E+04  0.46999998093E+01 0.  1.
       -5    1    3    3    0  502  0.40143866482E+03  0.82276864053E+03  0.12245898286E+04  0.15289681408E+04  0.46999998093E+01 0. -1.
</event>
<event>
 5   0  0.1010338E-05  0.2444519E+04  0.7818609E-02  0.8423022E-01
        1   -1    0    0  501    0  0.00000000000E+00  0.00000000000E+00  0.15786367135E+04  0.15786367135E+04  0.50400001928E-02 0. -1.
       -1   -1    0    0    0  501  0.00000000000E+00  0.00000000000E+00 -0.94633465083E+03  0.94633465084E+03  0.50400001928E-02 0.  1.
    10030    2    1    2    0    0  0.00000000000E+00  0.00000000000E+00  0.63230206271E+03  0.25249713644E+04  0.24445192764E+04 0.  0.
        2    1    3    3  502    0 -0.53766425751E+03 -0.72254409205E+03 -0.53733982306E+03  0.10487549305E+04  0.25500000920E-02 0.  1.
       -2    1    3    3    0  502  0.53766425751E+03  0.72254409205E+03  0.11696418858E+04  0.14762164339E+04  0.25500000920E-02 0. -1.
</event>
<event>
 5   0  0.2452457E-05  0.2500624E+04  0.7818609E-02  0.8402763E-01
       -2   -1    0    0    0  501  0.00000000000E+00  0.00000000000E+00  0.12076109641E+04  0.12076109641E+04  0.25500000920E-02 0. -1.
        2   -1    0    0  501    0  0.00000000000E+00  0.00000000000E+00 -0.12945225485E+04  0.12945225485E+04  0.25500000920E-02 0.  1.
    10030    2    1    2    0    0  0.00000000000E+00  0.00000000000E+00 -0.86911584348E+02  0.25021335126E+04  0.25006236205E+04 0.  0.
        1    1    3    3  502    0 -0.11410891765E+04  0.27314063005E+03 -0.47567646023E+03  0.12660799372E+04  0.50400001928E-02 0.  1.
       -1    1    3    3    0  502  0.11410891765E+04 -0.27314063005E+03  0.38876487588E+03  0.12360535754E+04  0.50400001928E-02 0. -1.
</event>
<event>
 5   0  0.2441340E-05  0.2326183E+04  0.7818609E-02  0.8467669E-01
        2   -1    0    0  501    0  0.00000000000E+00  0.00000000000E+00  0.10364114727E+04  0.10364114727E+04  0.25500000920E-02 0. -1.
       -2   -1    0    0    0  501  0.00000000000E+00  0.00000000000E+00 -0.13052550428E+04  0.13052550428E+04  0.25500000920E-02 0.  1.
    10030    2    1    2    0    0  0.00000000000E+00  0.00000000000E+00 -0.26884357013E+03  0.23416665155E+04  0.23261825389E+04 0.  0.
        3    1    3    3  502    0  0.94063411347E+03  0.44689452282E+03 -0.65582124847E+03  0.12306944260E+04  0.10100000352E+00 0.  1.
       -3    1    3    3    0  502 -0.94063411347E+03 -0.44689452282E+03  0.38697767833E+03  0.11109720895E+04  0.10100000352E+00 0. -1.
</event>
<event>
 5   0  0.1008073E-05  0.2450316E+04  0.7818609E-02  0.8420903E-01
        1   -1    0    0  501    0  0.00000000000E+00  0.00000000000E+00  0.19108692360E+04  0.19108692360E+04  0.50400001928E-02 0.  1.
       -1   -1    0    0    0  501  0.00000000000E+00  0.00000000000E+00 -0.78551250319E+03  0.78551250321E+03  0.50400001928E-02 0. -1.
    10030    2    1    2    0    0  0.00000000000E+00  0.00000000000E+00  0.11253567328E+04  0.26963817392E+04  0.24503156342E+04 0.  0.
        1    1    3    3  502    0 -0.14890092724E+03 -0.67895363481E+03  0.16728850290E+04  0.18115446019E+04  0.50400001928E-02 0.  1.
       -1    1    3    3    0  502  0.14890092724E+03  0.67895363481E+03 -0.54752829622E+03  0.88483713730E+03  0.50400001928E-02 0. -1.
</event>
<event>
 5   0  0.1010338E-05  0.2484600E+04  0.7818609E-02  0.8408492E-01
        1   -1    0    0  501    0  0.00000000000E+00  0.00000000000E+00  0.10143010719E+04  0.10143010719E+04  0.50400001928E-02 0. -1.
       -1   -1    0    0    0  501  0.00000000000E+00  0.00000000000E+00 -0.15215495395E+04  0.15215495395E+04  0.50400001928E-02 0.  1.
    10030    2    1    2    0    0  0.00000000000E+00  0.00000000000E+00 -0.50724846759E+03  0.25358506114E+04  0.24846000313E+04 0.  0.
        2    1    3    3  502    0  0.61341757765E+03 -0.10744741868E+04 -0.13936216480E+03  0.12450693618E+04  0.25500000920E-02 0. -1.
       -2    1    3    3    0  502 -0.61341757765E+03  0.10744741868E+04 -0.36788630279E+03  0.12907812496E+04  0.25500000920E-02 0.  1.
</event>
<event>
 5   0  0.1008073E-05  0.2518361E+04  0.7818609E-02  0.8396473E-01
        1   -1    0    0  501    0  0.00000000000E+00  0.00000000000E+00  0.10314635591E+04  0.10314635591E+04  0.50400001928E-02 0. -1.
       -1   -1    0    0    0  501  0.00000000000E+00  0.00000000000E+00 -0.15371711595E+04  0.15371711595E+04  0.50400001928E-02 0.  1.
    10030    2    1    2    0    0  0.00000000000E+00  0.00000000000E+00 -0.50570760042E+03  0.25686347186E+04  0.25183613999E+04 0.  0.
        1    1    3    3  502    0 -0.45670002142E+03 -0.11323668774E+04 -0.56674122278E+03  0.13461148792E+04  0.50400001928E-02 0.  1.
       -1    1    3    3    0  502  0.45670002142E+03  0.11323668774E+04  0.61033622358E+02  0.12225198393E+04  0.50400001928E-02 0. -1.
</event>
<event>
 5   0  0.1015327E-05  0.2499802E+04  0.7818609E-02  0.8403056E-01
        1   -1    0    0  501    0  0.00000000000E+00  0.00000000000E+00  0.15832173654E+04  0.15832173654E+04  0.50400001928E-02 0. -1.
       -1   -1    0    0    0  501  0.00000000000E+00  0.00000000000E+00 -0.98675819594E+03  0.98675819596E+03  0.50400001928E-02 0.  1.
    10030    2    1    2    0    0  0.00000000000E+00  0.00000000000E+00  0.59645916943E+03  0.25699755613E+04  0.24998021612E+04 0.  0.
        4    1    3    3  502    0  0.12498189540E+04 -0.14174230940E+02  0.29994114903E+03  0.12853850133E+04  0.12699999809E+01 0.  1.
       -4    1    3    3    0  502 -0.12498189540E+04  0.14174230940E+02  0.29651802040E+03  0.12845905480E+04  0.12699999809E+01 0. -1.
</event>
<event>
 5   0  0.1002753E-05  0.2496950E+04  0.7818609E-02  0.8404073E-01
       -1   -1    0    0    0  501  0.00000000000E+00  0.00000000000E+00  0.98381268937E+03  0.98381268939E+03  0.50400001928E-02 0. -1.
        1   -1    0    0  501    0  0.00000000000E+00  0.00000000000E+00 -0.15843359682E+04  0.15843359682E+04  0.50400001928E-02 0.  1.
    10030    2    1    2    0    0  0.00000000000E+00  0.00000000000E+00 -0.60052327883E+03  0.25681486576E+04  0.24969500033E+04 0.  0.
        5    1    3    3  502    0 -0.87308403995E+03 -0.16335394344E+03 -0.12026077872E+04  0.14950745237E+04  0.46999998093E+01 0.  1.
       -5    1    3    3    0  502  0.87308403995E+03  0.16335394344E+03  0.60208450835E+03  0.10730741339E+04  0.46999998093E+01 0. -1.
</event>
<event>
 5   0  0.2452457E-05  0.2440079E+04  0.7818609E-02  0.8424649E-01
       -2   -1    0    0    0  501  0.00000000000E+00  0.00000000000E+00  0.51900496371E+03  0.51900496372E+03  0.25500000920E-02 0. -1.
        2   -1    0    0  501    0  0.00000000000E+00  0.00000000000E+00 -0.28679817455E+04  0.28679817455E+04  0.25500000920E-02 0.  1.
    10030    2    1    2    0    0  0.00000000000E+00  0.00000000000E+00 -0.23489767818E+04  0.33869867092E+04  0.24400793116E+04 0.  0.
        1    1    3    3  502    0  0.36790863250E+03  0.62871461683E+03 -0.25329898191E+04  0.26356548057E+04  0.50400001928E-02 0.  1.
       -1    1    3    3    0  502 -0.36790863250E+03 -0.62871461683E+03  0.18401303731E+03  0.75133190350E+03  0.50400001928E-02 0. -1.
</event>
<event>
 5   0  0.1002753E-05  0.2413759E+04  0.7818609E-02  0.8434370E-01
       -1   -1    0    0    0  501  0.00000000000E+00  0.00000000000E+00  0.68976079754E+03  0.68976079756E+03  0.50400001928E-02 0. -1.
        1   -1    0    0  501    0  0.00000000000E+00  0.00000000000E+00 -0.21116856869E+04  0.21116856869E+04  0.50400001928E-02 0.  1.
    10030    2    1    2    0    0  0.00000000000E+00  0.00000000000E+00 -0.14219248893E+04  0.28014464844E+04  0.24137588973E+04 0.  0.
        5    1    3    3  502    0  0.36538305592E+03 -0.10864954968E+04 -0.11491754501E+04  0.16231461879E+04  0.46999998093E+01 0.  1.
       -5    1    3    3    0  502 -0.36538305592E+03  0.10864954968E+04 -0.27274943924E+03  0.11783002965E+04  0.46999998093E+01 0. -1.
</event>
<event>
 5   0  0.2388326E-05  0.2222195E+04  0.7818609E-02  0.8509246E-01
        2   -1    0    0  501    0  0.00000000000E+00  0.00000000000E+00  0.12468324464E+04  0.12468324464E+04  0.25500000920E-02 0.  1.
       -2   -1    0    0    0  501  0.00000000000E+00  0.00000000000E+00 -0.99013916674E+03  0.99013916675E+03  0.25500000920E-02 0. -1.
    10030    2    1    2    0    0  0.00000000000E+00  0.00000000000E+00  0.25669327963E+03  0.22369716131E+04  0.22221949865E+04 0.  0.
        2    1    3    3  502    0  0.64569731659E+03 -0.68555773906E+03  0.72186298931E+03  0.11865920165E+04  0.25500000920E-02 0.  1.
       -2    1    3    3    0  502 -0.64569731659E+03  0.68555773906E+03 -0.46516970967E+03  0.10503795966E+04  0.25500000920E-02 0. -1.
</event>
<event>
 5   0  0.1015327E-05  0.2504492E+04  0.7818609E-02  0.8401387E-01
       -1   -1    0    0    0  501  0.00000000000E+00  0.00000000000E+00  0.64367706085E+03  0.64367706087E+03  0.50400001928E-02 0.  1.
        1   -1    0    0  501    0  0.00000000000E+00  0.00000000000E+00 -0.24361915857E+04  0.24361915857E+04  0.50400001928E-02 0. -1.
    10030    2    1    2    0    0  0.00000000000E+00  0.00000000000E+00 -0.17925145248E+04  0.30798686466E+04  0.25044924752E+04 0.  0.
        4    1    3    3  502    0  0.35954299446E+03 -0.10522183908E+04 -0.18802625965E+03  0.11277367574E+04  0.12699999809E+01 0.  1.
       -4    1    3    3    0  502 -0.35954299446E+03  0.10522183908E+04 -0.16044882652E+04  0.19521318892E+04  0.12699999809E+01 0. -1.
</event>
<event>
 5   0  0.2441340E-05  0.2514180E+04  0.7818609E-02  0.8397951E-01
       -2   -1    0    0    0  501  0.00000000000E+00  0.00000000000E+00  0.13432340808E+04  0.13432340808E+04  0.25500000920E-02 0. -1.
        2   -1    0    0  501    0  0.00000000000E+00  0.00000000000E+00 -0.11764707298E+04  0.11764707298E+04  0.25500000920E-02 0.  1.
    10030    2    1    2    0    0  0.00000000000E+00  0.00000000000E+00  0.16676335099E+03  0.25197048106E+04  0.25141802475E+04 0.  0.
        3    1    3    3  502    0 -0.74494604030E+03  0.14839960072E+02 -0.93132063022E+03  0.11926956669E+04  0.10100000352E+00 0.  1.
       -3    1    3    3    0  502  0.74494604030E+03 -0.14839960072E+02  0.10980839812E+04  0.13270091437E+04  0.10100000352E+00 0. -1.
</event>
<event>
 5   0  0.1008073E-05  0.2508403E+04  0.7818609E-02  0.8399998E-01
        1   -1    0    0  501    0  0.00000000000E+00  0.00000000000E+00  0.14949987985E+04  0.14949987985E+04  0.50400001928E-02 0.  1.
       -1   -1    0    0    0  501  0.00000000000E+00  0.00000000000E+00 -0.10521887313E+04  0.10521887313E+04  0.50400001928E-02 0. -1.
    10030    2    1    2    0    0  0.00000000000E+00  0.00000000000E+00  0.44281006728E+03  0.25471875298E+04  0.25084025906E+04 0.  0.
        1    1    3    3  502    0 -0.12475560680E+04  0.77012860838E+02  0.32641463392E+03  0.12918489219E+04  0.50400001928E-02 0.  1.
       -1    1    3    3    0  502  0.12475560680E+04 -0.77012860838E+02  0.11639543336E+03  0.12553386079E+04  0.50400001928E-02 0. -1.
</event>
<event>
 5   0  0.2441340E-05  0.2539520E+04  0.7818609E-02  0.8389040E-01
       -2   -1    0    0    0  501  0.00000000000E+00  0.00000000000E+00  0.77652354185E+03  0.77652354186E+03  0.25500000920E-02 0.  1.
        2   -1    0    0  501    0  0.00000000000E+00  0.00000000000E+00 -0.20762928226E+04  0.20762928226E+04  0.25500000920E-02 0. -1.
    10030    2    1    2    0    0  0.00000000000E+00  0.00000000000E+00 -0.12997692807E+04  0.28528163644E+04  0.25395198416E+04 0.  0.
        3    1    3    3  502    0 -0.11308775458E+04 -0.20395759650E+03 -0.43049883105E+02  0.11499287054E+04  0.10100000352E+00 0.  1.
       -3    1    3    3    0  502  0.11308775458E+04  0.20395759650E+03 -0.12567193976E+04  0.17028876590E+04  0.10100000352E+00 0. -1.
</event>
<event>
 5   0  0.1002753E-05  0.2430370E+04  0.7818609E-02  0.8428220E-01
       -1   -1    0    0    0  501  0.00000000000E+00  0.00000000000E+00  0.13396035763E+04  0.13396035763E+04  0.50400001928E-02 0.  1.
        1   -1    0    0  501    0  0.00000000000E+00  0.00000000000E+00 -0.11023218444E+04  0.11023218445E+04  0.50400001928E-02 0. -1.
    10030    2    1    2    0    0  0.00000000000E+00  0.00000000000E+00  0.23728173189E+03  0.24419254208E+04  0.24303697539E+04 0.  0.
        5    1    3    3  502    0 -0.58813734871E+03  0.41054959196E+03 -0.86693882807E+03  0.11251939966E+04  0.46999998093E+01 0. -1.
       -5    1    3    3    0  502  0.58813734871E+03 -0.41054959196E+03  0.11042205600E+04  0.13167314242E+04  0.46999998093E+01 0.  1.
</event>
<event>
 5   0  0.1002753E-05  0.2467483E+04  0.7818609E-02  0.8414662E-01
        1   -1    0    0  501    0  0.00000000000E+00  0.00000000000E+00  0.10962065021E+04  0.10962065021E+04  0.50400001928E-02 0.  1.
       -1   -1    0    0    0  501  0.00000000000E+00  0.00000000000E+00 -0.13885325645E+04  0.13885325645E+04  0.50400001928E-02 0. -1.
    10030    2    1    2    0    0  0.00000000000E+00  0.00000000000E+00 -0.29232606247E+03  0.24847390666E+04  0.24674832729E+04 0.  0.
        5    1    3    3  502    0  0.37837613881E+03  0.40202707208E+03  0.96486687856E+03  0.11116584244E+04  0.46999998093E+01 0.  1.
       -5    1    3    3    0  502 -0.37837613881E+03 -0.40202707208E+03 -0.12571929410E+04  0.13730806422E+04  0.46999998093E+01 0. -1.
</event>
<event>
 5   0  0.1039688E-05  0.2515138E+04  0.7818609E-02  0.8397612E-01
        1   -1    0    0  501    0  0.00000000000E+00  0.00000000000E+00  0.15242757675E+04  0.15242757675E+04  0.50400001928E-02 0.  1.
       -1   -1    0    0    0  501  0.00000000000E+00  0.00000000000E+00 -0.10375282595E+04  0.10375282595E+04  0.50400001928E-02 0. -1.
    10030    2    1    2    0    0  0.00000000000E+00  0.00000000000E+00  0.48674750802E+03  0.25618040270E+04  0.25151375184E+04 0.  0.
        3    1    3    3  502    0  0.44131458834E+03 -0.98130727317E+03  0.90641787460E+03  0.14068816240E+04  0.10100000352E+00 0. -1.
       -3    1    3    3    0  502 -0.44131458834E+03  0.98130727317E+03 -0.41967036658E+03  0.11549224030E+04  0.10100000352E+00 0.  1.
</event>
<event>
 5   0  0.2345143E-05  0.2493857E+04  0.7818609E-02  0.8405177E-01
       -2   -1    0    0    0  501  0.00000000000E+00  0.00000000000E+00  0.10913234989E+04  0.10913234989E+04  0.25500000920E-02 0.  1.
        2   -1    0    0  501    0  0.00000000000E+00  0.00000000000E+00 -0.14247204387E+04  0.14247204387E+04  0.25500000920E-02 0. -1.
    10030    2    1    2    0    0  0.00000000000E+00  0.00000000000E+00 -0.33339693975E+03  0.25160439376E+04  0.24938571684E+04 0.  0.
        5    1    3    3  502    0 -0.12223572052E+04 -0.24025299088E+03 -0.22131106929E+03  0.12652585966E+04  0.46999998093E+01 0.  1.
       -5    1    3    3    0  502  0.12223572052E+04  0.24025299088E+03 -0.11208587046E+03  0.12507853410E+04  0.46999998093E+01 0. -1.
</event>
<event>
 5   0  0.2452457E-05  0.2505132E+04  0.7818609E-02  0.8401159E-01
        2   -1    0    0  501    0  0.00000000000E+00  0.00000000000E+00  0.12715369596E+04  0.12715369596E+04  0.25500000920E-02 0. -1.
       -2   -1    0    0    0  501  0.00000000000E+00  0.00000000000E+00 -0.12338784063E+04  0.12338784063E+04  0.25500000920E-02 0.  1.
    10030    2    1    2    0    0  0.00000000000E+00  0.00000000000E+00  0.37658553380E+02  0.25054153659E+04  0.25051323296E+04 0.  0.
        1    1    3    3  502    0 -0.37952945299E+03 -0.72175301590E+03  0.96970058698E+03  0.12670000987E+04  0.50400001928E-02 0. -1.
       -1    1    3    3    0  502  0.37952945299E+03  0.72175301590E+03 -0.93204203360E+03  0.12384152672E+04  0.50400001928E-02 0.  1.
</event>
<event>
 5   0  0.2452457E-05  0.2495560E+04  0.7818609E-02  0.8404569E-01
        2   -1    0    0  501    0  0.00000000000E+00  0.00000000000E+00  0.11093272640E+04  0.11093272640E+04  0.25500000920E-02 0.  1.
       -2   -1    0    0    0  501  0.00000000000E+00  0.00000000000E+00 -0.14035129972E+04  0.14035129972E+04  0.25500000920E-02 0. -1.
    10030    2    1    2    0    0  0.00000000000E+00  0.00000000000E+00 -0.29418573327E+03  0.25128402612E+04  0.24955602442E+04 0.  0.
        1    1    3    3  502    0 -0.28544417991E+02  0.11310265771E+04  0.38278217097E+03  0.11943860734E+04  0.50400001928E-02 0.  1.
       -1    1    3    3    0  502  0.28544417991E+02 -0.11310265771E+04 -0.67696790424E+03  0.13184541878E+04  0.50400001928E-02 0. -1.
</event>
<event>
 5   0  0.1010338E-05  0.2474887E+04  0.7818609E-02  0.8411987E-01
       -1   -1    0    0    0  501  0.00000000000E+00  0.00000000000E+00  0.11236208164E+04  0.11236208164E+04  0.50400001928E-02 0. -1.
        1   -1    0    0  501    0  0.00000000000E+00  0.00000000000E+00 -0.13627965836E+04  0.13627965836E+04  0.50400001928E-02 0.  1.
    10030    2    1    2    0    0  0.00000000000E+00  0.00000000000E+00 -0.23917576719E+03  0.24864174001E+04  0.24748871570E+04 0.  0.
        2    1    3    3  502    0 -0.10861810932E+03 -0.71443464059E+03  0.88960778559E+03  0.11461312148E+04  0.25500000920E-02 0. -1.
       -2    1    3    3    0  502  0.10861810932E+03  0.71443464059E+03 -0.11287835528E+04  0.13402861853E+04  0.25500000920E-02 0.  1.
</event>
<event>
 5   0  0.1010338E-05  0.2324156E+04  0.7818609E-02  0.8468457E-01
       -1   -1    0    0    0  501  0.00000000000E+00  0.00000000000E+00  0.73562238191E+03  0.73562238193E+03  0.50400001928E-02 0.  1.
        1   -1    0    0  501    0  0.00000000000E+00  0.00000000000E+00 -0.18357583352E+04  0.18357583352E+04  0.50400001928E-02 0. -1.
    10030    2    1    2    0    0  0.00000000000E+00  0.00000000000E+00 -0.11001359533E+04  0.25713807171E+04  0.23241556912E+04 0.  0.
        2    1    3    3  502    0  0.99875840889E+03  0.56561378969E+03 -0.75101266478E+03  0.13716622547E+04  0.25500000920E-02 0.  1.
       -2    1    3    3    0  502 -0.99875840889E+03 -0.56561378969E+03 -0.34912328850E+03  0.11997184624E+04  0.25500000920E-02 0. -1.
</event>
<event>
 5   0  0.2388326E-05  0.2567295E+04  0.7818609E-02  0.8379396E-01
        2   -1    0    0  501    0  0.00000000000E+00  0.00000000000E+00  0.18711402254E+04  0.18711402254E+04  0.25500000920E-02 0. -1.
       -2   -1    0    0    0  501  0.00000000000E+00  0.00000000000E+00 -0.88061344896E+03  0.88061344896E+03  0.25500000920E-02 0.  1.
    10030    2    1    2    0    0  0.00000000000E+00  0.00000000000E+00  0.99052677648E+03  0.27517536744E+04  0.25672952673E+04 0.  0.
        2    1    3    3  502    0 -0.10560598663E+04 -0.35610495813E+03 -0.18742811525E+03  0.11301338332E+04  0.25500000920E-02 0.  1.
       -2    1    3    3    0  502  0.10560598663E+04  0.35610495813E+03  0.11779548917E+04  0.16216198412E+04  0.25500000920E-02 0. -1.
</event>
<event>
 5   0  0.1002753E-05  0.2447514E+04  0.7818609E-02  0.8421926E-01
       -1   -1    0    0    0  501  0.00000000000E+00  0.00000000000E+00  0.75744646180E+03  0.75744646181E+03  0.50400001928E-02 0. -1.
        1   -1    0    0  501    0  0.00000000000E+00  0.00000000000E+00 -0.19771449538E+04  0.19771449538E+04  0.50400001928E-02 0.  1.
    10030    2    1    2    0    0  0.00000000000E+00  0.00000000000E+00 -0.12196984920E+04  0.27345914156E+04  0.24475142081E+04 0.  0.
        5    1    3    3  502    0  0.66903930900E+03 -0.13419942837E+03  0.52514501188E+03  0.86105891614E+03  0.46999998093E+01 0. -1.
       -5    1    3    3    0  502 -0.66903930900E+03  0.13419942837E+03 -0.17448435038E+04  0.18735324994E+04  0.46999998093E+01 0.  1.
</event>
<event>
 5   0  0.1015327E-05  0.2450519E+04  0.7818609E-02  0.8420829E-01
       -1   -1    0    0    0  501  0.00000000000E+00  0.00000000000E+00  0.70401341798E+03  0.70401341800E+03  0.50400001928E-02 0. -1.
        1   -1    0    0  501    0  0.00000000000E+00  0.00000000000E+00 -0.21324312971E+04  0.21324312971E+04  0.50400001928E-02 0.  1.
    10030    2    1    2    0    0  0.00000000000E+00  0.00000000000E+00 -0.14284178791E+04  0.28364447151E+04  0.24505185134E+04 0.  0.
        4    1    3    3  502    0 -0.60098227504E+03  0.15559508890E+03 -0.19369175268E+04  0.20339716431E+04  0.12699999809E+01 0.  1.
       -4    1    3    3    0  502  0.60098227504E+03 -0.15559508890E+03  0.50849964769E+03  0.80247307195E+03  0.12699999809E+01 0. -1.
</event>
<event>
 5   0  0.1039688E-05  0.2446575E+04  0.7818609E-02  0.8422270E-01
        1   -1    0    0  501    0  0.00000000000E+00  0.00000000000E+00  0.13838687247E+04  0.13838687247E+04  0.50400001928E-02 0. -1.
       -1   -1    0    0    0  501  0.00000000000E+00  0.00000000000E+00 -0.10813397709E+04  0.10813397709E+04  0.50400001928E-02 0.  1.
    10030    2    1    2    0    0  0.00000000000E+00  0.00000000000E+00  0.30252895374E+03  0.24652084956E+04  0.24465749853E+04 0.  0.
        3    1    3    3  502    0 -0.84877621867E+03  0.84148075027E+03 -0.11133768794E+03  0.12003778628E+04  0.10100000352E+00 0.  1.
       -3    1    3    3    0  502  0.84877621867E+03 -0.84148075027E+03  0.41386664168E+03  0.12648306328E+04  0.10100000352E+00 0. -1.
</event>
<event>
 5   0  0.1002753E-05  0.2532340E+04  0.7818609E-02  0.8391554E-01
       -1   -1    0    0    0  501  0.00000000000E+00  0.00000000000E+00  0.11476797632E+04  0.11476797632E+04  0.50400001928E-02 0.  1.
        1   -1    0    0  501    0  0.00000000000E+00  0.00000000000E+00 -0.13968934911E+04  0.13968934911E+04  0.50400001928E-02 0. -1.
    10030    2    1    2    0    0  0.00000000000E+00  0.00000000000E+00 -0.24921372792E+03  0.25445732543E+04  0.25323399386E+04 0.  0.
        5    1    3    3  502    0 -0.39909975336E+03  0.52778044623E+03  0.96011325274E+03  0.11660498963E+04  0.46999998093E+01 0.  1.
       -5    1    3    3    0  502  0.39909975336E+03 -0.52778044623E+03 -0.12093269807E+04  0.13785233581E+04  0.46999998093E+01 0. -1.
</event>
<event>
 5   0  0.2388326E-05  0.2282526E+04  0.7818609E-02  0.8484843E-01
        2   -1    0    0  501    0  0.00000000000E+00  0.00000000000E+00  0.20567862529E+04  0.20567862529E+04  0.25500000920E-02 0. -1.
       -2   -1    0    0    0  501  0.00000000000E+00  0.00000000000E+00 -0.63326060727E+03  0.63326060727E+03  0.25500000920E-02 0.  1.
    10030    2    1    2    0    0  0.00000000000E+00  0.00000000000E+00  0.14235256456E+04  0.26900468602E+04  0.22825264174E+04 0.  0.
        2    1    3    3  502    0 -0.12968313475E+03 -0.81035965357E+03  0.16464426612E+04  0.18396396169E+04  0.25500000920E-02 0. -1.
       -2    1    3    3    0  502  0.12968313475E+03  0.81035965357E+03 -0.22291701554E+03  0.85040724327E+03  0.25500000920E-02 0.  1.
</event>
<event>
 5   0  0.2388326E-05  0.2401239E+04  0.7818609E-02  0.8439040E-01
       -2   -1    0    0    0  501  0.00000000000E+00  0.00000000000E+00  0.10354387265E+04  0.10354387265E+04  0.25500000920E-02 0. -1.
        2   -1    0    0  501    0  0.00000000000E+00  0.00000000000E+00 -0.13921517007E+04  0.13921517007E+04  0.25500000920E-02 0.  1.
    10030    2    1    2    0    0  0.00000000000E+00  0.00000000000E+00 -0.35671297422E+03  0.24275904272E+04  0.24012395000E+04 0.  0.
        2    1    3    3  502    0 -0.60385528469E+03  0.63499399416E+03 -0.10081124685E+04  0.13357205272E+04  0.25500000920E-02 0.  1.
       -2    1    3    3    0  502  0.60385528469E+03 -0.63499399416E+03  0.65139949429E+03  0.10918699001E+04  0.25500000920E-02 0. -1.
</event>
<event>
 5   0  0.1015327E-05  0.2507713E+04  0.7818609E-02  0.8400243E-01
       -1   -1    0    0    0  501  0.00000000000E+00  0.00000000000E+00  0.13270408740E+04  0.13270408740E+04  0.50400001928E-02 0. -1.
        1   -1    0    0  501    0  0.00000000000E+00  0.00000000000E+00 -0.11847084219E+04  0.11847084220E+04  0.50400001928E-02 0.  1.
    10030    2    1    2    0    0  0.00000000000E+00  0.00000000000E+00  0.14233245208E+03  0.25117492960E+04  0.25077133008E+04 0.  0.
        4    1    3    3  502    0  0.45183610656E+03  0.95963441091E+03  0.74089836079E+03  0.12938261335E+04  0.12699999809E+01 0.  1.
       -4    1    3    3    0  502 -0.45183610656E+03 -0.95963441091E+03 -0.59856590871E+03  0.12179231625E+04  0.12699999809E+01 0. -1.
</event>
<event>
 5   0  0.1008073E-05  0.2484770E+04  0.7818609E-02  0.8408431E-01
        1   -1    0    0  501    0  0.00000000000E+00  0.00000000000E+00  0.16703684286E+04  0.16703684286E+04  0.50400001928E-02 0. -1.
       -1   -1    0    0    0  501  0.00000000000E+00  0.00000000000E+00 -0.92405990344E+03  0.92405990346E+03  0.50400001928E-02 0.  1.
    10030    2    1    2    0    0  0.00000000000E+00  0.00000000000E+00  0.74630852513E+03  0.25944283320E+04  0.24847700005E+04 0.  0.
        1    1    3    3  502    0  0.63424962313E+03  0.10046148830E+04 -0.61932603038E+01  0.11880917490E+04  0.50400001928E-02 0.  1.
       -1    1    3    3    0  502 -0.63424962313E+03 -0.10046148830E+04  0.75250178544E+03  0.14063365830E+04  0.50400001928E-02 0. -1.
</event>
<event>
 5   0  0.1008073E-05  0.2507819E+04  0.7818609E-02  0.8400205E-01
       -1   -1    0    0    0  501  0.00000000000E+00  0.00000000000E+00  0.99518628742E+03  0.99518628743E+03  0.50400001928E-02 0.  1.
        1   -1    0    0  501    0  0.00000000000E+00  0.00000000000E+00 -0.15798936094E+04  0.15798936094E+04  0.50400001928E-02 0. -1.
    10030    2    1    2    0    0  0.00000000000E+00  0.00000000000E+00 -0.58470732199E+03  0.25750798968E+04  0.25078185386E+04 0.  0.
        1    1    3    3  502    0 -0.42359893325E+03  0.95186360009E+02 -0.15002509341E+04  0.15618096441E+04  0.50400001928E-02 0. -1.
       -1    1    3    3    0  502  0.42359893325E+03 -0.95186360009E+02  0.91554361207E+03  0.10132702527E+04  0.50400001928E-02 0.  1.
</event>
<event>
 5   0  0.1002753E-05  0.2478003E+04  0.7818609E-02  0.8410864E-01
       -1   -1    0    0    0  501  0.00000000000E+00  0.00000000000E+00  0.95546214180E+03  0.95546214182E+03  0.50400001928E-02 0. -1.
        1   -1    0    0  501    0  0.00000000000E+00  0.00000000000E+00 -0.16066826164E+04  0.16066826164E+04  0.50400001928E-02 0.  1.
    10030    2    1    2    0    0  0.00000000000E+00  0.00000000000E+00 -0.65122047458E+03  0.25621447582E+04  0.24780027553E+04 0.  0.
        5    1    3    3  502    0 -0.11848064697E+04  0.35283488986E+03 -0.24007583718E+03  0.12593320959E+04  0.46999998093E+01 0. -1.
       -5    1    3    3    0  502  0.11848064697E+04 -0.35283488986E+03 -0.41114463740E+03  0.13028126623E+04  0.46999998093E+01 0.  1.
</event>
<event>
 5   0  0.2452457E-05  0.2485209E+04  0.7818609E-02  0.8408274E-01
        2   -1    0    0  501    0  0.00000000000E+00  0.00000000000E+00  0.17460708432E+04  0.17460708432E+04  0.25500000920E-02 0. -1.
       -2   -1    0    0    0  501  0.00000000000E+00  0.00000000000E+00 -0.88430914329E+03  0.88430914330E+03  0.25500000920E-02 0.  1.
    10030    2    1    2    0    0  0.00000000000E+00  0.00000000000E+00  0.86176169987E+03  0.26303799865E+04  0.24852093766E+04 0.  0.
        1    1    3    3  502    0 -0.41202736887E+03  0.59251644341E+02 -0.80831750836E+03  0.90920542476E+03  0.50400001928E-02 0.  1.
       -1    1    3    3    0  502  0.41202736887E+03 -0.59251644341E+02  0.16700792082E+04  0.17211745617E+04  0.50400001928E-02 0. -1.
</event>
<event>
 5   0  0.2441340E-05  0.2520067E+04  0.7818609E-02  0.8395871E-01
       -2   -1    0    0    0  501  0.00000000000E+00  0.00000000000E+00  0.90700920099E+03  0.90700920099E+03  0.25500000920E-02 0.  1.
        2   -1    0    0  501    0  0.00000000000E+00  0.00000000000E+00 -0.17504616877E+04  0.17504616877E+04  0.25500000920E-02 0. -1.
    10030    2    1    2    0    0  0.00000000000E+00  0.00000000000E+00 -0.84345248671E+03  0.26574708887E+04  0.25200673457E+04 0.  0.
        3    1    3    3  502    0 -0.73935234129E+03 -0.33542191580E+03 -0.14378708855E+04  0.16512487516E+04  0.10100000352E+00 0. -1.
       -3    1    3    3    0  502  0.73935234129E+03  0.33542191580E+03  0.59441839877E+03  0.10062221371E+04  0.10100000352E+00 0.  1.
</event>
<event>
 5   0  0.2452457E-05  0.2487922E+04  0.7818609E-02  0.8407301E-01
        2   -1    0    0  501    0  0.00000000000E+00  0.00000000000E+00  0.21995004196E+04  0.21995004196E+04  0.25500000920E-02 0. -1.
       -2   -1    0    0    0  501  0.00000000000E+00  0.00000000000E+00 -0.70354111788E+03  0.70354111788E+03  0.25500000920E-02 0.  1.
    10030    2    1    2    0    0  0.00000000000E+00  0.00000000000E+00  0.14959593017E+04  0.29030415375E+04  0.24879220116E+04 0.  0.
        1    1    3    3  502    0 -0.42716690142E+03 -0.56416596612E+03 -0.44580040359E+03  0.83635686095E+03  0.50400001928E-02 0.  1.
       -1    1    3    3    0  502  0.42716690142E+03  0.56416596612E+03  0.19417597053E+04  0.20666846765E+04  0.50400001928E-02 0. -1.
</event>
<event>
 5   0  0.2441340E-05  0.2523730E+04  0.7818609E-02  0.8394580E-01
       -2   -1    0    0    0  501  0.00000000000E+00  0.00000000000E+00  0.71065324400E+03  0.71065324401E+03  0.25500000920E-02 0. -1.
        2   -1    0    0  501    0  0.00000000000E+00  0.00000000000E+00 -0.22406193119E+04  0.22406193119E+04  0.25500000920E-02 0.  1.
    10030    2    1    2    0    0  0.00000000000E+00  0.00000000000E+00 -0.15299660679E+04  0.29512725559E+04  0.25237300827E+04 0.  0.
        3    1    3    3  502    0 -0.62846678153E+03 -0.31903465250E+03  0.45901993234E+03  0.84110220157E+03  0.10100000352E+00 0. -1.
       -3    1    3    3    0  502  0.62846678153E+03  0.31903465250E+03 -0.19889860003E+04  0.21101703544E+04  0.10100000352E+00 0.  1.
</event>
<event>
 5   0  0.2345143E-05  0.2543462E+04  0.7818609E-02  0.8387664E-01
        2   -1    0    0  501    0  0.00000000000E+00  0.00000000000E+00  0.16040351714E+04  0.16040351714E+04  0.25500000920E-02 0. -1.
       -2   -1    0    0    0  501  0.00000000000E+00  0.00000000000E+00 -0.10082695536E+04  0.10082695536E+04  0.25500000920E-02 0.  1.
    10030    2    1    2    0    0  0.00000000000E+00  0.00000000000E+00  0.59576561784E+03  0.26123047250E+04  0.25434620706E+04 0.  0.
        5    1    3    3  502    0 -0.42949732767E+03 -0.10218281718E+04  0.93819677435E+03  0.14521831994E+04  0.46999998093E+01 0. -1.
       -5    1    3    3    0  502  0.42949732767E+03  0.10218281718E+04 -0.34243115651E+03  0.11601215256E+04  0.46999998093E+01 0.  1.
</event>
<event>
 5   0  0.1010338E-05  0.2392974E+04  0.7818609E-02  0.8442139E-01
       -1   -1    0    0    0  501  0.00000000000E+00  0.00000000000E+00  0.12524588132E+04  0.12524588132E+04  0.50400001928E-02 0. -1.
        1   -1    0    0  501    0  0.00000000000E+00  0.00000000000E+00 -0.11430167122E+04  0.11430167122E+04  0.50400001928E-02 0.  1.
    10030    2    1    2    0    0  0.00000000000E+00  0.00000000000E+00  0.10944210097E+03  0.23954755254E+04  0.23929741786E+04 0.  0.
        2    1    3    3  502    0  0.39305379072E+03  0.32669564814E+03 -0.10282415670E+04  0.11482604448E+04  0.25500000920E-02 0.  1.
       -2    1    3    3    0  502 -0.39305379072E+03 -0.32669564814E+03  0.11376836680E+04  0.12472150806E+04  0.25500000920E-02 0. -1.
</event>
<event>
 5   0  0.1039688E-05  0.2506798E+04  0.7818609E-02  0.8400568E-01
        1   -1    0    0  501    0  0.00000000000E+00  0.00000000000E+00  0.68993888060E+03  0.68993888062E+03  0.50400001928E-02 0.  1.
       -1   -1    0    0    0  501  0.00000000000E+00  0.00000000000E+00 -0.22770262287E+04  0.22770262287E+04  0.50400001928E-02 0. -1.
    10030    2    1    2    0    0  0.00000000000E+00  0.00000000000E+00 -0.15870873481E+04  0.29669651093E+04  0.25067978996E+04 0.  0.
        3    1    3    3  502    0 -0.31017271195E+03 -0.12143698272E+04 -0.78125913882E+03  0.14769113178E+04  0.10100000352E+00 0. -1.
       -3    1    3    3    0  502  0.31017271195E+03  0.12143698272E+04 -0.80582820929E+03  0.14900537915E+04  0.10100000352E+00 0.  1.
</event>
<event>
 5   0  0.2452457E-05  0.2504478E+04  0.7818609E-02  0.8401392E-01
       -2   -1    0    0    0  501  0.00000000000E+00  0.00000000000E+00  0.82370860297E+03  0.82370860297E+03  0.25500000920E-02 0.  1.
        2   -1    0    0  501    0  0.00000000000E+00  0.00000000000E+00 -0.19037109133E+04  0.19037109133E+04  0.25500000920E-02 0. -1.
    10030    2    1    2    0    0  0.00000000000E+00  0.00000000000E+00 -0.10800023103E+04  0.27274195163E+04  0.25044784342E+04 0.  0.
        1    1    3    3  502    0 -0.21955812326E+03  0.10229542870E+04 -0.12893380672E+04  0.16604318397E+04  0.50400001928E-02 0. -1.
       -1    1    3    3    0  502  0.21955812326E+03 -0.10229542870E+04  0.20933575688E+03  0.10669876766E+04  0.50400001928E-02 0.  1.
</event>
<event>
 5   0  0.1039688E-05  0.2516376E+04  0.7818609E-02  0.8397175E-01
        1   -1    0    0  501    0  0.00000000000E+00  0.00000000000E+00  0.11555961754E+04  0.11555961754E+04  0.50400001928E-02 0. -1.
       -1   -1    0    0    0  501  0.00000000000E+00  0.00000000000E+00 -0.13698872943E+04  0.13698872943E+04  0.50400001928E-02 0.  1.
    10030    2    1    2    0    0  0.00000000000E+00  0.00000000000E+00 -0.21429111896E+03  0.25254834697E+04  0.25163755825E+04 0.  0.
        3    1    3    3  502    0  0.77376891841E+03 -0.39941062325E+03 -0.10186117902E+04  0.13400810328E+04  0.10100000352E+00 0.  1.
       -3    1    3    3    0  502 -0.77376891841E+03  0.39941062325E+03  0.80432067127E+03  0.11854024369E+04  0.10100000352E+00 0. -1.
</event>
<event>
 5   0  0.1010338E-05  0.2646559E+04  0.7818609E-02  0.8352556E-01
       -1   -1    0    0    0  501  0.00000000000E+00  0.00000000000E+00  0.14313151533E+04  0.14313151533E+04  0.50400001928E-02 0. -1.
        1   -1    0    0  501    0  0.00000000000E+00  0.00000000000E+00 -0.12233984198E+04  0.12233984198E+04  0.50400001928E-02 0.  1.
    10030    2    1    2    0    0  0.00000000000E+00  0.00000000000E+00  0.20791673345E+03  0.26547135731E+04  0.26465590466E+04 0.  0.
        2    1    3    3  502    0 -0.93351530622E+03 -0.80840565804E+03  0.58092126567E+03  0.13647124429E+04  0.25500000920E-02 0. -1.
       -2    1    3    3    0  502  0.93351530622E+03  0.80840565804E+03 -0.37300453222E+03  0.12900011302E+04  0.25500000920E-02 0.  1.
</event>
<event>
 5   0  0.1015327E-05  0.2603750E+04  0.7818609E-02  0.8366929E-01
        1   -1    0    0  501    0  0.00000000000E+00  0.00000000000E+00  0.98580427263E+03  0.98580427264E+03  0.50400001928E-02 0. -1.
       -1   -1    0    0    0  501  0.00000000000E+00  0.00000000000E+00 -0.17192850514E+04  0.17192850514E+04  0.50400001928E-02 0.  1.
    10030    2    1    2    0    0  0.00000000000E+00  0.00000000000E+00 -0.73348077876E+03  0.27050893240E+04  0.26037500261E+04 0.  0.
        4    1    3    3  502    0  0.43861727222E+03 -0.68248021742E+03 -0.14245597392E+04  0.16393707397E+04  0.12699999809E+01 0.  1.
       -4    1    3    3    0  502 -0.43861727222E+03  0.68248021742E+03  0.69107896042E+03  0.10657185844E+04  0.12699999809E+01 0. -1.
</event>
<event>
 5   0  0.2432309E-05  0.2458403E+04  0.7818609E-02  0.8417956E-01
       -2   -1    0    0    0  501  0.00000000000E+00  0.00000000000E+00  0.84418189078E+03  0.84418189079E+03  0.25500000920E-02 0.  1.
        2   -1    0    0  501    0  0.00000000000E+00  0.00000000000E+00 -0.17898231920E+04  0.17898231920E+04  0.25500000920E-02 0. -1.
    10030    2    1    2    0    0  0.00000000000E+00  0.00000000000E+00 -0.94564130125E+03  0.26340050828E+04  0.24584029990E+04 0.  0.
        4    1    3    3  502    0  0.11108212089E+03  0.61989037939E+03  0.65820046886E+03  0.91095158496E+03  0.12699999809E+01 0.  1.
       -4    1    3    3    0  502 -0.11108212089E+03 -0.61989037939E+03 -0.16038417701E+04  0.17230534979E+04  0.12699999809E+01 0. -1.
</event>
<event>
 5   0  0.8166500E-06  0.2498633E+04  0.7818609E-02  0.8403473E-01
        3   -1    0    0  501    0  0.00000000000E+00  0.00000000000E+00  0.14904333183E+04  0.14904333217E+04  0.10100000352E+00 0. -1.
       -3   -1    0    0    0  501  0.00000000000E+00  0.00000000000E+00 -0.10472067234E+04  0.10472067283E+04  0.10100000352E+00 0.  1.
    10030    2    1    2    0    0  0.00000000000E+00  0.00000000000E+00  0.44322659485E+03  0.25376400500E+04  0.24986330680E+04 0.  0.
        4    1    3    3  502    0 -0.38870300150E+03 -0.11210056901E+04  0.61893209095E+03  0.13382160987E+04  0.12699999809E+01 0. -1.
       -4    1    3    3    0  502  0.38870300150E+03  0.11210056901E+04 -0.17570549610E+03  0.11994239513E+04  0.12699999809E+01 0.  1.
</event>
<event>
 5   0  0.1002753E-05  0.2498816E+04  0.7818609E-02  0.8403407E-01
       -1   -1    0    0    0  501  0.00000000000E+00  0.00000000000E+00  0.88513997025E+03  0.88513997027E+03  0.50400001928E-02 0. -1.
        1   -1    0    0  501    0  0.00000000000E+00  0.00000000000E+00 -0.17635861500E+04  0.17635861500E+04  0.50400001928E-02 0.  1.
    10030    2    1    2    0    0  0.00000000000E+00  0.00000000000E+00 -0.87844617972E+03  0.26487261202E+04  0.24988161936E+04 0.  0.
        5    1    3    3  502    0 -0.18203614186E+03 -0.12352545477E+04 -0.39172942312E+03  0.13086118544E+04  0.46999998093E+01 0.  1.
       -5    1    3    3    0  502  0.18203614186E+03  0.12352545477E+04 -0.48671675660E+03  0.13401142659E+04  0.46999998093E+01 0. -1.
</event>
<event>
 5   0  0.1002753E-05  0.2352310E+04  0.7818609E-02  0.8457577E-01
       -1   -1    0    0    0  501  0.00000000000E+00  0.00000000000E+00  0.61711330963E+03  0.61711330965E+03  0.50400001928E-02 0.  1.
        1   -1    0    0  501    0  0.00000000000E+00  0.00000000000E+00 -0.22416314293E+04  0.22416314293E+04  0.50400001928E-02 0. -1.
    10030    2    1    2    0    0  0.00000000000E+00  0.00000000000E+00 -0.16245181197E+04  0.28587447390E+04  0.23523100054E+04 0.  0.
        5    1    3    3  502    0  0.88639415005E+03 -0.75702097934E+03 -0.10026498583E+04  0.15375643664E+04  0.46999998093E+01 0. -1.
       -5    1    3    3    0  502 -0.88639415005E+03  0.75702097934E+03 -0.62186826134E+03  0.13211803726E+04  0.46999998093E+01 0.  1.
</event>
<event>
 5   0  0.2345143E-05  0.2468070E+04  0.7818609E-02  0.8414450E-01
        2   -1    0    0  501    0  0.00000000000E+00  0.00000000000E+00  0.15661927234E+04  0.15661927234E+04  0.25500000920E-02 0. -1.
       -2   -1    0    0    0  501  0.00000000000E+00  0.00000000000E+00 -0.97232136568E+03  0.97232136568E+03  0.25500000920E-02 0.  1.
    10030    2    1    2    0    0  0.00000000000E+00  0.00000000000E+00  0.59387135771E+03  0.25385140891E+04  0.24680702160E+04 0.  0.
        5    1    3    3  502    0  0.42829150604E+03 -0.53720443672E+03 -0.75740692390E+03  0.10225994129E+04  0.46999998093E+01 0.  1.
       -5    1    3    3    0  502 -0.42829150604E+03  0.53720443672E+03  0.13512782816E+04  0.15159146761E+04  0.46999998093E+01 0. -1.
</event>
<event>
 5   0  0.2452457E-05  0.2502581E+04  0.7818609E-02  0.8402067E-01
       -2   -1    0    0    0  501  0.00000000000E+00  0.00000000000E+00  0.75321385132E+03  0.75321385132E+03  0.25500000920E-02 0.  1.
        2   -1    0    0  501    0  0.00000000000E+00  0.00000000000E+00 -0.20787300916E+04  0.20787300916E+04  0.25500000920E-02 0. -1.
    10030    2    1    2    0    0  0.00000000000E+00  0.00000000000E+00 -0.13255162403E+04  0.28319439429E+04  0.25025813059E+04 0.  0.
        1    1    3    3  502    0 -0.22597031327E+03 -0.95044397564E+02 -0.20512901898E+04  0.20658866045E+04  0.50400001928E-02 0. -1.
       -1    1    3    3    0  502  0.22597031327E+03  0.95044397564E+02  0.72577394948E+03  0.76605733843E+03  0.50400001928E-02 0.  1.
</event>
<event>
 5   0  0.1010338E-05  0.2504682E+04  0.7818609E-02  0.8401319E-01
       -1   -1    0    0    0  501  0.00000000000E+00  0.00000000000E+00  0.93517340565E+03  0.93517340567E+03  0.50400001928E-02 0.  1.
        1   -1    0    0  501    0  0.00000000000E+00  0.00000000000E+00 -0.16770777882E+04  0.16770777882E+04  0.50400001928E-02 0. -1.
    10030    2    1    2    0    0  0.00000000000E+00  0.00000000000E+00 -0.74190438252E+03  0.26122511939E+04  0.25046824523E+04 0.  0.
        2    1    3    3  502    0  0.55573225150E+03  0.77266715299E+02 -0.15386570983E+04  0.16377649852E+04  0.25500000920E-02 0. -1.
       -2    1    3    3    0  502 -0.55573225150E+03 -0.77266715299E+02  0.79675271579E+03  0.97448620862E+03  0.25500000920E-02 0.  1.
</event>
<event>
 5   0  0.8166500E-06  0.2498877E+04  0.7818609E-02  0.8403386E-01
       -4   -1    0    0    0  501  0.00000000000E+00  0.00000000000E+00  0.12612841373E+04  0.12612847767E+04  0.12699999809E+01 0.  1.
        4   -1    0    0  501    0  0.00000000000E+00  0.00000000000E+00 -0.12377030765E+04  0.12377037281E+04  0.12699999809E+01 0. -1.
    10030    2    1    2    0    0  0.00000000000E+00  0.00000000000E+00  0.23581060807E+02  0.24989885048E+04  0.24988772440E+04 0.  0.
        5    1    3    3  502    0  0.21163804035E+03  0.60724778206E+03 -0.10594874166E+04  0.12393854142E+04  0.46999998093E+01 0. -1.
       -5    1    3    3    0  502 -0.21163804035E+03 -0.60724778206E+03  0.10830684775E+04  0.12596030906E+04  0.46999998093E+01 0.  1.
</event>
<event>
 5   0  0.2452457E-05  0.2507025E+04  0.7818609E-02  0.8400487E-01
        2   -1    0    0  501    0  0.00000000000E+00  0.00000000000E+00  0.12029189233E+04  0.12029189233E+04  0.25500000920E-02 0.  1.
       -2   -1    0    0    0  501  0.00000000000E+00  0.00000000000E+00 -0.13062336789E+04  0.13062336789E+04  0.25500000920E-02 0. -1.
    10030    2    1    2    0    0  0.00000000000E+00  0.00000000000E+00 -0.10331475554E+03  0.25091526022E+04  0.25070246992E+04 0.  0.
        1    1    3    3  502    0 -0.40807546811E+03  0.10590824338E+04  0.48087696188E+03  0.12326491154E+04  0.50400001928E-02 0.  1.
       -1    1    3    3    0  502  0.40807546811E+03 -0.10590824338E+04 -0.58419171743E+03  0.12765034868E+04  0.50400001928E-02 0. -1.
</event>
<event>
 5   0  0.2452457E-05  0.2512140E+04  0.7818609E-02  0.8398673E-01
        2   -1    0    0  501    0  0.00000000000E+00  0.00000000000E+00  0.21021755770E+04  0.21021755770E+04  0.25500000920E-02 0.  1.
       -2   -1    0    0    0  501  0.00000000000E+00  0.00000000000E+00 -0.75051367266E+03  0.75051367267E+03  0.25500000920E-02 0. -1.
    10030    2    1    2    0    0  0.00000000000E+00  0.00000000000E+00  0.13516619044E+04  0.28526892497E+04  0.25121397357E+04 0.  0.
        1    1    3    3  502    0  0.24870776927E+03  0.39887622253E+01  0.20739281360E+04  0.20887913677E+04  0.50400001928E-02 0.  1.
       -1    1    3    3    0  502 -0.24870776927E+03 -0.39887622253E+01 -0.72226623161E+03  0.76389788196E+03  0.50400001928E-02 0. -1.
</event>
<event>
 5   0  0.2441340E-05  0.2388032E+04  0.7818609E-02  0.8443998E-01
        2   -1    0    0  501    0  0.00000000000E+00  0.00000000000E+00  0.25154740253E+04  0.25154740253E+04  0.25500000920E-02 0. -1.
       -2   -1    0    0    0  501  0.00000000000E+00  0.00000000000E+00 -0.56676178313E+03  0.56676178313E+03  0.25500000920E-02 0.  1.
    10030    2    1    2    0    0  0.00000000000E+00  0.00000000000E+00  0.19487122422E+04  0.30822358085E+04  0.23880322812E+04 0.  0.
        3    1    3    3  502    0 -0.72350572622E+03 -0.11944901765E+03  0.21905951308E+04  0.23100726484E+04  0.10100000352E+00 0. -1.
       -3    1    3    3    0  502  0.72350572622E+03  0.11944901765E+03 -0.24188288862E+03  0.77216316003E+03  0.10100000352E+00 0.  1.
</event>
<event>
 5   0  0.1015327E-05  0.2525762E+04  0.7818609E-02  0.8393865E-01
        1   -1    0    0  501    0  0.00000000000E+00  0.00000000000E+00  0.12065221066E+04  0.12065221066E+04  0.50400001928E-02 0.  1.
       -1   -1    0    0    0  501  0.00000000000E+00  0.00000000000E+00 -0.13218726719E+04  0.13218726719E+04  0.50400001928E-02 0. -1.
    10030    2    1    2    0    0  0.00000000000E+00  0.00000000000E+00 -0.11535056529E+03  0.25283947785E+04  0.25257621430E+04 0.  0.
        4    1    3    3  502    0 -0.12096873765E+03  0.12372072212E+04 -0.28050973926E+03  0.12743635551E+04  0.12699999809E+01 0. -1.
       -4    1    3    3    0  502  0.12096873765E+03 -0.12372072212E+04  0.16515917397E+03  0.12540312235E+04  0.12699999809E+01 0.  1.
</event>
<event>
 5   0  0.1015327E-05  0.2488944E+04  0.7818609E-02  0.8406935E-01
        1   -1    0    0  501    0  0.00000000000E+00  0.00000000000E+00  0.16160686381E+04  0.16160686381E+04  0.50400001928E-02 0.  1.
       -1   -1    0    0    0  501  0.00000000000E+00  0.00000000000E+00 -0.95831991493E+03  0.95831991494E+03  0.50400001928E-02 0. -1.
    10030    2    1    2    0    0  0.00000000000E+00  0.00000000000E+00  0.65774872319E+03  0.25743885531E+04  0.24889441615E+04 0.  0.
        4    1    3    3  502    0  0.85141835239E+03 -0.37540749738E+03 -0.52585065589E+03  0.10688145419E+04  0.12699999809E+01 0. -1.
       -4    1    3    3    0  502 -0.85141835239E+03  0.37540749738E+03  0.11835993791E+04  0.15055740111E+04  0.12699999809E+01 0.  1.
</event>
<event>
 5   0  0.1008073E-05  0.2877289E+04  0.7818609E-02  0.8279667E-01
        1   -1    0    0  501    0  0.00000000000E+00  0.00000000000E+00  0.12930595453E+04  0.12930595453E+04  0.50400001928E-02 0. -1.
       -1   -1    0    0    0  501  0.00000000000E+00  0.00000000000E+00 -0.16006204306E+04  0.16006204306E+04  0.50400001928E-02 0.  1.
    10030    2    1    2    0    0  0.00000000000E+00  0.00000000000E+00 -0.30756088531E+03  0.28936799760E+04  0.28772886726E+04 0.  0.
        1    1    3    3  502    0  0.15124800833E+03 -0.61439191764E+03  0.11456109968E+04  0.13087314256E+04  0.50400001928E-02 0. -1.
       -1    1    3    3    0  502 -0.15124800833E+03  0.61439191764E+03 -0.14531718821E+04  0.15849485504E+04  0.50400001928E-02 0.  1.
</event>
<event>
 5   0  0.2345143E-05  0.2486863E+04  0.7818609E-02  0.8407681E-01
        2   -1    0    0  501    0  0.00000000000E+00  0.00000000000E+00  0.17335712530E+04  0.17335712530E+04  0.25500000920E-02 0.  1.
       -2   -1    0    0    0  501  0.00000000000E+00  0.00000000000E+00 -0.89187118765E+03  0.89187118765E+03  0.25500000920E-02 0. -1.
    10030    2    1    2    0    0  0.00000000000E+00  0.00000000000E+00  0.84170006536E+03  0.26254424407E+04  0.24868632872E+04 0.  0.
        5    1    3    3  502    0  0.40923985791E+03  0.10828571699E+04  0.90006435214E+03  0.14663542681E+04  0.46999998093E+01 0.  1.
       -5    1    3    3    0  502 -0.40923985791E+03 -0.10828571699E+04 -0.58364286783E+02  0.11590881725E+04  0.46999998093E+01 0. -1.
</event>
<event>
 5   0  0.1039688E-05  0.2512168E+04  0.7818609E-02  0.8398663E-01
       -1   -1    0    0    0  501  0.00000000000E+00  0.00000000000E+00  0.16257026127E+04  0.16257026127E+04  0.50400001928E-02 0. -1.
        1   -1    0    0  501    0  0.00000000000E+00  0.00000000000E+00 -0.97050182560E+03  0.97050182561E+03  0.50400001928E-02 0.  1.
    10030    2    1    2    0    0  0.00000000000E+00  0.00000000000E+00  0.65520078712E+03  0.25962044383E+04  0.25121682695E+04 0.  0.
        3    1    3    3  502    0 -0.95281486507E+03  0.78345715508E+03  0.82853246753E+02  0.12363356954E+04  0.10100000352E+00 0.  1.
       -3    1    3    3    0  502  0.95281486507E+03 -0.78345715508E+03  0.57234754037E+03  0.13598687430E+04  0.10100000352E+00 0. -1.
</event>
<event>
 5   0  0.2345143E-05  0.2554692E+04  0.7818609E-02  0.8383756E-01
        2   -1    0    0  501    0  0.00000000000E+00  0.00000000000E+00  0.12643340545E+04  0.12643340545E+04  0.25500000920E-02 0. -1.
       -2   -1    0    0    0  501  0.00000000000E+00  0.00000000000E+00 -0.12904918038E+04  0.12904918038E+04  0.25500000920E-02 0.  1.
    10030    2    1    2    0    0  0.00000000000E+00  0.00000000000E+00 -0.26157749307E+02  0.25548258583E+04  0.25546919459E+04 0.  0.
        5    1    3    3  502    0 -0.44159094613E+03  0.21759709021E+03 -0.11918007392E+04  0.12894813490E+04  0.46999998093E+01 0.  1.
       -5    1    3    3    0  502  0.44159094613E+03 -0.21759709021E+03  0.11656429899E+04  0.12653445093E+04  0.46999998093E+01 0. -1.
</event>
<event>
 5   0  0.2452457E-05  0.2520348E+04  0.7818609E-02  0.8395772E-01
       -2   -1    0    0    0  501  0.00000000000E+00  0.00000000000E+00  0.79474468193E+03  0.79474468194E+03  0.25500000920E-02 0. -1.
        2   -1    0    0  501    0  0.00000000000E+00  0.00000000000E+00 -0.19981744946E+04  0.19981744946E+04  0.25500000920E-02 0.  1.
    10030    2    1    2    0    0  0.00000000000E+00  0.00000000000E+00 -0.12034298127E+04  0.27929191766E+04  0.25203480340E+04 0.  0.
        1    1    3    3  502    0  0.38541721140E+03 -0.69287619208E+02 -0.19290393482E+04  0.19683851269E+04  0.50400001928E-02 0.  1.
       -1    1    3    3    0  502 -0.38541721140E+03  0.69287619208E+02  0.72560953548E+03  0.82453404965E+03  0.50400001928E-02 0. -1.
</event>
<event>
 5   0  0.2432309E-05  0.2461491E+04  0.7818609E-02  0.8416834E-01
        2   -1    0    0  501    0  0.00000000000E+00  0.00000000000E+00  0.98824419697E+03  0.98824419698E+03  0.25500000920E-02 0.  1.
       -2   -1    0    0    0  501  0.00000000000E+00  0.00000000000E+00 -0.15327530008E+04  0.15327530008E+04  0.25500000920E-02 0. -1.
    10030    2    1    2    0    0  0.00000000000E+00  0.00000000000E+00 -0.54450880378E+03  0.25209971977E+04  0.24614908153E+04 0.  0.
        4    1    3    3  502    0 -0.83630819261E+03 -0.61450142778E+03  0.40533562386E+03  0.11141463004E+04  0.12699999809E+01 0.  1.
       -4    1    3    3    0  502  0.83630819261E+03  0.61450142778E+03 -0.94984442764E+03  0.14068508974E+04  0.12699999809E+01 0. -1.
</event>
<event>
 5   0  0.2345143E-05  0.2515893E+04  0.7818609E-02  0.8397346E-01
       -2   -1    0    0    0  501  0.00000000000E+00  0.00000000000E+00  0.50202881460E+03  0.50202881461E+03  0.25500000920E-02 0.  1.
        2   -1    0    0  501    0  0.00000000000E+00  0.00000000000E+00 -0.31520676467E+04  0.31520676467E+04  0.25500000920E-02 0. -1.
    10030    2    1    2    0    0  0.00000000000E+00  0.00000000000E+00 -0.26500388321E+04  0.36540964613E+04  0.25158925130E+04 0.  0.
        5    1    3    3  502    0  0.73459290258E+03 -0.11805938319E+03  0.14818243420E+03  0.75864673879E+03  0.46999998093E+01 0.  1.
       -5    1    3    3    0  502 -0.73459290258E+03  0.11805938319E+03 -0.27982212663E+04  0.28954497225E+04  0.46999998093E+01 0. -1.
</event>
<event>
 5   0  0.1015327E-05  0.2524931E+04  0.7818609E-02  0.8394157E-01
       -1   -1    0    0    0  501  0.00000000000E+00  0.00000000000E+00  0.91591855038E+03  0.91591855040E+03  0.50400001928E-02 0.  1.
        1   -1    0    0  501    0  0.00000000000E+00  0.00000000000E+00 -0.17401316914E+04  0.17401316914E+04  0.50400001928E-02 0. -1.
    10030    2    1    2    0    0  0.00000000000E+00  0.00000000000E+00 -0.82421314102E+03  0.26560502418E+04  0.25249308080E+04 0.  0.
        4    1    3    3  502    0  0.23144537327E+03 -0.84826296074E+03  0.54086313131E+03  0.10323040013E+04  0.12699999809E+01 0.  1.
       -4    1    3    3    0  502 -0.23144537327E+03  0.84826296074E+03 -0.13650762723E+04  0.16237462405E+04  0.12699999809E+01 0. -1.
</event>
<event>
 5   0  0.2452457E-05  0.2480223E+04  0.7818609E-02  0.8410065E-01
       -2   -1    0    0    0  501  0.00000000000E+00  0.00000000000E+00  0.17948253878E+04  0.17948253878E+04  0.25500000920E-02 0. -1.
        2   -1    0    0  501    0  0.00000000000E+00  0.00000000000E+00 -0.85683915638E+03  0.85683915638E+03  0.25500000920E-02 0.  1.
    10030    2    1    2    0    0  0.00000000000E+00  0.00000000000E+00  0.93798623144E+03  0.26516645442E+04  0.24802231119E+04 0.  0.
        1    1    3    3  502    0 -0.10518515732E+04  0.65627784475E+03  0.43905136784E+03  0.13152408316E+04  0.50400001928E-02 0.  1.
       -1    1    3    3    0  502  0.10518515732E+04 -0.65627784475E+03  0.49893486360E+03  0.13364237126E+04  0.50400001928E-02 0. -1.
</event>
<event>
 5   0  0.1008073E-05  0.2498196E+04  0.7818609E-02  0.8403629E-01
       -1   -1    0    0    0  501  0.00000000000E+00  0.00000000000E+00  0.28379097890E+04  0.28379097890E+04  0.50400001928E-02 0.  1.
        1   -1    0    0  501    0  0.00000000000E+00  0.00000000000E+00 -0.54978675353E+03  0.54978675355E+03  0.50400001928E-02 0. -1.
    10030    2    1    2    0    0  0.00000000000E+00  0.00000000000E+00  0.22881230355E+04  0.33876965426E+04  0.24981955166E+04 0.  0.
        1    1    3    3  502    0  0.38779745948E+03 -0.11389291894E+04  0.15992983758E+04  0.20013250268E+04  0.50400001928E-02 0.  1.
       -1    1    3    3    0  502 -0.38779745948E+03  0.11389291894E+04  0.68882465975E+03  0.13863715158E+04  0.50400001928E-02 0. -1.
</event>
<event>
 5   0  0.1010338E-05  0.2511348E+04  0.7818609E-02  0.8398954E-01
        1   -1    0    0  501    0  0.00000000000E+00  0.00000000000E+00  0.11632912168E+04  0.11632912168E+04  0.50400001928E-02 0. -1.
       -1   -1    0    0    0  501  0.00000000000E+00  0.00000000000E+00 -0.13553928295E+04  0.13553928295E+04  0.50400001928E-02 0.  1.
    10030    2    1    2    0    0  0.00000000000E+00  0.00000000000E+00 -0.19210161266E+03  0.25186840463E+04  0.25113475059E+04 0.  0.
        2    1    3    3  502    0 -0.11300934886E+04  0.49394784067E+03 -0.33258042959E+03  0.12773822859E+04  0.25500000920E-02 0. -1.
       -2    1    3    3    0  502  0.11300934886E+04 -0.49394784067E+03  0.14047881693E+03  0.12413017604E+04  0.25500000920E-02 0.  1.
</event>
<event>
 5   0  0.1010338E-05  0.2533489E+04  0.7818609E-02  0.8391151E-01
        1   -1    0    0  501    0  0.00000000000E+00  0.00000000000E+00  0.11623072158E+04  0.11623072159E+04  0.50400001928E-02 0. -1.
       -1   -1    0    0    0  501  0.00000000000E+00  0.00000000000E+00 -0.13805659346E+04  0.13805659346E+04  0.50400001928E-02 0.  1.
    10030    2    1    2    0    0  0.00000000000E+00  0.00000000000E+00 -0.21825871875E+03  0.25428731505E+04  0.25334890943E+04 0.  0.
        2    1    3    3  502    0 -0.38182801628E+03  0.99401526189E+03  0.57954821053E+03  0.12123263188E+04  0.25500000920E-02 0. -1.
       -2    1    3    3    0  502  0.38182801628E+03 -0.99401526189E+03 -0.79780692928E+03  0.13305468317E+04  0.25500000920E-02 0.  1.
</event>
<event>
 5   0  0.1008073E-05  0.2487176E+04  0.7818609E-02  0.8407569E-01
       -1   -1    0    0    0  501  0.00000000000E+00  0.00000000000E+00  0.14508817168E+04  0.14508817168E+04  0.50400001928E-02 0.  1.
        1   -1    0    0  501    0  0.00000000000E+00  0.00000000000E+00 -0.10659108739E+04  0.10659108740E+04  0.50400001928E-02 0. -1.
    10030    2    1    2    0    0  0.00000000000E+00  0.00000000000E+00  0.38497084289E+03  0.25167925908E+04  0.24871755859E+04 0.  0.
        1    1    3    3  502    0  0.30604030372E+03  0.93168118442E+03 -0.58135627488E+03  0.11400287783E+04  0.50400001928E-02 0. -1.
       -1    1    3    3    0  502 -0.30604030372E+03 -0.93168118442E+03  0.96632711776E+03  0.13767638125E+04  0.50400001928E-02 0.  1.
</event>
<event>
 5   0  0.1015327E-05  0.2466025E+04  0.7818609E-02  0.8415190E-01
        1   -1    0    0  501    0  0.00000000000E+00  0.00000000000E+00  0.11529094092E+04  0.11529094092E+04  0.50400001928E-02 0.  1.
       -1   -1    0    0    0  501  0.00000000000E+00  0.00000000000E+00 -0.13186814947E+04  0.13186814947E+04  0.50400001928E-02 0. -1.
    10030    2    1    2    0    0  0.00000000000E+00  0.00000000000E+00 -0.16577208553E+03  0.24715909040E+04  0.24660253876E+04 0.  0.
        4    1    3    3  502    0 -0.65666845154E+03  0.10433984593E+03 -0.11236024962E+04  0.13055973503E+04  0.12699999809E+01 0. -1.
       -4    1    3    3    0  502  0.65666845154E+03 -0.10433984593E+03  0.95783041068E+03  0.11659935537E+04  0.12699999809E+01 0.  1.
</event>
<event>
 5   0  0.2432309E-05  0.2512700E+04  0.7818609E-02  0.8398475E-01
        2   -1    0    0  501    0  0.00000000000E+00  0.00000000000E+00  0.10556260200E+04  0.10556260200E+04  0.25500000920E-02 0. -1.
       -2   -1    0    0    0  501  0.00000000000E+00  0.00000000000E+00 -0.14952409614E+04  0.14952409614E+04  0.25500000920E-02 0.  1.
    10030    2    1    2    0    0  0.00000000000E+00  0.00000000000E+00 -0.43961494148E+03  0.25508669814E+04  0.25126999543E+04 0.  0.
        4    1    3    3  502    0 -0.29849066868E+03  0.22633870543E+03 -0.14372259114E+04  0.14852426812E+04  0.12699999809E+01 0.  1.
       -4    1    3    3    0  502  0.29849066868E+03 -0.22633870543E+03  0.99761096994E+03  0.10656243002E+04  0.12699999809E+01 0. -1.
</event>
<event>
 5   0  0.2432309E-05  0.2511650E+04  0.7818609E-02  0.8398847E-01
       -2   -1    0    0    0  501  0.00000000000E+00  0.00000000000E+00  0.11344643642E+04  0.11344643642E+04  0.25500000920E-02 0.  1.
        2   -1    0    0  501    0  0.00000000000E+00  0.00000000000E+00 -0.13901686875E+04  0.13901686875E+04  0.25500000920E-02 0. -1.
    10030    2    1    2    0    0  0.00000000000E+00  0.00000000000E+00 -0.25570432327E+03  0.25246330517E+04  0.25116503229E+04 0.  0.
        4    1    3    3  502    0  0.83300126802E+03 -0.93634503776E+03 -0.20865475256E+03  0.12705005159E+04  0.12699999809E+01 0. -1.
       -4    1    3    3    0  502 -0.83300126802E+03  0.93634503776E+03 -0.47049570715E+02  0.12541325358E+04  0.12699999809E+01 0.  1.
</event>
<event>
 5   0  0.1002753E-05  0.2486662E+04  0.7818609E-02  0.8407753E-01
       -1   -1    0    0    0  501  0.00000000000E+00  0.00000000000E+00  0.10488885121E+04  0.10488885121E+04  0.50400001928E-02 0.  1.
        1   -1    0    0  501    0  0.00000000000E+00  0.00000000000E+00 -0.14738191478E+04  0.14738191478E+04  0.50400001928E-02 0. -1.
    10030    2    1    2    0    0  0.00000000000E+00  0.00000000000E+00 -0.42493063577E+03  0.25227076599E+04  0.24866619980E+04 0.  0.
        5    1    3    3  502    0 -0.10175603432E+03  0.12371417415E+04 -0.14090270871E+03  0.12492996607E+04  0.46999998093E+01 0.  1.
       -5    1    3    3    0  502  0.10175603432E+03 -0.12371417415E+04 -0.28402792706E+03  0.12734079992E+04  0.46999998093E+01 0. -1.
</event>
<event>
 5   0  0.2388326E-05  0.2492392E+04  0.7818609E-02  0.8405701E-01
        2   -1    0    0  501    0  0.00000000000E+00  0.00000000000E+00  0.20229287868E+04  0.20229287868E+04  0.25500000920E-02 0. -1.
       -2   -1    0    0    0  501  0.00000000000E+00  0.00000000000E+00 -0.76770087007E+03  0.76770087008E+03  0.25500000920E-02 0.  1.
    10030    2    1    2    0    0  0.00000000000E+00  0.00000000000E+00  0.12552279167E+04  0.27906296569E+04  0.24923917748E+04 0.  0.
        2    1    3    3  502    0 -0.61952695984E+03 -0.64493021102E+03  0.15993695953E+04  0.18324114531E+04  0.25500000920E-02 0. -1.
       -2    1    3    3    0  502  0.61952695984E+03  0.64493021102E+03 -0.34414167861E+03  0.95821820376E+03  0.25500000920E-02 0.  1.
</event>
<event>
 5   0  0.8166500E-06  0.2529140E+04  0.7818609E-02  0.8392677E-01
        3   -1    0    0  501    0  0.00000000000E+00  0.00000000000E+00  0.12992807277E+04  0.12992807317E+04  0.10100000352E+00 0. -1.
       -3   -1    0    0    0  501  0.00000000000E+00  0.00000000000E+00 -0.12307866565E+04  0.12307866606E+04  0.10100000352E+00 0.  1.
    10030    2    1    2    0    0  0.00000000000E+00  0.00000000000E+00  0.68494071260E+02  0.25300673923E+04  0.25291400854E+04 0.  0.
        2    1    3    3  502    0 -0.91649189152E+03 -0.37647786153E+03  0.82031146003E+03  0.12863140592E+04  0.25500000920E-02 0. -1.
       -2    1    3    3    0  502  0.91649189152E+03  0.37647786153E+03 -0.75181738877E+03  0.12437533331E+04  0.25500000920E-02 0.  1.
</event>
<event>
 5   0  0.2452457E-05  0.2511542E+04  0.7818609E-02  0.8398885E-01
        2   -1    0    0  501    0  0.00000000000E+00  0.00000000000E+00  0.19092627026E+04  0.19092627026E+04  0.25500000920E-02 0. -1.
       -2   -1    0    0    0  501  0.00000000000E+00  0.00000000000E+00 -0.82595290224E+03  0.82595290224E+03  0.25500000920E-02 0.  1.
    10030    2    1    2    0    0  0.00000000000E+00  0.00000000000E+00  0.10833098003E+04  0.27352156048E+04  0.25115422117E+04 0.  0.
        1    1    3    3  502    0  0.44597222968E+03 -0.48870070199E+03  0.17040639312E+04  0.18279916541E+04  0.50400001928E-02 0. -1.
       -1    1    3    3    0  502 -0.44597222968E+03  0.48870070199E+03 -0.62075413087E+03  0.90722395073E+03  0.50400001928E-02 0.  1.
</event>
<event>
 5   0  0.2432309E-05  0.2498153E+04  0.7818609E-02  0.8403644E-01
       -2   -1    0    0    0  501  0.00000000000E+00  0.00000000000E+00  0.10177681776E+04  0.10177681776E+04  0.25500000920E-02 0.  1.
        2   -1    0    0  501    0  0.00000000000E+00  0.00000000000E+00 -0.15329543066E+04  0.15329543066E+04  0.25500000920E-02 0. -1.
    10030    2    1    2    0    0  0.00000000000E+00  0.00000000000E+00 -0.51518612899E+03  0.25507224842E+04  0.24981530065E+04 0.  0.
        4    1    3    3  502    0 -0.11923936111E+04  0.19672267592E+03  0.64785362869E+02  0.12102483593E+04  0.12699999809E+01 0.  1.
       -4    1    3    3    0  502  0.11923936111E+04 -0.19672267592E+03 -0.57997149186E+03  0.13404741248E+04  0.12699999809E+01 0. -1.
</event>
<event>
 5   0  0.1002753E-05  0.2489875E+04  0.7818609E-02  0.8406602E-01
        1   -1    0    0  501    0  0.00000000000E+00  0.00000000000E+00  0.12952964566E+04  0.12952964566E+04  0.50400001928E-02 0. -1.
       -1   -1    0    0    0  501  0.00000000000E+00  0.00000000000E+00 -0.11965362039E+04  0.11965362039E+04  0.50400001928E-02 0.  1.
    10030    2    1    2    0    0  0.00000000000E+00  0.00000000000E+00  0.98760252749E+02  0.24918326605E+04  0.24898747800E+04 0.  0.
        5    1    3    3  502    0  0.34938410170E+03 -0.37704338102E+03 -0.10853615636E+04  0.12009424530E+04  0.46999998093E+01 0.  1.
       -5    1    3    3    0  502 -0.34938410170E+03  0.37704338102E+03  0.11841218164E+04  0.12908902074E+04  0.46999998093E+01 0. -1.
</event>
<event>
 5   0  0.2432309E-05  0.2492631E+04  0.7818609E-02  0.8405615E-01
       -2   -1    0    0    0  501  0.00000000000E+00  0.00000000000E+00  0.65835652815E+03  0.65835652816E+03  0.25500000920E-02 0. -1.
        2   -1    0    0  501    0  0.00000000000E+00  0.00000000000E+00 -0.23593637408E+04  0.23593637408E+04  0.25500000920E-02 0.  1.
    10030    2    1    2    0    0  0.00000000000E+00  0.00000000000E+00 -0.17010072126E+04  0.30177202689E+04  0.24926311569E+04 0.  0.
        4    1    3    3  502    0  0.44022758393E+02 -0.11444135831E+04 -0.25533265527E+03  0.11733783833E+04  0.12699999809E+01 0. -1.
       -4    1    3    3    0  502 -0.44022758393E+02  0.11444135831E+04 -0.14456745574E+04  0.18443418857E+04  0.12699999809E+01 0.  1.
</event>
<event>
 5   0  0.2345143E-05  0.2540240E+04  0.7818609E-02  0.8388788E-01
        2   -1    0    0  501    0  0.00000000000E+00  0.00000000000E+00  0.96623772527E+03  0.96623772528E+03  0.25500000920E-02 0.  1.
       -2   -1    0    0    0  501  0.00000000000E+00  0.00000000000E+00 -0.16695740656E+04  0.16695740656E+04  0.25500000920E-02 0. -1.
    10030    2    1    2    0    0  0.00000000000E+00  0.00000000000E+00 -0.70333634031E+03  0.26358117909E+04  0.25402404983E+04 0.  0.
        5    1    3    3  502    0 -0.24241116320E+03 -0.18961222645E+03 -0.16302905318E+04  0.16590917022E+04  0.46999998093E+01 0. -1.
       -5    1    3    3    0  502  0.24241116320E+03  0.18961222645E+03  0.92695419146E+03  0.97672008863E+03  0.46999998093E+01 0.  1.
</event>
<event>
 5   0  0.2452457E-05  0.2491817E+04  0.7818609E-02  0.8405907E-01
        2   -1    0    0  501    0  0.00000000000E+00  0.00000000000E+00  0.12553076508E+04  0.12553076508E+04  0.25500000920E-02 0.  1.
       -2   -1    0    0    0  501  0.00000000000E+00  0.00000000000E+00 -0.12365798819E+04  0.12365798819E+04  0.25500000920E-02 0. -1.
    10030    2    1    2    0    0  0.00000000000E+00  0.00000000000E+00  0.18727768895E+02  0.24918875327E+04  0.24918171575E+04 0.  0.
        1    1    3    3  502    0 -0.89351016689E+03 -0.78156411844E+03  0.38764073980E+03  0.12487867043E+04  0.50400001928E-02 0.  1.
       -1    1    3    3    0  502  0.89351016689E+03  0.78156411844E+03 -0.36891297091E+03  0.12431008285E+04  0.50400001928E-02 0. -1.
</event>
<event>
 5   0  0.1015327E-05  0.2096381E+04  0.7818609E-02  0.8562839E-01
        1   -1    0    0  501    0  0.00000000000E+00  0.00000000000E+00  0.14774906746E+04  0.14774906747E+04  0.50400001928E-02 0. -1.
       -1   -1    0    0    0  501  0.00000000000E+00  0.00000000000E+00 -0.74362812265E+03  0.74362812266E+03  0.50400001928E-02 0.  1.
    10030    2    1    2    0    0  0.00000000000E+00  0.00000000000E+00  0.73386255200E+03  0.22211187973E+04  0.20963812789E+04 0.  0.
        4    1    3    3  502    0  0.95213149461E+03  0.35947974787E+03  0.63269918405E+03  0.11983697020E+04  0.12699999809E+01 0. -1.
       -4    1    3    3    0  502 -0.95213149461E+03 -0.35947974787E+03  0.10116336795E+03  0.10227490954E+04  0.12699999809E+01 0.  1.
</event>
<event>
 5   0  0.2452457E-05  0.2492612E+04  0.7818609E-02  0.8405622E-01
        2   -1    0    0  501    0  0.00000000000E+00  0.00000000000E+00  0.12946439375E+04  0.12946439375E+04  0.25500000920E-02 0.  1.
       -2   -1    0    0    0  501  0.00000000000E+00  0.00000000000E+00 -0.11997728411E+04  0.11997728411E+04  0.25500000920E-02 0. -1.
    10030    2    1    2    0    0  0.00000000000E+00  0.00000000000E+00  0.94871096428E+02  0.24944167787E+04  0.24926119916E+04 0.  0.
        1    1    3    3  502    0 -0.11120134812E+04 -0.56269745843E+03  0.38698647311E+02  0.12468760955E+04  0.50400001928E-02 0. -1.
       -1    1    3    3    0  502  0.11120134812E+04  0.56269745843E+03  0.56172449117E+02  0.12475406832E+04  0.50400001928E-02 0.  1.
</event>
<event>
 5   0  0.1010338E-05  0.2438347E+04  0.7818609E-02  0.8425285E-01
       -1   -1    0    0    0  501  0.00000000000E+00  0.00000000000E+00  0.71446179280E+03  0.71446179282E+03  0.50400001928E-02 0.  1.
        1   -1    0    0  501    0  0.00000000000E+00  0.00000000000E+00 -0.20804246343E+04  0.20804246343E+04  0.50400001928E-02 0. -1.
    10030    2    1    2    0    0  0.00000000000E+00  0.00000000000E+00 -0.13659628415E+04  0.27948864271E+04  0.24383469105E+04 0.  0.
        2    1    3    3  502    0  0.15359099993E+03 -0.10261548913E+04 -0.14167423319E+04  0.17560589088E+04  0.25500000920E-02 0. -1.
       -2    1    3    3    0  502 -0.15359099993E+03  0.10261548913E+04  0.50779490394E+02  0.10388275183E+04  0.25500000920E-02 0.  1.
</event>
<event>
 5   0  0.2441340E-05  0.2514631E+04  0.7818609E-02  0.8397791E-01
       -2   -1    0    0    0  501  0.00000000000E+00  0.00000000000E+00  0.86686966284E+03  0.86686966284E+03  0.25500000920E-02 0. -1.
        2   -1    0    0  501    0  0.00000000000E+00  0.00000000000E+00 -0.18236222460E+04  0.18236222460E+04  0.25500000920E-02 0.  1.
    10030    2    1    2    0    0  0.00000000000E+00  0.00000000000E+00 -0.95675258318E+03  0.26904919089E+04  0.25146314255E+04 0.  0.
        3    1    3    3  502    0  0.16411456585E+03  0.77373939635E+03  0.56733745401E+03  0.97338483711E+03  0.10100000352E+00 0. -1.
       -3    1    3    3    0  502 -0.16411456585E+03 -0.77373939635E+03 -0.15240900372E+04  0.17171070717E+04  0.10100000352E+00 0.  1.
</event>
<event>
 5   0  0.1015327E-05  0.2461295E+04  0.7818609E-02  0.8416905E-01
        1   -1    0    0  501    0  0.00000000000E+00  0.00000000000E+00  0.19430892482E+04  0.19430892482E+04  0.50400001928E-02 0. -1.
       -1   -1    0    0    0  501  0.00000000000E+00  0.00000000000E+00 -0.77942572486E+03  0.77942572488E+03  0.50400001928E-02 0.  1.
    10030    2    1    2    0    0  0.00000000000E+00  0.00000000000E+00  0.11636635233E+04  0.27225149731E+04  0.24612953872E+04 0.  0.
        4    1    3    3  502    0  0.40161642490E+03  0.72342580173E+01 -0.70487195245E+03  0.81129166734E+03  0.12699999809E+01 0.  1.
       -4    1    3    3    0  502 -0.40161642490E+03 -0.72342580173E+01  0.18685354758E+04  0.19112233057E+04  0.12699999809E+01 0. -1.
</event>
<event>
 5   0  0.1008073E-05  0.2515642E+04  0.7818609E-02  0.8397434E-01
        1   -1    0    0  501    0  0.00000000000E+00  0.00000000000E+00  0.22778318713E+04  0.22778318713E+04  0.50400001928E-02 0. -1.
       -1   -1    0    0    0  501  0.00000000000E+00  0.00000000000E+00 -0.69456994626E+03  0.69456994628E+03  0.50400001928E-02 0.  1.
    10030    2    1    2    0    0  0.00000000000E+00  0.00000000000E+00  0.15832619251E+04  0.29724018176E+04  0.25156419145E+04 0.  0.
        1    1    3    3  502    0 -0.67243349482E+02  0.47693391001E+02 -0.69137435420E+03  0.69627209140E+03  0.50400001928E-02 0.  1.
       -1    1    3    3    0  502  0.67243349482E+02 -0.47693391001E+02  0.22746362793E+04  0.22761297262E+04  0.50400001928E-02 0. -1.
</event>
<event>
 5   0  0.2452457E-05  0.2473478E+04  0.7818609E-02  0.8412495E-01
       -2   -1    0    0    0  501  0.00000000000E+00  0.00000000000E+00  0.12905385911E+04  0.12905385912E+04  0.25500000920E-02 0. -1.
        2   -1    0    0  501    0  0.00000000000E+00  0.00000000000E+00 -0.11851821881E+04  0.11851821881E+04  0.25500000920E-02 0.  1.
    10030    2    1    2    0    0  0.00000000000E+00  0.00000000000E+00  0.10535640300E+03  0.24757207793E+04  0.24734779978E+04 0.  0.
        1    1    3    3  502    0 -0.81306180174E+03 -0.45117603715E+03  0.86882791165E+03  0.12725923346E+04  0.50400001928E-02 0. -1.
       -1    1    3    3    0  502  0.81306180174E+03  0.45117603715E+03 -0.76347150865E+03  0.12031284447E+04  0.50400001928E-02 0.  1.
</event>
<event>
 5   0  0.2432309E-05  0.2513144E+04  0.7818609E-02  0.8398318E-01
        2   -1    0    0  501    0  0.00000000000E+00  0.00000000000E+00  0.16768743822E+04  0.16768743822E+04  0.25500000920E-02 0.  1.
       -2   -1    0    0    0  501  0.00000000000E+00  0.00000000000E+00 -0.94161717462E+03  0.94161717463E+03  0.25500000920E-02 0. -1.
    10030    2    1    2    0    0  0.00000000000E+00  0.00000000000E+00  0.73525720759E+03  0.26184915568E+04  0.25131444192E+04 0.  0.
        4    1    3    3  502    0 -0.32155202838E+03  0.22720723190E+03  0.16109448270E+04  0.16583617464E+04  0.12699999809E+01 0.  1.
       -4    1    3    3    0  502  0.32155202838E+03 -0.22720723190E+03 -0.87568761945E+03  0.96012981046E+03  0.12699999809E+01 0. -1.
</event>
<event>
 5   0  0.8166500E-06  0.2491905E+04  0.7818609E-02  0.8405875E-01
        3   -1    0    0  501    0  0.00000000000E+00  0.00000000000E+00  0.26191855353E+04  0.26191855372E+04  0.10100000352E+00 0.  1.
       -3   -1    0    0    0  501  0.00000000000E+00  0.00000000000E+00 -0.59270259439E+03  0.59270260300E+03  0.10100000352E+00 0. -1.
    10030    2    1    2    0    0  0.00000000000E+00  0.00000000000E+00  0.20264829409E+04  0.32118881402E+04  0.24919053585E+04 0.  0.
        4    1    3    3  502    0  0.38511606612E+03 -0.12273557045E+03 -0.50584611402E+03  0.64750313406E+03  0.12699999809E+01 0. -1.
       -4    1    3    3    0  502 -0.38511606612E+03  0.12273557045E+03  0.25323290549E+04  0.25643850061E+04  0.12699999809E+01 0.  1.
</event>
<event>
 5   0  0.2452457E-05  0.2503180E+04  0.7818609E-02  0.8401853E-01
       -2   -1    0    0    0  501  0.00000000000E+00  0.00000000000E+00  0.83842130228E+03  0.83842130229E+03  0.25500000920E-02 0. -1.
        2   -1    0    0  501    0  0.00000000000E+00  0.00000000000E+00 -0.18683660777E+04  0.18683660777E+04  0.25500000920E-02 0.  1.
    10030    2    1    2    0    0  0.00000000000E+00  0.00000000000E+00 -0.10299447754E+04  0.27067873800E+04  0.25031803131E+04 0.  0.
        1    1    3    3  502    0 -0.85109720434E+03  0.54823410799E+02 -0.15055086659E+04  0.17302972001E+04  0.50400001928E-02 0.  1.
       -1    1    3    3    0  502  0.85109720434E+03 -0.54823410799E+02  0.47556389042E+03  0.97649017993E+03  0.50400001928E-02 0. -1.
</event>
<event>
 5   0  0.2441340E-05  0.2465209E+04  0.7818609E-02  0.8415486E-01
        2   -1    0    0  501    0  0.00000000000E+00  0.00000000000E+00  0.18838864812E+04  0.18838864812E+04  0.25500000920E-02 0.  1.
       -2   -1    0    0    0  501  0.00000000000E+00  0.00000000000E+00 -0.80647856006E+03  0.80647856006E+03  0.25500000920E-02 0. -1.
    10030    2    1    2    0    0  0.00000000000E+00  0.00000000000E+00  0.10774079212E+04  0.26903650413E+04  0.24652091649E+04 0.  0.
        3    1    3    3  502    0  0.69668992131E+03  0.72351456140E+02  0.16455885171E+04  0.17884555229E+04  0.10100000352E+00 0.  1.
       -3    1    3    3    0  502 -0.69668992131E+03 -0.72351456140E+02 -0.56818059588E+03  0.90190951841E+03  0.10100000352E+00 0. -1.
</event>
<event>
 5   0  0.1008073E-05  0.2531910E+04  0.7818609E-02  0.8391705E-01
        1   -1    0    0  501    0  0.00000000000E+00  0.00000000000E+00  0.26127344204E+04  0.26127344205E+04  0.50400001928E-02 0. -1.
       -1   -1    0    0    0  501  0.00000000000E+00  0.00000000000E+00 -0.61339653703E+03  0.61339653705E+03  0.50400001928E-02 0.  1.
    10030    2    1    2    0    0  0.00000000000E+00  0.00000000000E+00  0.19993378834E+04  0.32261309575E+04  0.25319101451E+04 0.  0.
        1    1    3    3  502    0 -0.40206645995E+03  0.11964066960E+04  0.87485161804E+03  0.15357121391E+04  0.50400001928E-02 0.  1.
       -1    1    3    3    0  502  0.40206645995E+03 -0.11964066960E+04  0.11244862654E+04  0.16904188184E+04  0.50400001928E-02 0. -1.
</event>
<event>
 5   0  0.1008073E-05  0.2543395E+04  0.7818609E-02  0.8387687E-01
       -1   -1    0    0    0  501  0.00000000000E+00  0.00000000000E+00  0.60178863762E+03  0.60178863764E+03  0.50400001928E-02 0. -1.
        1   -1    0    0  501    0  0.00000000000E+00  0.00000000000E+00 -0.26873464156E+04  0.26873464156E+04  0.50400001928E-02 0.  1.
    10030    2    1    2    0    0  0.00000000000E+00  0.00000000000E+00 -0.20855577780E+04  0.32891350532E+04  0.25433950053E+04 0.  0.
        1    1    3    3  502    0  0.11483539475E+03  0.69603154984E+03 -0.24111157430E+04  0.25121954964E+04  0.50400001928E-02 0.  1.
       -1    1    3    3    0  502 -0.11483539475E+03 -0.69603154984E+03  0.32555796502E+03  0.77693955677E+03  0.50400001928E-02 0. -1.
</event>
<event>
 5   0  0.1039688E-05  0.2450427E+04  0.7818609E-02  0.8420862E-01
       -1   -1    0    0    0  501  0.00000000000E+00  0.00000000000E+00  0.19417605153E+04  0.19417605153E+04  0.50400001928E-02 0.  1.
        1   -1    0    0  501    0  0.00000000000E+00  0.00000000000E+00 -0.77308584820E+03  0.77308584821E+03  0.50400001928E-02 0. -1.
    10030    2    1    2    0    0  0.00000000000E+00  0.00000000000E+00  0.11686746671E+04  0.27148463635E+04  0.24504265547E+04 0.  0.
        3    1    3    3  502    0 -0.33487188169E+03 -0.57812816661E+03  0.17221839706E+04  0.18472382069E+04  0.10100000352E+00 0.  1.
       -3    1    3    3    0  502  0.33487188169E+03  0.57812816661E+03 -0.55350930351E+03  0.86760815662E+03  0.10100000352E+00 0. -1.
</event>
<event>
 5   0  0.1002753E-05  0.2397747E+04  0.7818609E-02  0.8440348E-01
       -1   -1    0    0    0  501  0.00000000000E+00  0.00000000000E+00  0.10563625494E+04  0.10563625494E+04  0.50400001928E-02 0. -1.
        1   -1    0    0  501    0  0.00000000000E+00  0.00000000000E+00 -0.13606102356E+04  0.13606102356E+04  0.50400001928E-02 0.  1.
    10030    2    1    2    0    0  0.00000000000E+00  0.00000000000E+00 -0.30424768616E+03  0.24169727850E+04  0.23977470236E+04 0.  0.
        5    1    3    3  502    0  0.58501377048E+03 -0.97498805419E+03 -0.53521427023E+03  0.12567096811E+04  0.46999998093E+01 0.  1.
       -5    1    3    3    0  502 -0.58501377048E+03  0.97498805419E+03  0.23096658407E+03  0.11602631040E+04  0.46999998093E+01 0. -1.
</event>
<event>
 5   0  0.1002753E-05  0.2240658E+04  0.7818609E-02  0.8501694E-01
       -1   -1    0    0    0  501  0.00000000000E+00  0.00000000000E+00  0.14538660034E+04  0.14538660034E+04  0.50400001928E-02 0. -1.
        1   -1    0    0  501    0  0.00000000000E+00  0.00000000000E+00 -0.86330969109E+03  0.86330969110E+03  0.50400001928E-02 0.  1.
    10030    2    1    2    0    0  0.00000000000E+00  0.00000000000E+00  0.59055631235E+03  0.23171756945E+04  0.22406575913E+04 0.  0.
        5    1    3    3  502    0 -0.10744498994E+04  0.12156896026E+03 -0.78052495615E+01  0.10813438908E+04  0.46999998093E+01 0.  1.
       -5    1    3    3    0  502  0.10744498994E+04 -0.12156896026E+03  0.59836156191E+03  0.12358318037E+04  0.46999998093E+01 0. -1.
</event>
<event>
 5   0  0.2432309E-05  0.2685284E+04  0.7818609E-02  0.8339796E-01
       -2   -1    0    0    0  501  0.00000000000E+00  0.00000000000E+00  0.10348216021E+04  0.10348216021E+04  0.25500000920E-02 0. -1.
        2   -1    0    0  501    0  0.00000000000E+00  0.00000000000E+00 -0.17420277102E+04  0.17420277102E+04  0.25500000920E-02 0.  1.
    10030    2    1    2    0    0  0.00000000000E+00  0.00000000000E+00 -0.70720610812E+03  0.27768493123E+04  0.26852842724E+04 0.  0.
        4    1    3    3  502    0 -0.64251242909E+03  0.71726026663E+03 -0.13211359902E+04  0.16348352911E+04  0.12699999809E+01 0.  1.
       -4    1    3    3    0  502  0.64251242909E+03 -0.71726026663E+03  0.61392988205E+03  0.11420140212E+04  0.12699999809E+01 0. -1.
</event>
<event>
 5   0  0.2452457E-05  0.2456054E+04  0.7818609E-02  0.8418811E-01
       -2   -1    0    0    0  501  0.00000000000E+00  0.00000000000E+00  0.52750795193E+03  0.52750795193E+03  0.25500000920E-02 0.  1.
        2   -1    0    0  501    0  0.00000000000E+00  0.00000000000E+00 -0.28588201963E+04  0.28588201963E+04  0.25500000920E-02 0. -1.
    10030    2    1    2    0    0  0.00000000000E+00  0.00000000000E+00 -0.23313122443E+04  0.33863281482E+04  0.24560540602E+04 0.  0.
        1    1    3    3  502    0  0.46298114557E+03  0.47495431603E+03 -0.25906092595E+04  0.26741708021E+04  0.50400001928E-02 0. -1.
       -1    1    3    3    0  502 -0.46298114557E+03 -0.47495431603E+03  0.25929701517E+03  0.71215734608E+03  0.50400001928E-02 0.  1.
</event>
<event>
 5   0  0.1010338E-05  0.2707228E+04  0.7818609E-02  0.8332663E-01
        1   -1    0    0  501    0  0.00000000000E+00  0.00000000000E+00  0.13247547332E+04  0.13247547332E+04  0.50400001928E-02 0. -1.
       -1   -1    0    0    0  501  0.00000000000E+00  0.00000000000E+00 -0.13831022353E+04  0.13831022353E+04  0.50400001928E-02 0.  1.
    10030    2    1    2    0    0  0.00000000000E+00  0.00000000000E+00 -0.58347502136E+02  0.27078569685E+04  0.27072282746E+04 0.  0.
        2    1    3    3  502    0  0.37517808567E+02  0.45730589164E+03 -0.13029430708E+04  0.13813750071E+04  0.25500000920E-02 0.  1.
       -2    1    3    3    0  502 -0.37517808567E+02 -0.45730589164E+03  0.12445955687E+04  0.13264819614E+04  0.25500000920E-02 0. -1.
</event>
<event>
 5   0  0.2345143E-05  0.2483884E+04  0.7818609E-02  0.8408750E-01
       -2   -1    0    0    0  501  0.00000000000E+00  0.00000000000E+00  0.12242492695E+04  0.12242492695E+04  0.25500000920E-02 0.  1.
        2   -1    0    0  501    0  0.00000000000E+00  0.00000000000E+00 -0.12598904529E+04  0.12598904529E+04  0.25500000920E-02 0. -1.
    10030    2    1    2    0    0  0.00000000000E+00  0.00000000000E+00 -0.35641183324E+02  0.24841397224E+04  0.24838840284E+04 0.  0.
        5    1    3    3  502    0 -0.27393516028E+02 -0.10970407714E+04  0.56374508857E+03  0.12337258503E+04  0.46999998093E+01 0.  1.
       -5    1    3    3    0  502  0.27393516028E+02  0.10970407714E+04 -0.59938627189E+03  0.12504138722E+04  0.46999998093E+01 0. -1.
</event>
<event>
 5   0  0.1010338E-05  0.2484653E+04  0.7818609E-02  0.8408473E-01
        1   -1    0    0  501    0  0.00000000000E+00  0.00000000000E+00  0.30268488676E+04  0.30268488676E+04  0.50400001928E-02 0.  1.
       -1   -1    0    0    0  501  0.00000000000E+00  0.00000000000E+00 -0.50989510567E+03  0.50989510569E+03  0.50400001928E-02 0. -1.
    10030    2    1    2    0    0  0.00000000000E+00  0.00000000000E+00  0.25169537619E+04  0.35367439732E+04  0.24846532339E+04 0.  0.
        2    1    3    3  502    0  0.98127468889E+03 -0.55274989467E+03  0.51209834788E+03  0.12372053908E+04  0.25500000920E-02 0.  1.
       -2    1    3    3    0  502 -0.98127468889E+03  0.55274989467E+03  0.20048554140E+04  0.22995385824E+04  0.25500000920E-02 0. -1.
</event>
<event>
 5   0  0.2388326E-05  0.2502767E+04  0.7818609E-02  0.8402001E-01
       -2   -1    0    0    0  501  0.00000000000E+00  0.00000000000E+00  0.10309738572E+04  0.10309738572E+04  0.25500000920E-02 0.  1.
        2   -1    0    0  501    0  0.00000000000E+00  0.00000000000E+00 -0.15189134839E+04  0.15189134839E+04  0.25500000920E-02 0. -1.
    10030    2    1    2    0    0  0.00000000000E+00  0.00000000000E+00 -0.48793962668E+03  0.25498873411E+04  0.25027665438E+04 0.  0.
        2    1    3    3  502    0  0.29495880520E+03 -0.24210764672E+03  0.97024999375E+03  0.10425938134E+04  0.25500000920E-02 0.  1.
       -2    1    3    3    0  502 -0.29495880520E+03  0.24210764672E+03 -0.14581896204E+04  0.15072935277E+04  0.25500000920E-02 0. -1.
</event>
<event>
 5   0  0.2441340E-05  0.2458205E+04  0.7818609E-02  0.8418028E-01
        2   -1    0    0  501    0  0.00000000000E+00  0.00000000000E+00  0.12816522344E+04  0.12816522344E+04  0.25500000920E-02 0. -1.
       -2   -1    0    0    0  501  0.00000000000E+00  0.00000000000E+00 -0.11787073344E+04  0.11787073344E+04  0.25500000920E-02 0.  1.
    10030    2    1    2    0    0  0.00000000000E+00  0.00000000000E+00  0.10294489996E+03  0.24603595688E+04  0.24582049458E+04 0.  0.
        3    1    3    3  502    0 -0.35169282072E+03 -0.49811823629E+03 -0.10166476764E+04  0.11854881381E+04  0.10100000352E+00 0.  1.
       -3    1    3    3    0  502  0.35169282072E+03  0.49811823629E+03  0.11195925764E+04  0.12748714307E+04  0.10100000352E+00 0. -1.
</event>
<event>
 5   0  0.2452457E-05  0.2512283E+04  0.7818609E-02  0.8398623E-01
       -2   -1    0    0    0  501  0.00000000000E+00  0.00000000000E+00  0.76164770736E+03  0.76164770736E+03  0.25500000920E-02 0.  1.
        2   -1    0    0  501    0  0.00000000000E+00  0.00000000000E+00 -0.20716817690E+04  0.20716817690E+04  0.25500000920E-02 0. -1.
    10030    2    1    2    0    0  0.00000000000E+00  0.00000000000E+00 -0.13100340616E+04  0.28333294763E+04  0.25122831606E+04 0.  0.
        1    1    3    3  502    0 -0.10118120726E+04  0.73842081899E+03 -0.54884469825E+03  0.13675743047E+04  0.50400001928E-02 0.  1.
       -1    1    3    3    0  502  0.10118120726E+04 -0.73842081899E+03 -0.76118936335E+03  0.14657551716E+04  0.50400001928E-02 0. -1.
</event>
<event>
 5   0  0.2432309E-05  0.2494410E+04  0.7818609E-02  0.8404980E-01
        2   -1    0    0  501    0  0.00000000000E+00  0.00000000000E+00  0.18324554575E+04  0.18324554575E+04  0.25500000920E-02 0.  1.
       -2   -1    0    0    0  501  0.00000000000E+00  0.00000000000E+00 -0.84887178283E+03  0.84887178284E+03  0.25500000920E-02 0. -1.
    10030    2    1    2    0    0  0.00000000000E+00  0.00000000000E+00  0.98358367462E+03  0.26813272403E+04  0.24944095343E+04 0.  0.
        4    1    3    3  502    0  0.10378450363E+04  0.68380783079E+03  0.60351602441E+03  0.13816470872E+04  0.12699999809E+01 0.  1.
       -4    1    3    3    0  502 -0.10378450363E+04 -0.68380783079E+03  0.38006765021E+03  0.12996801531E+04  0.12699999809E+01 0. -1.
</event>
<event>
 5   0  0.1002753E-05  0.2500787E+04  0.7818609E-02  0.8402705E-01
        1   -1    0    0  501    0  0.00000000000E+00  0.00000000000E+00  0.20049784081E+04  0.20049784081E+04  0.50400001928E-02 0. -1.
       -1   -1    0    0    0  501  0.00000000000E+00  0.00000000000E+00 -0.77980104196E+03  0.77980104197E+03  0.50400001928E-02 0.  1.
    10030    2    1    2    0    0  0.00000000000E+00  0.00000000000E+00  0.12251773662E+04  0.27847794501E+04  0.25007872775E+04 0.  0.
        5    1    3    3  502    0  0.94007255027E+03 -0.69899575428E+03  0.10994208618E+04  0.16065739279E+04  0.46999998093E+01 0. -1.
       -5    1    3    3    0  502 -0.94007255027E+03  0.69899575428E+03  0.12575650435E+03  0.11782055223E+04  0.46999998093E+01 0.  1.
</event>
<event>
 5   0  0.1015327E-05  0.2497511E+04  0.7818609E-02  0.8403873E-01
       -1   -1    0    0    0  501  0.00000000000E+00  0.00000000000E+00  0.82383610453E+03  0.82383610454E+03  0.50400001928E-02 0.  1.
        1   -1    0    0  501    0  0.00000000000E+00  0.00000000000E+00 -0.18928404977E+04  0.18928404977E+04  0.50400001928E-02 0. -1.
    10030    2    1    2    0    0  0.00000000000E+00  0.00000000000E+00 -0.10690043932E+04  0.27166766022E+04  0.24975110347E+04 0.  0.
        4    1    3    3  502    0 -0.73852355161E+02 -0.92433898074E+03  0.37527348095E+03  0.10003442008E+04  0.12699999809E+01 0.  1.
       -4    1    3    3    0  502  0.73852355161E+02  0.92433898074E+03 -0.14442778741E+04  0.17163324014E+04  0.12699999809E+01 0. -1.
</event>
<event>
 5   0  0.8166500E-06  0.2507284E+04  0.7818609E-02  0.8400395E-01
       -3   -1    0    0    0  501  0.00000000000E+00  0.00000000000E+00  0.15617569302E+04  0.15617569335E+04  0.10100000352E+00 0.  1.
        3   -1    0    0  501    0  0.00000000000E+00  0.00000000000E+00 -0.10063139880E+04  0.10063139931E+04  0.10100000352E+00 0. -1.
    10030    2    1    2    0    0  0.00000000000E+00  0.00000000000E+00  0.55544294217E+03  0.25680709265E+04  0.25072836740E+04 0.  0.
        1    1    3    3  502    0 -0.76810989389E+03 -0.54054589247E+03 -0.57273142231E+03  0.11000927020E+04  0.50400001928E-02 0. -1.
       -1    1    3    3    0  502  0.76810989389E+03  0.54054589247E+03  0.11281743645E+04  0.14679782245E+04  0.50400001928E-02 0.  1.
</event>
<event>
 5   0  0.2441340E-05  0.2015158E+04  0.7818609E-02  0.8599566E-01
       -2   -1    0    0    0  501  0.00000000000E+00  0.00000000000E+00  0.57266805488E+03  0.57266805488E+03  0.25500000920E-02 0.  1.
        2   -1    0    0  501    0  0.00000000000E+00  0.00000000000E+00 -0.17727825603E+04  0.17727825603E+04  0.25500000920E-02 0. -1.
    10030    2    1    2    0    0  0.00000000000E+00  0.00000000000E+00 -0.12001145054E+04  0.23454506151E+04  0.20151584955E+04 0.  0.
        3    1    3    3  502    0  0.49025022201E+03 -0.39090038176E+03 -0.15180428214E+04  0.16424379460E+04  0.10100000352E+00 0. -1.
       -3    1    3    3    0  502 -0.49025022201E+03  0.39090038176E+03  0.31792831603E+03  0.70301266914E+03  0.10100000352E+00 0.  1.
</event>
<event>
 5   0  0.2388326E-05  0.2380247E+04  0.7818609E-02  0.8446936E-01
        2   -1    0    0  501    0  0.00000000000E+00  0.00000000000E+00  0.20053801327E+04  0.20053801327E+04  0.25500000920E-02 0. -1.
       -2   -1    0    0    0  501  0.00000000000E+00  0.00000000000E+00 -0.70629704406E+03  0.70629704407E+03  0.25500000920E-02 0.  1.
    10030    2    1    2    0    0  0.00000000000E+00  0.00000000000E+00  0.12990830887E+04  0.27116771768E+04  0.23802470964E+04 0.  0.
        2    1    3    3  502    0 -0.78161956223E+03 -0.52603158515E+03 -0.17886490112E+03  0.95897394203E+03  0.25500000920E-02 0. -1.
       -2    1    3    3    0  502  0.78161956223E+03  0.52603158515E+03  0.14779479898E+04  0.17527032348E+04  0.25500000920E-02 0.  1.
</event>
<event>
 5   0  0.2345143E-05  0.2467528E+04  0.7818609E-02  0.8414646E-01
        2   -1    0    0  501    0  0.00000000000E+00  0.00000000000E+00  0.11607457375E+04  0.11607457375E+04  0.25500000920E-02 0.  1.
       -2   -1    0    0    0  501  0.00000000000E+00  0.00000000000E+00 -0.13113755039E+04  0.13113755039E+04  0.25500000920E-02 0. -1.
    10030    2    1    2    0    0  0.00000000000E+00  0.00000000000E+00 -0.15062976645E+03  0.24721212414E+04  0.24675279341E+04 0.  0.
        5    1    3    3  502    0 -0.35809935668E+03 -0.10242962585E+04  0.51291814913E+03  0.12002187684E+04  0.46999998093E+01 0.  1.
       -5    1    3    3    0  502  0.35809935668E+03  0.10242962585E+04 -0.66354791558E+03  0.12719024729E+04  0.46999998093E+01 0. -1.
</event>
<event>
 5   0  0.1015327E-05  0.2513668E+04  0.7818609E-02  0.8398132E-01
        1   -1    0    0  501    0  0.00000000000E+00  0.00000000000E+00  0.17051691027E+04  0.17051691027E+04  0.50400001928E-02 0.  1.
       -1   -1    0    0    0  501  0.00000000000E+00  0.00000000000E+00 -0.92637856753E+03  0.92637856754E+03  0.50400001928E-02 0. -1.
    10030    2    1    2    0    0  0.00000000000E+00  0.00000000000E+00  0.77879053521E+03  0.26315476703E+04  0.25136683240E+04 0.  0.
        4    1    3    3  502    0  0.82426284243E+03  0.94505142925E+03  0.30118813382E+03  0.12896694701E+04  0.12699999809E+01 0. -1.
       -4    1    3    3    0  502 -0.82426284243E+03 -0.94505142925E+03  0.47760240139E+03  0.13418782002E+04  0.12699999809E+01 0.  1.
</event>
<event>
 5   0  0.1008073E-05  0.2499117E+04  0.7818609E-02  0.8403300E-01
       -1   -1    0    0    0  501  0.00000000000E+00  0.00000000000E+00  0.13159356630E+04  0.13159356630E+04  0.50400001928E-02 0.  1.
        1   -1    0    0  501    0  0.00000000000E+00  0.00000000000E+00 -0.11865292669E+04  0.11865292669E+04  0.50400001928E-02 0. -1.
    10030    2    1    2    0    0  0.00000000000E+00  0.00000000000E+00  0.12940639617E+03  0.25024649299E+04  0.24991167860E+04 0.  0.
        1    1    3    3  502    0  0.78878641340E+02  0.58919312462E+03  0.11652779691E+04  0.13081449168E+04  0.50400001928E-02 0.  1.
       -1    1    3    3    0  502 -0.78878641340E+02 -0.58919312462E+03 -0.10358715729E+04  0.11943200131E+04  0.50400001928E-02 0. -1.
</event>
<event>
 5   0  0.2388326E-05  0.2502352E+04  0.7818609E-02  0.8402148E-01
        2   -1    0    0  501    0  0.00000000000E+00  0.00000000000E+00  0.95124594731E+03  0.95124594732E+03  0.25500000920E-02 0. -1.
       -2   -1    0    0    0  501  0.00000000000E+00  0.00000000000E+00 -0.16456747647E+04  0.16456747647E+04  0.25500000920E-02 0.  1.
    10030    2    1    2    0    0  0.00000000000E+00  0.00000000000E+00 -0.69442881738E+03  0.25969207120E+04  0.25023520540E+04 0.  0.
        2    1    3    3  502    0  0.97976450946E+03 -0.75206450852E+03 -0.55451819749E+03  0.13538943645E+04  0.25500000920E-02 0.  1.
       -2    1    3    3    0  502 -0.97976450946E+03  0.75206450852E+03 -0.13991061989E+03  0.12430263475E+04  0.25500000920E-02 0. -1.
</event>
<event>
 5   0  0.1015327E-05  0.2500836E+04  0.7818609E-02  0.8402688E-01
        1   -1    0    0  501    0  0.00000000000E+00  0.00000000000E+00  0.16186595929E+04  0.16186595929E+04  0.50400001928E-02 0.  1.
       -1   -1    0    0    0  501  0.00000000000E+00  0.00000000000E+00 -0.96595095991E+03  0.96595095992E+03  0.50400001928E-02 0. -1.
    10030    2    1    2    0    0  0.00000000000E+00  0.00000000000E+00  0.65270863301E+03  0.25846105528E+04  0.25008364901E+04 0.  0.
        4    1    3    3  502    0 -0.13407475330E+03  0.12428479092E+04  0.29539746461E+03  0.12844875398E+04  0.12699999809E+01 0.  1.
       -4    1    3    3    0  502  0.13407475330E+03 -0.12428479092E+04  0.35731116840E+03  0.13001230130E+04  0.12699999809E+01 0. -1.
</event>
<event>
 5   0  0.2432309E-05  0.2495493E+04  0.7818609E-02  0.8404593E-01
        2   -1    0    0  501    0  0.00000000000E+00  0.00000000000E+00  0.17601256645E+04  0.17601256645E+04  0.25500000920E-02 0. -1.
       -2   -1    0    0    0  501  0.00000000000E+00  0.00000000000E+00 -0.88452315283E+03  0.88452315283E+03  0.25500000920E-02 0.  1.
    10030    2    1    2    0    0  0.00000000000E+00  0.00000000000E+00  0.87560251164E+03  0.26446488173E+04  0.24954934599E+04 0.  0.
        4    1    3    3  502    0 -0.81728194858E+03  0.60971599111E+03 -0.32432503133E+03  0.10699961272E+04  0.12699999809E+01 0.  1.
       -4    1    3    3    0  502  0.81728194858E+03 -0.60971599111E+03  0.11999275430E+04  0.15746526901E+04  0.12699999809E+01 0. -1.
</event>
<event>
 5   0  0.1002753E-05  0.2491243E+04  0.7818609E-02  0.8406112E-01
       -1   -1    0    0    0  501  0.00000000000E+00  0.00000000000E+00  0.16076132649E+04  0.16076132649E+04  0.50400001928E-02 0. -1.
        1   -1    0    0  501    0  0.00000000000E+00  0.00000000000E+00 -0.96514043835E+03  0.96514043836E+03  0.50400001928E-02 0.  1.
    10030    2    1    2    0    0  0.00000000000E+00  0.00000000000E+00  0.64247282656E+03  0.25727537033E+04  0.24912427190E+04 0.  0.
        5    1    3    3  502    0  0.31730951567E+03  0.96303174600E+02  0.15611835735E+04  0.15960187563E+04  0.46999998093E+01 0. -1.
       -5    1    3    3    0  502 -0.31730951567E+03 -0.96303174600E+02 -0.91871074694E+03  0.97673494701E+03  0.46999998093E+01 0.  1.
</event>
<event>
 5   0  0.2345143E-05  0.2625122E+04  0.7818609E-02  0.8359718E-01
        2   -1    0    0  501    0  0.00000000000E+00  0.00000000000E+00  0.99766955522E+03  0.99766955522E+03  0.25500000920E-02 0.  1.
       -2   -1    0    0    0  501  0.00000000000E+00  0.00000000000E+00 -0.17268401150E+04  0.17268401150E+04  0.25500000920E-02 0. -1.
    10030    2    1    2    0    0  0.00000000000E+00  0.00000000000E+00 -0.72917055978E+03  0.27245096702E+04  0.26251215663E+04 0.  0.
        5    1    3    3  502    0 -0.12428171292E+03 -0.12203453188E+04 -0.84928394392E+03  0.14919765241E+04  0.46999998093E+01 0. -1.
       -5    1    3    3    0  502  0.12428171292E+03  0.12203453188E+04  0.12011338414E+03  0.12325331461E+04  0.46999998093E+01 0.  1.
</event>
<event>
 5   0  0.2452457E-05  0.2530357E+04  0.7818609E-02  0.8392250E-01
        2   -1    0    0  501    0  0.00000000000E+00  0.00000000000E+00  0.17603458251E+04  0.17603458251E+04  0.25500000920E-02 0.  1.
       -2   -1    0    0    0  501  0.00000000000E+00  0.00000000000E+00 -0.90929691236E+03  0.90929691236E+03  0.25500000920E-02 0. -1.
    10030    2    1    2    0    0  0.00000000000E+00  0.00000000000E+00  0.85104891277E+03  0.26696427375E+04  0.25303573056E+04 0.  0.
        1    1    3    3  502    0 -0.10609456184E+04 -0.58175512269E+03  0.35539247015E+02  0.12104989327E+04  0.50400001928E-02 0. -1.
       -1    1    3    3    0  502  0.10609456184E+04  0.58175512269E+03  0.81550966576E+03  0.14591438048E+04  0.50400001928E-02 0.  1.
</event>
<event>
 5   0  0.1039688E-05  0.2482265E+04  0.7818609E-02  0.8409331E-01
       -1   -1    0    0    0  501  0.00000000000E+00  0.00000000000E+00  0.99478039968E+03  0.99478039969E+03  0.50400001928E-02 0.  1.
        1   -1    0    0  501    0  0.00000000000E+00  0.00000000000E+00 -0.15484921453E+04  0.15484921453E+04  0.50400001928E-02 0. -1.
    10030    2    1    2    0    0  0.00000000000E+00  0.00000000000E+00 -0.55371174564E+03  0.25432725450E+04  0.24822648007E+04 0.  0.
        3    1    3    3  502    0 -0.10486772573E+04 -0.24010433568E+03 -0.91096547809E+03  0.14096922340E+04  0.10100000352E+00 0. -1.
       -3    1    3    3    0  502  0.10486772573E+04  0.24010433568E+03  0.35725373245E+03  0.11335803111E+04  0.10100000352E+00 0.  1.
</event>
<event>
 5   0  0.1015327E-05  0.2510003E+04  0.7818609E-02  0.8399430E-01
        1   -1    0    0  501    0  0.00000000000E+00  0.00000000000E+00  0.14699511030E+04  0.14699511030E+04  0.50400001928E-02 0. -1.
       -1   -1    0    0    0  501  0.00000000000E+00  0.00000000000E+00 -0.10714841622E+04  0.10714841622E+04  0.50400001928E-02 0.  1.
    10030    2    1    2    0    0  0.00000000000E+00  0.00000000000E+00  0.39846694083E+03  0.25414352652E+04  0.25100034470E+04 0.  0.
        4    1    3    3  502    0  0.99283376689E+03 -0.41976759439E+03  0.85001381789E+03  0.13727522812E+04  0.12699999809E+01 0. -1.
       -4    1    3    3    0  502 -0.99283376689E+03  0.41976759439E+03 -0.45154687706E+03  0.11686829840E+04  0.12699999809E+01 0.  1.
</event>
<event>
 5   0  0.1015327E-05  0.2506690E+04  0.7818609E-02  0.8400606E-01
       -1   -1    0    0    0  501  0.00000000000E+00  0.00000000000E+00  0.76979926490E+03  0.76979926491E+03  0.50400001928E-02 0.  1.
        1   -1    0    0  501    0  0.00000000000E+00  0.00000000000E+00 -0.20406280253E+04  0.20406280253E+04  0.50400001928E-02 0. -1.
    10030    2    1    2    0    0  0.00000000000E+00  0.00000000000E+00 -0.12708287604E+04  0.28104272902E+04  0.25066902113E+04 0.  0.
        4    1    3    3  502    0 -0.92210168883E+03  0.37226768576E+03 -0.14907562717E+04  0.17919851085E+04  0.12699999809E+01 0. -1.
       -4    1    3    3    0  502  0.92210168883E+03 -0.37226768576E+03  0.21992751133E+03  0.10184421817E+04  0.12699999809E+01 0.  1.
</event>
<event>
 5   0  0.1015327E-05  0.2365793E+04  0.7818609E-02  0.8452422E-01
       -1   -1    0    0    0  501  0.00000000000E+00  0.00000000000E+00  0.11996923451E+04  0.11996923451E+04  0.50400001928E-02 0. -1.
        1   -1    0    0  501    0  0.00000000000E+00  0.00000000000E+00 -0.11663359444E+04  0.11663359444E+04  0.50400001928E-02 0.  1.
    10030    2    1    2    0    0  0.00000000000E+00  0.00000000000E+00  0.33356400665E+02  0.23660282895E+04  0.23657931476E+04 0.  0.
        4    1    3    3  502    0  0.11622325286E+03  0.56016188050E+03  0.10521329860E+04  0.11976120449E+04  0.12699999809E+01 0. -1.
       -4    1    3    3    0  502 -0.11622325286E+03 -0.56016188050E+03 -0.10187765854E+04  0.11684162446E+04  0.12699999809E+01 0.  1.
</event>
<event>
 5   0  0.1039688E-05  0.2509484E+04  0.7818609E-02  0.8399615E-01
        1   -1    0    0  501    0  0.00000000000E+00  0.00000000000E+00  0.11689506196E+04  0.11689506196E+04  0.50400001928E-02 0. -1.
       -1   -1    0    0    0  501  0.00000000000E+00  0.00000000000E+00 -0.13468299689E+04  0.13468299689E+04  0.50400001928E-02 0.  1.
    10030    2    1    2    0    0  0.00000000000E+00  0.00000000000E+00 -0.17787934933E+03  0.25157805885E+04  0.25094841913E+04 0.  0.
        3    1    3    3  502    0 -0.47974747884E+03  0.31073219786E+03 -0.12087317603E+04  0.13370656756E+04  0.10100000352E+00 0.  1.
       -3    1    3    3    0  502  0.47974747884E+03 -0.31073219786E+03  0.10308524110E+04  0.11787149128E+04  0.10100000352E+00 0. -1.
</event>
<event>
 5   0  0.2345143E-05  0.2484855E+04  0.7818609E-02  0.8408401E-01
       -2   -1    0    0    0  501  0.00000000000E+00  0.00000000000E+00  0.13061364244E+04  0.13061364244E+04  0.25500000920E-02 0. -1.
        2   -1    0    0  501    0  0.00000000000E+00  0.00000000000E+00 -0.11818256781E+04  0.11818256781E+04  0.25500000920E-02 0.  1.
    10030    2    1    2    0    0  0.00000000000E+00  0.00000000000E+00  0.12431074627E+03  0.24879621025E+04  0.24848545756E+04 0.  0.
        5    1    3    3  502    0  0.87045464434E+03 -0.33332482309E+03 -0.76033816147E+03  0.12028852544E+04  0.46999998093E+01 0.  1.
       -5    1    3    3    0  502 -0.87045464434E+03  0.33332482309E+03  0.88464890775E+03  0.12850768481E+04  0.46999998093E+01 0. -1.
</event>
<event>
 5   0  0.2388326E-05  0.2484209E+04  0.7818609E-02  0.8408633E-01
       -2   -1    0    0    0  501  0.00000000000E+00  0.00000000000E+00  0.12585368297E+04  0.12585368297E+04  0.25500000920E-02 0. -1.
        2   -1    0    0  501    0  0.00000000000E+00  0.00000000000E+00 -0.12258868886E+04  0.12258868886E+04  0.25500000920E-02 0.  1.
    10030    2    1    2    0    0  0.00000000000E+00  0.00000000000E+00  0.32649941038E+02  0.24844237183E+04  0.24842091686E+04 0.  0.
        2    1    3    3  502    0 -0.66781929382E+03 -0.54055355984E+03 -0.88077147399E+03  0.12304223460E+04  0.25500000920E-02 0.  1.
       -2    1    3    3    0  502  0.66781929382E+03  0.54055355984E+03  0.91342141502E+03  0.12540013723E+04  0.25500000920E-02 0. -1.
</event>
<event>
 5   0  0.1010338E-05  0.2110035E+04  0.7818609E-02  0.8556836E-01
       -1   -1    0    0    0  501  0.00000000000E+00  0.00000000000E+00  0.10553642411E+04  0.10553642411E+04  0.50400001928E-02 0. -1.
        1   -1    0    0  501    0  0.00000000000E+00  0.00000000000E+00 -0.10546707212E+04  0.10546707212E+04  0.50400001928E-02 0.  1.
    10030    2    1    2    0    0  0.00000000000E+00  0.00000000000E+00  0.69351988208E+00  0.21100349624E+04  0.21100348484E+04 0.  0.
        2    1    3    3  502    0 -0.25524305874E+03 -0.39252579833E+03 -0.94508242330E+03  0.10547067404E+04  0.25500000920E-02 0.  1.
       -2    1    3    3    0  502  0.25524305874E+03  0.39252579833E+03  0.94577594318E+03  0.10553282220E+04  0.25500000920E-02 0. -1.
</event>
<event>
 5   0  0.1008073E-05  0.2479202E+04  0.7818609E-02  0.8410433E-01
        1   -1    0    0  501    0  0.00000000000E+00  0.00000000000E+00  0.13806875159E+04  0.13806875159E+04  0.50400001928E-02 0.  1.
       -1   -1    0    0    0  501  0.00000000000E+00  0.00000000000E+00 -0.11129310861E+04  0.11129310861E+04  0.50400001928E-02 0. -1.
    10030    2    1    2    0    0  0.00000000000E+00  0.00000000000E+00  0.26775642979E+03  0.24936186019E+04  0.24792015300E+04 0.  0.
        1    1    3    3  502    0  0.57123563003E+03  0.50951386257E+03  0.11145844241E+04  0.13521142554E+04  0.50400001928E-02 0.  1.
       -1    1    3    3    0  502 -0.57123563003E+03 -0.50951386257E+03 -0.84682799432E+03  0.11415043465E+04  0.50400001928E-02 0. -1.
</event>
<event>
 5   0  0.1039688E-05  0.2491023E+04  0.7818609E-02  0.8406191E-01
        1   -1    0    0  501    0  0.00000000000E+00  0.00000000000E+00  0.16157113964E+04  0.16157113964E+04  0.50400001928E-02 0.  1.
       -1   -1    0    0    0  501  0.00000000000E+00  0.00000000000E+00 -0.96013387757E+03  0.96013387758E+03  0.50400001928E-02 0. -1.
    10030    2    1    2    0    0  0.00000000000E+00  0.00000000000E+00  0.65557751880E+03  0.25758452740E+04  0.24910232821E+04 0.  0.
        3    1    3    3  502    0  0.12328269400E+03 -0.52275313550E+03  0.14898108709E+04  0.15836684958E+04  0.10100000352E+00 0.  1.
       -3    1    3    3    0  502 -0.12328269400E+03  0.52275313550E+03 -0.83423335206E+03  0.99217677820E+03  0.10100000352E+00 0. -1.
</event>
<event>
 5   0  0.1008073E-05  0.2529746E+04  0.7818609E-02  0.8392464E-01
       -1   -1    0    0    0  501  0.00000000000E+00  0.00000000000E+00  0.67655213826E+03  0.67655213828E+03  0.50400001928E-02 0. -1.
        1   -1    0    0  501    0  0.00000000000E+00  0.00000000000E+00 -0.23647897002E+04  0.23647897002E+04  0.50400001928E-02 0.  1.
    10030    2    1    2    0    0  0.00000000000E+00  0.00000000000E+00 -0.16882375619E+04  0.30413418385E+04  0.25297458593E+04 0.  0.
        1    1    3    3  502    0 -0.20913925158E+03 -0.71744575862E+03  0.38276835192E+03  0.83963042725E+03  0.50400001928E-02 0. -1.
       -1    1    3    3    0  502  0.20913925158E+03  0.71744575862E+03 -0.20710059138E+04  0.22017114112E+04  0.50400001928E-02 0.  1.
</event>
<event>
 5   0  0.1015327E-05  0.2257954E+04  0.7818609E-02  0.8494686E-01
       -1   -1    0    0    0  501  0.00000000000E+00  0.00000000000E+00  0.70813770628E+03  0.70813770630E+03  0.50400001928E-02 0. -1.
        1   -1    0    0  501    0  0.00000000000E+00  0.00000000000E+00 -0.17999174479E+04  0.17999174479E+04  0.50400001928E-02 0.  1.
    10030    2    1    2    0    0  0.00000000000E+00  0.00000000000E+00 -0.10917797416E+04  0.25080551542E+04  0.22579543070E+04 0.  0.
        4    1    3    3  502    0  0.61618578173E+03 -0.60596546577E+03 -0.13527886826E+04  0.16052781366E+04  0.12699999809E+01 0.  1.
       -4    1    3    3    0  502 -0.61618578173E+03  0.60596546577E+03  0.26100894096E+03  0.90277701758E+03  0.12699999809E+01 0. -1.
</event>
<event>
 5   0  0.1015327E-05  0.2498853E+04  0.7818609E-02  0.8403394E-01
        1   -1    0    0  501    0  0.00000000000E+00  0.00000000000E+00  0.13388083628E+04  0.13388083628E+04  0.50400001928E-02 0.  1.
       -1   -1    0    0    0  501  0.00000000000E+00  0.00000000000E+00 -0.11660119942E+04  0.11660119943E+04  0.50400001928E-02 0. -1.
    10030    2    1    2    0    0  0.00000000000E+00  0.00000000000E+00  0.17279636857E+03  0.25048203571E+04  0.24988530241E+04 0.  0.
        4    1    3    3  502    0  0.92248042821E+03 -0.68050206605E+03  0.58458785199E+03  0.12867780585E+04  0.12699999809E+01 0.  1.
       -4    1    3    3    0  502 -0.92248042821E+03  0.68050206605E+03 -0.41179148342E+03  0.12180422985E+04  0.12699999809E+01 0. -1.
</event>
<event>
 5   0  0.1039688E-05  0.2501386E+04  0.7818609E-02  0.8402492E-01
        1   -1    0    0  501    0  0.00000000000E+00  0.00000000000E+00  0.11229922183E+04  0.11229922183E+04  0.50400001928E-02 0.  1.
       -1   -1    0    0    0  501  0.00000000000E+00  0.00000000000E+00 -0.13929147064E+04  0.13929147064E+04  0.50400001928E-02 0. -1.
    10030    2    1    2    0    0  0.00000000000E+00  0.00000000000E+00 -0.26992248812E+03  0.25159069247E+04  0.25013855169E+04 0.  0.
        3    1    3    3  502    0 -0.10330349398E+04  0.64012749032E+03 -0.43215583278E+03  0.12898383870E+04  0.10100000352E+00 0. -1.
       -3    1    3    3    0  502  0.10330349398E+04 -0.64012749032E+03  0.16223334466E+03  0.12260685376E+04  0.10100000352E+00 0.  1.
</event>
<event>
 5   0  0.2388326E-05  0.2485692E+04  0.7818609E-02  0.8408101E-01
        2   -1    0    0  501    0  0.00000000000E+00  0.00000000000E+00  0.92200807232E+03  0.92200807232E+03  0.25500000920E-02 0. -1.
       -2   -1    0    0    0  501  0.00000000000E+00  0.00000000000E+00 -0.16753282752E+04  0.16753282752E+04  0.25500000920E-02 0.  1.
    10030    2    1    2    0    0  0.00000000000E+00  0.00000000000E+00 -0.75332020285E+03  0.25973363475E+04  0.24856920111E+04 0.  0.
        2    1    3    3  502    0  0.78930973909E+02 -0.68126158592E+03 -0.14597074753E+04  0.16127905508E+04  0.25500000920E-02 0.  1.
       -2    1    3    3    0  502 -0.78930973909E+02  0.68126158592E+03  0.70638727249E+03  0.98454579672E+03  0.25500000920E-02 0. -1.
</event>
<event>
 5   0  0.8166500E-06  0.2554556E+04  0.7818609E-02  0.8383803E-01
        3   -1    0    0  501    0  0.00000000000E+00  0.00000000000E+00  0.12397541230E+04  0.12397541271E+04  0.10100000352E+00 0.  1.
       -3   -1    0    0    0  501  0.00000000000E+00  0.00000000000E+00 -0.13159373804E+04  0.13159373843E+04  0.10100000352E+00 0. -1.
    10030    2    1    2    0    0  0.00000000000E+00  0.00000000000E+00 -0.76183257415E+02  0.25556915114E+04  0.25545557760E+04 0.  0.
        4    1    3    3  502    0 -0.28810409125E+03 -0.11497546405E+04 -0.51422074173E+03  0.12920388094E+04  0.12699999809E+01 0. -1.
       -4    1    3    3    0  502  0.28810409125E+03  0.11497546405E+04  0.43803748432E+03  0.12636527020E+04  0.12699999809E+01 0.  1.
</event>
<event>
 5   0  0.2452457E-05  0.2500892E+04  0.7818609E-02  0.8402668E-01
       -2   -1    0    0    0  501  0.00000000000E+00  0.00000000000E+00  0.69265434663E+03  0.69265434664E+03  0.25500000920E-02 0.  1.
        2   -1    0    0  501    0  0.00000000000E+00  0.00000000000E+00 -0.22574254247E+04  0.22574254247E+04  0.25500000920E-02 0. -1.
    10030    2    1    2    0    0  0.00000000000E+00  0.00000000000E+00 -0.15647710781E+04  0.29500797713E+04  0.25008922669E+04 0.  0.
        1    1    3    3  502    0  0.52405073593E+03  0.59287671878E+03  0.35975778374E+03  0.86922818666E+03  0.50400001928E-02 0. -1.
       -1    1    3    3    0  502 -0.52405073593E+03 -0.59287671878E+03 -0.19245288618E+04  0.20808515847E+04  0.50400001928E-02 0.  1.
</event>
<event>
 5   0  0.1039688E-05  0.2400045E+04  0.7818609E-02  0.8439487E-01
       -1   -1    0    0    0  501  0.00000000000E+00  0.00000000000E+00  0.65444714006E+03  0.65444714008E+03  0.50400001928E-02 0. -1.
        1   -1    0    0  501    0  0.00000000000E+00  0.00000000000E+00 -0.22004138224E+04  0.22004138224E+04  0.50400001928E-02 0.  1.
    10030    2    1    2    0    0  0.00000000000E+00  0.00000000000E+00 -0.15459666824E+04  0.28548609625E+04  0.24000454438E+04 0.  0.
        3    1    3    3  502    0  0.10720640663E+04  0.53283462722E+03 -0.87121943316E+03  0.14806273715E+04  0.10100000352E+00 0.  1.
       -3    1    3    3    0  502 -0.10720640663E+04 -0.53283462722E+03 -0.67474724921E+03  0.13742335910E+04  0.10100000352E+00 0. -1.
</event>
<event>
 5   0  0.2452457E-05  0.2474486E+04  0.7818609E-02  0.8412132E-01
        2   -1    0    0  501    0  0.00000000000E+00  0.00000000000E+00  0.82827122038E+03  0.82827122038E+03  0.25500000920E-02 0. -1.
       -2   -1    0    0    0  501  0.00000000000E+00  0.00000000000E+00 -0.18481505501E+04  0.18481505501E+04  0.25500000920E-02 0.  1.
    10030    2    1    2    0    0  0.00000000000E+00  0.00000000000E+00 -0.10198793297E+04  0.26764217705E+04  0.24744857337E+04 0.  0.
        1    1    3    3  502    0  0.20817854347E+02  0.11692418461E+04 -0.72978312507E+02  0.11717020576E+04  0.50400001928E-02 0. -1.
       -1    1    3    3    0  502 -0.20817854347E+02 -0.11692418461E+04 -0.94690101720E+03  0.15047197128E+04  0.50400001928E-02 0.  1.
</event>
<event>
 5   0  0.1008073E-05  0.2509401E+04  0.7818609E-02  0.8399644E-01
        1   -1    0    0  501    0  0.00000000000E+00  0.00000000000E+00  0.24659172540E+04  0.24659172540E+04  0.50400001928E-02 0.  1.
       -1   -1    0    0    0  501  0.00000000000E+00  0.00000000000E+00 -0.63841292428E+03  0.63841292430E+03  0.50400001928E-02 0. -1.
    10030    2    1    2    0    0  0.00000000000E+00  0.00000000000E+00  0.18275043297E+04  0.31043301783E+04  0.25094010801E+04 0.  0.
        1    1    3    3  502    0  0.56702357897E+03 -0.43963618407E+03  0.21870902908E+04  0.23017731543E+04  0.50400001928E-02 0.  1.
       -1    1    3    3    0  502 -0.56702357897E+03  0.43963618407E+03 -0.35958596108E+03  0.80255702407E+03  0.50400001928E-02 0. -1.
</event>
<event>
 5   0  0.2345143E-05  0.2520691E+04  0.7818609E-02  0.8395651E-01
       -2   -1    0    0    0  501  0.00000000000E+00  0.00000000000E+00  0.10551162463E+04  0.10551162463E+04  0.25500000920E-02 0.  1.
        2   -1    0    0  501    0  0.00000000000E+00  0.00000000000E+00 -0.15054936615E+04  0.15054936615E+04  0.25500000920E-02 0. -1.
    10030    2    1    2    0    0  0.00000000000E+00  0.00000000000E+00 -0.45037741525E+03  0.25606099078E+04  0.25206910330E+04 0.  0.
        5    1    3    3  502    0 -0.55691022941E+02 -0.11827618573E+04  0.21341465339E+03  0.12031604238E+04  0.46999998093E+01 0.  1.
       -5    1    3    3    0  502  0.55691022941E+02  0.11827618573E+04 -0.66379206864E+03  0.13574494840E+04  0.46999998093E+01 0. -1.
</event>
<event>
 5   0  0.1010338E-05  0.2481456E+04  0.7818609E-02  0.8409622E-01
       -1   -1    0    0    0  501  0.00000000000E+00  0.00000000000E+00  0.16863187263E+04  0.16863187263E+04  0.50400001928E-02 0. -1.
        1   -1    0    0  501    0  0.00000000000E+00  0.00000000000E+00 -0.91287959265E+03  0.91287959266E+03  0.50400001928E-02 0.  1.
    10030    2    1    2    0    0  0.00000000000E+00  0.00000000000E+00  0.77343913362E+03  0.25991983189E+04  0.24814559855E+04 0.  0.
        2    1    3    3  502    0  0.21816534617E+03 -0.12211499770E+04  0.36100757783E+03  0.12919480855E+04  0.25500000920E-02 0.  1.
       -2    1    3    3    0  502 -0.21816534617E+03  0.12211499770E+04  0.41243155579E+03  0.13072502334E+04  0.25500000920E-02 0. -1.
</event>
<event>
 5   0  0.2441340E-05  0.2561581E+04  0.7818609E-02  0.8381370E-01
       -2   -1    0    0    0  501  0.00000000000E+00  0.00000000000E+00  0.10699497848E+04  0.10699497848E+04  0.25500000920E-02 0.  1.
        2   -1    0    0  501    0  0.00000000000E+00  0.00000000000E+00 -0.15331789312E+04  0.15331789312E+04  0.25500000920E-02 0. -1.
    10030    2    1    2    0    0  0.00000000000E+00  0.00000000000E+00 -0.46322914640E+03  0.26031287161E+04  0.25615811271E+04 0.  0.
        3    1    3    3  502    0 -0.34529521548E+03  0.39277243896E+03 -0.14197335927E+04  0.15129912290E+04  0.10100000352E+00 0. -1.
       -3    1    3    3    0  502  0.34529521548E+03 -0.39277243896E+03  0.95650444632E+03  0.10901374871E+04  0.10100000352E+00 0.  1.
</event>
<event>
 5   0  0.2388326E-05  0.2411469E+04  0.7818609E-02  0.8435222E-01
        2   -1    0    0  501    0  0.00000000000E+00  0.00000000000E+00  0.17712195564E+04  0.17712195564E+04  0.25500000920E-02 0.  1.
       -2   -1    0    0    0  501  0.00000000000E+00  0.00000000000E+00 -0.82078796318E+03  0.82078796318E+03  0.25500000920E-02 0. -1.
    10030    2    1    2    0    0  0.00000000000E+00  0.00000000000E+00  0.95043159326E+03  0.25920075196E+04  0.24114690063E+04 0.  0.
        2    1    3    3  502    0 -0.13903390864E+03 -0.81124231486E+03  0.14222892836E+04  0.16432745745E+04  0.25500000920E-02 0.  1.
       -2    1    3    3    0  502  0.13903390864E+03  0.81124231486E+03 -0.47185769031E+03  0.94873294508E+03  0.25500000920E-02 0. -1.
</event>
<event>
 5   0  0.1010338E-05  0.2523860E+04  0.7818609E-02  0.8394534E-01
        1   -1    0    0  501    0  0.00000000000E+00  0.00000000000E+00  0.12396645267E+04  0.12396645268E+04  0.50400001928E-02 0.  1.
       -1   -1    0    0    0  501  0.00000000000E+00  0.00000000000E+00 -0.12845954165E+04  0.12845954165E+04  0.50400001928E-02 0. -1.
    10030    2    1    2    0    0  0.00000000000E+00  0.00000000000E+00 -0.44930889762E+02  0.25242599433E+04  0.25238600350E+04 0.  0.
        2    1    3    3  502    0  0.42185801221E+03 -0.11495523222E+04  0.28259541729E+03  0.12567000016E+04  0.25500000920E-02 0.  1.
       -2    1    3    3    0  502 -0.42185801221E+03  0.11495523222E+04 -0.32752630705E+03  0.12675599417E+04  0.25500000920E-02 0. -1.
</event>
<event>
 5   0  0.2345143E-05  0.2508627E+04  0.7818609E-02  0.8399918E-01
        2   -1    0    0  501    0  0.00000000000E+00  0.00000000000E+00  0.17958619580E+04  0.17958619580E+04  0.25500000920E-02 0. -1.
       -2   -1    0    0    0  501  0.00000000000E+00  0.00000000000E+00 -0.87607117563E+03  0.87607117563E+03  0.25500000920E-02 0.  1.
    10030    2    1    2    0    0  0.00000000000E+00  0.00000000000E+00  0.91979078242E+03  0.26719331337E+04  0.25086274310E+04 0.  0.
        5    1    3    3  502    0  0.84211178534E+03  0.89543217766E+03  0.72580691375E+03  0.14275043992E+04  0.46999998093E+01 0. -1.
       -5    1    3    3    0  502 -0.84211178534E+03 -0.89543217766E+03  0.19398386867E+03  0.12444287344E+04  0.46999998093E+01 0.  1.
</event>
<event>
 5   0  0.2345143E-05  0.2504001E+04  0.7818609E-02  0.8401562E-01
        2   -1    0    0  501    0  0.00000000000E+00  0.00000000000E+00  0.12329854471E+04  0.12329854471E+04  0.25500000920E-02 0. -1.
       -2   -1    0    0    0  501  0.00000000000E+00  0.00000000000E+00 -0.12713087580E+04  0.12713087580E+04  0.25500000920E-02 0.  1.
    10030    2    1    2    0    0  0.00000000000E+00  0.00000000000E+00 -0.38323310971E+02  0.25042942051E+04  0.25040009564E+04 0.  0.
        5    1    3    3  502    0 -0.64134765685E+03  0.86360257822E+03  0.62149659670E+03  0.12423430846E+04  0.46999998093E+01 0. -1.
       -5    1    3    3    0  502  0.64134765685E+03 -0.86360257822E+03 -0.65981990767E+03  0.12619511205E+04  0.46999998093E+01 0.  1.
</event>
<event>
 5   0  0.2441340E-05  0.2502038E+04  0.7818609E-02  0.8402260E-01
       -2   -1    0    0    0  501  0.00000000000E+00  0.00000000000E+00  0.69209402439E+03  0.69209402440E+03  0.25500000920E-02 0. -1.
        2   -1    0    0  501    0  0.00000000000E+00  0.00000000000E+00 -0.22613228277E+04  0.22613228277E+04  0.25500000920E-02 0.  1.
    10030    2    1    2    0    0  0.00000000000E+00  0.00000000000E+00 -0.15692288033E+04  0.29534168521E+04  0.25020375827E+04 0.  0.
        3    1    3    3  502    0 -0.64397775610E+03 -0.10597411953E+04 -0.58961792783E+03  0.13731016213E+04  0.10100000352E+00 0. -1.
       -3    1    3    3    0  502  0.64397775610E+03  0.10597411953E+04 -0.97961087552E+03  0.15803152309E+04  0.10100000352E+00 0.  1.
</event>
<event>
 5   0  0.2452457E-05  0.2498959E+04  0.7818609E-02  0.8403356E-01
       -2   -1    0    0    0  501  0.00000000000E+00  0.00000000000E+00  0.15567707018E+04  0.15567707018E+04  0.25500000920E-02 0. -1.
        2   -1    0    0  501    0  0.00000000000E+00  0.00000000000E+00 -0.10028448356E+04  0.10028448356E+04  0.25500000920E-02 0.  1.
    10030    2    1    2    0    0  0.00000000000E+00  0.00000000000E+00  0.55392586618E+03  0.25596155375E+04  0.24989593503E+04 0.  0.
        1    1    3    3  502    0  0.14272030265E+03 -0.32915063475E+03  0.15028808178E+04  0.15451084032E+04  0.50400001928E-02 0. -1.
       -1    1    3    3    0  502 -0.14272030265E+03  0.32915063475E+03 -0.94895495163E+03  0.10145071342E+04  0.50400001928E-02 0.  1.
</event>
<event>
 5   0  0.1002753E-05  0.2494096E+04  0.7818609E-02  0.8405092E-01
       -1   -1    0    0    0  501  0.00000000000E+00  0.00000000000E+00  0.13307399271E+04  0.13307399271E+04  0.50400001928E-02 0.  1.
        1   -1    0    0  501    0  0.00000000000E+00  0.00000000000E+00 -0.11686194715E+04  0.11686194715E+04  0.50400001928E-02 0. -1.
    10030    2    1    2    0    0  0.00000000000E+00  0.00000000000E+00  0.16212045561E+03  0.24993593986E+04  0.24940959005E+04 0.  0.
        5    1    3    3  502    0 -0.11307811414E+04  0.26511389369E+03 -0.37394107399E+03  0.12201661294E+04  0.46999998093E+01 0. -1.
       -5    1    3    3    0  502  0.11307811414E+04 -0.26511389369E+03  0.53606152960E+03  0.12791932692E+04  0.46999998093E+01 0.  1.
</event>
<event>
 5   0  0.1008073E-05  0.2492515E+04  0.7818609E-02  0.8405657E-01
       -1   -1    0    0    0  501  0.00000000000E+00  0.00000000000E+00  0.18281995862E+04  0.18281995862E+04  0.50400001928E-02 0. -1.
        1   -1    0    0  501    0  0.00000000000E+00  0.00000000000E+00 -0.84955623010E+03  0.84955623012E+03  0.50400001928E-02 0.  1.
    10030    2    1    2    0    0  0.00000000000E+00  0.00000000000E+00  0.97864335611E+03  0.26777558163E+04  0.24925154751E+04 0.  0.
        1    1    3    3  502    0  0.13966784564E+03 -0.44242469626E+03  0.17319659502E+04  0.17930289377E+04  0.50400001928E-02 0. -1.
       -1    1    3    3    0  502 -0.13966784564E+03  0.44242469626E+03 -0.75332259407E+03  0.88472687860E+03  0.50400001928E-02 0.  1.
</event>
<event>
 5   0  0.2388326E-05  0.2506028E+04  0.7818609E-02  0.8400841E-01
        2   -1    0    0  501    0  0.00000000000E+00  0.00000000000E+00  0.23126062675E+04  0.23126062675E+04  0.25500000920E-02 0. -1.
       -2   -1    0    0    0  501  0.00000000000E+00  0.00000000000E+00 -0.67890675093E+03  0.67890675093E+03  0.25500000920E-02 0.  1.
    10030    2    1    2    0    0  0.00000000000E+00  0.00000000000E+00  0.16336995166E+04  0.29915130185E+04  0.25060279386E+04 0.  0.
        2    1    3    3  502    0  0.60002069997E+03 -0.95667652073E+03  0.14649777436E+04  0.18497066240E+04  0.25500000920E-02 0. -1.
       -2    1    3    3    0  502 -0.60002069997E+03  0.95667652073E+03  0.16872177302E+03  0.11418063945E+04  0.25500000920E-02 0.  1.
</event>
<event>
 5   0  0.1010338E-05  0.2485115E+04  0.7818609E-02  0.8408308E-01
        1   -1    0    0  501    0  0.00000000000E+00  0.00000000000E+00  0.26839366362E+04  0.26839366362E+04  0.50400001928E-02 0.  1.
       -1   -1    0    0    0  501  0.00000000000E+00  0.00000000000E+00 -0.57525555075E+03  0.57525555077E+03  0.50400001928E-02 0. -1.
    10030    2    1    2    0    0  0.00000000000E+00  0.00000000000E+00  0.21086810854E+04  0.32591921869E+04  0.24851152471E+04 0.  0.
        2    1    3    3  502    0 -0.70042514631E+03 -0.64809793973E+03  0.10639520355E+02  0.95432673884E+03  0.25500000920E-02 0. -1.
       -2    1    3    3    0  502  0.70042514631E+03  0.64809793973E+03  0.20980415651E+04  0.23048654481E+04  0.25500000920E-02 0.  1.
</event>
<event>
 5   0  0.2441340E-05  0.2493854E+04  0.7818609E-02  0.8405178E-01
       -2   -1    0    0    0  501  0.00000000000E+00  0.00000000000E+00  0.61756698706E+03  0.61756698707E+03  0.25500000920E-02 0.  1.
        2   -1    0    0  501    0  0.00000000000E+00  0.00000000000E+00 -0.25176647677E+04  0.25176647677E+04  0.25500000920E-02 0. -1.
    10030    2    1    2    0    0  0.00000000000E+00  0.00000000000E+00 -0.19000977806E+04  0.31352317547E+04  0.24938537608E+04 0.  0.
        3    1    3    3  502    0  0.11522522611E+04  0.17601292454E+02 -0.35129216784E+03  0.12047411656E+04  0.10100000352E+00 0.  1.
       -3    1    3    3    0  502 -0.11522522611E+04 -0.17601292454E+02 -0.15488056128E+04  0.19304905892E+04  0.10100000352E+00 0. -1.
</event>
<event>
 5   0  0.2345143E-05  0.2508699E+04  0.7818609E-02  0.8399893E-01
       -2   -1    0    0    0  501  0.00000000000E+00  0.00000000000E+00  0.74971263684E+03  0.74971263685E+03  0.25500000920E-02 0.  1.
        2   -1    0    0  501    0  0.00000000000E+00  0.00000000000E+00 -0.20986616452E+04  0.20986616452E+04  0.25500000920E-02 0. -1.
    10030    2    1    2    0    0  0.00000000000E+00  0.00000000000E+00 -0.13489490084E+04  0.28483742821E+04  0.25086993888E+04 0.  0.
        5    1    3    3  502    0  0.71032365261E+03 -0.74281503578E+03 -0.14908864038E+04  0.18108280503E+04  0.46999998093E+01 0. -1.
       -5    1    3    3    0  502 -0.71032365261E+03  0.74281503578E+03  0.14193739539E+03  0.10375462318E+04  0.46999998093E+01 0.  1.
</event>
<event>
 5   0  0.1002753E-05  0.2262607E+04  0.7818609E-02  0.8492812E-01
        1   -1    0    0  501    0  0.00000000000E+00  0.00000000000E+00  0.10937198424E+04  0.10937198424E+04  0.50400001928E-02 0. -1.
       -1   -1    0    0    0  501  0.00000000000E+00  0.00000000000E+00 -0.11701783611E+04  0.11701783612E+04  0.50400001928E-02 0.  1.
    10030    2    1    2    0    0  0.00000000000E+00  0.00000000000E+00 -0.76458518762E+02  0.22638982035E+04  0.22626067203E+04 0.  0.
        5    1    3    3  502    0 -0.10938914247E+04  0.20793136016E+03  0.16186314403E+03  0.11251913912E+04  0.46999998093E+01 0. -1.
       -5    1    3    3    0  502  0.10938914247E+04 -0.20793136016E+03 -0.23832166279E+03  0.11387068123E+04  0.46999998093E+01 0.  1.
</event>
<event>
 5   0  0.1002753E-05  0.2511827E+04  0.7818609E-02  0.8398784E-01
        1   -1    0    0  501    0  0.00000000000E+00  0.00000000000E+00  0.11316123811E+04  0.11316123811E+04  0.50400001928E-02 0.  1.
       -1   -1    0    0    0  501  0.00000000000E+00  0.00000000000E+00 -0.13938685857E+04  0.13938685857E+04  0.50400001928E-02 0. -1.
    10030    2    1    2    0    0  0.00000000000E+00  0.00000000000E+00 -0.26225620462E+03  0.25254809669E+04  0.25118271830E+04 0.  0.
        5    1    3    3  502    0  0.17249835956E+03  0.37958644931E+03 -0.13222429454E+04  0.13864306882E+04  0.46999998093E+01 0. -1.
       -5    1    3    3    0  502 -0.17249835956E+03 -0.37958644931E+03  0.10599867408E+04  0.11390502786E+04  0.46999998093E+01 0.  1.
</event>
<event>
 5   0  0.2452457E-05  0.2520905E+04  0.7818609E-02  0.8395576E-01
       -2   -1    0    0    0  501  0.00000000000E+00  0.00000000000E+00  0.13629413946E+04  0.13629413946E+04  0.25500000920E-02 0.  1.
        2   -1    0    0  501    0  0.00000000000E+00  0.00000000000E+00 -0.11656707998E+04  0.11656707998E+04  0.25500000920E-02 0. -1.
    10030    2    1    2    0    0  0.00000000000E+00  0.00000000000E+00  0.19727059486E+03  0.25286121944E+04  0.25209053814E+04 0.  0.
        1    1    3    3  502    0 -0.11551836056E+04 -0.42808239098E+03  0.36597833195E+03  0.12851629607E+04  0.50400001928E-02 0.  1.
       -1    1    3    3    0  502  0.11551836056E+04  0.42808239098E+03 -0.16870773709E+03  0.12434492337E+04  0.50400001928E-02 0. -1.
</event>
<event>
 5   0  0.2432309E-05  0.2528778E+04  0.7818609E-02  0.8392804E-01
        2   -1    0    0  501    0  0.00000000000E+00  0.00000000000E+00  0.20493128850E+04  0.20493128850E+04  0.25500000920E-02 0. -1.
       -2   -1    0    0    0  501  0.00000000000E+00  0.00000000000E+00 -0.78010521638E+03  0.78010521638E+03  0.25500000920E-02 0.  1.
    10030    2    1    2    0    0  0.00000000000E+00  0.00000000000E+00  0.12692076686E+04  0.28294181014E+04  0.25287781014E+04 0.  0.
        4    1    3    3  502    0 -0.76985437705E+03 -0.20836121911E+03  0.17323618187E+04  0.19071363987E+04  0.12699999809E+01 0. -1.
       -4    1    3    3    0  502  0.76985437705E+03  0.20836121911E+03 -0.46315415006E+03  0.92228170269E+03  0.12699999809E+01 0.  1.
</event>
<event>
 5   0  0.1010338E-05  0.2495085E+04  0.7818609E-02  0.8404739E-01
       -1   -1    0    0    0  501  0.00000000000E+00  0.00000000000E+00  0.93690435932E+03  0.93690435934E+03  0.50400001928E-02 0. -1.
        1   -1    0    0  501    0  0.00000000000E+00  0.00000000000E+00 -0.16611745678E+04  0.16611745679E+04  0.50400001928E-02 0.  1.
    10030    2    1    2    0    0  0.00000000000E+00  0.00000000000E+00 -0.72427020852E+03  0.25980789272E+04  0.24950845230E+04 0.  0.
        2    1    3    3  502    0  0.91801724728E+03  0.10093296428E+02  0.51742461270E+03  0.10538433331E+04  0.25500000920E-02 0. -1.
       -2    1    3    3    0  502 -0.91801724728E+03 -0.10093296428E+02 -0.12416948212E+04  0.15442355941E+04  0.25500000920E-02 0.  1.
</event>
<event>
 5   0  0.1015327E-05  0.2498126E+04  0.7818609E-02  0.8403653E-01
       -1   -1    0    0    0  501  0.00000000000E+00  0.00000000000E+00  0.11608328319E+04  0.11608328319E+04  0.50400001928E-02 0. -1.
        1   -1    0    0  501    0  0.00000000000E+00  0.00000000000E+00 -0.13439995444E+04  0.13439995444E+04  0.50400001928E-02 0.  1.
    10030    2    1    2    0    0  0.00000000000E+00  0.00000000000E+00 -0.18316671251E+03  0.25048323763E+04  0.24981263356E+04 0.  0.
        4    1    3    3  502    0 -0.22362600508E+03  0.12239325168E+04  0.18884023112E+02  0.12443382238E+04  0.12699999809E+01 0.  1.
       -4    1    3    3    0  502  0.22362600508E+03 -0.12239325168E+04 -0.20205073562E+03  0.12604941525E+04  0.12699999809E+01 0. -1.
</event>
<event>
 5   0  0.2345143E-05  0.2486940E+04  0.7818609E-02  0.8407653E-01
        2   -1    0    0  501    0  0.00000000000E+00  0.00000000000E+00  0.98931564075E+03  0.98931564075E+03  0.25500000920E-02 0.  1.
       -2   -1    0    0    0  501  0.00000000000E+00  0.00000000000E+00 -0.15629161131E+04  0.15629161131E+04  0.25500000920E-02 0. -1.
    10030    2    1    2    0    0  0.00000000000E+00  0.00000000000E+00 -0.57360047233E+03  0.25522317538E+04  0.24869397708E+04 0.  0.
        5    1    3    3  502    0 -0.79548697716E+03 -0.30106855444E+03  0.64407118881E+03  0.10669074897E+04  0.46999998093E+01 0.  1.
       -5    1    3    3    0  502  0.79548697716E+03  0.30106855444E+03 -0.12176716611E+04  0.14853242641E+04  0.46999998093E+01 0. -1.
</event>
<event>
 5   0  0.1008073E-05  0.2508789E+04  0.7818609E-02  0.8399861E-01
        1   -1    0    0  501    0  0.00000000000E+00  0.00000000000E+00  0.15212157831E+04  0.15212157831E+04  0.50400001928E-02 0. -1.
       -1   -1    0    0    0  501  0.00000000000E+00  0.00000000000E+00 -0.10343739714E+04  0.10343739714E+04  0.50400001928E-02 0.  1.
    10030    2    1    2    0    0  0.00000000000E+00  0.00000000000E+00  0.48684181172E+03  0.25555897545E+04  0.25087893582E+04 0.  0.
        1    1    3    3  502    0 -0.22513493216E+03  0.19477428848E+03 -0.99786862820E+03  0.10413282673E+04  0.50400001928E-02 0.  1.
       -1    1    3    3    0  502  0.22513493216E+03 -0.19477428848E+03  0.14847104399E+04  0.15142614872E+04  0.50400001928E-02 0. -1.
</event>
<event>
 5   0  0.2345143E-05  0.2554438E+04  0.7818609E-02  0.8383844E-01
        2   -1    0    0  501    0  0.00000000000E+00  0.00000000000E+00  0.15169275280E+04  0.15169275280E+04  0.25500000920E-02 0. -1.
       -2   -1    0    0    0  501  0.00000000000E+00  0.00000000000E+00 -0.10753896943E+04  0.10753896943E+04  0.25500000920E-02 0.  1.
    10030    2    1    2    0    0  0.00000000000E+00  0.00000000000E+00  0.44153783365E+03  0.25923172223E+04  0.25544378878E+04 0.  0.
        5    1    3    3  502    0 -0.38527727698E+03  0.23658225706E+03  0.14329930652E+04  0.15026313452E+04  0.46999998093E+01 0. -1.
       -5    1    3    3    0  502  0.38527727698E+03 -0.23658225706E+03 -0.99145523160E+03  0.10896858771E+04  0.46999998093E+01 0.  1.
</event>
<event>
 5   0  0.1010338E-05  0.2522899E+04  0.7818609E-02  0.8394873E-01
       -1   -1    0    0    0  501  0.00000000000E+00  0.00000000000E+00  0.22797689399E+04  0.22797689399E+04  0.50400001928E-02 0. -1.
        1   -1    0    0  501    0  0.00000000000E+00  0.00000000000E+00 -0.69798953913E+03  0.69798953915E+03  0.50400001928E-02 0.  1.
    10030    2    1    2    0    0  0.00000000000E+00  0.00000000000E+00  0.15817794008E+04  0.29777584790E+04  0.25228990243E+04 0.  0.
        2    1    3    3  502    0 -0.25953566318E+03  0.31007641180E+03 -0.61942324525E+03  0.73972379871E+03  0.25500000920E-02 0.  1.
       -2    1    3    3    0  502  0.25953566318E+03 -0.31007641180E+03  0.22012026460E+04  0.22380346803E+04  0.25500000920E-02 0. -1.
</event>
<event>
 5   0  0.2452457E-05  0.2448215E+04  0.7818609E-02  0.8421670E-01
       -2   -1    0    0    0  501  0.00000000000E+00  0.00000000000E+00  0.14762143024E+04  0.14762143024E+04  0.25500000920E-02 0.  1.
        2   -1    0    0  501    0  0.00000000000E+00  0.00000000000E+00 -0.10150553425E+04  0.10150553425E+04  0.25500000920E-02 0. -1.
    10030    2    1    2    0    0  0.00000000000E+00  0.00000000000E+00  0.46115895988E+03  0.24912696448E+04  0.24482150349E+04 0.  0.
        1    1    3    3  502    0  0.15115694159E+02  0.59944001619E+03 -0.85537248595E+03  0.10446142383E+04  0.50400001928E-02 0. -1.
       -1    1    3    3    0  502 -0.15115694159E+02 -0.59944001619E+03  0.13165314458E+04  0.14466554065E+04  0.50400001928E-02 0.  1.
</event>
<event>
 5   0  0.2388326E-05  0.2502654E+04  0.7818609E-02  0.8402041E-01
        2   -1    0    0  501    0  0.00000000000E+00  0.00000000000E+00  0.11712504383E+04  0.11712504383E+04  0.25500000920E-02 0. -1.
       -2   -1    0    0    0  501  0.00000000000E+00  0.00000000000E+00 -0.13368778540E+04  0.13368778540E+04  0.25500000920E-02 0.  1.
    10030    2    1    2    0    0  0.00000000000E+00  0.00000000000E+00 -0.16562741568E+03  0.25081282923E+04  0.25026536096E+04 0.  0.
        2    1    3    3  502    0  0.36053767546E+01  0.91921612211E+03 -0.93369838013E+03  0.13102533888E+04  0.25500000920E-02 0.  1.
       -2    1    3    3    0  502 -0.36053767546E+01 -0.91921612211E+03  0.76807096445E+03  0.11978749035E+04  0.25500000920E-02 0. -1.
</event>
<event>
 5   0  0.1015327E-05  0.2504616E+04  0.7818609E-02  0.8401343E-01
        1   -1    0    0  501    0  0.00000000000E+00  0.00000000000E+00  0.16017922747E+04  0.16017922747E+04  0.50400001928E-02 0.  1.
       -1   -1    0    0    0  501  0.00000000000E+00  0.00000000000E+00 -0.97907508817E+03  0.97907508819E+03  0.50400001928E-02 0. -1.
    10030    2    1    2    0    0  0.00000000000E+00  0.00000000000E+00  0.62271718654E+03  0.25808673629E+04  0.25046156692E+04 0.  0.
        4    1    3    3  502    0 -0.67818707642E+03 -0.65045264023E+02 -0.77139522082E+03  0.10291845299E+04  0.12699999809E+01 0. -1.
       -4    1    3    3    0  502  0.67818707642E+03  0.65045264023E+02  0.13941124074E+04  0.15516828330E+04  0.12699999809E+01 0.  1.
</event>
<event>
 5   0  0.2432309E-05  0.2457223E+04  0.7818609E-02  0.8418385E-01
        2   -1    0    0  501    0  0.00000000000E+00  0.00000000000E+00  0.23308302299E+04  0.23308302299E+04  0.25500000920E-02 0. -1.
       -2   -1    0    0    0  501  0.00000000000E+00  0.00000000000E+00 -0.64761741321E+03  0.64761741322E+03  0.25500000920E-02 0.  1.
    10030    2    1    2    0    0  0.00000000000E+00  0.00000000000E+00  0.16832128167E+04  0.29784476431E+04  0.24572230213E+04 0.  0.
        4    1    3    3  502    0 -0.98307609729E+03  0.66600211318E+03  0.45928465763E+03  0.12731619840E+04  0.12699999809E+01 0. -1.
       -4    1    3    3    0  502  0.98307609729E+03 -0.66600211318E+03  0.12239281591E+04  0.17052856591E+04  0.12699999809E+01 0.  1.
</event>
<event>
 5   0  0.2345143E-05  0.2497103E+04  0.7818609E-02  0.8404019E-01
       -2   -1    0    0    0  501  0.00000000000E+00  0.00000000000E+00  0.12647950889E+04  0.12647950889E+04  0.25500000920E-02 0. -1.
        2   -1    0    0  501    0  0.00000000000E+00  0.00000000000E+00 -0.12325160408E+04  0.12325160408E+04  0.25500000920E-02 0.  1.
    10030    2    1    2    0    0  0.00000000000E+00  0.00000000000E+00  0.32279048068E+02  0.24973111297E+04  0.24971025093E+04 0.  0.
        5    1    3    3  502    0 -0.10052322957E+04 -0.34548730906E+03 -0.63889969755E+03  0.12401888415E+04  0.46999998093E+01 0.  1.
       -5    1    3    3    0  502  0.10052322957E+04  0.34548730906E+03  0.67117874562E+03  0.12571222882E+04  0.46999998093E+01 0. -1.
</event>
<event>
 5   0  0.1008073E-05  0.2477523E+04  0.7818609E-02  0.8411037E-01
       -1   -1    0    0    0  501  0.00000000000E+00  0.00000000000E+00  0.76088513028E+03  0.76088513029E+03  0.50400001928E-02 0. -1.
        1   -1    0    0  501    0  0.00000000000E+00  0.00000000000E+00 -0.20167701703E+04  0.20167701703E+04  0.50400001928E-02 0.  1.
    10030    2    1    2    0    0  0.00000000000E+00  0.00000000000E+00 -0.12558850400E+04  0.27776553006E+04  0.24775233067E+04 0.  0.
        1    1    3    3  502    0 -0.17673191914E+03  0.11891844638E+04 -0.96266784274E+03  0.15401698724E+04  0.50400001928E-02 0. -1.
       -1    1    3    3    0  502  0.17673191914E+03 -0.11891844638E+04 -0.29321719724E+03  0.12374854282E+04  0.50400001928E-02 0.  1.
</event>
<event>
 5   0  0.2432309E-05  0.2494092E+04  0.7818609E-02  0.8405093E-01
        2   -1    0    0  501    0  0.00000000000E+00  0.00000000000E+00  0.15555177663E+04  0.15555177663E+04  0.25500000920E-02 0. -1.
       -2   -1    0    0    0  501  0.00000000000E+00  0.00000000000E+00 -0.99974705297E+03  0.99974705297E+03  0.25500000920E-02 0.  1.
    10030    2    1    2    0    0  0.00000000000E+00  0.00000000000E+00  0.55577071334E+03  0.25552648193E+04  0.24940924624E+04 0.  0.
        4    1    3    3  502    0 -0.12078610497E+04  0.33267083500E+02  0.59381143843E+03  0.13463464085E+04  0.12699999809E+01 0. -1.
       -4    1    3    3    0  502  0.12078610497E+04 -0.33267083500E+02 -0.38040725090E+02  0.12089184108E+04  0.12699999809E+01 0.  1.
</event>
<event>
 5   0  0.1039688E-05  0.2472360E+04  0.7818609E-02  0.8412899E-01
        1   -1    0    0  501    0  0.00000000000E+00  0.00000000000E+00  0.14468119110E+04  0.14468119110E+04  0.50400001928E-02 0. -1.
       -1   -1    0    0    0  501  0.00000000000E+00  0.00000000000E+00 -0.10562122339E+04  0.10562122339E+04  0.50400001928E-02 0.  1.
    10030    2    1    2    0    0  0.00000000000E+00  0.00000000000E+00  0.39059967707E+03  0.25030241449E+04  0.24723595536E+04 0.  0.
        3    1    3    3  502    0  0.89266475308E+03 -0.33706625368E+03 -0.60037187011E+03  0.11273466252E+04  0.10100000352E+00 0.  1.
       -3    1    3    3    0  502 -0.89266475308E+03  0.33706625368E+03  0.99097154718E+03  0.13756775197E+04  0.10100000352E+00 0. -1.
</event>
<event>
 5   0  0.1010338E-05  0.2452026E+04  0.7818609E-02  0.8420279E-01
       -1   -1    0    0    0  501  0.00000000000E+00  0.00000000000E+00  0.91999367264E+03  0.91999367265E+03  0.50400001928E-02 0. -1.
        1   -1    0    0  501    0  0.00000000000E+00  0.00000000000E+00 -0.16338235629E+04  0.16338235629E+04  0.50400001928E-02 0.  1.
    10030    2    1    2    0    0  0.00000000000E+00  0.00000000000E+00 -0.71382989023E+03  0.25538172355E+04  0.24520255627E+04 0.  0.
        2    1    3    3  502    0 -0.37537681083E+03  0.10873034369E+04 -0.79875580477E+03  0.14004097078E+04  0.25500000920E-02 0.  1.
       -2    1    3    3    0  502  0.37537681083E+03 -0.10873034369E+04  0.84925914549E+02  0.11534075277E+04  0.25500000920E-02 0. -1.
</event>
<event>
 5   0  0.1010338E-05  0.2490780E+04  0.7818609E-02  0.8406277E-01
        1   -1    0    0  501    0  0.00000000000E+00  0.00000000000E+00  0.14333826986E+04  0.14333826986E+04  0.50400001928E-02 0.  1.
       -1   -1    0    0    0  501  0.00000000000E+00  0.00000000000E+00 -0.10820534541E+04  0.10820534541E+04  0.50400001928E-02 0. -1.
    10030    2    1    2    0    0  0.00000000000E+00  0.00000000000E+00  0.35132924452E+03  0.25154361527E+04  0.24907803597E+04 0.  0.
        2    1    3    3  502    0  0.37151305215E+03 -0.85649503101E+03  0.10080755350E+04  0.13739803384E+04  0.25500000920E-02 0.  1.
       -2    1    3    3    0  502 -0.37151305215E+03  0.85649503101E+03 -0.65674629043E+03  0.11414558143E+04  0.25500000920E-02 0. -1.
</event>
<event>
 5   0  0.1008073E-05  0.2627753E+04  0.7818609E-02  0.8358835E-01
       -1   -1    0    0    0  501  0.00000000000E+00  0.00000000000E+00  0.18112156957E+04  0.18112156957E+04  0.50400001928E-02 0.  1.
        1   -1    0    0  501    0  0.00000000000E+00  0.00000000000E+00 -0.95310099234E+03  0.95310099235E+03  0.50400001928E-02 0. -1.
    10030    2    1    2    0    0  0.00000000000E+00  0.00000000000E+00  0.85811470335E+03  0.27643166881E+04  0.26277530150E+04 0.  0.
        1    1    3    3  502    0 -0.11761996408E+04  0.43790836518E+03  0.20191276797E+02  0.12552358420E+04  0.50400001928E-02 0. -1.
       -1    1    3    3    0  502  0.11761996408E+04 -0.43790836518E+03  0.83792342656E+03  0.15090808461E+04  0.50400001928E-02 0.  1.
</event>
<event>
 5   0  0.1002753E-05  0.2505935E+04  0.7818609E-02  0.8400874E-01
       -1   -1    0    0    0  501  0.00000000000E+00  0.00000000000E+00  0.12747973503E+04  0.12747973504E+04  0.50400001928E-02 0. -1.
        1   -1    0    0  501    0  0.00000000000E+00  0.00000000000E+00 -0.12315116857E+04  0.12315116857E+04  0.50400001928E-02 0.  1.
    10030    2    1    2    0    0  0.00000000000E+00  0.00000000000E+00  0.43285664611E+02  0.25063090361E+04  0.25059352218E+04 0.  0.
        5    1    3    3  502    0  0.18053254324E+03  0.62777128433E+03 -0.10477299071E+04  0.12346857223E+04  0.46999998093E+01 0.  1.
       -5    1    3    3    0  502 -0.18053254324E+03 -0.62777128433E+03  0.10910155717E+04  0.12716233138E+04  0.46999998093E+01 0. -1.
</event>
<event>
 5   0  0.1010338E-05  0.2529448E+04  0.7818609E-02  0.8392569E-01
        1   -1    0    0  501    0  0.00000000000E+00  0.00000000000E+00  0.16447268703E+04  0.16447268703E+04  0.50400001928E-02 0.  1.
       -1   -1    0    0    0  501  0.00000000000E+00  0.00000000000E+00 -0.97251856443E+03  0.97251856444E+03  0.50400001928E-02 0. -1.
    10030    2    1    2    0    0  0.00000000000E+00  0.00000000000E+00  0.67220830586E+03  0.26172454347E+04  0.25294484891E+04 0.  0.
        2    1    3    3  502    0  0.29927495240E+03  0.52163216674E+03 -0.81510621383E+03  0.10129480512E+04  0.25500000920E-02 0. -1.
       -2    1    3    3    0  502 -0.29927495240E+03 -0.52163216674E+03  0.14873145197E+04  0.16042973836E+04  0.25500000920E-02 0.  1.
</event>
<event>
 5   0  0.2432309E-05  0.2484157E+04  0.7818609E-02  0.8408652E-01
        2   -1    0    0  501    0  0.00000000000E+00  0.00000000000E+00  0.20255079960E+04  0.20255079960E+04  0.25500000920E-02 0.  1.
       -2   -1    0    0    0  501  0.00000000000E+00  0.00000000000E+00 -0.76166493165E+03  0.76166493165E+03  0.25500000920E-02 0. -1.
    10030    2    1    2    0    0  0.00000000000E+00  0.00000000000E+00  0.12638430644E+04  0.27871729277E+04  0.24841565244E+04 0.  0.
        4    1    3    3  502    0  0.79771157841E+03  0.61254950420E+03 -0.18581314118E+03  0.10227848228E+04  0.12699999809E+01 0. -1.
       -4    1    3    3    0  502 -0.79771157841E+03 -0.61254950420E+03  0.14496562056E+04  0.17643881049E+04  0.12699999809E+01 0.  1.
</event>
<event>
 5   0  0.2432309E-05  0.2493406E+04  0.7818609E-02  0.8405338E-01
        2   -1    0    0  501    0  0.00000000000E+00  0.00000000000E+00  0.13392417661E+04  0.13392417661E+04  0.25500000920E-02 0.  1.
       -2   -1    0    0    0  501  0.00000000000E+00  0.00000000000E+00 -0.11605584665E+04  0.11605584665E+04  0.25500000920E-02 0. -1.
    10030    2    1    2    0    0  0.00000000000E+00  0.00000000000E+00  0.17868329963E+03  0.24998002326E+04  0.24934060001E+04 0.  0.
        4    1    3    3  502    0  0.34160224414E+03  0.19089852179E+03  0.12760715773E+04  0.13347264222E+04  0.12699999809E+01 0.  1.
       -4    1    3    3    0  502 -0.34160224414E+03 -0.19089852179E+03 -0.10973882776E+04  0.11650738104E+04  0.12699999809E+01 0. -1.
</event>
<event>
 5   0  0.2452457E-05  0.2628267E+04  0.7818609E-02  0.8358662E-01
        2   -1    0    0  501    0  0.00000000000E+00  0.00000000000E+00  0.11725094452E+04  0.11725094452E+04  0.25500000920E-02 0.  1.
       -2   -1    0    0    0  501  0.00000000000E+00  0.00000000000E+00 -0.14728638782E+04  0.14728638782E+04  0.25500000920E-02 0. -1.
    10030    2    1    2    0    0  0.00000000000E+00  0.00000000000E+00 -0.30035443294E+03  0.26453733234E+04  0.26282669641E+04 0.  0.
        1    1    3    3  502    0  0.13686707461E+03  0.44486792533E+03  0.10867668850E+04  0.11822446149E+04  0.50400001928E-02 0.  1.
       -1    1    3    3    0  502 -0.13686707461E+03 -0.44486792533E+03 -0.13871213179E+04  0.14631287085E+04  0.50400001928E-02 0. -1.
</event>
<event>
 5   0  0.1015327E-05  0.2486272E+04  0.7818609E-02  0.8407893E-01
        1   -1    0    0  501    0  0.00000000000E+00  0.00000000000E+00  0.13794876047E+04  0.13794876047E+04  0.50400001928E-02 0. -1.
       -1   -1    0    0    0  501  0.00000000000E+00  0.00000000000E+00 -0.11202616669E+04  0.11202616669E+04  0.50400001928E-02 0.  1.
    10030    2    1    2    0    0  0.00000000000E+00  0.00000000000E+00  0.25922593780E+03  0.24997492717E+04  0.24862719751E+04 0.  0.
        4    1    3    3  502    0  0.79684645895E+02  0.12347146823E+04  0.84796729089E+01  0.12373130191E+04  0.12699999809E+01 0. -1.
       -4    1    3    3    0  502 -0.79684645895E+02 -0.12347146823E+04  0.25074626489E+03  0.12624362525E+04  0.12699999809E+01 0.  1.
</event>
<event>
 5   0  0.1015327E-05  0.2485493E+04  0.7818609E-02  0.8408172E-01
        1   -1    0    0  501    0  0.00000000000E+00  0.00000000000E+00  0.12419711256E+04  0.12419711256E+04  0.50400001928E-02 0. -1.
       -1   -1    0    0    0  501  0.00000000000E+00  0.00000000000E+00 -0.12435224102E+04  0.12435224102E+04  0.50400001928E-02 0.  1.
    10030    2    1    2    0    0  0.00000000000E+00  0.00000000000E+00 -0.15512845523E+01  0.24854935358E+04  0.24854930517E+04 0.  0.
        4    1    3    3  502    0  0.11643086211E+04 -0.36534007809E+02  0.43220021004E+03  0.12424765324E+04  0.12699999809E+01 0. -1.
       -4    1    3    3    0  502 -0.11643086211E+04  0.36534007809E+02 -0.43375149459E+03  0.12430170035E+04  0.12699999809E+01 0.  1.
</event>
<event>
 5   0  0.2345143E-05  0.2375105E+04  0.7818609E-02  0.8448883E-01
       -2   -1    0    0    0  501  0.00000000000E+00  0.00000000000E+00  0.94223496177E+03  0.94223496178E+03  0.25500000920E-02 0. -1.
        2   -1    0    0  501    0  0.00000000000E+00  0.00000000000E+00 -0.14967402060E+04  0.14967402060E+04  0.25500000920E-02 0.  1.
    10030    2    1    2    0    0  0.00000000000E+00  0.00000000000E+00 -0.55450524421E+03  0.24389751678E+04  0.23751050089E+04 0.  0.
        5    1    3    3  502    0 -0.41856503971E+01  0.54563401034E+03  0.80587448954E+03  0.97323675218E+03  0.46999998093E+01 0. -1.
       -5    1    3    3    0  502  0.41856503971E+01 -0.54563401034E+03 -0.13603797337E+04  0.14657384156E+04  0.46999998093E+01 0.  1.
</event>
<event>
 5   0  0.1002753E-05  0.2476138E+04  0.7818609E-02  0.8411536E-01
       -1   -1    0    0    0  501  0.00000000000E+00  0.00000000000E+00  0.79831707953E+03  0.79831707954E+03  0.50400001928E-02 0.  1.
        1   -1    0    0  501    0  0.00000000000E+00  0.00000000000E+00 -0.19200582449E+04  0.19200582449E+04  0.50400001928E-02 0. -1.
    10030    2    1    2    0    0  0.00000000000E+00  0.00000000000E+00 -0.11217411654E+04  0.27183753244E+04  0.24761383569E+04 0.  0.
        5    1    3    3  502    0  0.85808772595E+03 -0.35667169610E+03  0.33724706426E+03  0.98857822987E+03  0.46999998093E+01 0.  1.
       -5    1    3    3    0  502 -0.85808772595E+03  0.35667169610E+03 -0.14589882296E+04  0.17297970946E+04  0.46999998093E+01 0. -1.
</event>
<event>
 5   0  0.8166500E-06  0.2501671E+04  0.7818609E-02  0.8402391E-01
       -3   -1    0    0    0  501  0.00000000000E+00  0.00000000000E+00  0.25958771407E+04  0.25958771426E+04  0.10100000352E+00 0. -1.
        3   -1    0    0  501    0  0.00000000000E+00  0.00000000000E+00 -0.60272068565E+03  0.60272069411E+03  0.10100000352E+00 0.  1.
    10030    2    1    2    0    0  0.00000000000E+00  0.00000000000E+00  0.19931564550E+04  0.31985978368E+04  0.25016705353E+04 0.  0.
        1    1    3    3  502    0  0.11902332472E+04 -0.29893033191E+03  0.68713339824E+03  0.14064731896E+04  0.50400001928E-02 0.  1.
       -1    1    3    3    0  502 -0.11902332472E+04  0.29893033191E+03  0.13060230568E+04  0.17921246472E+04  0.50400001928E-02 0. -1.
</event>
<event>
 5   0  0.2388326E-05  0.2430544E+04  0.7818609E-02  0.8428156E-01
       -2   -1    0    0    0  501  0.00000000000E+00  0.00000000000E+00  0.15203230984E+04  0.15203230984E+04  0.25500000920E-02 0. -1.
        2   -1    0    0  501    0  0.00000000000E+00  0.00000000000E+00 -0.97142930087E+03  0.97142930087E+03  0.25500000920E-02 0.  1.
    10030    2    1    2    0    0  0.00000000000E+00  0.00000000000E+00  0.54889379749E+03  0.24917523992E+04  0.24305443049E+04 0.  0.
        2    1    3    3  502    0  0.46175988055E+03  0.84965103749E+03  0.10290242086E+04  0.14120976931E+04  0.25500000920E-02 0. -1.
       -2    1    3    3    0  502 -0.46175988055E+03 -0.84965103749E+03 -0.48013041116E+03  0.10796547062E+04  0.25500000920E-02 0.  1.
</event>
<event>
 5   0  0.1039688E-05  0.2510820E+04  0.7818609E-02  0.8399141E-01
        1   -1    0    0  501    0  0.00000000000E+00  0.00000000000E+00  0.18378992418E+04  0.18378992418E+04  0.50400001928E-02 0.  1.
       -1   -1    0    0    0  501  0.00000000000E+00  0.00000000000E+00 -0.85753005640E+03  0.85753005641E+03  0.50400001928E-02 0. -1.
    10030    2    1    2    0    0  0.00000000000E+00  0.00000000000E+00  0.98036918540E+03  0.26954292982E+04  0.25108196594E+04 0.  0.
        3    1    3    3  502    0  0.11936703390E+04 -0.13159434187E+03  0.97374119331E+02  0.12048434248E+04  0.10100000352E+00 0.  1.
       -3    1    3    3    0  502 -0.11936703390E+04  0.13159434187E+03  0.88299506607E+03  0.14905858734E+04  0.10100000352E+00 0. -1.
</event>
<event>
 5   0  0.2441340E-05  0.2452596E+04  0.7818609E-02  0.8420071E-01
        2   -1    0    0  501    0  0.00000000000E+00  0.00000000000E+00  0.20243748152E+04  0.20243748152E+04  0.25500000920E-02 0.  1.
       -2   -1    0    0    0  501  0.00000000000E+00  0.00000000000E+00 -0.74285013802E+03  0.74285013802E+03  0.25500000920E-02 0. -1.
    10030    2    1    2    0    0  0.00000000000E+00  0.00000000000E+00  0.12815246771E+04  0.27672249532E+04  0.24525962659E+04 0.  0.
        3    1    3    3  502    0  0.10324554850E+04 -0.75089937088E+02  0.13825215204E+04  0.17271272656E+04  0.10100000352E+00 0.  1.
       -3    1    3    3    0  502 -0.10324554850E+04  0.75089937088E+02 -0.10099684323E+03  0.10400976876E+04  0.10100000352E+00 0. -1.
</event>
<event>
 5   0  0.2432309E-05  0.2515718E+04  0.7818609E-02  0.8397407E-01
        2   -1    0    0  501    0  0.00000000000E+00  0.00000000000E+00  0.18062097560E+04  0.18062097560E+04  0.25500000920E-02 0.  1.
       -2   -1    0    0    0  501  0.00000000000E+00  0.00000000000E+00 -0.87598311894E+03  0.87598311894E+03  0.25500000920E-02 0. -1.
    10030    2    1    2    0    0  0.00000000000E+00  0.00000000000E+00  0.93022663707E+03  0.26821928750E+04  0.25157179934E+04 0.  0.
        4    1    3    3  502    0  0.18095639044E+03 -0.67353491101E+03  0.15811958290E+04  0.17281713902E+04  0.12699999809E+01 0.  1.
       -4    1    3    3    0  502 -0.18095639044E+03  0.67353491101E+03 -0.65096919190E+03  0.95402148471E+03  0.12699999809E+01 0. -1.
</event>
<event>
 5   0  0.2432309E-05  0.2459006E+04  0.7818609E-02  0.8417737E-01
        2   -1    0    0  501    0  0.00000000000E+00  0.00000000000E+00  0.11191610514E+04  0.11191610514E+04  0.25500000920E-02 0.  1.
       -2   -1    0    0    0  501  0.00000000000E+00  0.00000000000E+00 -0.13507239074E+04  0.13507239074E+04  0.25500000920E-02 0. -1.
    10030    2    1    2    0    0  0.00000000000E+00  0.00000000000E+00 -0.23156285602E+03  0.24698849588E+04  0.24590059686E+04 0.  0.
        4    1    3    3  502    0 -0.14750659072E+03  0.41273590300E+03 -0.12695875574E+04  0.13431170086E+04  0.12699999809E+01 0. -1.
       -4    1    3    3    0  502  0.14750659072E+03 -0.41273590300E+03  0.10380247014E+04  0.11267679502E+04  0.12699999809E+01 0.  1.
</event>
<event>
 5   0  0.1010338E-05  0.2505789E+04  0.7818609E-02  0.8400926E-01
       -1   -1    0    0    0  501  0.00000000000E+00  0.00000000000E+00  0.14339186093E+04  0.14339186093E+04  0.50400001928E-02 0. -1.
        1   -1    0    0  501    0  0.00000000000E+00  0.00000000000E+00 -0.10947237239E+04  0.10947237239E+04  0.50400001928E-02 0.  1.
    10030    2    1    2    0    0  0.00000000000E+00  0.00000000000E+00  0.33919488537E+03  0.25286423333E+04  0.25057890732E+04 0.  0.
        2    1    3    3  502    0  0.55638507894E+03 -0.73080520345E+03  0.10294863436E+04  0.13796676169E+04  0.25500000920E-02 0. -1.
       -2    1    3    3    0  502 -0.55638507894E+03  0.73080520345E+03 -0.69029145825E+03  0.11489747163E+04  0.25500000920E-02 0.  1.
</event>
<event>
 5   0  0.2452457E-05  0.2493050E+04  0.7818609E-02  0.8405466E-01
       -2   -1    0    0    0  501  0.00000000000E+00  0.00000000000E+00  0.82949530192E+03  0.82949530192E+03  0.25500000920E-02 0.  1.
        2   -1    0    0  501    0  0.00000000000E+00  0.00000000000E+00 -0.18732165317E+04  0.18732165317E+04  0.25500000920E-02 0. -1.
    10030    2    1    2    0    0  0.00000000000E+00  0.00000000000E+00 -0.10437212298E+04  0.27027118337E+04  0.24930497890E+04 0.  0.
        1    1    3    3  502    0 -0.97915178326E+03  0.77138495128E+03 -0.51409171645E+03  0.13483557582E+04  0.50400001928E-02 0. -1.
       -1    1    3    3    0  502  0.97915178326E+03 -0.77138495128E+03 -0.52962951337E+03  0.13543560755E+04  0.50400001928E-02 0.  1.
</event>
<event>
 5   0  0.1008073E-05  0.2403477E+04  0.7818609E-02  0.8438203E-01
        1   -1    0    0  501    0  0.00000000000E+00  0.00000000000E+00  0.27926189412E+04  0.27926189412E+04  0.50400001928E-02 0. -1.
       -1   -1    0    0    0  501  0.00000000000E+00  0.00000000000E+00 -0.51713999834E+03  0.51713999836E+03  0.50400001928E-02 0.  1.
    10030    2    1    2    0    0  0.00000000000E+00  0.00000000000E+00  0.22754789428E+04  0.33097589395E+04  0.24034766108E+04 0.  0.
        1    1    3    3  502    0 -0.33532222939E+03 -0.69865349912E+03  0.24025608225E+04  0.25244516662E+04  0.50400001928E-02 0. -1.
       -1    1    3    3    0  502  0.33532222939E+03  0.69865349912E+03 -0.12708187965E+03  0.78530727331E+03  0.50400001928E-02 0.  1.
</event>
<event>
 5   0  0.1002753E-05  0.2483227E+04  0.7818609E-02  0.8408985E-01
       -1   -1    0    0    0  501  0.00000000000E+00  0.00000000000E+00  0.90471663116E+03  0.90471663117E+03  0.50400001928E-02 0.  1.
        1   -1    0    0  501    0  0.00000000000E+00  0.00000000000E+00 -0.17039641055E+04  0.17039641055E+04  0.50400001928E-02 0. -1.
    10030    2    1    2    0    0  0.00000000000E+00  0.00000000000E+00 -0.79924747436E+03  0.26086807367E+04  0.24832274686E+04 0.  0.
        5    1    3    3  502    0 -0.29325330475E+03 -0.42564515484E+03  0.78630674089E+03  0.94099504746E+03  0.46999998093E+01 0.  1.
       -5    1    3    3    0  502  0.29325330475E+03  0.42564515484E+03 -0.15855542153E+04  0.16676856892E+04  0.46999998093E+01 0. -1.
</event>
<event>
 5   0  0.2452457E-05  0.2517714E+04  0.7818609E-02  0.8396702E-01
       -2   -1    0    0    0  501  0.00000000000E+00  0.00000000000E+00  0.13308504569E+04  0.13308504569E+04  0.25500000920E-02 0.  1.
        2   -1    0    0  501    0  0.00000000000E+00  0.00000000000E+00 -0.11907579477E+04  0.11907579477E+04  0.25500000920E-02 0. -1.
    10030    2    1    2    0    0  0.00000000000E+00  0.00000000000E+00  0.14009250925E+03  0.25216084046E+04  0.25177138509E+04 0.  0.
        1    1    3    3  502    0 -0.38178630426E+03  0.85517121320E+03 -0.77246968843E+03  0.12139967074E+04  0.50400001928E-02 0. -1.
       -1    1    3    3    0  502  0.38178630426E+03 -0.85517121320E+03  0.91256219768E+03  0.13076116972E+04  0.50400001928E-02 0.  1.
</event>
<event>
 5   0  0.1002753E-05  0.2506524E+04  0.7818609E-02  0.8400665E-01
       -1   -1    0    0    0  501  0.00000000000E+00  0.00000000000E+00  0.24890385077E+04  0.24890385077E+04  0.50400001928E-02 0. -1.
        1   -1    0    0  501    0  0.00000000000E+00  0.00000000000E+00 -0.63103293903E+03  0.63103293905E+03  0.50400001928E-02 0.  1.
    10030    2    1    2    0    0  0.00000000000E+00  0.00000000000E+00  0.18580055686E+04  0.31200714467E+04  0.25065237161E+04 0.  0.
        5    1    3    3  502    0 -0.88256291461E+03 -0.54945135777E+03  0.18001970597E+04  0.20788327582E+04  0.46999998093E+01 0. -1.
       -5    1    3    3    0  502  0.88256291461E+03  0.54945135777E+03  0.57808508967E+02  0.10412386885E+04  0.46999998093E+01 0.  1.
</event>
<event>
 5   0  0.1002753E-05  0.2504871E+04  0.7818609E-02  0.8401252E-01
        1   -1    0    0  501    0  0.00000000000E+00  0.00000000000E+00  0.17615680230E+04  0.17615680230E+04  0.50400001928E-02 0. -1.
       -1   -1    0    0    0  501  0.00000000000E+00  0.00000000000E+00 -0.89045330113E+03  0.89045330114E+03  0.50400001928E-02 0.  1.
    10030    2    1    2    0    0  0.00000000000E+00  0.00000000000E+00  0.87111472191E+03  0.26520213242E+04  0.25048705047E+04 0.  0.
        5    1    3    3  502    0 -0.10101824604E+04 -0.73607024919E+03  0.35149562965E+03  0.12983987379E+04  0.46999998093E+01 0.  1.
       -5    1    3    3    0  502  0.10101824604E+04  0.73607024919E+03  0.51961909226E+03  0.13536225863E+04  0.46999998093E+01 0. -1.
</event>
<event>
 5   0  0.1015327E-05  0.2499503E+04  0.7818609E-02  0.8403163E-01
        1   -1    0    0  501    0  0.00000000000E+00  0.00000000000E+00  0.69856492493E+03  0.69856492495E+03  0.50400001928E-02 0.  1.
       -1   -1    0    0    0  501  0.00000000000E+00  0.00000000000E+00 -0.22358389164E+04  0.22358389164E+04  0.50400001928E-02 0. -1.
    10030    2    1    2    0    0  0.00000000000E+00  0.00000000000E+00 -0.15372739915E+04  0.29344038414E+04  0.24995028664E+04 0.  0.
        4    1    3    3  502    0  0.31955349957E+02 -0.12392508321E+04 -0.95468191490E+03  0.15646670383E+04  0.12699999809E+01 0. -1.
       -4    1    3    3    0  502 -0.31955349957E+02  0.12392508321E+04 -0.58259207660E+03  0.13697368031E+04  0.12699999809E+01 0.  1.
</event>
<event>
 5   0  0.2345143E-05  0.2489381E+04  0.7818609E-02  0.8406778E-01
        2   -1    0    0  501    0  0.00000000000E+00  0.00000000000E+00  0.11883666551E+04  0.11883666551E+04  0.25500000920E-02 0.  1.
       -2   -1    0    0    0  501  0.00000000000E+00  0.00000000000E+00 -0.13036835759E+04  0.13036835759E+04  0.25500000920E-02 0. -1.
    10030    2    1    2    0    0  0.00000000000E+00  0.00000000000E+00 -0.11531692079E+03  0.24920502310E+04  0.24893807184E+04 0.  0.
        5    1    3    3  502    0 -0.63412588689E+03 -0.37301507585E+03 -0.10627152244E+04  0.12925330268E+04  0.46999998093E+01 0. -1.
       -5    1    3    3    0  502  0.63412588689E+03  0.37301507585E+03  0.94739830364E+03  0.11995172041E+04  0.46999998093E+01 0.  1.
</event>
<event>
 5   0  0.2452457E-05  0.2454076E+04  0.7818609E-02  0.8419531E-01
        2   -1    0    0  501    0  0.00000000000E+00  0.00000000000E+00  0.18362187210E+04  0.18362187210E+04  0.25500000920E-02 0.  1.
       -2   -1    0    0    0  501  0.00000000000E+00  0.00000000000E+00 -0.81995784491E+03  0.81995784491E+03  0.25500000920E-02 0. -1.
    10030    2    1    2    0    0  0.00000000000E+00  0.00000000000E+00  0.10162608761E+04  0.26561765659E+04  0.24540757488E+04 0.  0.
        1    1    3    3  502    0  0.73358854839E+03 -0.14386099443E+03  0.15612849505E+04  0.17310282611E+04  0.50400001928E-02 0.  1.
       -1    1    3    3    0  502 -0.73358854839E+03  0.14386099443E+03 -0.54502407446E+03  0.92514830476E+03  0.50400001928E-02 0. -1.
</event>
<event>
 5   0  0.1010338E-05  0.2415288E+04  0.7818609E-02  0.8433802E-01
        1   -1    0    0  501    0  0.00000000000E+00  0.00000000000E+00  0.19469149491E+04  0.19469149491E+04  0.50400001928E-02 0.  1.
       -1   -1    0    0    0  501  0.00000000000E+00  0.00000000000E+00 -0.74908474911E+03  0.74908474912E+03  0.50400001928E-02 0. -1.
    10030    2    1    2    0    0  0.00000000000E+00  0.00000000000E+00  0.11978302000E+04  0.26959996983E+04  0.24152882199E+04 0.  0.
        2    1    3    3  502    0 -0.19138818851E+03 -0.99400621518E+03 -0.13620594480E+03  0.10213862413E+04  0.25500000920E-02 0. -1.
       -2    1    3    3    0  502  0.19138818851E+03  0.99400621518E+03  0.13340361448E+04  0.16746134570E+04  0.25500000920E-02 0.  1.
</event>
<event>
 5   0  0.1002753E-05  0.2464836E+04  0.7818609E-02  0.8415621E-01
        1   -1    0    0  501    0  0.00000000000E+00  0.00000000000E+00  0.13797826157E+04  0.13797826157E+04  0.50400001928E-02 0. -1.
       -1   -1    0    0    0  501  0.00000000000E+00  0.00000000000E+00 -0.11007923399E+04  0.11007923399E+04  0.50400001928E-02 0.  1.
    10030    2    1    2    0    0  0.00000000000E+00  0.00000000000E+00  0.27899027578E+03  0.24805749556E+04  0.24648360059E+04 0.  0.
        5    1    3    3  502    0  0.11141628642E+04  0.14466917831E+03 -0.37024078789E+03  0.11829574760E+04  0.46999998093E+01 0.  1.
       -5    1    3    3    0  502 -0.11141628642E+04 -0.14466917831E+03  0.64923106367E+03  0.12976174795E+04  0.46999998093E+01 0. -1.
</event>
<event>
 5   0  0.2441340E-05  0.2481048E+04  0.7818609E-02  0.8409769E-01
        2   -1    0    0  501    0  0.00000000000E+00  0.00000000000E+00  0.22607376137E+04  0.22607376137E+04  0.25500000920E-02 0.  1.
       -2   -1    0    0    0  501  0.00000000000E+00  0.00000000000E+00 -0.68070670016E+03  0.68070670017E+03  0.25500000920E-02 0. -1.
    10030    2    1    2    0    0  0.00000000000E+00  0.00000000000E+00  0.15800309135E+04  0.29414443138E+04  0.24810475537E+04 0.  0.
        3    1    3    3  502    0  0.89768129610E+03 -0.78404739320E+03  0.11978520583E+04  0.16897963155E+04  0.10100000352E+00 0. -1.
       -3    1    3    3    0  502 -0.89768129610E+03  0.78404739320E+03  0.38217885524E+03  0.12516479983E+04  0.10100000352E+00 0.  1.
</event>
<event>
 5   0  0.2452457E-05  0.2492871E+04  0.7818609E-02  0.8405530E-01
       -2   -1    0    0    0  501  0.00000000000E+00  0.00000000000E+00  0.95422274719E+03  0.95422274719E+03  0.25500000920E-02 0. -1.
        2   -1    0    0  501    0  0.00000000000E+00  0.00000000000E+00 -0.16281324508E+04  0.16281324508E+04  0.25500000920E-02 0.  1.
    10030    2    1    2    0    0  0.00000000000E+00  0.00000000000E+00 -0.67390970362E+03  0.25823551980E+04  0.24928706505E+04 0.  0.
        1    1    3    3  502    0  0.10515438335E+04  0.56705975790E+03 -0.70509873988E+03  0.13872510356E+04  0.50400001928E-02 0.  1.
       -1    1    3    3    0  502 -0.10515438335E+04 -0.56705975790E+03  0.31189036261E+02  0.11951041624E+04  0.50400001928E-02 0. -1.
</event>
<event>
 5   0  0.8166500E-06  0.2494159E+04  0.7818609E-02  0.8405070E-01
        3   -1    0    0  501    0  0.00000000000E+00  0.00000000000E+00  0.16658823537E+04  0.16658823568E+04  0.10100000352E+00 0.  1.
       -3   -1    0    0    0  501  0.00000000000E+00  0.00000000000E+00 -0.93356337330E+03  0.93356337877E+03  0.10100000352E+00 0. -1.
    10030    2    1    2    0    0  0.00000000000E+00  0.00000000000E+00  0.73231898043E+03  0.25994457356E+04  0.24941585842E+04 0.  0.
        5    1    3    3  502    0  0.90326232107E+03  0.61277595651E+03 -0.26246674607E+03  0.11226255281E+04  0.46999998093E+01 0. -1.
       -5    1    3    3    0  502 -0.90326232107E+03 -0.61277595651E+03  0.99478572649E+03  0.14768202075E+04  0.46999998093E+01 0.  1.
</event>
<event>
 5   0  0.1010338E-05  0.2521236E+04  0.7818609E-02  0.8395459E-01
        1   -1    0    0  501    0  0.00000000000E+00  0.00000000000E+00  0.15715399151E+04  0.15715399151E+04  0.50400001928E-02 0. -1.
       -1   -1    0    0    0  501  0.00000000000E+00  0.00000000000E+00 -0.10112107086E+04  0.10112107086E+04  0.50400001928E-02 0.  1.
    10030    2    1    2    0    0  0.00000000000E+00  0.00000000000E+00  0.56032920655E+03  0.25827506237E+04  0.25212361977E+04 0.  0.
        2    1    3    3  502    0  0.11228779422E+04  0.35980134192E+03  0.73696607412E+03  0.13904786490E+04  0.25500000920E-02 0. -1.
       -2    1    3    3    0  502 -0.11228779422E+04 -0.35980134192E+03 -0.17663686757E+03  0.11922719748E+04  0.25500000920E-02 0.  1.
</event>
<event>
 5   0  0.1002753E-05  0.2499534E+04  0.7818609E-02  0.8403152E-01
       -1   -1    0    0    0  501  0.00000000000E+00  0.00000000000E+00  0.94318672174E+03  0.94318672175E+03  0.50400001928E-02 0.  1.
        1   -1    0    0  501    0  0.00000000000E+00  0.00000000000E+00 -0.16560004036E+04  0.16560004037E+04  0.50400001928E-02 0. -1.
    10030    2    1    2    0    0  0.00000000000E+00  0.00000000000E+00 -0.71281368191E+03  0.25991871254E+04  0.24995340301E+04 0.  0.
        5    1    3    3  502    0  0.42548532466E+03  0.77666208175E+03  0.56059800117E+03  0.10481097078E+04  0.46999998093E+01 0.  1.
       -5    1    3    3    0  502 -0.42548532466E+03 -0.77666208175E+03 -0.12734116831E+04  0.15510774176E+04  0.46999998093E+01 0. -1.
</event>
<event>
 5   0  0.1010338E-05  0.2539908E+04  0.7818609E-02  0.8388905E-01
        1   -1    0    0  501    0  0.00000000000E+00  0.00000000000E+00  0.19274400142E+04  0.19274400142E+04  0.50400001928E-02 0.  1.
       -1   -1    0    0    0  501  0.00000000000E+00  0.00000000000E+00 -0.83674850855E+03  0.83674850857E+03  0.50400001928E-02 0. -1.
    10030    2    1    2    0    0  0.00000000000E+00  0.00000000000E+00  0.10906915057E+04  0.27641885228E+04  0.25399075237E+04 0.  0.
        2    1    3    3  502    0 -0.14655400271E+03  0.10966679291E+03  0.19130084542E+04  0.19217456197E+04  0.25500000920E-02 0.  1.
       -2    1    3    3    0  502  0.14655400271E+03 -0.10966679291E+03 -0.82231694849E+03  0.84244290309E+03  0.25500000920E-02 0. -1.
</event>
<event>
 5   0  0.1002753E-05  0.2504613E+04  0.7818609E-02  0.8401344E-01
       -1   -1    0    0    0  501  0.00000000000E+00  0.00000000000E+00  0.13734681112E+04  0.13734681112E+04  0.50400001928E-02 0. -1.
        1   -1    0    0  501    0  0.00000000000E+00  0.00000000000E+00 -0.11418330089E+04  0.11418330089E+04  0.50400001928E-02 0.  1.
    10030    2    1    2    0    0  0.00000000000E+00  0.00000000000E+00  0.23163510230E+03  0.25153011202E+04  0.25046127255E+04 0.  0.
        5    1    3    3  502    0 -0.57565754487E+01  0.55130377627E+03  0.12450180467E+04  0.13616390926E+04  0.46999998093E+01 0. -1.
       -5    1    3    3    0  502  0.57565754487E+01 -0.55130377627E+03 -0.10133829444E+04  0.11536620276E+04  0.46999998093E+01 0.  1.
</event>
<event>
 5   0  0.1010338E-05  0.2492422E+04  0.7818609E-02  0.8405690E-01
        1   -1    0    0  501    0  0.00000000000E+00  0.00000000000E+00  0.24615212187E+04  0.24615212188E+04  0.50400001928E-02 0.  1.
       -1   -1    0    0    0  501  0.00000000000E+00  0.00000000000E+00 -0.63092742785E+03  0.63092742787E+03  0.50400001928E-02 0. -1.
    10030    2    1    2    0    0  0.00000000000E+00  0.00000000000E+00  0.18305937909E+04  0.30924486466E+04  0.24924215143E+04 0.  0.
        2    1    3    3  502    0 -0.54820095482E+03 -0.87970165198E+03  0.56903450067E+02  0.10380931008E+04  0.25500000920E-02 0. -1.
       -2    1    3    3    0  502  0.54820095482E+03  0.87970165198E+03  0.17736903408E+04  0.20543555458E+04  0.25500000920E-02 0.  1.
</event>
<event>
 5   0  0.2441340E-05  0.2513012E+04  0.7818609E-02  0.8398365E-01
       -2   -1    0    0    0  501  0.00000000000E+00  0.00000000000E+00  0.62502583271E+03  0.62502583271E+03  0.25500000920E-02 0. -1.
        2   -1    0    0  501    0  0.00000000000E+00  0.00000000000E+00 -0.25259876926E+04  0.25259876926E+04  0.25500000920E-02 0.  1.
    10030    2    1    2    0    0  0.00000000000E+00  0.00000000000E+00 -0.19009618598E+04  0.31510135253E+04  0.25130121854E+04 0.  0.
        3    1    3    3  502    0  0.92165254245E+03 -0.28489792053E+03 -0.19599878197E+04  0.21845279805E+04  0.10100000352E+00 0. -1.
       -3    1    3    3    0  502 -0.92165254245E+03  0.28489792053E+03  0.59025959813E+02  0.96648554477E+03  0.10100000352E+00 0.  1.
</event>
<event>
 5   0  0.2388326E-05  0.2493687E+04  0.7818609E-02  0.8405238E-01
        2   -1    0    0  501    0  0.00000000000E+00  0.00000000000E+00  0.14617844873E+04  0.14617844873E+04  0.25500000920E-02 0.  1.
       -2   -1    0    0    0  501  0.00000000000E+00  0.00000000000E+00 -0.10635078531E+04  0.10635078531E+04  0.25500000920E-02 0. -1.
    10030    2    1    2    0    0  0.00000000000E+00  0.00000000000E+00  0.39827663421E+03  0.25252923404E+04  0.24936874558E+04 0.  0.
        2    1    3    3  502    0  0.44760261521E+03 -0.91562030902E+03  0.92651081980E+03  0.13773637685E+04  0.25500000920E-02 0.  1.
       -2    1    3    3    0  502 -0.44760261521E+03  0.91562030902E+03 -0.52823418559E+03  0.11479285719E+04  0.25500000920E-02 0. -1.
</event>
<event>
 5   0  0.2452457E-05  0.2660847E+04  0.7818609E-02  0.8347822E-01
        2   -1    0    0  501    0  0.00000000000E+00  0.00000000000E+00  0.14123978580E+04  0.14123978580E+04  0.25500000920E-02 0. -1.
       -2   -1    0    0    0  501  0.00000000000E+00  0.00000000000E+00 -0.12532066550E+04  0.12532066550E+04  0.25500000920E-02 0.  1.
    10030    2    1    2    0    0  0.00000000000E+00  0.00000000000E+00  0.15919120298E+03  0.26656045130E+04  0.26608467789E+04 0.  0.
        1    1    3    3  502    0  0.88246547309E+03 -0.77830045075E+03 -0.54242483144E+03  0.12956548926E+04  0.50400001928E-02 0.  1.
       -1    1    3    3    0  502 -0.88246547309E+03  0.77830045075E+03  0.70161603443E+03  0.13699496205E+04  0.50400001928E-02 0. -1.
</event>
<event>
 5   0  0.1010338E-05  0.2518020E+04  0.7818609E-02  0.8396594E-01
        1   -1    0    0  501    0  0.00000000000E+00  0.00000000000E+00  0.14495959084E+04  0.14495959084E+04  0.50400001928E-02 0.  1.
       -1   -1    0    0    0  501  0.00000000000E+00  0.00000000000E+00 -0.10934815208E+04  0.10934815208E+04  0.50400001928E-02 0. -1.
    10030    2    1    2    0    0  0.00000000000E+00  0.00000000000E+00  0.35611438756E+03  0.25430774292E+04  0.25180201258E+04 0.  0.
        2    1    3    3  502    0  0.65055186048E+03 -0.10138076689E+04  0.54787399646E+03  0.13233252165E+04  0.25500000920E-02 0.  1.
       -2    1    3    3    0  502 -0.65055186048E+03  0.10138076689E+04 -0.19175960891E+03  0.12197522127E+04  0.25500000920E-02 0. -1.
</event>
<event>
 5   0  0.2432309E-05  0.2511117E+04  0.7818609E-02  0.8399036E-01
        2   -1    0    0  501    0  0.00000000000E+00  0.00000000000E+00  0.86841227959E+03  0.86841227959E+03  0.25500000920E-02 0. -1.
       -2   -1    0    0    0  501  0.00000000000E+00  0.00000000000E+00 -0.18152981267E+04  0.18152981267E+04  0.25500000920E-02 0.  1.
    10030    2    1    2    0    0  0.00000000000E+00  0.00000000000E+00 -0.94688584711E+03  0.26837104063E+04  0.25111170298E+04 0.  0.
        4    1    3    3  502    0  0.75169583144E+03 -0.74237157821E+03  0.25161367949E+03  0.10860355610E+04  0.12699999809E+01 0. -1.
       -4    1    3    3    0  502 -0.75169583144E+03  0.74237157821E+03 -0.11984995266E+04  0.15976748453E+04  0.12699999809E+01 0.  1.
</event>
<event>
 5   0  0.1008073E-05  0.2459532E+04  0.7818609E-02  0.8417546E-01
        1   -1    0    0  501    0  0.00000000000E+00  0.00000000000E+00  0.12800508841E+04  0.12800508841E+04  0.50400001928E-02 0.  1.
       -1   -1    0    0    0  501  0.00000000000E+00  0.00000000000E+00 -0.11814562113E+04  0.11814562113E+04  0.50400001928E-02 0. -1.
    10030    2    1    2    0    0  0.00000000000E+00  0.00000000000E+00  0.98594672880E+02  0.24615070954E+04  0.24595317179E+04 0.  0.
        1    1    3    3  502    0 -0.99817928652E+03 -0.13792303370E+03 -0.65620813677E+03  0.12024948108E+04  0.50400001928E-02 0. -1.
       -1    1    3    3    0  502  0.99817928652E+03  0.13792303370E+03  0.75480280965E+03  0.12590122846E+04  0.50400001928E-02 0.  1.
</event>
<event>
 5   0  0.1015327E-05  0.2506027E+04  0.7818609E-02  0.8400842E-01
        1   -1    0    0  501    0  0.00000000000E+00  0.00000000000E+00  0.17391161674E+04  0.17391161674E+04  0.50400001928E-02 0. -1.
       -1   -1    0    0    0  501  0.00000000000E+00  0.00000000000E+00 -0.90278195537E+03  0.90278195539E+03  0.50400001928E-02 0.  1.
    10030    2    1    2    0    0  0.00000000000E+00  0.00000000000E+00  0.83633421202E+03  0.26418981228E+04  0.25060268907E+04 0.  0.
        4    1    3    3  502    0 -0.38453026329E+03  0.39852999011E+03 -0.76676215243E+03  0.94584115352E+03  0.12699999809E+01 0.  1.
       -4    1    3    3    0  502  0.38453026329E+03 -0.39852999011E+03  0.16030963644E+04  0.16960569693E+04  0.12699999809E+01 0. -1.
</event>
<event>
 5   0  0.2441340E-05  0.2519739E+04  0.7818609E-02  0.8395987E-01
       -2   -1    0    0    0  501  0.00000000000E+00  0.00000000000E+00  0.11878382799E+04  0.11878382799E+04  0.25500000920E-02 0. -1.
        2   -1    0    0  501    0  0.00000000000E+00  0.00000000000E+00 -0.13362690842E+04  0.13362690843E+04  0.25500000920E-02 0.  1.
    10030    2    1    2    0    0  0.00000000000E+00  0.00000000000E+00 -0.14843080438E+03  0.25241073641E+04  0.25197393282E+04 0.  0.
        3    1    3    3  502    0  0.66124878264E+03  0.95315031454E+03 -0.56652038428E+03  0.12910038074E+04  0.10100000352E+00 0.  1.
       -3    1    3    3    0  502 -0.66124878264E+03 -0.95315031454E+03  0.41808957990E+03  0.12331035568E+04  0.10100000352E+00 0. -1.
</event>
<event>
 5   0  0.1002753E-05  0.2509429E+04  0.7818609E-02  0.8399634E-01
       -1   -1    0    0    0  501  0.00000000000E+00  0.00000000000E+00  0.10743302183E+04  0.10743302183E+04  0.50400001928E-02 0.  1.
        1   -1    0    0  501    0  0.00000000000E+00  0.00000000000E+00 -0.14653861172E+04  0.14653861172E+04  0.50400001928E-02 0. -1.
    10030    2    1    2    0    0  0.00000000000E+00  0.00000000000E+00 -0.39105589894E+03  0.25397163355E+04  0.25094290882E+04 0.  0.
        5    1    3    3  502    0  0.65858842841E+03  0.70635570135E+02 -0.12740152133E+04  0.14359195505E+04  0.46999998093E+01 0. -1.
       -5    1    3    3    0  502 -0.65858842841E+03 -0.70635570135E+02  0.88295931436E+03  0.11037967850E+04  0.46999998093E+01 0.  1.
</event>
<event>
 5   0  0.2441340E-05  0.2490645E+04  0.7818609E-02  0.8406326E-01
        2   -1    0    0  501    0  0.00000000000E+00  0.00000000000E+00  0.22287070310E+04  0.22287070310E+04  0.25500000920E-02 0.  1.
       -2   -1    0    0    0  501  0.00000000000E+00  0.00000000000E+00 -0.69584204964E+03  0.69584204964E+03  0.25500000920E-02 0. -1.
    10030    2    1    2    0    0  0.00000000000E+00  0.00000000000E+00  0.15328649813E+04  0.29245490806E+04  0.24906449514E+04 0.  0.
        3    1    3    3  502    0  0.34408776324E+03  0.11481730452E+04  0.36974580491E+03  0.12543562895E+04  0.10100000352E+00 0. -1.
       -3    1    3    3    0  502 -0.34408776324E+03 -0.11481730452E+04  0.11631191764E+04  0.16701927911E+04  0.10100000352E+00 0.  1.
</event>
<event>
 5   0  0.1015327E-05  0.2504697E+04  0.7818609E-02  0.8401314E-01
        1   -1    0    0  501    0  0.00000000000E+00  0.00000000000E+00  0.12268076793E+04  0.12268076793E+04  0.50400001928E-02 0. -1.
       -1   -1    0    0    0  501  0.00000000000E+00  0.00000000000E+00 -0.12784214932E+04  0.12784214932E+04  0.50400001928E-02 0.  1.
    10030    2    1    2    0    0  0.00000000000E+00  0.00000000000E+00 -0.51613813925E+02  0.25052291725E+04  0.25046974310E+04 0.  0.
        4    1    3    3  502    0 -0.11464479255E+04 -0.24935829327E+03 -0.46391049823E+03  0.12616405857E+04  0.12699999809E+01 0. -1.
       -4    1    3    3    0  502  0.11464479255E+04  0.24935829327E+03  0.41229668431E+03  0.12435885867E+04  0.12699999809E+01 0.  1.
</event>
<event>
 5   0  0.1002753E-05  0.2502106E+04  0.7818609E-02  0.8402236E-01
       -1   -1    0    0    0  501  0.00000000000E+00  0.00000000000E+00  0.75438900419E+03  0.75438900420E+03  0.50400001928E-02 0.  1.
        1   -1    0    0  501    0  0.00000000000E+00  0.00000000000E+00 -0.20747038885E+04  0.20747038886E+04  0.50400001928E-02 0. -1.
    10030    2    1    2    0    0  0.00000000000E+00  0.00000000000E+00 -0.13203148844E+04  0.28290928928E+04  0.25021061532E+04 0.  0.
        5    1    3    3  502    0 -0.38020282964E+02 -0.11304677480E+04 -0.55786862272E+02  0.11324915607E+04  0.46999998093E+01 0.  1.
       -5    1    3    3    0  502  0.38020282964E+02  0.11304677480E+04 -0.12645280221E+04  0.16966013320E+04  0.46999998093E+01 0. -1.
</event>
<event>
 5   0  0.2345143E-05  0.2513304E+04  0.7818609E-02  0.8398261E-01
        2   -1    0    0  501    0  0.00000000000E+00  0.00000000000E+00  0.10350623538E+04  0.10350623538E+04  0.25500000920E-02 0. -1.
       -2   -1    0    0    0  501  0.00000000000E+00  0.00000000000E+00 -0.15256802663E+04  0.15256802663E+04  0.25500000920E-02 0.  1.
    10030    2    1    2    0    0  0.00000000000E+00  0.00000000000E+00 -0.49061791251E+03  0.25607426202E+04  0.25133039670E+04 0.  0.
        5    1    3    3  502    0  0.26924992665E+03 -0.42496607335E+03  0.92797348459E+03  0.10555797292E+04  0.46999998093E+01 0. -1.
       -5    1    3    3    0  502 -0.26924992665E+03  0.42496607335E+03 -0.14185913971E+04  0.15051628910E+04  0.46999998093E+01 0.  1.
</event>
<event>
 5   0  0.1008073E-05  0.2440028E+04  0.7818609E-02  0.8424668E-01
       -1   -1    0    0    0  501  0.00000000000E+00  0.00000000000E+00  0.65785866199E+03  0.65785866201E+03  0.50400001928E-02 0. -1.
        1   -1    0    0  501    0  0.00000000000E+00  0.00000000000E+00 -0.22625440419E+04  0.22625440419E+04  0.50400001928E-02 0.  1.
    10030    2    1    2    0    0  0.00000000000E+00  0.00000000000E+00 -0.16046853799E+04  0.29204027039E+04  0.24400280295E+04 0.  0.
        1    1    3    3  502    0 -0.66707914381E+03 -0.70527413564E+03 -0.16867562357E+04  0.19461636081E+04  0.50400001928E-02 0.  1.
       -1    1    3    3    0  502  0.66707914381E+03  0.70527413564E+03  0.82070855826E+02  0.97423909586E+03  0.50400001928E-02 0. -1.
</event>
<event>
 5   0  0.2345143E-05  0.2472747E+04  0.7818609E-02  0.8412759E-01
        2   -1    0    0  501    0  0.00000000000E+00  0.00000000000E+00  0.80700667708E+03  0.80700667709E+03  0.25500000920E-02 0.  1.
       -2   -1    0    0    0  501  0.00000000000E+00  0.00000000000E+00 -0.18941839106E+04  0.18941839106E+04  0.25500000920E-02 0. -1.
    10030    2    1    2    0    0  0.00000000000E+00  0.00000000000E+00 -0.10871772336E+04  0.27011905877E+04  0.24727467024E+04 0.  0.
        5    1    3    3  502    0 -0.90483771676E+03 -0.57397406760E+03  0.13017406518E+03  0.10794187793E+04  0.46999998093E+01 0.  1.
       -5    1    3    3    0  502  0.90483771676E+03  0.57397406760E+03 -0.12173512987E+04  0.16217718084E+04  0.46999998093E+01 0. -1.
</event>
<event>
 5   0  0.1010338E-05  0.2229479E+04  0.7818609E-02  0.8506258E-01
       -1   -1    0    0    0  501  0.00000000000E+00  0.00000000000E+00  0.67162095189E+03  0.67162095190E+03  0.50400001928E-02 0.  1.
        1   -1    0    0  501    0  0.00000000000E+00  0.00000000000E+00 -0.18502165989E+04  0.18502165989E+04  0.50400001928E-02 0. -1.
    10030    2    1    2    0    0  0.00000000000E+00  0.00000000000E+00 -0.11785956470E+04  0.25218375508E+04  0.22294790722E+04 0.  0.
        2    1    3    3  502    0  0.86943704254E+03  0.10506464746E+02  0.19975412179E+03  0.89215069686E+03  0.25500000920E-02 0.  1.
       -2    1    3    3    0  502 -0.86943704254E+03 -0.10506464746E+02 -0.13783497688E+04  0.16296868539E+04  0.25500000920E-02 0. -1.
</event>
<event>
 5   0  0.1039688E-05  0.2502255E+04  0.7818609E-02  0.8402183E-01
        1   -1    0    0  501    0  0.00000000000E+00  0.00000000000E+00  0.17068567343E+04  0.17068567343E+04  0.50400001928E-02 0. -1.
       -1   -1    0    0    0  501  0.00000000000E+00  0.00000000000E+00 -0.91707750092E+03  0.91707750094E+03  0.50400001928E-02 0.  1.
    10030    2    1    2    0    0  0.00000000000E+00  0.00000000000E+00  0.78977923338E+03  0.26239342353E+04  0.25022549098E+04 0.  0.
        3    1    3    3  502    0  0.64197163835E+03 -0.63954890728E+03  0.12994911752E+04  0.15842435778E+04  0.10100000352E+00 0. -1.
       -3    1    3    3    0  502 -0.64197163835E+03  0.63954890728E+03 -0.50971194184E+03  0.10396906574E+04  0.10100000352E+00 0.  1.
</event>
<event>
 5   0  0.1002753E-05  0.2481517E+04  0.7818609E-02  0.8409600E-01
       -1   -1    0    0    0  501  0.00000000000E+00  0.00000000000E+00  0.67352387260E+03  0.67352387262E+03  0.50400001928E-02 0. -1.
        1   -1    0    0  501    0  0.00000000000E+00  0.00000000000E+00 -0.22857123753E+04  0.22857123753E+04  0.50400001928E-02 0.  1.
    10030    2    1    2    0    0  0.00000000000E+00  0.00000000000E+00 -0.16121885027E+04  0.29592362479E+04  0.24815171575E+04 0.  0.
        5    1    3    3  502    0 -0.10536918523E+04 -0.35768980010E+03 -0.14606200709E+04  0.18362030373E+04  0.46999998093E+01 0.  1.
       -5    1    3    3    0  502  0.10536918523E+04  0.35768980010E+03 -0.15156843175E+03  0.11230332106E+04  0.46999998093E+01 0. -1.
</event>
<event>
 5   0  0.2388326E-05  0.2508101E+04  0.7818609E-02  0.8400105E-01
        2   -1    0    0  501    0  0.00000000000E+00  0.00000000000E+00  0.19867289610E+04  0.19867289610E+04  0.25500000920E-02 0. -1.
       -2   -1    0    0    0  501  0.00000000000E+00  0.00000000000E+00 -0.79157403029E+03  0.79157403030E+03  0.25500000920E-02 0.  1.
    10030    2    1    2    0    0  0.00000000000E+00  0.00000000000E+00  0.11951549307E+04  0.27783029913E+04  0.25081013144E+04 0.  0.
        2    1    3    3  502    0  0.10785325629E+04 -0.39606000050E+03  0.40897399456E+02  0.11496819606E+04  0.25500000920E-02 0.  1.
       -2    1    3    3    0  502 -0.10785325629E+04  0.39606000050E+03  0.11542575313E+04  0.16286210307E+04  0.25500000920E-02 0. -1.
</event>
<event>
 5   0  0.2452457E-05  0.2515700E+04  0.7818609E-02  0.8397414E-01
        2   -1    0    0  501    0  0.00000000000E+00  0.00000000000E+00  0.12129432149E+04  0.12129432149E+04  0.25500000920E-02 0.  1.
       -2   -1    0    0    0  501  0.00000000000E+00  0.00000000000E+00 -0.13044189036E+04  0.13044189036E+04  0.25500000920E-02 0. -1.
    10030    2    1    2    0    0  0.00000000000E+00  0.00000000000E+00 -0.91475688739E+02  0.25173621185E+04  0.25156995517E+04 0.  0.
        1    1    3    3  502    0 -0.59127787026E+03  0.33208695516E+03 -0.11058221239E+04  0.12972023109E+04  0.50400001928E-02 0. -1.
       -1    1    3    3    0  502  0.59127787026E+03 -0.33208695516E+03  0.10143464352E+04  0.12201598076E+04  0.50400001928E-02 0.  1.
</event>
<event>
 5   0  0.1008073E-05  0.2519214E+04  0.7818609E-02  0.8396172E-01
        1   -1    0    0  501    0  0.00000000000E+00  0.00000000000E+00  0.12585510396E+04  0.12585510396E+04  0.50400001928E-02 0.  1.
       -1   -1    0    0    0  501  0.00000000000E+00  0.00000000000E+00 -0.12606637058E+04  0.12606637058E+04  0.50400001928E-02 0. -1.
    10030    2    1    2    0    0  0.00000000000E+00  0.00000000000E+00 -0.21126661811E+01  0.25192147454E+04  0.25192138596E+04 0.  0.
        1    1    3    3  502    0  0.67569399106E+03 -0.88353282433E+03  0.59005891969E+03  0.12591116511E+04  0.50400001928E-02 0.  1.
       -1    1    3    3    0  502 -0.67569399106E+03  0.88353282433E+03 -0.59217158587E+03  0.12601030943E+04  0.50400001928E-02 0. -1.
</event>
<event>
 5   0  0.1039688E-05  0.2319991E+04  0.7818609E-02  0.8470080E-01
        1   -1    0    0  501    0  0.00000000000E+00  0.00000000000E+00  0.10586502863E+04  0.10586502864E+04  0.50400001928E-02 0. -1.
       -1   -1    0    0    0  501  0.00000000000E+00  0.00000000000E+00 -0.12710425880E+04  0.12710425880E+04  0.50400001928E-02 0.  1.
    10030    2    1    2    0    0  0.00000000000E+00  0.00000000000E+00 -0.21239230163E+03  0.23296928743E+04  0.23199910342E+04 0.  0.
        3    1    3    3  502    0 -0.71562490088E+03  0.71456260418E+03  0.46439732349E+03  0.11128268501E+04  0.10100000352E+00 0. -1.
       -3    1    3    3    0  502  0.71562490088E+03 -0.71456260418E+03 -0.67678962513E+03  0.12168660242E+04  0.10100000352E+00 0.  1.
</event>
<event>
 5   0  0.1039688E-05  0.2404841E+04  0.7818609E-02  0.8437694E-01
        1   -1    0    0  501    0  0.00000000000E+00  0.00000000000E+00  0.13013718016E+04  0.13013718016E+04  0.50400001928E-02 0.  1.
       -1   -1    0    0    0  501  0.00000000000E+00  0.00000000000E+00 -0.11109926703E+04  0.11109926703E+04  0.50400001928E-02 0. -1.
    10030    2    1    2    0    0  0.00000000000E+00  0.00000000000E+00  0.19037913128E+03  0.24123644719E+04  0.24048405627E+04 0.  0.
        3    1    3    3  502    0  0.11648447701E+04 -0.36582613629E+02 -0.20173125697E+03  0.11827498198E+04  0.10100000352E+00 0. -1.
       -3    1    3    3    0  502 -0.11648447701E+04  0.36582613629E+02  0.39211038825E+03  0.12296146521E+04  0.10100000352E+00 0.  1.
</event>
<event>
 5   0  0.1015327E-05  0.2487086E+04  0.7818609E-02  0.8407601E-01
       -1   -1    0    0    0  501  0.00000000000E+00  0.00000000000E+00  0.14725526651E+04  0.14725526651E+04  0.50400001928E-02 0. -1.
        1   -1    0    0  501    0  0.00000000000E+00  0.00000000000E+00 -0.10501488168E+04  0.10501488168E+04  0.50400001928E-02 0.  1.
    10030    2    1    2    0    0  0.00000000000E+00  0.00000000000E+00  0.42240384834E+03  0.25227014819E+04  0.24870861979E+04 0.  0.
        4    1    3    3  502    0 -0.69280826703E+03  0.13058213592E+03 -0.82785146857E+03  0.10873705238E+04  0.12699999809E+01 0.  1.
       -4    1    3    3    0  502  0.69280826703E+03 -0.13058213592E+03  0.12502553169E+04  0.14353309582E+04  0.12699999809E+01 0. -1.
</event>
<event>
 5   0  0.2452457E-05  0.2491612E+04  0.7818609E-02  0.8405980E-01
       -2   -1    0    0    0  501  0.00000000000E+00  0.00000000000E+00  0.80028077158E+03  0.80028077159E+03  0.25500000920E-02 0.  1.
        2   -1    0    0  501    0  0.00000000000E+00  0.00000000000E+00 -0.19393606366E+04  0.19393606366E+04  0.25500000920E-02 0. -1.
    10030    2    1    2    0    0  0.00000000000E+00  0.00000000000E+00 -0.11390798650E+04  0.27396414082E+04  0.24916123508E+04 0.  0.
        1    1    3    3  502    0 -0.25129204426E+03 -0.80630419731E+03 -0.15765453602E+04  0.17885103922E+04  0.50400001928E-02 0. -1.
       -1    1    3    3    0  502  0.25129204426E+03  0.80630419731E+03  0.43746549519E+03  0.95113101601E+03  0.50400001928E-02 0.  1.
</event>
<event>
 5   0  0.2441340E-05  0.2228667E+04  0.7818609E-02  0.8506590E-01
        2   -1    0    0  501    0  0.00000000000E+00  0.00000000000E+00  0.15576292474E+04  0.15576292474E+04  0.25500000920E-02 0.  1.
       -2   -1    0    0    0  501  0.00000000000E+00  0.00000000000E+00 -0.79719792849E+03  0.79719792849E+03  0.25500000920E-02 0. -1.
    10030    2    1    2    0    0  0.00000000000E+00  0.00000000000E+00  0.76043131891E+03  0.23548271759E+04  0.22286666950E+04 0.  0.
        3    1    3    3  502    0 -0.73010939316E+03 -0.14893894540E+03  0.12556690016E+04  0.14601188949E+04  0.10100000352E+00 0.  1.
       -3    1    3    3    0  502  0.73010939316E+03  0.14893894540E+03 -0.49523768272E+03  0.89470828097E+03  0.10100000352E+00 0. -1.
</event>
<event>
 5   0  0.1039688E-05  0.2515084E+04  0.7818609E-02  0.8397632E-01
        1   -1    0    0  501    0  0.00000000000E+00  0.00000000000E+00  0.75937783201E+03  0.75937783203E+03  0.50400001928E-02 0. -1.
       -1   -1    0    0    0  501  0.00000000000E+00  0.00000000000E+00 -0.20825092683E+04  0.20825092683E+04  0.50400001928E-02 0.  1.
    10030    2    1    2    0    0  0.00000000000E+00  0.00000000000E+00 -0.13231314363E+04  0.28418871004E+04  0.25150835957E+04 0.  0.
        3    1    3    3  502    0  0.10919283874E+04  0.32731553949E+03 -0.12615702590E+04  0.17002948551E+04  0.10100000352E+00 0.  1.
       -3    1    3    3    0  502 -0.10919283874E+04 -0.32731553949E+03 -0.61561177321E+02  0.11415922453E+04  0.10100000352E+00 0. -1.
</event>
<event>
 5   0  0.2432309E-05  0.2472775E+04  0.7818609E-02  0.8412749E-01
        2   -1    0    0  501    0  0.00000000000E+00  0.00000000000E+00  0.15148871332E+04  0.15148871332E+04  0.25500000920E-02 0.  1.
       -2   -1    0    0    0  501  0.00000000000E+00  0.00000000000E+00 -0.10090877286E+04  0.10090877286E+04  0.25500000920E-02 0. -1.
    10030    2    1    2    0    0  0.00000000000E+00  0.00000000000E+00  0.50579940460E+03  0.25239748617E+04  0.24727749726E+04 0.  0.
        4    1    3    3  502    0 -0.41193067938E+03 -0.50170684371E+03  0.13269494639E+04  0.14772248083E+04  0.12699999809E+01 0.  1.
       -4    1    3    3    0  502  0.41193067938E+03  0.50170684371E+03 -0.82115005928E+03  0.10467500534E+04  0.12699999809E+01 0. -1.
</event>
<event>
 5   0  0.1039688E-05  0.2516490E+04  0.7818609E-02  0.8397134E-01
       -1   -1    0    0    0  501  0.00000000000E+00  0.00000000000E+00  0.87964366909E+03  0.87964366910E+03  0.50400001928E-02 0. -1.
        1   -1    0    0  501    0  0.00000000000E+00  0.00000000000E+00 -0.17997970407E+04  0.17997970407E+04  0.50400001928E-02 0.  1.
    10030    2    1    2    0    0  0.00000000000E+00  0.00000000000E+00 -0.92015337157E+03  0.26794407098E+04  0.25164896761E+04 0.  0.
        3    1    3    3  502    0 -0.69311055281E+03 -0.20398580305E+03 -0.15569109082E+04  0.17163869122E+04  0.10100000352E+00 0.  1.
       -3    1    3    3    0  502  0.69311055281E+03  0.20398580305E+03  0.63675753663E+03  0.96305379752E+03  0.10100000352E+00 0. -1.
</event>
<event>
 5   0  0.1039688E-05  0.2500243E+04  0.7818609E-02  0.8402899E-01
       -1   -1    0    0    0  501  0.00000000000E+00  0.00000000000E+00  0.84198642662E+03  0.84198642663E+03  0.50400001928E-02 0. -1.
        1   -1    0    0  501    0  0.00000000000E+00  0.00000000000E+00 -0.18560918423E+04  0.18560918423E+04  0.50400001928E-02 0.  1.
    10030    2    1    2    0    0  0.00000000000E+00  0.00000000000E+00 -0.10141054157E+04  0.26980782689E+04  0.25002432984E+04 0.  0.
        3    1    3    3  502    0  0.47667723390E+03  0.70287095617E+03 -0.14970035232E+04  0.17211241457E+04  0.10100000352E+00 0.  1.
       -3    1    3    3    0  502 -0.47667723390E+03 -0.70287095617E+03  0.48289810753E+03  0.97695412319E+03  0.10100000352E+00 0. -1.
</event>
<event>
 5   0  0.2345143E-05  0.2503360E+04  0.7818609E-02  0.8401790E-01
       -2   -1    0    0    0  501  0.00000000000E+00  0.00000000000E+00  0.16838028510E+04  0.16838028510E+04  0.25500000920E-02 0. -1.
        2   -1    0    0  501    0  0.00000000000E+00  0.00000000000E+00 -0.93045492505E+03  0.93045492505E+03  0.25500000920E-02 0.  1.
    10030    2    1    2    0    0  0.00000000000E+00  0.00000000000E+00  0.75334792598E+03  0.26142577761E+04  0.25033598667E+04 0.  0.
        5    1    3    3  502    0 -0.93079763681E+03  0.41755294093E+03 -0.38067432173E+03  0.10888846258E+04  0.46999998093E+01 0.  1.
       -5    1    3    3    0  502  0.93079763681E+03 -0.41755294093E+03  0.11340222477E+04  0.15253731502E+04  0.46999998093E+01 0. -1.
</event>
<event>
 5   0  0.1015327E-05  0.2502378E+04  0.7818609E-02  0.8402139E-01
       -1   -1    0    0    0  501  0.00000000000E+00  0.00000000000E+00  0.10095876005E+04  0.10095876005E+04  0.50400001928E-02 0.  1.
        1   -1    0    0  501    0  0.00000000000E+00  0.00000000000E+00 -0.15506074494E+04  0.15506074494E+04  0.50400001928E-02 0. -1.
    10030    2    1    2    0    0  0.00000000000E+00  0.00000000000E+00 -0.54101984886E+03  0.25601950499E+04  0.25023781122E+04 0.  0.
        4    1    3    3  502    0  0.11488687688E+04 -0.17454849067E+03 -0.74502083086E+03  0.13803710642E+04  0.12699999809E+01 0.  1.
       -4    1    3    3    0  502 -0.11488687688E+04  0.17454849067E+03  0.20400098199E+03  0.11798239857E+04  0.12699999809E+01 0. -1.
</event>
<event>
 5   0  0.1039688E-05  0.2416270E+04  0.7818609E-02  0.8433437E-01
       -1   -1    0    0    0  501  0.00000000000E+00  0.00000000000E+00  0.68201215218E+03  0.68201215220E+03  0.50400001928E-02 0. -1.
        1   -1    0    0  501    0  0.00000000000E+00  0.00000000000E+00 -0.21401235441E+04  0.21401235441E+04  0.50400001928E-02 0.  1.
    10030    2    1    2    0    0  0.00000000000E+00  0.00000000000E+00 -0.14581113919E+04  0.28221356963E+04  0.24162700712E+04 0.  0.
        3    1    3    3  502    0 -0.29163196846E+03 -0.55292277757E+03  0.47843609104E+03  0.78719369051E+03  0.10100000352E+00 0. -1.
       -3    1    3    3    0  502  0.29163196846E+03  0.55292277757E+03 -0.19365474829E+04  0.20349420057E+04  0.10100000352E+00 0.  1.
</event>
<event>
 5   0  0.2388326E-05  0.2551779E+04  0.7818609E-02  0.8384768E-01
        2   -1    0    0  501    0  0.00000000000E+00  0.00000000000E+00  0.15334047506E+04  0.15334047506E+04  0.25500000920E-02 0. -1.
       -2   -1    0    0    0  501  0.00000000000E+00  0.00000000000E+00 -0.10616207024E+04  0.10616207024E+04  0.25500000920E-02 0.  1.
    10030    2    1    2    0    0  0.00000000000E+00  0.00000000000E+00  0.47178404817E+03  0.25950254530E+04  0.25517791664E+04 0.  0.
        2    1    3    3  502    0  0.18815455115E+03  0.72469680507E+03 -0.81472186775E+03  0.11065077118E+04  0.25500000920E-02 0.  1.
       -2    1    3    3    0  502 -0.18815455115E+03 -0.72469680507E+03  0.12865059159E+04  0.14885177413E+04  0.25500000920E-02 0. -1.
</event>
<event>
 5   0  0.1008073E-05  0.2511865E+04  0.7818609E-02  0.8398771E-01
       -1   -1    0    0    0  501  0.00000000000E+00  0.00000000000E+00  0.71938465144E+03  0.71938465146E+03  0.50400001928E-02 0. -1.
        1   -1    0    0  501    0  0.00000000000E+00  0.00000000000E+00 -0.21926606690E+04  0.21926606690E+04  0.50400001928E-02 0.  1.
    10030    2    1    2    0    0  0.00000000000E+00  0.00000000000E+00 -0.14732760176E+04  0.29120453205E+04  0.25118649893E+04 0.  0.
        1    1    3    3  502    0 -0.17495692269E+03  0.17009036941E+03  0.69164016100E+03  0.73342127792E+03  0.50400001928E-02 0. -1.
       -1    1    3    3    0  502  0.17495692269E+03 -0.17009036941E+03 -0.21649161786E+04  0.21786240426E+04  0.50400001928E-02 0.  1.
</event>
<event>
 5   0  0.2452457E-05  0.2520471E+04  0.7818609E-02  0.8395729E-01
        2   -1    0    0  501    0  0.00000000000E+00  0.00000000000E+00  0.15395245459E+04  0.15395245459E+04  0.25500000920E-02 0. -1.
       -2   -1    0    0    0  501  0.00000000000E+00  0.00000000000E+00 -0.10316131947E+04  0.10316131947E+04  0.25500000920E-02 0.  1.
    10030    2    1    2    0    0  0.00000000000E+00  0.00000000000E+00  0.50791135115E+03  0.25711377407E+04  0.25204712537E+04 0.  0.
        1    1    3    3  502    0 -0.61283299089E+03  0.84430228287E+03 -0.46720897066E+03  0.11431075373E+04  0.50400001928E-02 0.  1.
       -1    1    3    3    0  502  0.61283299089E+03 -0.84430228287E+03  0.97512032181E+03  0.14280302033E+04  0.50400001928E-02 0. -1.
</event>
<event>
 5   0  0.1010338E-05  0.2487323E+04  0.7818609E-02  0.8407516E-01
        1   -1    0    0  501    0  0.00000000000E+00  0.00000000000E+00  0.20861294187E+04  0.20861294187E+04  0.50400001928E-02 0.  1.
       -1   -1    0    0    0  501  0.00000000000E+00  0.00000000000E+00 -0.74141791455E+03  0.74141791457E+03  0.50400001928E-02 0. -1.
    10030    2    1    2    0    0  0.00000000000E+00  0.00000000000E+00  0.13447115041E+04  0.28275473333E+04  0.24873228364E+04 0.  0.
        2    1    3    3  502    0  0.67973614923E+03 -0.42575813069E+03  0.17528278704E+04  0.19276194546E+04  0.25500000920E-02 0.  1.
       -2    1    3    3    0  502 -0.67973614923E+03  0.42575813069E+03 -0.40811636626E+03  0.89992787868E+03  0.25500000920E-02 0. -1.
</event>
<event>
 5   0  0.1015327E-05  0.2560618E+04  0.7818609E-02  0.8381703E-01
        1   -1    0    0  501    0  0.00000000000E+00  0.00000000000E+00  0.18817031613E+04  0.18817031613E+04  0.50400001928E-02 0.  1.
       -1   -1    0    0    0  501  0.00000000000E+00  0.00000000000E+00 -0.87112113357E+03  0.87112113358E+03  0.50400001928E-02 0. -1.
    10030    2    1    2    0    0  0.00000000000E+00  0.00000000000E+00  0.10105820278E+04  0.27528242949E+04  0.25606181995E+04 0.  0.
        4    1    3    3  502    0 -0.47982907194E+03 -0.39006719611E+03 -0.69993083539E+03  0.93396635003E+03  0.12699999809E+01 0. -1.
       -4    1    3    3    0  502  0.47982907194E+03  0.39006719611E+03  0.17105128631E+04  0.18188579449E+04  0.12699999809E+01 0.  1.
</event>
<event>
 5   0  0.2441340E-05  0.2448095E+04  0.7818609E-02  0.8421714E-01
       -2   -1    0    0    0  501  0.00000000000E+00  0.00000000000E+00  0.11990220276E+04  0.11990220276E+04  0.25500000920E-02 0.  1.
        2   -1    0    0  501    0  0.00000000000E+00  0.00000000000E+00 -0.12495954742E+04  0.12495954742E+04  0.25500000920E-02 0. -1.
    10030    2    1    2    0    0  0.00000000000E+00  0.00000000000E+00 -0.50573446547E+02  0.24486175018E+04  0.24480951772E+04 0.  0.
        3    1    3    3  502    0  0.42452109761E+03 -0.96088670708E+03  0.60315542776E+03  0.12113289836E+04  0.10100000352E+00 0.  1.
       -3    1    3    3    0  502 -0.42452109761E+03  0.96088670708E+03 -0.65372887431E+03  0.12372885183E+04  0.10100000352E+00 0. -1.
</event>
<event>
 5   0  0.1039688E-05  0.2482781E+04  0.7818609E-02  0.8409146E-01
       -1   -1    0    0    0  501  0.00000000000E+00  0.00000000000E+00  0.12257938963E+04  0.12257938963E+04  0.50400001928E-02 0. -1.
        1   -1    0    0  501    0  0.00000000000E+00  0.00000000000E+00 -0.12571856132E+04  0.12571856132E+04  0.50400001928E-02 0.  1.
    10030    2    1    2    0    0  0.00000000000E+00  0.00000000000E+00 -0.31391716888E+02  0.24829795096E+04  0.24827810626E+04 0.  0.
        3    1    3    3  502    0  0.50802684414E+03 -0.78279608070E+03  0.80302057753E+03  0.12311389184E+04  0.10100000352E+00 0. -1.
       -3    1    3    3    0  502 -0.50802684414E+03  0.78279608070E+03 -0.83441229441E+03  0.12518405911E+04  0.10100000352E+00 0.  1.
</event>
<event>
 5   0  0.2388326E-05  0.2504087E+04  0.7818609E-02  0.8401531E-01
       -2   -1    0    0    0  501  0.00000000000E+00  0.00000000000E+00  0.88434075497E+03  0.88434075498E+03  0.25500000920E-02 0. -1.
        2   -1    0    0  501    0  0.00000000000E+00  0.00000000000E+00 -0.17726338758E+04  0.17726338758E+04  0.25500000920E-02 0.  1.
    10030    2    1    2    0    0  0.00000000000E+00  0.00000000000E+00 -0.88829312085E+03  0.26569746308E+04  0.25040865640E+04 0.  0.
        2    1    3    3  502    0  0.23010942424E+03  0.50316864639E+03  0.74758606916E+03  0.93006126930E+03  0.25500000920E-02 0. -1.
       -2    1    3    3    0  502 -0.23010942424E+03 -0.50316864639E+03 -0.16358791900E+04  0.17269133615E+04  0.25500000920E-02 0.  1.
</event>
<event>
 5   0  0.2441340E-05  0.2478728E+04  0.7818609E-02  0.8410603E-01
       -2   -1    0    0    0  501  0.00000000000E+00  0.00000000000E+00  0.86670950551E+03  0.86670950551E+03  0.25500000920E-02 0. -1.
        2   -1    0    0  501    0  0.00000000000E+00  0.00000000000E+00 -0.17722473681E+04  0.17722473681E+04  0.25500000920E-02 0.  1.
    10030    2    1    2    0    0  0.00000000000E+00  0.00000000000E+00 -0.90553786262E+03  0.26389568736E+04  0.24787284160E+04 0.  0.
        3    1    3    3  502    0  0.16222310713E+03 -0.10112448242E+04  0.29026472977E+03  0.10645121204E+04  0.10100000352E+00 0. -1.
       -3    1    3    3    0  502 -0.16222310713E+03  0.10112448242E+04 -0.11958025924E+04  0.15744447533E+04  0.10100000352E+00 0.  1.
</event>
<event>
 5   0  0.2388326E-05  0.2502618E+04  0.7818609E-02  0.8402054E-01
        2   -1    0    0  501    0  0.00000000000E+00  0.00000000000E+00  0.11242835820E+04  0.11242835820E+04  0.25500000920E-02 0. -1.
       -2   -1    0    0    0  501  0.00000000000E+00  0.00000000000E+00 -0.13926856446E+04  0.13926856446E+04  0.25500000920E-02 0.  1.
    10030    2    1    2    0    0  0.00000000000E+00  0.00000000000E+00 -0.26840206260E+03  0.25169692266E+04  0.25026175138E+04 0.  0.
        2    1    3    3  502    0 -0.58801338815E+03  0.78737046294E+03  0.64487770172E+03  0.11754059898E+04  0.25500000920E-02 0. -1.
       -2    1    3    3    0  502  0.58801338815E+03 -0.78737046294E+03 -0.91327976432E+03  0.13415632369E+04  0.25500000920E-02 0.  1.
</event>
<event>
 5   0  0.2388326E-05  0.2554140E+04  0.7818609E-02  0.8383948E-01
       -2   -1    0    0    0  501  0.00000000000E+00  0.00000000000E+00  0.90404696114E+03  0.90404696114E+03  0.25500000920E-02 0. -1.
        2   -1    0    0  501    0  0.00000000000E+00  0.00000000000E+00 -0.18040084914E+04  0.18040084914E+04  0.25500000920E-02 0.  1.
    10030    2    1    2    0    0  0.00000000000E+00  0.00000000000E+00 -0.89996153028E+03  0.27080554526E+04  0.25541404774E+04 0.  0.
        2    1    3    3  502    0 -0.73035336870E+03 -0.17444014171E+02 -0.15605696161E+04  0.17231070377E+04  0.25500000920E-02 0.  1.
       -2    1    3    3    0  502  0.73035336870E+03  0.17444014171E+02  0.66060808583E+03  0.98494841482E+03  0.25500000920E-02 0. -1.
</event>
<event>
 5   0  0.1002753E-05  0.2299836E+04  0.7818609E-02  0.8477986E-01
        1   -1    0    0  501    0  0.00000000000E+00  0.00000000000E+00  0.18884427556E+04  0.18884427556E+04  0.50400001928E-02 0. -1.
       -1   -1    0    0    0  501  0.00000000000E+00  0.00000000000E+00 -0.70021273591E+03  0.70021273593E+03  0.50400001928E-02 0.  1.
    10030    2    1    2    0    0  0.00000000000E+00  0.00000000000E+00  0.11882300197E+04  0.25886554915E+04  0.22998362277E+04 0.  0.
        5    1    3    3  502    0 -0.37778014220E+03  0.81453810019E+03 -0.21450416184E+03  0.92315994169E+03  0.46999998093E+01 0.  1.
       -5    1    3    3    0  502  0.37778014220E+03 -0.81453810019E+03  0.14027341815E+04  0.16654955498E+04  0.46999998093E+01 0. -1.
</event>
<event>
 5   0  0.1008073E-05  0.2536451E+04  0.7818609E-02  0.8390114E-01
       -1   -1    0    0    0  501  0.00000000000E+00  0.00000000000E+00  0.13074555015E+04  0.13074555016E+04  0.50400001928E-02 0. -1.
        1   -1    0    0  501    0  0.00000000000E+00  0.00000000000E+00 -0.12301726124E+04  0.12301726124E+04  0.50400001928E-02 0.  1.
    10030    2    1    2    0    0  0.00000000000E+00  0.00000000000E+00  0.77282889154E+02  0.25376281140E+04  0.25364510245E+04 0.  0.
        1    1    3    3  502    0 -0.74807681097E+03 -0.50742714025E+03  0.92860174368E+03  0.12959175962E+04  0.50400001928E-02 0. -1.
       -1    1    3    3    0  502  0.74807681097E+03  0.50742714025E+03 -0.85131885453E+03  0.12417105177E+04  0.50400001928E-02 0.  1.
</event>
<event>
 5   0  0.2388326E-05  0.2525500E+04  0.7818609E-02  0.8393957E-01
        2   -1    0    0  501    0  0.00000000000E+00  0.00000000000E+00  0.15213201921E+04  0.15213201921E+04  0.25500000920E-02 0. -1.
       -2   -1    0    0    0  501  0.00000000000E+00  0.00000000000E+00 -0.10481278562E+04  0.10481278562E+04  0.25500000920E-02 0.  1.
    10030    2    1    2    0    0  0.00000000000E+00  0.00000000000E+00  0.47319233593E+03  0.25694480484E+04  0.25255004032E+04 0.  0.
        2    1    3    3  502    0  0.37432815714E+03 -0.50655344285E+03  0.13500909836E+04  0.14897864356E+04  0.25500000920E-02 0. -1.
       -2    1    3    3    0  502 -0.37432815714E+03  0.50655344285E+03 -0.87689864769E+03  0.10796616127E+04  0.25500000920E-02 0.  1.
</event>
<event>
 5   0  0.2388326E-05  0.2485422E+04  0.7818609E-02  0.8408197E-01
        2   -1    0    0  501    0  0.00000000000E+00  0.00000000000E+00  0.13284355447E+04  0.13284355447E+04  0.25500000920E-02 0. -1.
       -2   -1    0    0    0  501  0.00000000000E+00  0.00000000000E+00 -0.11625186456E+04  0.11625186456E+04  0.25500000920E-02 0.  1.
    10030    2    1    2    0    0  0.00000000000E+00  0.00000000000E+00  0.16591689905E+03  0.24909541903E+04  0.24854223707E+04 0.  0.
        2    1    3    3  502    0 -0.91398345555E+03 -0.40304828760E+03 -0.65795510315E+03  0.11961264970E+04  0.25500000920E-02 0.  1.
       -2    1    3    3    0  502  0.91398345555E+03  0.40304828760E+03  0.82387200220E+03  0.12948276932E+04  0.25500000920E-02 0. -1.
</event>
<event>
 5   0  0.2441340E-05  0.2476813E+04  0.7818609E-02  0.8411293E-01
       -2   -1    0    0    0  501  0.00000000000E+00  0.00000000000E+00  0.76161107948E+03  0.76161107948E+03  0.25500000920E-02 0. -1.
        2   -1    0    0  501    0  0.00000000000E+00  0.00000000000E+00 -0.20136920867E+04  0.20136920867E+04  0.25500000920E-02 0.  1.
    10030    2    1    2    0    0  0.00000000000E+00  0.00000000000E+00 -0.12520810072E+04  0.27753031662E+04  0.24768126323E+04 0.  0.
        3    1    3    3  502    0  0.48606532690E+03 -0.51649109730E+03 -0.17635844129E+04  0.19008557407E+04  0.10100000352E+00 0.  1.
       -3    1    3    3    0  502 -0.48606532690E+03  0.51649109730E+03  0.51150340566E+03  0.87444742542E+03  0.10100000352E+00 0. -1.
</event>
<event>
 5   0  0.1010338E-05  0.2520800E+04  0.7818609E-02  0.8395613E-01
       -1   -1    0    0    0  501  0.00000000000E+00  0.00000000000E+00  0.10975072061E+04  0.10975072062E+04  0.50400001928E-02 0. -1.
        1   -1    0    0  501    0  0.00000000000E+00  0.00000000000E+00 -0.14474694390E+04  0.14474694390E+04  0.50400001928E-02 0.  1.
    10030    2    1    2    0    0  0.00000000000E+00  0.00000000000E+00 -0.34996223290E+03  0.25449766452E+04  0.25207999842E+04 0.  0.
        2    1    3    3  502    0 -0.26850953501E+03  0.82826083566E+03  0.74507403546E+03  0.11459706369E+04  0.25500000920E-02 0. -1.
       -2    1    3    3    0  502  0.26850953501E+03 -0.82826083566E+03 -0.10950362684E+04  0.13990060083E+04  0.25500000920E-02 0.  1.
</event>
<event>
 5   0  0.1008073E-05  0.2516385E+04  0.7818609E-02  0.8397171E-01
       -1   -1    0    0    0  501  0.00000000000E+00  0.00000000000E+00  0.10897704308E+04  0.10897704308E+04  0.50400001928E-02 0.  1.
        1   -1    0    0  501    0  0.00000000000E+00  0.00000000000E+00 -0.14526442839E+04  0.14526442839E+04  0.50400001928E-02 0. -1.
    10030    2    1    2    0    0  0.00000000000E+00  0.00000000000E+00 -0.36287385309E+03  0.25424147148E+04  0.25163853339E+04 0.  0.
        1    1    3    3  502    0  0.17214574498E+03  0.67064265542E+02 -0.14388654951E+04  0.14506776645E+04  0.50400001928E-02 0. -1.
       -1    1    3    3    0  502 -0.17214574498E+03 -0.67064265542E+02  0.10759916420E+04  0.10917370503E+04  0.50400001928E-02 0.  1.
</event>
<event>
 5   0  0.2388326E-05  0.2507776E+04  0.7818609E-02  0.8400221E-01
       -2   -1    0    0    0  501  0.00000000000E+00  0.00000000000E+00  0.76440369120E+03  0.76440369121E+03  0.25500000920E-02 0.  1.
        2   -1    0    0  501    0  0.00000000000E+00  0.00000000000E+00 -0.20568126158E+04  0.20568126158E+04  0.25500000920E-02 0. -1.
    10030    2    1    2    0    0  0.00000000000E+00  0.00000000000E+00 -0.12924089245E+04  0.28212163070E+04  0.25077760312E+04 0.  0.
        2    1    3    3  502    0  0.43417645556E+03  0.63433399868E+03  0.46824092666E+03  0.90007687552E+03  0.25500000920E-02 0.  1.
       -2    1    3    3    0  502 -0.43417645556E+03 -0.63433399868E+03 -0.17606498512E+04  0.19211394314E+04  0.25500000920E-02 0. -1.
</event>
<event>
 5   0  0.2345143E-05  0.2510433E+04  0.7818609E-02  0.8399278E-01
        2   -1    0    0  501    0  0.00000000000E+00  0.00000000000E+00  0.21804067655E+04  0.21804067655E+04  0.25500000920E-02 0. -1.
       -2   -1    0    0    0  501  0.00000000000E+00  0.00000000000E+00 -0.72260274366E+03  0.72260274366E+03  0.25500000920E-02 0.  1.
    10030    2    1    2    0    0  0.00000000000E+00  0.00000000000E+00  0.14578040218E+04  0.29030095092E+04  0.25104325612E+04 0.  0.
        5    1    3    3  502    0 -0.56802160806E+03 -0.51975492315E+03 -0.41746027038E+03  0.87583611178E+03  0.46999998093E+01 0.  1.
       -5    1    3    3    0  502  0.56802160806E+03  0.51975492315E+03  0.18752642922E+04  0.20271733974E+04  0.46999998093E+01 0. -1.
</event>
<event>
 5   0  0.1010338E-05  0.2526676E+04  0.7818609E-02  0.8393543E-01
        1   -1    0    0  501    0  0.00000000000E+00  0.00000000000E+00  0.15019219030E+04  0.15019219030E+04  0.50400001928E-02 0. -1.
       -1   -1    0    0    0  501  0.00000000000E+00  0.00000000000E+00 -0.10626539264E+04  0.10626539264E+04  0.50400001928E-02 0.  1.
    10030    2    1    2    0    0  0.00000000000E+00  0.00000000000E+00  0.43926797664E+03  0.25645758294E+04  0.25266762415E+04 0.  0.
        2    1    3    3  502    0  0.11297185395E+04 -0.53988727831E+03  0.48942058622E+02  0.12530513066E+04  0.25500000920E-02 0. -1.
       -2    1    3    3    0  502 -0.11297185395E+04  0.53988727831E+03  0.39032591802E+03  0.13115245229E+04  0.25500000920E-02 0.  1.
</event>
<event>
 5   0  0.1002753E-05  0.2506069E+04  0.7818609E-02  0.8400827E-01
        1   -1    0    0  501    0  0.00000000000E+00  0.00000000000E+00  0.29962411475E+04  0.29962411475E+04  0.50400001928E-02 0. -1.
       -1   -1    0    0    0  501  0.00000000000E+00  0.00000000000E+00 -0.52402184329E+03  0.52402184331E+03  0.50400001928E-02 0.  1.
    10030    2    1    2    0    0  0.00000000000E+00  0.00000000000E+00  0.24722193042E+04  0.35202629909E+04  0.25060692801E+04 0.  0.
        5    1    3    3  502    0  0.12329191702E+04 -0.21046494646E+03  0.11301641212E+04  0.16857277968E+04  0.46999998093E+01 0.  1.
       -5    1    3    3    0  502 -0.12329191702E+04  0.21046494646E+03  0.13420551830E+04  0.18345351940E+04  0.46999998093E+01 0. -1.
</event>
<event>
 5   0  0.2432309E-05  0.2444269E+04  0.7818609E-02  0.8423113E-01
       -2   -1    0    0    0  501  0.00000000000E+00  0.00000000000E+00  0.69394870785E+03  0.69394870785E+03  0.25500000920E-02 0. -1.
        2   -1    0    0  501    0  0.00000000000E+00  0.00000000000E+00 -0.21523384929E+04  0.21523384929E+04  0.25500000920E-02 0.  1.
    10030    2    1    2    0    0  0.00000000000E+00  0.00000000000E+00 -0.14583897851E+04  0.28462872008E+04  0.24442688199E+04 0.  0.
        4    1    3    3  502    0 -0.48761544733E+03  0.43543955395E+03 -0.19316146732E+04  0.20392433127E+04  0.12699999809E+01 0.  1.
       -4    1    3    3    0  502  0.48761544733E+03 -0.43543955395E+03  0.47322488816E+03  0.80704388808E+03  0.12699999809E+01 0. -1.
</event>
<event>
 5   0  0.1039688E-05  0.2514818E+04  0.7818609E-02  0.8397725E-01
       -1   -1    0    0    0  501  0.00000000000E+00  0.00000000000E+00  0.13323371548E+04  0.13323371548E+04  0.50400001928E-02 0.  1.
        1   -1    0    0  501    0  0.00000000000E+00  0.00000000000E+00 -0.11866950689E+04  0.11866950689E+04  0.50400001928E-02 0. -1.
    10030    2    1    2    0    0  0.00000000000E+00  0.00000000000E+00  0.14564208594E+03  0.25190322237E+04  0.25148184282E+04 0.  0.
        3    1    3    3  502    0  0.87865021580E+02 -0.10589032464E+04 -0.60067568824E+03  0.12205767653E+04  0.10100000352E+00 0. -1.
       -3    1    3    3    0  502 -0.87865021580E+02  0.10589032464E+04  0.74631777418E+03  0.12984554584E+04  0.10100000352E+00 0.  1.
</event>
<event>
 5   0  0.1010338E-05  0.2530009E+04  0.7818609E-02  0.8392372E-01
       -1   -1    0    0    0  501  0.00000000000E+00  0.00000000000E+00  0.10483012492E+04  0.10483012492E+04  0.50400001928E-02 0. -1.
        1   -1    0    0  501    0  0.00000000000E+00  0.00000000000E+00 -0.15265048128E+04  0.15265048128E+04  0.50400001928E-02 0.  1.
    10030    2    1    2    0    0  0.00000000000E+00  0.00000000000E+00 -0.47820356365E+03  0.25748060620E+04  0.25300094088E+04 0.  0.
        2    1    3    3  502    0 -0.12241617427E+04  0.28770274793E+03 -0.37898384486E+03  0.13133825026E+04  0.25500000920E-02 0. -1.
       -2    1    3    3    0  502  0.12241617427E+04 -0.28770274793E+03 -0.99219718793E+02  0.12614235594E+04  0.25500000920E-02 0.  1.
</event>
<event>
 5   0  0.2388326E-05  0.2483130E+04  0.7818609E-02  0.8409020E-01
       -2   -1    0    0    0  501  0.00000000000E+00  0.00000000000E+00  0.96126668386E+03  0.96126668386E+03  0.25500000920E-02 0.  1.
        2   -1    0    0  501    0  0.00000000000E+00  0.00000000000E+00 -0.16035963270E+04  0.16035963270E+04  0.25500000920E-02 0. -1.
    10030    2    1    2    0    0  0.00000000000E+00  0.00000000000E+00 -0.64232964313E+03  0.25648630109E+04  0.24831300598E+04 0.  0.
        2    1    3    3  502    0  0.13647619322E+03  0.94672545618E+03  0.49645068301E+03  0.10776725483E+04  0.25500000920E-02 0.  1.
       -2    1    3    3    0  502 -0.13647619322E+03 -0.94672545618E+03 -0.11387803261E+04  0.14871904626E+04  0.25500000920E-02 0. -1.
</event>
<event>
 5   0  0.2345143E-05  0.2507956E+04  0.7818609E-02  0.8400157E-01
       -2   -1    0    0    0  501  0.00000000000E+00  0.00000000000E+00  0.10557550815E+04  0.10557550815E+04  0.25500000920E-02 0.  1.
        2   -1    0    0  501    0  0.00000000000E+00  0.00000000000E+00 -0.14894178040E+04  0.14894178040E+04  0.25500000920E-02 0. -1.
    10030    2    1    2    0    0  0.00000000000E+00  0.00000000000E+00 -0.43366272259E+03  0.25451728855E+04  0.25079556735E+04 0.  0.
        5    1    3    3  502    0  0.38776894460E+03 -0.10987811940E+04  0.25346055607E+03  0.11924551187E+04  0.46999998093E+01 0.  1.
       -5    1    3    3    0  502 -0.38776894460E+03  0.10987811940E+04 -0.68712327865E+03  0.13527177668E+04  0.46999998093E+01 0. -1.
</event>
<event>
 5   0  0.1015327E-05  0.2540557E+04  0.7818609E-02  0.8388678E-01
        1   -1    0    0  501    0  0.00000000000E+00  0.00000000000E+00  0.15875971084E+04  0.15875971084E+04  0.50400001928E-02 0. -1.
       -1   -1    0    0    0  501  0.00000000000E+00  0.00000000000E+00 -0.10163836762E+04  0.10163836762E+04  0.50400001928E-02 0.  1.
    10030    2    1    2    0    0  0.00000000000E+00  0.00000000000E+00  0.57121343220E+03  0.26039807847E+04  0.25405572502E+04 0.  0.
        4    1    3    3  502    0 -0.52061609679E+03 -0.56108259487E+03 -0.75348246310E+03  0.10740541111E+04  0.12699999809E+01 0.  1.
       -4    1    3    3    0  502  0.52061609679E+03  0.56108259487E+03  0.13246958953E+04  0.15299266735E+04  0.12699999809E+01 0. -1.
</event>
<event>
 5   0  0.2345143E-05  0.2520460E+04  0.7818609E-02  0.8395733E-01
       -2   -1    0    0    0  501  0.00000000000E+00  0.00000000000E+00  0.11564048574E+04  0.11564048574E+04  0.25500000920E-02 0.  1.
        2   -1    0    0  501    0  0.00000000000E+00  0.00000000000E+00 -0.13733764354E+04  0.13733764354E+04  0.25500000920E-02 0. -1.
    10030    2    1    2    0    0  0.00000000000E+00  0.00000000000E+00 -0.21697157798E+03  0.25297812928E+04  0.25204596255E+04 0.  0.
        5    1    3    3  502    0  0.45158999081E+03 -0.37702969689E+03  0.10101189343E+04  0.11689513521E+04  0.46999998093E+01 0.  1.
       -5    1    3    3    0  502 -0.45158999081E+03  0.37702969689E+03 -0.12270905123E+04  0.13608299407E+04  0.46999998093E+01 0. -1.
</event>
<event>
 5   0  0.1039688E-05  0.2487544E+04  0.7818609E-02  0.8407437E-01
        1   -1    0    0  501    0  0.00000000000E+00  0.00000000000E+00  0.20890815585E+04  0.20890815585E+04  0.50400001928E-02 0. -1.
       -1   -1    0    0    0  501  0.00000000000E+00  0.00000000000E+00 -0.74050157552E+03  0.74050157554E+03  0.50400001928E-02 0.  1.
    10030    2    1    2    0    0  0.00000000000E+00  0.00000000000E+00  0.13485799830E+04  0.28295831340E+04  0.24875435156E+04 0.  0.
        3    1    3    3  502    0 -0.75418659688E+03 -0.33478928108E+02  0.17986623147E+04  0.19506676790E+04  0.10100000352E+00 0. -1.
       -3    1    3    3    0  502  0.75418659688E+03  0.33478928108E+02 -0.45008233171E+03  0.87891545501E+03  0.10100000352E+00 0.  1.
</event>
<event>
 5   0  0.2388326E-05  0.2511742E+04  0.7818609E-02  0.8398814E-01
       -2   -1    0    0    0  501  0.00000000000E+00  0.00000000000E+00  0.78309487829E+03  0.78309487829E+03  0.25500000920E-02 0. -1.
        2   -1    0    0  501    0  0.00000000000E+00  0.00000000000E+00 -0.20140753732E+04  0.20140753732E+04  0.25500000920E-02 0.  1.
    10030    2    1    2    0    0  0.00000000000E+00  0.00000000000E+00 -0.12309804949E+04  0.27971702515E+04  0.25117421120E+04 0.  0.
        2    1    3    3  502    0 -0.53902862858E+03 -0.77236670006E+03  0.30964023558E+03  0.99145310393E+03  0.25500000920E-02 0. -1.
       -2    1    3    3    0  502  0.53902862858E+03  0.77236670006E+03 -0.15406207305E+04  0.18057171476E+04  0.25500000920E-02 0.  1.
</event>
<event>
 5   0  0.2441340E-05  0.2464672E+04  0.7818609E-02  0.8415681E-01
       -2   -1    0    0    0  501  0.00000000000E+00  0.00000000000E+00  0.77219750731E+03  0.77219750732E+03  0.25500000920E-02 0. -1.
        2   -1    0    0  501    0  0.00000000000E+00  0.00000000000E+00 -0.19666623345E+04  0.19666623345E+04  0.25500000920E-02 0.  1.
    10030    2    1    2    0    0  0.00000000000E+00  0.00000000000E+00 -0.11944648272E+04  0.27388598418E+04  0.24646717854E+04 0.  0.
        3    1    3    3  502    0 -0.15115155400E+03  0.15238826074E+02 -0.19562168510E+04  0.19621068759E+04  0.10100000352E+00 0.  1.
       -3    1    3    3    0  502  0.15115155400E+03 -0.15238826074E+02  0.76175202381E+03  0.77675296593E+03  0.10100000352E+00 0. -1.
</event>
<event>
 5   0  0.2452457E-05  0.2480309E+04  0.7818609E-02  0.8410034E-01
       -2   -1    0    0    0  501  0.00000000000E+00  0.00000000000E+00  0.12974594168E+04  0.12974594168E+04  0.25500000920E-02 0.  1.
        2   -1    0    0  501    0  0.00000000000E+00  0.00000000000E+00 -0.11853803492E+04  0.11853803492E+04  0.25500000920E-02 0. -1.
    10030    2    1    2    0    0  0.00000000000E+00  0.00000000000E+00  0.11207906761E+03  0.24828397661E+04  0.24803087684E+04 0.  0.
        1    1    3    3  502    0 -0.70406891611E+03 -0.61928718033E+03  0.86850391086E+03  0.12780957294E+04  0.50400001928E-02 0.  1.
       -1    1    3    3    0  502  0.70406891611E+03  0.61928718033E+03 -0.75642484325E+03  0.12047440367E+04  0.50400001928E-02 0. -1.
</event>
<event>
 5   0  0.1008073E-05  0.2489495E+04  0.7818609E-02  0.8406738E-01
        1   -1    0    0  501    0  0.00000000000E+00  0.00000000000E+00  0.21263111892E+04  0.21263111892E+04  0.50400001928E-02 0. -1.
       -1   -1    0    0    0  501  0.00000000000E+00  0.00000000000E+00 -0.72867798332E+03  0.72867798334E+03  0.50400001928E-02 0.  1.
    10030    2    1    2    0    0  0.00000000000E+00  0.00000000000E+00  0.13976332059E+04  0.28549891726E+04  0.24894948478E+04 0.  0.
        1    1    3    3  502    0  0.56836756324E+03  0.22889530090E+02  0.19685380366E+04  0.20490748203E+04  0.50400001928E-02 0. -1.
       -1    1    3    3    0  502 -0.56836756324E+03 -0.22889530090E+02 -0.57090483068E+03  0.80591435231E+03  0.50400001928E-02 0.  1.
</event>
<event>
 5   0  0.2441340E-05  0.2489444E+04  0.7818609E-02  0.8406756E-01
        2   -1    0    0  501    0  0.00000000000E+00  0.00000000000E+00  0.23038997322E+04  0.23038997322E+04  0.25500000920E-02 0.  1.
       -2   -1    0    0    0  501  0.00000000000E+00  0.00000000000E+00 -0.67248252294E+03  0.67248252294E+03  0.25500000920E-02 0. -1.
    10030    2    1    2    0    0  0.00000000000E+00  0.00000000000E+00  0.16314172092E+04  0.29763822551E+04  0.24894435559E+04 0.  0.
        3    1    3    3  502    0  0.11032215584E+04  0.41771198090E+03  0.34084078189E+03  0.12279061669E+04  0.10100000352E+00 0. -1.
       -3    1    3    3    0  502 -0.11032215584E+04 -0.41771198090E+03  0.12905764274E+04  0.17484760882E+04  0.10100000352E+00 0.  1.
</event>
<event>
 5   0  0.1015327E-05  0.2499567E+04  0.7818609E-02  0.8403140E-01
       -1   -1    0    0    0  501  0.00000000000E+00  0.00000000000E+00  0.12300601798E+04  0.12300601798E+04  0.50400001928E-02 0. -1.
        1   -1    0    0  501    0  0.00000000000E+00  0.00000000000E+00 -0.12698231664E+04  0.12698231664E+04  0.50400001928E-02 0.  1.
    10030    2    1    2    0    0  0.00000000000E+00  0.00000000000E+00 -0.39762986535E+02  0.24998833462E+04  0.24995670924E+04 0.  0.
        4    1    3    3  502    0  0.11801157238E+04  0.38235238983E+03  0.13209439767E+03  0.12475243542E+04  0.12699999809E+01 0. -1.
       -4    1    3    3    0  502 -0.11801157238E+04 -0.38235238983E+03 -0.17185738420E+03  0.12523589920E+04  0.12699999809E+01 0.  1.
</event>
<event>
 5   0  0.2345143E-05  0.2498842E+04  0.7818609E-02  0.8403398E-01
        2   -1    0    0  501    0  0.00000000000E+00  0.00000000000E+00  0.19724599519E+04  0.19724599519E+04  0.25500000920E-02 0. -1.
       -2   -1    0    0    0  501  0.00000000000E+00  0.00000000000E+00 -0.79142461228E+03  0.79142461229E+03  0.25500000920E-02 0.  1.
    10030    2    1    2    0    0  0.00000000000E+00  0.00000000000E+00  0.11810353397E+04  0.27638845642E+04  0.24988424142E+04 0.  0.
        5    1    3    3  502    0 -0.26840525086E+03  0.23714595891E+03  0.19144521547E+04  0.19476726438E+04  0.46999998093E+01 0. -1.
       -5    1    3    3    0  502  0.26840525086E+03 -0.23714595891E+03 -0.73341681506E+03  0.81621192048E+03  0.46999998093E+01 0.  1.
</event>
<event>
 5   0  0.1015327E-05  0.2508454E+04  0.7818609E-02  0.8399980E-01
       -1   -1    0    0    0  501  0.00000000000E+00  0.00000000000E+00  0.12814893381E+04  0.12814893381E+04  0.50400001928E-02 0. -1.
        1   -1    0    0  501    0  0.00000000000E+00  0.00000000000E+00 -0.12275444669E+04  0.12275444669E+04  0.50400001928E-02 0.  1.
    10030    2    1    2    0    0  0.00000000000E+00  0.00000000000E+00  0.53944871168E+02  0.25090338050E+04  0.25084538237E+04 0.  0.
        4    1    3    3  502    0 -0.78906509030E+03  0.49704590365E+03 -0.81191402490E+03  0.12364806282E+04  0.12699999809E+01 0.  1.
       -4    1    3    3    0  502  0.78906509030E+03 -0.49704590365E+03  0.86585889607E+03  0.12725531768E+04  0.12699999809E+01 0. -1.
</event>
<event>
 5   0  0.1002753E-05  0.2480350E+04  0.7818609E-02  0.8410020E-01
       -1   -1    0    0    0  501  0.00000000000E+00  0.00000000000E+00  0.89153811852E+03  0.89153811854E+03  0.50400001928E-02 0.  1.
        1   -1    0    0  501    0  0.00000000000E+00  0.00000000000E+00 -0.17251464434E+04  0.17251464434E+04  0.50400001928E-02 0. -1.
    10030    2    1    2    0    0  0.00000000000E+00  0.00000000000E+00 -0.83360832491E+03  0.26166845620E+04  0.24803498256E+04 0.  0.
        5    1    3    3  502    0  0.83183399734E+03  0.39956964053E+03  0.45723242277E+03  0.10298967303E+04  0.46999998093E+01 0.  1.
       -5    1    3    3    0  502 -0.83183399734E+03 -0.39956964053E+03 -0.12908407477E+04  0.15867878316E+04  0.46999998093E+01 0. -1.
</event>
<event>
 5   0  0.2452457E-05  0.2482600E+04  0.7818609E-02  0.8409211E-01
        2   -1    0    0  501    0  0.00000000000E+00  0.00000000000E+00  0.19070142461E+04  0.19070142461E+04  0.25500000920E-02 0.  1.
       -2   -1    0    0    0  501  0.00000000000E+00  0.00000000000E+00 -0.80797810803E+03  0.80797810804E+03  0.25500000920E-02 0. -1.
    10030    2    1    2    0    0  0.00000000000E+00  0.00000000000E+00  0.10990361380E+04  0.27149923541E+04  0.24826000584E+04 0.  0.
        1    1    3    3  502    0 -0.17283516908E+03 -0.11340815411E+04  0.30989856174E+02  0.11475945751E+04  0.50400001928E-02 0. -1.
       -1    1    3    3    0  502  0.17283516908E+03  0.11340815411E+04  0.10680462819E+04  0.15673977790E+04  0.50400001928E-02 0.  1.
</event>
<event>
 5   0  0.2432309E-05  0.2504020E+04  0.7818609E-02  0.8401555E-01
        2   -1    0    0  501    0  0.00000000000E+00  0.00000000000E+00  0.15454003681E+04  0.15454003681E+04  0.25500000920E-02 0.  1.
       -2   -1    0    0    0  501  0.00000000000E+00  0.00000000000E+00 -0.10143191018E+04  0.10143191018E+04  0.25500000920E-02 0. -1.
    10030    2    1    2    0    0  0.00000000000E+00  0.00000000000E+00  0.53108126631E+03  0.25597194698E+04  0.25040200584E+04 0.  0.
        4    1    3    3  502    0 -0.11706277196E+04 -0.39555736809E+03  0.59329386772E+02  0.12370757771E+04  0.12699999809E+01 0. -1.
       -4    1    3    3    0  502  0.11706277196E+04  0.39555736809E+03  0.47175187954E+03  0.13226436928E+04  0.12699999809E+01 0.  1.
</event>
<event>
 5   0  0.2441340E-05  0.2503427E+04  0.7818609E-02  0.8401766E-01
       -2   -1    0    0    0  501  0.00000000000E+00  0.00000000000E+00  0.62003662882E+03  0.62003662882E+03  0.25500000920E-02 0. -1.
        2   -1    0    0  501    0  0.00000000000E+00  0.00000000000E+00 -0.25269266088E+04  0.25269266088E+04  0.25500000920E-02 0.  1.
    10030    2    1    2    0    0  0.00000000000E+00  0.00000000000E+00 -0.19068899800E+04  0.31469632376E+04  0.25034272954E+04 0.  0.
        3    1    3    3  502    0  0.12496288229E+04 -0.72128831449E+02 -0.95785048298E+03  0.15761511099E+04  0.10100000352E+00 0. -1.
       -3    1    3    3    0  502 -0.12496288229E+04  0.72128831449E+02 -0.94903949701E+03  0.15708121277E+04  0.10100000352E+00 0.  1.
</event>
<event>
 5   0  0.1015327E-05  0.2479899E+04  0.7818609E-02  0.8410182E-01
       -1   -1    0    0    0  501  0.00000000000E+00  0.00000000000E+00  0.10420999861E+04  0.10420999861E+04  0.50400001928E-02 0.  1.
        1   -1    0    0  501    0  0.00000000000E+00  0.00000000000E+00 -0.14753621256E+04  0.14753621256E+04  0.50400001928E-02 0. -1.
    10030    2    1    2    0    0  0.00000000000E+00  0.00000000000E+00 -0.43326213949E+03  0.25174621117E+04  0.24798990710E+04 0.  0.
        4    1    3    3  502    0  0.10463838669E+03 -0.12289015674E+04 -0.86926490205E+02  0.12364085417E+04  0.12699999809E+01 0.  1.
       -4    1    3    3    0  502 -0.10463838669E+03  0.12289015674E+04 -0.34633564929E+03  0.12810535700E+04  0.12699999809E+01 0. -1.
</event>
<event>
 5   0  0.1010338E-05  0.2454203E+04  0.7818609E-02  0.8419485E-01
        1   -1    0    0  501    0  0.00000000000E+00  0.00000000000E+00  0.19637200455E+04  0.19637200455E+04  0.50400001928E-02 0. -1.
       -1   -1    0    0    0  501  0.00000000000E+00  0.00000000000E+00 -0.76679898715E+03  0.76679898717E+03  0.50400001928E-02 0.  1.
    10030    2    1    2    0    0  0.00000000000E+00  0.00000000000E+00  0.11969210584E+04  0.27305190327E+04  0.24542033673E+04 0.  0.
        2    1    3    3  502    0  0.58129535636E+03 -0.78746894379E+03  0.14219016643E+04  0.17262143470E+04  0.25500000920E-02 0. -1.
       -2    1    3    3    0  502 -0.58129535636E+03  0.78746894379E+03 -0.22498060590E+03  0.10043046857E+04  0.25500000920E-02 0.  1.
</event>
<event>
 5   0  0.2345143E-05  0.2479354E+04  0.7818609E-02  0.8410378E-01
        2   -1    0    0  501    0  0.00000000000E+00  0.00000000000E+00  0.16916283176E+04  0.16916283176E+04  0.25500000920E-02 0.  1.
       -2   -1    0    0    0  501  0.00000000000E+00  0.00000000000E+00 -0.90847321455E+03  0.90847321456E+03  0.25500000920E-02 0. -1.
    10030    2    1    2    0    0  0.00000000000E+00  0.00000000000E+00  0.78315510303E+03  0.26001015321E+04  0.24793539606E+04 0.  0.
        5    1    3    3  502    0 -0.50368984164E+03 -0.21093256104E+03  0.15586934044E+04  0.16515880906E+04  0.46999998093E+01 0.  1.
       -5    1    3    3    0  502  0.50368984164E+03  0.21093256104E+03 -0.77553830141E+03  0.94851344157E+03  0.46999998093E+01 0. -1.
</event>
<event>
 5   0  0.1008073E-05  0.2411658E+04  0.7818609E-02  0.8435152E-01
        1   -1    0    0  501    0  0.00000000000E+00  0.00000000000E+00  0.26487888941E+04  0.26487888941E+04  0.50400001928E-02 0.  1.
       -1   -1    0    0    0  501  0.00000000000E+00  0.00000000000E+00 -0.54893922620E+03  0.54893922623E+03  0.50400001928E-02 0. -1.
    10030    2    1    2    0    0  0.00000000000E+00  0.00000000000E+00  0.20998496679E+04  0.31977281203E+04  0.24116584550E+04 0.  0.
        1    1    3    3  502    0  0.46756568830E+03  0.19899709871E+01 -0.42384604495E+03  0.63108406945E+03  0.50400001928E-02 0. -1.
       -1    1    3    3    0  502 -0.46756568830E+03 -0.19899709871E+01  0.25236957128E+04  0.25666440508E+04  0.50400001928E-02 0.  1.
</event>
<event>
 5   0  0.2441340E-05  0.2536004E+04  0.7818609E-02  0.8390270E-01
       -2   -1    0    0    0  501  0.00000000000E+00  0.00000000000E+00  0.13812272155E+04  0.13812272155E+04  0.25500000920E-02 0. -1.
        2   -1    0    0  501    0  0.00000000000E+00  0.00000000000E+00 -0.11640581243E+04  0.11640581243E+04  0.25500000920E-02 0.  1.
    10030    2    1    2    0    0  0.00000000000E+00  0.00000000000E+00  0.21716909121E+03  0.25452853398E+04  0.25360037553E+04 0.  0.
        3    1    3    3  502    0 -0.50096281333E+03  0.30661277749E+03  0.12364650498E+04  0.13688758035E+04  0.10100000352E+00 0. -1.
       -3    1    3    3    0  502  0.50096281333E+03 -0.30661277749E+03 -0.10192959586E+04  0.11764095363E+04  0.10100000352E+00 0.  1.
</event>
<event>
 5   0  0.1010338E-05  0.2522343E+04  0.7818609E-02  0.8395069E-01
        1   -1    0    0  501    0  0.00000000000E+00  0.00000000000E+00  0.13285667060E+04  0.13285667060E+04  0.50400001928E-02 0. -1.
       -1   -1    0    0    0  501  0.00000000000E+00  0.00000000000E+00 -0.11971952410E+04  0.11971952411E+04  0.50400001928E-02 0.  1.
    10030    2    1    2    0    0  0.00000000000E+00  0.00000000000E+00  0.13137146495E+03  0.25257619471E+04  0.25223431470E+04 0.  0.
        2    1    3    3  502    0 -0.19657666046E+03  0.50886012558E+03 -0.10729450722E+04  0.12036578163E+04  0.25500000920E-02 0.  1.
       -2    1    3    3    0  502  0.19657666046E+03 -0.50886012558E+03  0.12043165371E+04  0.13221041307E+04  0.25500000920E-02 0. -1.
</event>
<event>
 5   0  0.1015327E-05  0.2705930E+04  0.7818609E-02  0.8333083E-01
       -1   -1    0    0    0  501  0.00000000000E+00  0.00000000000E+00  0.10329303895E+04  0.10329303895E+04  0.50400001928E-02 0.  1.
        1   -1    0    0  501    0  0.00000000000E+00  0.00000000000E+00 -0.17721565400E+04  0.17721565400E+04  0.50400001928E-02 0. -1.
    10030    2    1    2    0    0  0.00000000000E+00  0.00000000000E+00 -0.73922615051E+03  0.28050869295E+04  0.27059300398E+04 0.  0.
        4    1    3    3  502    0  0.87702196988E+03 -0.31695428066E+03 -0.13857810607E+04  0.16703347907E+04  0.12699999809E+01 0. -1.
       -4    1    3    3    0  502 -0.87702196988E+03  0.31695428066E+03  0.64655491023E+03  0.11347521388E+04  0.12699999809E+01 0.  1.
</event>
<event>
 5   0  0.8166500E-06  0.2515698E+04  0.7818609E-02  0.8397414E-01
        3   -1    0    0  501    0  0.00000000000E+00  0.00000000000E+00  0.12197171232E+04  0.12197171274E+04  0.10100000352E+00 0. -1.
       -3   -1    0    0    0  501  0.00000000000E+00  0.00000000000E+00 -0.12971724656E+04  0.12971724695E+04  0.10100000352E+00 0.  1.
    10030    2    1    2    0    0  0.00000000000E+00  0.00000000000E+00 -0.77455342395E+02  0.25168895969E+04  0.25156975003E+04 0.  0.
        5    1    3    3  502    0  0.95724956969E+03  0.27530748859E+03 -0.80723256104E+03  0.12820949456E+04  0.46999998093E+01 0.  1.
       -5    1    3    3    0  502 -0.95724956969E+03 -0.27530748859E+03  0.72977721865E+03  0.12347946513E+04  0.46999998093E+01 0. -1.
</event>
<event>
 5   0  0.2432309E-05  0.2413640E+04  0.7818609E-02  0.8434415E-01
        2   -1    0    0  501    0  0.00000000000E+00  0.00000000000E+00  0.12214592843E+04  0.12214592843E+04  0.25500000920E-02 0. -1.
       -2   -1    0    0    0  501  0.00000000000E+00  0.00000000000E+00 -0.11923557784E+04  0.11923557784E+04  0.25500000920E-02 0.  1.
    10030    2    1    2    0    0  0.00000000000E+00  0.00000000000E+00  0.29103505891E+02  0.24138150628E+04  0.24136396051E+04 0.  0.
        4    1    3    3  502    0 -0.38255260599E+03 -0.60692816620E+03 -0.95593320085E+03  0.11952063390E+04  0.12699999809E+01 0.  1.
       -4    1    3    3    0  502  0.38255260599E+03  0.60692816620E+03  0.98503670674E+03  0.12186087238E+04  0.12699999809E+01 0. -1.
</event>
<event>
 5   0  0.1002753E-05  0.2465181E+04  0.7818609E-02  0.8415496E-01
        1   -1    0    0  501    0  0.00000000000E+00  0.00000000000E+00  0.10688221128E+04  0.10688221129E+04  0.50400001928E-02 0. -1.
       -1   -1    0    0    0  501  0.00000000000E+00  0.00000000000E+00 -0.14214518684E+04  0.14214518684E+04  0.50400001928E-02 0.  1.
    10030    2    1    2    0    0  0.00000000000E+00  0.00000000000E+00 -0.35262975556E+03  0.24902739813E+04  0.24651808772E+04 0.  0.
        5    1    3    3  502    0 -0.92978427961E+03 -0.66575341702E+03 -0.64092110242E+03  0.13109265305E+04  0.46999998093E+01 0.  1.
       -5    1    3    3    0  502  0.92978427961E+03  0.66575341702E+03  0.28829134686E+03  0.11793474507E+04  0.46999998093E+01 0. -1.
</event>
<event>
 5   0  0.2388326E-05  0.2458483E+04  0.7818609E-02  0.8417927E-01
       -2   -1    0    0    0  501  0.00000000000E+00  0.00000000000E+00  0.99937510531E+03  0.99937510531E+03  0.25500000920E-02 0. -1.
        2   -1    0    0  501    0  0.00000000000E+00  0.00000000000E+00 -0.15119794405E+04  0.15119794405E+04  0.25500000920E-02 0.  1.
    10030    2    1    2    0    0  0.00000000000E+00  0.00000000000E+00 -0.51260433521E+03  0.25113545458E+04  0.24584829571E+04 0.  0.
        2    1    3    3  502    0  0.58532477872E+03  0.12331071004E+03 -0.13532795180E+04  0.14795864562E+04  0.25500000920E-02 0.  1.
       -2    1    3    3    0  502 -0.58532477872E+03 -0.12331071004E+03  0.84067518275E+03  0.10317680896E+04  0.25500000920E-02 0. -1.
</event>
<event>
 5   0  0.1015327E-05  0.2450350E+04  0.7818609E-02  0.8420890E-01
       -1   -1    0    0    0  501  0.00000000000E+00  0.00000000000E+00  0.78822460068E+03  0.78822460070E+03  0.50400001928E-02 0.  1.
        1   -1    0    0  501    0  0.00000000000E+00  0.00000000000E+00 -0.19043483767E+04  0.19043483767E+04  0.50400001928E-02 0. -1.
    10030    2    1    2    0    0  0.00000000000E+00  0.00000000000E+00 -0.11161237760E+04  0.26925729774E+04  0.24503503740E+04 0.  0.
        4    1    3    3  502    0 -0.12906581502E+03 -0.11523582064E+04 -0.99272039312E+03  0.15264608781E+04  0.12699999809E+01 0. -1.
       -4    1    3    3    0  502  0.12906581502E+03  0.11523582064E+04 -0.12340338293E+03  0.11661120994E+04  0.12699999809E+01 0.  1.
</event>
<event>
 5   0  0.1008073E-05  0.2507112E+04  0.7818609E-02  0.8400456E-01
        1   -1    0    0  501    0  0.00000000000E+00  0.00000000000E+00  0.14035512279E+04  0.14035512279E+04  0.50400001928E-02 0. -1.
       -1   -1    0    0    0  501  0.00000000000E+00  0.00000000000E+00 -0.11195902136E+04  0.11195902136E+04  0.50400001928E-02 0.  1.
    10030    2    1    2    0    0  0.00000000000E+00  0.00000000000E+00  0.28396101425E+03  0.25231414415E+04  0.25071116601E+04 0.  0.
        1    1    3    3  502    0  0.10563601949E+04 -0.95348217695E+02  0.81439468130E+03  0.13372459912E+04  0.50400001928E-02 0. -1.
       -1    1    3    3    0  502 -0.10563601949E+04  0.95348217695E+02 -0.53043366706E+03  0.11858954503E+04  0.50400001928E-02 0.  1.
</event>
<event>
 5   0  0.2388326E-05  0.2521843E+04  0.7818609E-02  0.8395245E-01
        2   -1    0    0  501    0  0.00000000000E+00  0.00000000000E+00  0.24695153268E+04  0.24695153268E+04  0.25500000920E-02 0. -1.
       -2   -1    0    0    0  501  0.00000000000E+00  0.00000000000E+00 -0.64381970694E+03  0.64381970694E+03  0.25500000920E-02 0.  1.
    10030    2    1    2    0    0  0.00000000000E+00  0.00000000000E+00  0.18256956199E+04  0.31133350337E+04  0.25218426866E+04 0.  0.
        2    1    3    3  502    0  0.43349665764E+03  0.30869822370E+03 -0.49838042339E+03  0.72910698250E+03  0.25500000920E-02 0.  1.
       -2    1    3    3    0  502 -0.43349665764E+03 -0.30869822370E+03  0.23240760433E+04  0.23842280512E+04  0.25500000920E-02 0. -1.
</event>
<event>
 5   0  0.2452457E-05  0.2490359E+04  0.7818609E-02  0.8406428E-01
        2   -1    0    0  501    0  0.00000000000E+00  0.00000000000E+00  0.22037979442E+04  0.22037979442E+04  0.25500000920E-02 0.  1.
       -2   -1    0    0    0  501  0.00000000000E+00  0.00000000000E+00 -0.70354541609E+03  0.70354541609E+03  0.25500000920E-02 0. -1.
    10030    2    1    2    0    0  0.00000000000E+00  0.00000000000E+00  0.15002525281E+04  0.29073433603E+04  0.24903589634E+04 0.  0.
        1    1    3    3  502    0  0.89045504219E+03 -0.12404501465E+03  0.17558701840E+04  0.19726574591E+04  0.50400001928E-02 0.  1.
       -1    1    3    3    0  502 -0.89045504219E+03  0.12404501465E+03 -0.25561765591E+03  0.93468590118E+03  0.50400001928E-02 0. -1.
</event>
<event>
 5   0  0.1010338E-05  0.2505456E+04  0.7818609E-02  0.8401044E-01
       -1   -1    0    0    0  501  0.00000000000E+00  0.00000000000E+00  0.11437861335E+04  0.11437861335E+04  0.50400001928E-02 0. -1.
        1   -1    0    0  501    0  0.00000000000E+00  0.00000000000E+00 -0.13720467629E+04  0.13720467629E+04  0.50400001928E-02 0.  1.
    10030    2    1    2    0    0  0.00000000000E+00  0.00000000000E+00 -0.22826062945E+03  0.25158328964E+04  0.25054564949E+04 0.  0.
        2    1    3    3  502    0 -0.22415834442E+03 -0.41604587440E+03 -0.12791019379E+04  0.13636139118E+04  0.25500000920E-02 0.  1.
       -2    1    3    3    0  502  0.22415834442E+03  0.41604587440E+03  0.10508413084E+04  0.11522189846E+04  0.25500000920E-02 0. -1.
</event>
<event>
 5   0  0.1008073E-05  0.2532598E+04  0.7818609E-02  0.8391463E-01
        1   -1    0    0  501    0  0.00000000000E+00  0.00000000000E+00  0.23095897664E+04  0.23095897664E+04  0.50400001928E-02 0.  1.
       -1   -1    0    0    0  501  0.00000000000E+00  0.00000000000E+00 -0.69428506535E+03  0.69428506537E+03  0.50400001928E-02 0. -1.
    10030    2    1    2    0    0  0.00000000000E+00  0.00000000000E+00  0.16153047010E+04  0.30038748318E+04  0.25325984142E+04 0.  0.
        1    1    3    3  502    0 -0.11154645658E+04  0.11575062239E+02  0.15184310297E+04  0.18841517911E+04  0.50400001928E-02 0.  1.
       -1    1    3    3    0  502  0.11154645658E+04 -0.11575062239E+02  0.96873671302E+02  0.11197230407E+04  0.50400001928E-02 0. -1.
</event>
<event>
 5   0  0.1008073E-05  0.2517719E+04  0.7818609E-02  0.8396700E-01
       -1   -1    0    0    0  501  0.00000000000E+00  0.00000000000E+00  0.11909113363E+04  0.11909113363E+04  0.50400001928E-02 0.  1.
        1   -1    0    0  501    0  0.00000000000E+00  0.00000000000E+00 -0.13306848230E+04  0.13306848230E+04  0.50400001928E-02 0. -1.
    10030    2    1    2    0    0  0.00000000000E+00  0.00000000000E+00 -0.13977348673E+03  0.25215961593E+04  0.25177193178E+04 0.  0.
        1    1    3    3  502    0 -0.17335997403E+03 -0.94448660818E+02 -0.13150844981E+04  0.13298200883E+04  0.50400001928E-02 0. -1.
       -1    1    3    3    0  502  0.17335997403E+03  0.94448660818E+02  0.11753110113E+04  0.11917760710E+04  0.50400001928E-02 0.  1.
</event>
<event>
 5   0  0.2432309E-05  0.2522766E+04  0.7818609E-02  0.8394920E-01
        2   -1    0    0  501    0  0.00000000000E+00  0.00000000000E+00  0.55886355013E+03  0.55886355014E+03  0.25500000920E-02 0.  1.
       -2   -1    0    0    0  501  0.00000000000E+00  0.00000000000E+00 -0.28470041955E+04  0.28470041955E+04  0.25500000920E-02 0. -1.
    10030    2    1    2    0    0  0.00000000000E+00  0.00000000000E+00 -0.22881406454E+04  0.34058677457E+04  0.25227658409E+04 0.  0.
        4    1    3    3  502    0  0.96961252224E+03 -0.48968073902E+03 -0.27840350950E+03  0.11213589062E+04  0.12699999809E+01 0.  1.
       -4    1    3    3    0  502 -0.96961252224E+03  0.48968073902E+03 -0.20097371359E+04  0.22845088395E+04  0.12699999809E+01 0. -1.
</event>
<event>
 5   0  0.1039688E-05  0.2510611E+04  0.7818609E-02  0.8399215E-01
       -1   -1    0    0    0  501  0.00000000000E+00  0.00000000000E+00  0.11253628155E+04  0.11253628155E+04  0.50400001928E-02 0. -1.
        1   -1    0    0  501    0  0.00000000000E+00  0.00000000000E+00 -0.14002522273E+04  0.14002522273E+04  0.50400001928E-02 0.  1.
    10030    2    1    2    0    0  0.00000000000E+00  0.00000000000E+00 -0.27488941182E+03  0.25256150428E+04  0.25106109128E+04 0.  0.
        3    1    3    3  502    0 -0.81735805733E+03 -0.79287345419E+03  0.39398246078E+03  0.12049666791E+04  0.10100000352E+00 0. -1.
       -3    1    3    3    0  502  0.81735805733E+03  0.79287345419E+03 -0.66887187260E+03  0.13206483636E+04  0.10100000352E+00 0.  1.
</event>
<event>
 5   0  0.1008073E-05  0.2475921E+04  0.7818609E-02  0.8411614E-01
        1   -1    0    0  501    0  0.00000000000E+00  0.00000000000E+00  0.15860221002E+04  0.15860221002E+04  0.50400001928E-02 0. -1.
       -1   -1    0    0    0  501  0.00000000000E+00  0.00000000000E+00 -0.96628324768E+03  0.96628324769E+03  0.50400001928E-02 0.  1.
    10030    2    1    2    0    0  0.00000000000E+00  0.00000000000E+00  0.61973885256E+03  0.25523053479E+04  0.24759213121E+04 0.  0.
        1    1    3    3  502    0 -0.11255602869E+04 -0.29701135426E+03 -0.12436827892E+03  0.11707131045E+04  0.50400001928E-02 0.  1.
       -1    1    3    3    0  502  0.11255602869E+04  0.29701135426E+03  0.74410713147E+03  0.13815922435E+04  0.50400001928E-02 0. -1.
</event>
<event>
 5   0  0.1008073E-05  0.2565557E+04  0.7818609E-02  0.8379996E-01
       -1   -1    0    0    0  501  0.00000000000E+00  0.00000000000E+00  0.83338747682E+03  0.83338747683E+03  0.50400001928E-02 0.  1.
        1   -1    0    0  501    0  0.00000000000E+00  0.00000000000E+00 -0.19744971504E+04  0.19744971504E+04  0.50400001928E-02 0. -1.
    10030    2    1    2    0    0  0.00000000000E+00  0.00000000000E+00 -0.11411096736E+04  0.28078846272E+04  0.25655574039E+04 0.  0.
        1    1    3    3  502    0 -0.15065092352E+03 -0.56506498388E+03 -0.18201160860E+04  0.19117574907E+04  0.50400001928E-02 0. -1.
       -1    1    3    3    0  502  0.15065092352E+03  0.56506498388E+03  0.67900641239E+03  0.89612713655E+03  0.50400001928E-02 0.  1.
</event>
<event>
 5   0  0.2432309E-05  0.2398153E+04  0.7818609E-02  0.8440195E-01
       -2   -1    0    0    0  501  0.00000000000E+00  0.00000000000E+00  0.72163773530E+03  0.72163773530E+03  0.25500000920E-02 0.  1.
        2   -1    0    0  501    0  0.00000000000E+00  0.00000000000E+00 -0.19923911715E+04  0.19923911715E+04  0.25500000920E-02 0. -1.
    10030    2    1    2    0    0  0.00000000000E+00  0.00000000000E+00 -0.12707534362E+04  0.27140289068E+04  0.23981531668E+04 0.  0.
        4    1    3    3  502    0 -0.16266530724E+02 -0.32038347652E+02 -0.19917810091E+04  0.19921054833E+04  0.12699999809E+01 0. -1.
       -4    1    3    3    0  502  0.16266530724E+02  0.32038347652E+02  0.72102757283E+03  0.72192342351E+03  0.12699999809E+01 0.  1.
</event>
<event>
 5   0  0.2441340E-05  0.2482858E+04  0.7818609E-02  0.8409118E-01
       -2   -1    0    0    0  501  0.00000000000E+00  0.00000000000E+00  0.94982762085E+03  0.94982762085E+03  0.25500000920E-02 0. -1.
        2   -1    0    0  501    0  0.00000000000E+00  0.00000000000E+00 -0.16225538548E+04  0.16225538548E+04  0.25500000920E-02 0.  1.
    10030    2    1    2    0    0  0.00000000000E+00  0.00000000000E+00 -0.67272623397E+03  0.25723814757E+04  0.24828584073E+04 0.  0.
        3    1    3    3  502    0  0.61941175798E+03 -0.10570733294E+04 -0.12896669381E+03  0.12319526647E+04  0.10100000352E+00 0.  1.
       -3    1    3    3    0  502 -0.61941175798E+03  0.10570733294E+04 -0.54375954016E+03  0.13404288110E+04  0.10100000352E+00 0. -1.
</event>
<event>
 5   0  0.2345143E-05  0.2610113E+04  0.7818609E-02  0.8364774E-01
        2   -1    0    0  501    0  0.00000000000E+00  0.00000000000E+00  0.13220627626E+04  0.13220627626E+04  0.25500000920E-02 0. -1.
       -2   -1    0    0    0  501  0.00000000000E+00  0.00000000000E+00 -0.12882694212E+04  0.12882694212E+04  0.25500000920E-02 0.  1.
    10030    2    1    2    0    0  0.00000000000E+00  0.00000000000E+00  0.33793341388E+02  0.26103321838E+04  0.26101134305E+04 0.  0.
        5    1    3    3  502    0  0.22310486720E+02  0.10395746860E+04 -0.77179966374E+03  0.12949556349E+04  0.46999998093E+01 0.  1.
       -5    1    3    3    0  502 -0.22310486720E+02 -0.10395746860E+04  0.80559300513E+03  0.13153765489E+04  0.46999998093E+01 0. -1.
</event>
<event>
 5   0  0.2441340E-05  0.2427078E+04  0.7818609E-02  0.8429435E-01
       -2   -1    0    0    0  501  0.00000000000E+00  0.00000000000E+00  0.46970885884E+03  0.46970885884E+03  0.25500000920E-02 0.  1.
        2   -1    0    0  501    0  0.00000000000E+00  0.00000000000E+00 -0.31352964414E+04  0.31352964414E+04  0.25500000920E-02 0. -1.
    10030    2    1    2    0    0  0.00000000000E+00  0.00000000000E+00 -0.26655875825E+04  0.36050053002E+04  0.24270776779E+04 0.  0.
        3    1    3    3  502    0 -0.28669039661E+03 -0.10512330114E+04 -0.53929757431E+03  0.12157812762E+04  0.10100000352E+00 0.  1.
       -3    1    3    3    0  502  0.28669039661E+03  0.10512330114E+04 -0.21262900082E+04  0.23892240240E+04  0.10100000352E+00 0. -1.
</event>
<event>
 5   0  0.1002753E-05  0.2506041E+04  0.7818609E-02  0.8400836E-01
        1   -1    0    0  501    0  0.00000000000E+00  0.00000000000E+00  0.14488201784E+04  0.14488201785E+04  0.50400001928E-02 0. -1.
       -1   -1    0    0    0  501  0.00000000000E+00  0.00000000000E+00 -0.10836824041E+04  0.10836824041E+04  0.50400001928E-02 0.  1.
    10030    2    1    2    0    0  0.00000000000E+00  0.00000000000E+00  0.36513777435E+03  0.25325025826E+04  0.25060414475E+04 0.  0.
        5    1    3    3  502    0  0.44607356115E+01 -0.48405551832E+03  0.13505010174E+04  0.14346444616E+04  0.46999998093E+01 0. -1.
       -5    1    3    3    0  502 -0.44607356115E+01  0.48405551832E+03 -0.98536324310E+03  0.10978581210E+04  0.46999998093E+01 0.  1.
</event>
<event>
 5   0  0.2345143E-05  0.2507789E+04  0.7818609E-02  0.8400216E-01
       -2   -1    0    0    0  501  0.00000000000E+00  0.00000000000E+00  0.18770977802E+04  0.18770977802E+04  0.25500000920E-02 0.  1.
        2   -1    0    0  501    0  0.00000000000E+00  0.00000000000E+00 -0.83759667726E+03  0.83759667726E+03  0.25500000920E-02 0. -1.
    10030    2    1    2    0    0  0.00000000000E+00  0.00000000000E+00  0.10395011029E+04  0.27146944574E+04  0.25077885585E+04 0.  0.
        5    1    3    3  502    0  0.47184711444E+03 -0.90159958682E+03  0.13127972734E+04  0.16610178462E+04  0.46999998093E+01 0.  1.
       -5    1    3    3    0  502 -0.47184711444E+03  0.90159958682E+03 -0.27329617043E+03  0.10536766113E+04  0.46999998093E+01 0. -1.
</event>
<event>
 5   0  0.2388326E-05  0.2475013E+04  0.7818609E-02  0.8411942E-01
       -2   -1    0    0    0  501  0.00000000000E+00  0.00000000000E+00  0.17585452816E+04  0.17585452816E+04  0.25500000920E-02 0.  1.
        2   -1    0    0  501    0  0.00000000000E+00  0.00000000000E+00 -0.87084621083E+03  0.87084621083E+03  0.25500000920E-02 0. -1.
    10030    2    1    2    0    0  0.00000000000E+00  0.00000000000E+00  0.88769907080E+03  0.26293914925E+04  0.24750131273E+04 0.  0.
        2    1    3    3  502    0 -0.14285507684E+03 -0.11868491591E+04  0.78381609327E+03  0.14294705899E+04  0.25500000920E-02 0. -1.
       -2    1    3    3    0  502  0.14285507684E+03  0.11868491591E+04  0.10388297753E+03  0.11999209025E+04  0.25500000920E-02 0.  1.
</event>
<event>
 5   0  0.2345143E-05  0.2498653E+04  0.7818609E-02  0.8403465E-01
       -2   -1    0    0    0  501  0.00000000000E+00  0.00000000000E+00  0.11661911600E+04  0.11661911600E+04  0.25500000920E-02 0. -1.
        2   -1    0    0  501    0  0.00000000000E+00  0.00000000000E+00 -0.13383886194E+04  0.13383886194E+04  0.25500000920E-02 0.  1.
    10030    2    1    2    0    0  0.00000000000E+00  0.00000000000E+00 -0.17219745940E+03  0.25045797794E+04  0.24986532185E+04 0.  0.
        5    1    3    3  502    0  0.56541591101E+02  0.58030309588E+03  0.10214411459E+04  0.11761431627E+04  0.46999998093E+01 0. -1.
       -5    1    3    3    0  502 -0.56541591101E+02 -0.58030309588E+03 -0.11936386053E+04  0.13284366167E+04  0.46999998093E+01 0.  1.
</event>
<event>
 5   0  0.1008073E-05  0.2530448E+04  0.7818609E-02  0.8392218E-01
       -1   -1    0    0    0  501  0.00000000000E+00  0.00000000000E+00  0.81997261192E+03  0.81997261194E+03  0.50400001928E-02 0.  1.
        1   -1    0    0  501    0  0.00000000000E+00  0.00000000000E+00 -0.19522509847E+04  0.19522509847E+04  0.50400001928E-02 0. -1.
    10030    2    1    2    0    0  0.00000000000E+00  0.00000000000E+00 -0.11322783728E+04  0.27722235966E+04  0.25304484496E+04 0.  0.
        1    1    3    3  502    0  0.93798689862E+03  0.57862242656E+03  0.11466068948E+03  0.11080480171E+04  0.50400001928E-02 0. -1.
       -1    1    3    3    0  502 -0.93798689862E+03 -0.57862242656E+03 -0.12469390622E+04  0.16641755795E+04  0.50400001928E-02 0.  1.
</event>
<event>
 5   0  0.2388326E-05  0.2476857E+04  0.7818609E-02  0.8411277E-01
       -2   -1    0    0    0  501  0.00000000000E+00  0.00000000000E+00  0.10259020298E+04  0.10259020298E+04  0.25500000920E-02 0. -1.
        2   -1    0    0  501    0  0.00000000000E+00  0.00000000000E+00 -0.14949821410E+04  0.14949821410E+04  0.25500000920E-02 0.  1.
    10030    2    1    2    0    0  0.00000000000E+00  0.00000000000E+00 -0.46908011122E+03  0.25208841707E+04  0.24768570511E+04 0.  0.
        2    1    3    3  502    0 -0.74528228455E+03  0.26205858802E+03  0.73613429084E+03  0.10798213192E+04  0.25500000920E-02 0. -1.
       -2    1    3    3    0  502  0.74528228455E+03 -0.26205858802E+03 -0.12052144021E+04  0.14410628516E+04  0.25500000920E-02 0.  1.
</event>
<event>
 5   0  0.1002753E-05  0.2501997E+04  0.7818609E-02  0.8402275E-01
       -1   -1    0    0    0  501  0.00000000000E+00  0.00000000000E+00  0.74883165312E+03  0.74883165314E+03  0.50400001928E-02 0.  1.
        1   -1    0    0  501    0  0.00000000000E+00  0.00000000000E+00 -0.20899179839E+04  0.20899179840E+04  0.50400001928E-02 0. -1.
    10030    2    1    2    0    0  0.00000000000E+00  0.00000000000E+00 -0.13410863308E+04  0.28387496371E+04  0.25019965938E+04 0.  0.
        5    1    3    3  502    0  0.59499530960E+03  0.54370905268E+03 -0.17560450387E+04  0.19321892300E+04  0.46999998093E+01 0. -1.
       -5    1    3    3    0  502 -0.59499530960E+03 -0.54370905268E+03  0.41495870792E+03  0.90656040709E+03  0.46999998093E+01 0.  1.
</event>
<event>
 5   0  0.1039688E-05  0.2451650E+04  0.7818609E-02  0.8420416E-01
        1   -1    0    0  501    0  0.00000000000E+00  0.00000000000E+00  0.94970096860E+03  0.94970096862E+03  0.50400001928E-02 0.  1.
       -1   -1    0    0    0  501  0.00000000000E+00  0.00000000000E+00 -0.15822322406E+04  0.15822322406E+04  0.50400001928E-02 0. -1.
    10030    2    1    2    0    0  0.00000000000E+00  0.00000000000E+00 -0.63253127196E+03  0.25319332092E+04  0.24516504575E+04 0.  0.
        3    1    3    3  502    0 -0.73551166171E+03  0.40697967821E+03 -0.12376916938E+04  0.14961586153E+04  0.10100000352E+00 0. -1.
       -3    1    3    3    0  502  0.73551166171E+03 -0.40697967821E+03  0.60516042185E+03  0.10357745939E+04  0.10100000352E+00 0.  1.
</event>
<event>
 5   0  0.2432309E-05  0.2493228E+04  0.7818609E-02  0.8405402E-01
       -2   -1    0    0    0  501  0.00000000000E+00  0.00000000000E+00  0.86997556689E+03  0.86997556690E+03  0.25500000920E-02 0. -1.
        2   -1    0    0  501    0  0.00000000000E+00  0.00000000000E+00 -0.17863101339E+04  0.17863101339E+04  0.25500000920E-02 0.  1.
    10030    2    1    2    0    0  0.00000000000E+00  0.00000000000E+00 -0.91633456696E+03  0.26562857007E+04  0.24932277644E+04 0.  0.
        4    1    3    3  502    0 -0.19211287805E+03  0.79387323121E+03  0.54517881851E+03  0.98202017403E+03  0.12699999809E+01 0. -1.
       -4    1    3    3    0  502  0.19211287805E+03 -0.79387323121E+03 -0.14615133855E+04  0.16742655267E+04  0.12699999809E+01 0.  1.
</event>
<event>
 5   0  0.1002753E-05  0.2423657E+04  0.7818609E-02  0.8430699E-01
       -1   -1    0    0    0  501  0.00000000000E+00  0.00000000000E+00  0.10377762771E+04  0.10377762771E+04  0.50400001928E-02 0.  1.
        1   -1    0    0  501    0  0.00000000000E+00  0.00000000000E+00 -0.14150725031E+04  0.14150725031E+04  0.50400001928E-02 0. -1.
    10030    2    1    2    0    0  0.00000000000E+00  0.00000000000E+00 -0.37729622599E+03  0.24528487802E+04  0.24236572976E+04 0.  0.
        5    1    3    3  502    0 -0.41734142188E+03 -0.41010277828E+03  0.88533482468E+03  0.10612247608E+04  0.46999998093E+01 0.  1.
       -5    1    3    3    0  502  0.41734142188E+03  0.41010277828E+03 -0.12626310507E+04  0.13916240194E+04  0.46999998093E+01 0. -1.
</event>
<event>
 5   0  0.1008073E-05  0.2508453E+04  0.7818609E-02  0.8399980E-01
       -1   -1    0    0    0  501  0.00000000000E+00  0.00000000000E+00  0.10854955485E+04  0.10854955485E+04  0.50400001928E-02 0. -1.
        1   -1    0    0  501    0  0.00000000000E+00  0.00000000000E+00 -0.14491856062E+04  0.14491856062E+04  0.50400001928E-02 0.  1.
    10030    2    1    2    0    0  0.00000000000E+00  0.00000000000E+00 -0.36369005764E+03  0.25346811547E+04  0.25084533278E+04 0.  0.
        1    1    3    3  502    0  0.95723771324E+03 -0.79894725862E+03 -0.44542853942E+02  0.12476397026E+04  0.50400001928E-02 0. -1.
       -1    1    3    3    0  502 -0.95723771324E+03  0.79894725862E+03 -0.31914720370E+03  0.12870414521E+04  0.50400001928E-02 0.  1.
</event>
<event>
 5   0  0.1002753E-05  0.2497665E+04  0.7818609E-02  0.8403818E-01
        1   -1    0    0  501    0  0.00000000000E+00  0.00000000000E+00  0.17353518559E+04  0.17353518560E+04  0.50400001928E-02 0. -1.
       -1   -1    0    0    0  501  0.00000000000E+00  0.00000000000E+00 -0.89871283990E+03  0.89871283991E+03  0.50400001928E-02 0.  1.
    10030    2    1    2    0    0  0.00000000000E+00  0.00000000000E+00  0.83663901604E+03  0.26340646959E+04  0.24976653056E+04 0.  0.
        5    1    3    3  502    0 -0.45958795738E+03  0.33060802527E+03  0.15922287864E+04  0.16898927052E+04  0.46999998093E+01 0. -1.
       -5    1    3    3    0  502  0.45958795738E+03 -0.33060802527E+03 -0.75558977033E+03  0.94417199067E+03  0.46999998093E+01 0.  1.
</event>
<event>
 5   0  0.2345143E-05  0.2482895E+04  0.7818609E-02  0.8409105E-01
        2   -1    0    0  501    0  0.00000000000E+00  0.00000000000E+00  0.17921321059E+04  0.17921321059E+04  0.25500000920E-02 0. -1.
       -2   -1    0    0    0  501  0.00000000000E+00  0.00000000000E+00 -0.85997659349E+03  0.85997659350E+03  0.25500000920E-02 0.  1.
    10030    2    1    2    0    0  0.00000000000E+00  0.00000000000E+00  0.93215551238E+03  0.26521086994E+04  0.24828948133E+04 0.  0.
        5    1    3    3  502    0 -0.75599262137E+03 -0.70965783849E+02  0.15151576432E+04  0.16947819210E+04  0.46999998093E+01 0. -1.
       -5    1    3    3    0  502  0.75599262137E+03  0.70965783849E+02 -0.58300213082E+03  0.95732677836E+03  0.46999998093E+01 0.  1.
</event>
<event>
 5   0  0.1008073E-05  0.2500855E+04  0.7818609E-02  0.8402681E-01
        1   -1    0    0  501    0  0.00000000000E+00  0.00000000000E+00  0.15987677691E+04  0.15987677691E+04  0.50400001928E-02 0.  1.
       -1   -1    0    0    0  501  0.00000000000E+00  0.00000000000E+00 -0.97798409774E+03  0.97798409775E+03  0.50400001928E-02 0. -1.
    10030    2    1    2    0    0  0.00000000000E+00  0.00000000000E+00  0.62078367133E+03  0.25767518668E+04  0.25008554170E+04 0.  0.
        1    1    3    3  502    0  0.34605868724E+02  0.88708663010E+03 -0.59692859598E+03  0.10697868966E+04  0.50400001928E-02 0. -1.
       -1    1    3    3    0  502 -0.34605868724E+02 -0.88708663010E+03  0.12177122673E+04  0.15069649702E+04  0.50400001928E-02 0.  1.
</event>
<event>
 5   0  0.8166500E-06  0.2467087E+04  0.7818609E-02  0.8414805E-01
        3   -1    0    0  501    0  0.00000000000E+00  0.00000000000E+00  0.17011667899E+04  0.17011667929E+04  0.10100000352E+00 0.  1.
       -3   -1    0    0    0  501  0.00000000000E+00  0.00000000000E+00 -0.89446260036E+03  0.89446260606E+03  0.10100000352E+00 0. -1.
    10030    2    1    2    0    0  0.00000000000E+00  0.00000000000E+00  0.80670418954E+03  0.25956293990E+04  0.24670874179E+04 0.  0.
        3    1    3    3  502    0 -0.19230577419E+03  0.11926677099E+04  0.66572950196E+03  0.13793598360E+04  0.10100000352E+00 0.  1.
       -3    1    3    3    0  502  0.19230577419E+03 -0.11926677099E+04  0.14097468758E+03  0.12162695630E+04  0.10100000352E+00 0. -1.
</event>
<event>
 5   0  0.2345143E-05  0.2508752E+04  0.7818609E-02  0.8399874E-01
       -2   -1    0    0    0  501  0.00000000000E+00  0.00000000000E+00  0.12450576991E+04  0.12450576991E+04  0.25500000920E-02 0. -1.
        2   -1    0    0  501    0  0.00000000000E+00  0.00000000000E+00 -0.12637636502E+04  0.12637636502E+04  0.25500000920E-02 0.  1.
    10030    2    1    2    0    0  0.00000000000E+00  0.00000000000E+00 -0.18705951124E+02  0.25088213493E+04  0.25087516119E+04 0.  0.
        5    1    3    3  502    0  0.69365203382E+02  0.19471399543E+03 -0.12466066289E+04  0.12636357262E+04  0.46999998093E+01 0.  1.
       -5    1    3    3    0  502 -0.69365203382E+02 -0.19471399543E+03  0.12279006777E+04  0.12451856231E+04  0.46999998093E+01 0. -1.
</event>
<event>
 5   0  0.1002753E-05  0.2460102E+04  0.7818609E-02  0.8417339E-01
       -1   -1    0    0    0  501  0.00000000000E+00  0.00000000000E+00  0.68002422285E+03  0.68002422286E+03  0.50400001928E-02 0.  1.
        1   -1    0    0  501    0  0.00000000000E+00  0.00000000000E+00 -0.22249574835E+04  0.22249574835E+04  0.50400001928E-02 0. -1.
    10030    2    1    2    0    0  0.00000000000E+00  0.00000000000E+00 -0.15449332607E+04  0.29049817064E+04  0.24601016106E+04 0.  0.
        5    1    3    3  502    0  0.43207347828E+02  0.43487075638E+03  0.58525249253E+03  0.73042591662E+03  0.46999998093E+01 0.  1.
       -5    1    3    3    0  502 -0.43207347828E+02 -0.43487075638E+03 -0.21301857532E+04  0.21745557898E+04  0.46999998093E+01 0. -1.
</event>
<event>
 5   0  0.2432309E-05  0.2500683E+04  0.7818609E-02  0.8402742E-01
       -2   -1    0    0    0  501  0.00000000000E+00  0.00000000000E+00  0.13974936253E+04  0.13974936253E+04  0.25500000920E-02 0. -1.
        2   -1    0    0  501    0  0.00000000000E+00  0.00000000000E+00 -0.11186837602E+04  0.11186837602E+04  0.25500000920E-02 0.  1.
    10030    2    1    2    0    0  0.00000000000E+00  0.00000000000E+00  0.27880986515E+03  0.25161773855E+04  0.25006826457E+04 0.  0.
        4    1    3    3  502    0  0.66006626217E+03 -0.15069113255E+03  0.11970873128E+04  0.13752872192E+04  0.12699999809E+01 0. -1.
       -4    1    3    3    0  502 -0.66006626217E+03  0.15069113255E+03 -0.91827744762E+03  0.11408901663E+04  0.12699999809E+01 0.  1.
</event>
<event>
 5   0  0.1015327E-05  0.2498087E+04  0.7818609E-02  0.8403667E-01
       -1   -1    0    0    0  501  0.00000000000E+00  0.00000000000E+00  0.86241712945E+03  0.86241712947E+03  0.50400001928E-02 0.  1.
        1   -1    0    0  501    0  0.00000000000E+00  0.00000000000E+00 -0.18089963604E+04  0.18089963604E+04  0.50400001928E-02 0. -1.
    10030    2    1    2    0    0  0.00000000000E+00  0.00000000000E+00 -0.94657923091E+03  0.26714134898E+04  0.24980868266E+04 0.  0.
        4    1    3    3  502    0 -0.61079189623E+03 -0.54243537821E+01 -0.16383839223E+04  0.17485421510E+04  0.12699999809E+01 0. -1.
       -4    1    3    3    0  502  0.61079189623E+03  0.54243537821E+01  0.69180469138E+03  0.92287133883E+03  0.12699999809E+01 0.  1.
</event>
<event>
 5   0  0.1010338E-05  0.2544020E+04  0.7818609E-02  0.8387469E-01
       -1   -1    0    0    0  501  0.00000000000E+00  0.00000000000E+00  0.54054717959E+03  0.54054717961E+03  0.50400001928E-02 0.  1.
        1   -1    0    0  501    0  0.00000000000E+00  0.00000000000E+00 -0.29932810212E+04  0.29932810212E+04  0.50400001928E-02 0. -1.
    10030    2    1    2    0    0  0.00000000000E+00  0.00000000000E+00 -0.24527338416E+04  0.35338282009E+04  0.25440201366E+04 0.  0.
        2    1    3    3  502    0  0.13697713927E+01 -0.11590746565E+04 -0.49852256108E+03  0.12617371673E+04  0.25500000920E-02 0.  1.
       -2    1    3    3    0  502 -0.13697713927E+01  0.11590746565E+04 -0.19542112806E+04  0.22720910335E+04  0.25500000920E-02 0. -1.
</event>
<event>
 5   0  0.1039688E-05  0.2361401E+04  0.7818609E-02  0.8454097E-01
       -1   -1    0    0    0  501  0.00000000000E+00  0.00000000000E+00  0.74316588330E+03  0.74316588332E+03  0.50400001928E-02 0.  1.
        1   -1    0    0  501    0  0.00000000000E+00  0.00000000000E+00 -0.18758312076E+04  0.18758312076E+04  0.50400001928E-02 0. -1.
    10030    2    1    2    0    0  0.00000000000E+00  0.00000000000E+00 -0.11326653242E+04  0.26189970909E+04  0.23614010725E+04 0.  0.
        3    1    3    3  502    0 -0.97387399327E+02 -0.65404875990E+03 -0.16511921625E+04  0.17786791879E+04  0.10100000352E+00 0. -1.
       -3    1    3    3    0  502  0.97387399327E+02  0.65404875990E+03  0.51852683823E+03  0.84031790297E+03  0.10100000352E+00 0.  1.
</event>
<event>
 5   0  0.2441340E-05  0.2511274E+04  0.7818609E-02  0.8398980E-01
       -2   -1    0    0    0  501  0.00000000000E+00  0.00000000000E+00  0.74233290836E+03  0.74233290836E+03  0.25500000920E-02 0. -1.
        2   -1    0    0  501    0  0.00000000000E+00  0.00000000000E+00 -0.21238777024E+04  0.21238777024E+04  0.25500000920E-02 0.  1.
    10030    2    1    2    0    0  0.00000000000E+00  0.00000000000E+00 -0.13815447941E+04  0.28662106108E+04  0.25112740287E+04 0.  0.
        3    1    3    3  502    0  0.99901585454E+03 -0.41571479403E+03  0.36262870303E+02  0.10826663722E+04  0.10100000352E+00 0. -1.
       -3    1    3    3    0  502 -0.99901585454E+03  0.41571479403E+03 -0.14178076644E+04  0.17835442386E+04  0.10100000352E+00 0.  1.
</event>
<event>
 5   0  0.1010338E-05  0.2497041E+04  0.7818609E-02  0.8404040E-01
       -1   -1    0    0    0  501  0.00000000000E+00  0.00000000000E+00  0.77806502468E+03  0.77806502469E+03  0.50400001928E-02 0.  1.
        1   -1    0    0  501    0  0.00000000000E+00  0.00000000000E+00 -0.20034358581E+04  0.20034358581E+04  0.50400001928E-02 0. -1.
    10030    2    1    2    0    0  0.00000000000E+00  0.00000000000E+00 -0.12253708335E+04  0.27815008828E+04  0.24970409451E+04 0.  0.
        2    1    3    3  502    0  0.87871020540E+02 -0.41487024980E+03  0.69538196923E+03  0.81449046867E+03  0.25500000920E-02 0.  1.
       -2    1    3    3    0  502 -0.87871020540E+02  0.41487024980E+03 -0.19207528027E+04  0.19670104142E+04  0.25500000920E-02 0. -1.
</event>
<event>
 5   0  0.1015327E-05  0.2435328E+04  0.7818609E-02  0.8426395E-01
        1   -1    0    0  501    0  0.00000000000E+00  0.00000000000E+00  0.11191951983E+04  0.11191951983E+04  0.50400001928E-02 0.  1.
       -1   -1    0    0    0  501  0.00000000000E+00  0.00000000000E+00 -0.13247959282E+04  0.13247959282E+04  0.50400001928E-02 0. -1.
    10030    2    1    2    0    0  0.00000000000E+00  0.00000000000E+00 -0.20560072986E+03  0.24439911265E+04  0.24353276918E+04 0.  0.
        4    1    3    3  502    0  0.10697387866E+04  0.40718097277E+03  0.31408831376E+03  0.11869248072E+04  0.12699999809E+01 0. -1.
       -4    1    3    3    0  502 -0.10697387866E+04 -0.40718097277E+03 -0.51968904362E+03  0.12570663193E+04  0.12699999809E+01 0.  1.
</event>
<event>
 5   0  0.2345143E-05  0.2483442E+04  0.7818609E-02  0.8408908E-01
        2   -1    0    0  501    0  0.00000000000E+00  0.00000000000E+00  0.19690049445E+04  0.19690049445E+04  0.25500000920E-02 0. -1.
       -2   -1    0    0    0  501  0.00000000000E+00  0.00000000000E+00 -0.78307148855E+03  0.78307148856E+03  0.25500000920E-02 0.  1.
    10030    2    1    2    0    0  0.00000000000E+00  0.00000000000E+00  0.11859334560E+04  0.27520764331E+04  0.24834424760E+04 0.  0.
        5    1    3    3  502    0  0.55281537037E+03 -0.20464155182E+03 -0.61811987880E+03  0.85415295645E+03  0.46999998093E+01 0.  1.
       -5    1    3    3    0  502 -0.55281537037E+03  0.20464155182E+03  0.18040533348E+04  0.18979234767E+04  0.46999998093E+01 0. -1.
</event>
<event>
 5   0  0.2432309E-05  0.2502843E+04  0.7818609E-02  0.8401973E-01
        2   -1    0    0  501    0  0.00000000000E+00  0.00000000000E+00  0.21371026155E+04  0.21371026155E+04  0.25500000920E-02 0. -1.
       -2   -1    0    0    0  501  0.00000000000E+00  0.00000000000E+00 -0.73279411472E+03  0.73279411472E+03  0.25500000920E-02 0.  1.
    10030    2    1    2    0    0  0.00000000000E+00  0.00000000000E+00  0.14043085008E+04  0.28698967303E+04  0.25028433584E+04 0.  0.
        4    1    3    3  502    0  0.56265799240E+03  0.11048740356E+04  0.50781759622E+03  0.13398548335E+04  0.12699999809E+01 0. -1.
       -4    1    3    3    0  502 -0.56265799240E+03 -0.11048740356E+04  0.89649090459E+03  0.15300418968E+04  0.12699999809E+01 0.  1.
</event>
<event>
 5   0  0.1010338E-05  0.2512086E+04  0.7818609E-02  0.8398693E-01
        1   -1    0    0  501    0  0.00000000000E+00  0.00000000000E+00  0.11363208919E+04  0.11363208919E+04  0.50400001928E-02 0. -1.
       -1   -1    0    0    0  501  0.00000000000E+00  0.00000000000E+00 -0.13883785209E+04  0.13883785209E+04  0.50400001928E-02 0.  1.
    10030    2    1    2    0    0  0.00000000000E+00  0.00000000000E+00 -0.25205762904E+03  0.25246994128E+04  0.25120856030E+04 0.  0.
        2    1    3    3  502    0  0.96103452941E+02  0.44190259520E+03  0.10516613051E+04  0.11447730247E+04  0.25500000920E-02 0. -1.
       -2    1    3    3    0  502 -0.96103452941E+02 -0.44190259520E+03 -0.13037189342E+04  0.13799263881E+04  0.25500000920E-02 0.  1.
</event>
<event>
 5   0  0.1039688E-05  0.2555211E+04  0.7818609E-02  0.8383576E-01
        1   -1    0    0  501    0  0.00000000000E+00  0.00000000000E+00  0.90604216177E+03  0.90604216179E+03  0.50400001928E-02 0.  1.
       -1   -1    0    0    0  501  0.00000000000E+00  0.00000000000E+00 -0.18015446448E+04  0.18015446448E+04  0.50400001928E-02 0. -1.
    10030    2    1    2    0    0  0.00000000000E+00  0.00000000000E+00 -0.89550248299E+03  0.27075868066E+04  0.25552106798E+04 0.  0.
        3    1    3    3  502    0 -0.98142407597E+03  0.75934457189E+03 -0.76998785611E+03  0.14603693726E+04  0.10100000352E+00 0. -1.
       -3    1    3    3    0  502  0.98142407597E+03 -0.75934457189E+03 -0.12551462688E+03  0.12472174339E+04  0.10100000352E+00 0.  1.
</event>
<event>
 5   0  0.1002753E-05  0.2718407E+04  0.7818609E-02  0.8329057E-01
        1   -1    0    0  501    0  0.00000000000E+00  0.00000000000E+00  0.16239090715E+04  0.16239090715E+04  0.50400001928E-02 0. -1.
       -1   -1    0    0    0  501  0.00000000000E+00  0.00000000000E+00 -0.11376461512E+04  0.11376461512E+04  0.50400001928E-02 0.  1.
    10030    2    1    2    0    0  0.00000000000E+00  0.00000000000E+00  0.48626292025E+03  0.27615552227E+04  0.27184068166E+04 0.  0.
        5    1    3    3  502    0  0.14673275616E+03 -0.10738356228E+04 -0.59010609517E+03  0.12340586453E+04  0.46999998093E+01 0.  1.
       -5    1    3    3    0  502 -0.14673275616E+03  0.10738356228E+04  0.10763690154E+04  0.15274965774E+04  0.46999998093E+01 0. -1.
</event>
<event>
 5   0  0.2388326E-05  0.2497661E+04  0.7818609E-02  0.8403819E-01
       -2   -1    0    0    0  501  0.00000000000E+00  0.00000000000E+00  0.14744221534E+04  0.14744221534E+04  0.25500000920E-02 0.  1.
        2   -1    0    0  501    0  0.00000000000E+00  0.00000000000E+00 -0.10577554502E+04  0.10577554502E+04  0.25500000920E-02 0. -1.
    10030    2    1    2    0    0  0.00000000000E+00  0.00000000000E+00  0.41666670325E+03  0.25321776036E+04  0.24976613611E+04 0.  0.
        2    1    3    3  502    0 -0.10914116015E+04 -0.49355750737E+03  0.56648545286E+03  0.13250222886E+04  0.25500000920E-02 0. -1.
       -2    1    3    3    0  502  0.10914116015E+04  0.49355750737E+03 -0.14981874960E+03  0.12071553150E+04  0.25500000920E-02 0.  1.
</event>
<event>
 5   0  0.1008073E-05  0.2504815E+04  0.7818609E-02  0.8401272E-01
       -1   -1    0    0    0  501  0.00000000000E+00  0.00000000000E+00  0.16593668112E+04  0.16593668112E+04  0.50400001928E-02 0.  1.
        1   -1    0    0  501    0  0.00000000000E+00  0.00000000000E+00 -0.94525449692E+03  0.94525449693E+03  0.50400001928E-02 0. -1.
    10030    2    1    2    0    0  0.00000000000E+00  0.00000000000E+00  0.71411231428E+03  0.26046213081E+04  0.25048145164E+04 0.  0.
        1    1    3    3  502    0 -0.27671657385E+03  0.22064173880E+03 -0.89217461788E+03  0.95980747442E+03  0.50400001928E-02 0. -1.
       -1    1    3    3    0  502  0.27671657385E+03 -0.22064173880E+03  0.16062869322E+04  0.16448138337E+04  0.50400001928E-02 0.  1.
</event>
<event>
 5   0  0.2345143E-05  0.2427433E+04  0.7818609E-02  0.8429304E-01
        2   -1    0    0  501    0  0.00000000000E+00  0.00000000000E+00  0.93695566034E+03  0.93695566035E+03  0.25500000920E-02 0.  1.
       -2   -1    0    0    0  501  0.00000000000E+00  0.00000000000E+00 -0.15722275546E+04  0.15722275546E+04  0.25500000920E-02 0. -1.
    10030    2    1    2    0    0  0.00000000000E+00  0.00000000000E+00 -0.63527189422E+03  0.25091832149E+04  0.24274328057E+04 0.  0.
        5    1    3    3  502    0 -0.86106317659E+03  0.73642640697E+03 -0.76741259542E+03  0.13684655014E+04  0.46999998093E+01 0. -1.
       -5    1    3    3    0  502  0.86106317659E+03 -0.73642640697E+03  0.13214070120E+03  0.11407177135E+04  0.46999998093E+01 0.  1.
</event>
<event>
 5   0  0.1039688E-05  0.2272550E+04  0.7818609E-02  0.8488824E-01
       -1   -1    0    0    0  501  0.00000000000E+00  0.00000000000E+00  0.56536813873E+03  0.56536813875E+03  0.50400001928E-02 0.  1.
        1   -1    0    0  501    0  0.00000000000E+00  0.00000000000E+00 -0.22836810826E+04  0.22836810826E+04  0.50400001928E-02 0. -1.
    10030    2    1    2    0    0  0.00000000000E+00  0.00000000000E+00 -0.17183129439E+04  0.28490492213E+04  0.22725496898E+04 0.  0.
        3    1    3    3  502    0  0.74974878072E+03  0.82744783063E+03 -0.59520594767E+03  0.12653312914E+04  0.10100000352E+00 0. -1.
       -3    1    3    3    0  502 -0.74974878072E+03 -0.82744783063E+03 -0.11231069962E+04  0.15837179300E+04  0.10100000352E+00 0.  1.
</event>
<event>
 5   0  0.2388326E-05  0.2578869E+04  0.7818609E-02  0.8375414E-01
       -2   -1    0    0    0  501  0.00000000000E+00  0.00000000000E+00  0.13883301407E+04  0.13883301407E+04  0.25500000920E-02 0. -1.
        2   -1    0    0  501    0  0.00000000000E+00  0.00000000000E+00 -0.11975839433E+04  0.11975839433E+04  0.25500000920E-02 0.  1.
    10030    2    1    2    0    0  0.00000000000E+00  0.00000000000E+00  0.19074619744E+03  0.25859140841E+04  0.25788694302E+04 0.  0.
        2    1    3    3  502    0  0.18144123484E+03  0.86616661070E+02  0.13725157672E+04  0.13871636164E+04  0.25500000920E-02 0. -1.
       -2    1    3    3    0  502 -0.18144123484E+03 -0.86616661070E+02 -0.11817695697E+04  0.11987504676E+04  0.25500000920E-02 0.  1.
</event>
<event>
 5   0  0.2345143E-05  0.2294150E+04  0.7818609E-02  0.8480231E-01
        2   -1    0    0  501    0  0.00000000000E+00  0.00000000000E+00  0.16038424189E+04  0.16038424189E+04  0.25500000920E-02 0. -1.
       -2   -1    0    0    0  501  0.00000000000E+00  0.00000000000E+00 -0.82039295157E+03  0.82039295157E+03  0.25500000920E-02 0.  1.
    10030    2    1    2    0    0  0.00000000000E+00  0.00000000000E+00  0.78344946730E+03  0.24242353704E+04  0.22941499653E+04 0.  0.
        5    1    3    3  502    0  0.36472545163E+03 -0.85368762372E+03 -0.32023889664E+03  0.98202966090E+03  0.46999998093E+01 0.  1.
       -5    1    3    3    0  502 -0.36472545163E+03  0.85368762372E+03  0.11036883639E+04  0.14422057095E+04  0.46999998093E+01 0. -1.
</event>
<event>
 5   0  0.1008073E-05  0.2483200E+04  0.7818609E-02  0.8408995E-01
       -1   -1    0    0    0  501  0.00000000000E+00  0.00000000000E+00  0.12806854244E+04  0.12806854244E+04  0.50400001928E-02 0. -1.
        1   -1    0    0  501    0  0.00000000000E+00  0.00000000000E+00 -0.12037078506E+04  0.12037078507E+04  0.50400001928E-02 0.  1.
    10030    2    1    2    0    0  0.00000000000E+00  0.00000000000E+00  0.76977573762E+02  0.24843932751E+04  0.24832004346E+04 0.  0.
        1    1    3    3  502    0 -0.98441110238E+03  0.73146661808E+03  0.23213399751E+03  0.12481966290E+04  0.50400001928E-02 0. -1.
       -1    1    3    3    0  502  0.98441110238E+03 -0.73146661808E+03 -0.15515642375E+03  0.12361966461E+04  0.50400001928E-02 0.  1.
</event>
<event>
 5   0  0.1015327E-05  0.2492723E+04  0.7818609E-02  0.8405582E-01
        1   -1    0    0  501    0  0.00000000000E+00  0.00000000000E+00  0.17668018460E+04  0.17668018460E+04  0.50400001928E-02 0.  1.
       -1   -1    0    0    0  501  0.00000000000E+00  0.00000000000E+00 -0.87922565021E+03  0.87922565023E+03  0.50400001928E-02 0. -1.
    10030    2    1    2    0    0  0.00000000000E+00  0.00000000000E+00  0.88757619577E+03  0.26460274962E+04  0.24927234117E+04 0.  0.
        4    1    3    3  502    0 -0.13541989459E+03 -0.69012748965E+03 -0.64847562922E+03  0.95662780349E+03  0.12699999809E+01 0. -1.
       -4    1    3    3    0  502  0.13541989459E+03  0.69012748965E+03  0.15360518250E+04  0.16893996927E+04  0.12699999809E+01 0.  1.
</event>
<event>
 5   0  0.2441340E-05  0.2436823E+04  0.7818609E-02  0.8425845E-01
       -2   -1    0    0    0  501  0.00000000000E+00  0.00000000000E+00  0.44908522397E+03  0.44908522398E+03  0.25500000920E-02 0.  1.
        2   -1    0    0  501    0  0.00000000000E+00  0.00000000000E+00 -0.33056680088E+04  0.33056680088E+04  0.25500000920E-02 0. -1.
    10030    2    1    2    0    0  0.00000000000E+00  0.00000000000E+00 -0.28565827848E+04  0.37547532328E+04  0.24368230614E+04 0.  0.
        3    1    3    3  502    0  0.31121022257E+03  0.21612785194E+03  0.35600048292E+03  0.51990326510E+03  0.10100000352E+00 0.  1.
       -3    1    3    3    0  502 -0.31121022257E+03 -0.21612785194E+03 -0.32125832677E+04  0.32348499677E+04  0.10100000352E+00 0. -1.
</event>
<event>
 5   0  0.1002753E-05  0.2627413E+04  0.7818609E-02  0.8358949E-01
        1   -1    0    0  501    0  0.00000000000E+00  0.00000000000E+00  0.13005264665E+04  0.13005264665E+04  0.50400001928E-02 0.  1.
       -1   -1    0    0    0  501  0.00000000000E+00  0.00000000000E+00 -0.13270206084E+04  0.13270206084E+04  0.50400001928E-02 0. -1.
    10030    2    1    2    0    0  0.00000000000E+00  0.00000000000E+00 -0.26494141849E+02  0.26275470749E+04  0.26274134984E+04 0.  0.
        5    1    3    3  502    0  0.56079140358E+03 -0.11871913737E+04  0.30263493229E+02  0.13133348108E+04  0.46999998093E+01 0. -1.
       -5    1    3    3    0  502 -0.56079140358E+03  0.11871913737E+04 -0.56757635078E+02  0.13142122642E+04  0.46999998093E+01 0.  1.
</event>
<event>
 5   0  0.2452457E-05  0.2455165E+04  0.7818609E-02  0.8419135E-01
       -2   -1    0    0    0  501  0.00000000000E+00  0.00000000000E+00  0.14414391954E+04  0.14414391954E+04  0.25500000920E-02 0.  1.
        2   -1    0    0  501    0  0.00000000000E+00  0.00000000000E+00 -0.10454544647E+04  0.10454544647E+04  0.25500000920E-02 0. -1.
    10030    2    1    2    0    0  0.00000000000E+00  0.00000000000E+00  0.39598473065E+03  0.24868936601E+04  0.24551652021E+04 0.  0.
        1    1    3    3  502    0 -0.10543376081E+04  0.18198024377E+03  0.80761260297E+03  0.13405158401E+04  0.50400001928E-02 0. -1.
       -1    1    3    3    0  502  0.10543376081E+04 -0.18198024377E+03 -0.41162787231E+03  0.11463778200E+04  0.50400001928E-02 0.  1.
</event>
<event>
 5   0  0.1008073E-05  0.2482802E+04  0.7818609E-02  0.8409138E-01
       -1   -1    0    0    0  501  0.00000000000E+00  0.00000000000E+00  0.59035752223E+03  0.59035752225E+03  0.50400001928E-02 0. -1.
        1   -1    0    0  501    0  0.00000000000E+00  0.00000000000E+00 -0.26104114132E+04  0.26104114132E+04  0.50400001928E-02 0.  1.
    10030    2    1    2    0    0  0.00000000000E+00  0.00000000000E+00 -0.20200538909E+04  0.32007689354E+04  0.24828016545E+04 0.  0.
        1    1    3    3  502    0  0.81521062923E+03 -0.57824393850E+03 -0.60803054424E+02  0.10013148525E+04  0.50400001928E-02 0. -1.
       -1    1    3    3    0  502 -0.81521062923E+03  0.57824393850E+03 -0.19592508365E+04  0.21994540829E+04  0.50400001928E-02 0.  1.
</event>
<event>
 5   0  0.2388326E-05  0.2447029E+04  0.7818609E-02  0.8422104E-01
        2   -1    0    0  501    0  0.00000000000E+00  0.00000000000E+00  0.22403685815E+04  0.22403685815E+04  0.25500000920E-02 0.  1.
       -2   -1    0    0    0  501  0.00000000000E+00  0.00000000000E+00 -0.66818818889E+03  0.66818818890E+03  0.25500000920E-02 0. -1.
    10030    2    1    2    0    0  0.00000000000E+00  0.00000000000E+00  0.15721803926E+04  0.29085567704E+04  0.24470290762E+04 0.  0.
        2    1    3    3  502    0 -0.11617653370E+04 -0.37879410666E+03  0.85940088779E+03  0.14939054720E+04  0.25500000920E-02 0.  1.
       -2    1    3    3    0  502  0.11617653370E+04  0.37879410666E+03  0.71277950482E+03  0.14146512984E+04  0.25500000920E-02 0. -1.
</event>
<event>
 5   0  0.1039688E-05  0.2553585E+04  0.7818609E-02  0.8384141E-01
        1   -1    0    0  501    0  0.00000000000E+00  0.00000000000E+00  0.11410523222E+04  0.11410523223E+04  0.50400001928E-02 0. -1.
       -1   -1    0    0    0  501  0.00000000000E+00  0.00000000000E+00 -0.14286801417E+04  0.14286801417E+04  0.50400001928E-02 0.  1.
    10030    2    1    2    0    0  0.00000000000E+00  0.00000000000E+00 -0.28762781949E+03  0.25697324640E+04  0.25535847693E+04 0.  0.
        3    1    3    3  502    0 -0.95239699830E+03  0.10588286804E+03 -0.99290744495E+03  0.13799044998E+04  0.10100000352E+00 0. -1.
       -3    1    3    3    0  502  0.95239699830E+03 -0.10588286804E+03  0.70527962546E+03  0.11898279642E+04  0.10100000352E+00 0.  1.
</event>
<event>
 5   0  0.2432309E-05  0.2512359E+04  0.7818609E-02  0.8398596E-01
        2   -1    0    0  501    0  0.00000000000E+00  0.00000000000E+00  0.88633974164E+03  0.88633974165E+03  0.25500000920E-02 0.  1.
       -2   -1    0    0    0  501  0.00000000000E+00  0.00000000000E+00 -0.17803414953E+04  0.17803414953E+04  0.25500000920E-02 0. -1.
    10030    2    1    2    0    0  0.00000000000E+00  0.00000000000E+00 -0.89400175362E+03  0.26666812369E+04  0.25123593859E+04 0.  0.
        4    1    3    3  502    0 -0.10579867799E+04 -0.66286001712E+03 -0.29967148586E+03  0.12839486131E+04  0.12699999809E+01 0.  1.
       -4    1    3    3    0  502  0.10579867799E+04  0.66286001712E+03 -0.59433026776E+03  0.13827326238E+04  0.12699999809E+01 0. -1.
</event>
<event>
 5   0  0.2452457E-05  0.2488470E+04  0.7818609E-02  0.8407105E-01
       -2   -1    0    0    0  501  0.00000000000E+00  0.00000000000E+00  0.18919520884E+04  0.18919520884E+04  0.25500000920E-02 0.  1.
        2   -1    0    0  501    0  0.00000000000E+00  0.00000000000E+00 -0.81826612644E+03  0.81826612645E+03  0.25500000920E-02 0. -1.
    10030    2    1    2    0    0  0.00000000000E+00  0.00000000000E+00  0.10736859620E+04  0.27102182149E+04  0.24884696557E+04 0.  0.
        1    1    3    3  502    0  0.19810445279E+03 -0.33513028032E+03 -0.75022687351E+03  0.84522070536E+03  0.50400001928E-02 0. -1.
       -1    1    3    3    0  502 -0.19810445279E+03  0.33513028032E+03  0.18239128355E+04  0.18649975095E+04  0.50400001928E-02 0.  1.
</event>
<event>
 5   0  0.1039688E-05  0.2499149E+04  0.7818609E-02  0.8403289E-01
        1   -1    0    0  501    0  0.00000000000E+00  0.00000000000E+00  0.14156557971E+04  0.14156557971E+04  0.50400001928E-02 0.  1.
       -1   -1    0    0    0  501  0.00000000000E+00  0.00000000000E+00 -0.11029771243E+04  0.11029771243E+04  0.50400001928E-02 0. -1.
    10030    2    1    2    0    0  0.00000000000E+00  0.00000000000E+00  0.31267867279E+03  0.25186329214E+04  0.24991486231E+04 0.  0.
        3    1    3    3  502    0 -0.11399067534E+04  0.14657081656E+01  0.67223501076E+03  0.13233629414E+04  0.10100000352E+00 0. -1.
       -3    1    3    3    0  502  0.11399067534E+04 -0.14657081656E+01 -0.35955633798E+03  0.11952699800E+04  0.10100000352E+00 0.  1.
</event>
<event>
 5   0  0.1002753E-05  0.2446971E+04  0.7818609E-02  0.8422125E-01
        1   -1    0    0  501    0  0.00000000000E+00  0.00000000000E+00  0.15424247406E+04  0.15424247406E+04  0.50400001928E-02 0. -1.
       -1   -1    0    0    0  501  0.00000000000E+00  0.00000000000E+00 -0.97049584109E+03  0.97049584110E+03  0.50400001928E-02 0.  1.
    10030    2    1    2    0    0  0.00000000000E+00  0.00000000000E+00  0.57192889954E+03  0.25129205817E+04  0.24469710223E+04 0.  0.
        5    1    3    3  502    0  0.39353830596E+03  0.66268363019E+03 -0.68984091439E+03  0.10343715818E+04  0.46999998093E+01 0.  1.
       -5    1    3    3    0  502 -0.39353830596E+03 -0.66268363019E+03  0.12617698139E+04  0.14785490000E+04  0.46999998093E+01 0. -1.
</event>
<event>
 5   0  0.1039688E-05  0.2471373E+04  0.7818609E-02  0.8413256E-01
        1   -1    0    0  501    0  0.00000000000E+00  0.00000000000E+00  0.18433054558E+04  0.18433054558E+04  0.50400001928E-02 0.  1.
       -1   -1    0    0    0  501  0.00000000000E+00  0.00000000000E+00 -0.82836013405E+03  0.82836013406E+03  0.50400001928E-02 0. -1.
    10030    2    1    2    0    0  0.00000000000E+00  0.00000000000E+00  0.10149453217E+04  0.26716655898E+04  0.24713726991E+04 0.  0.
        3    1    3    3  502    0 -0.79017847467E+03  0.90806950210E+02  0.15297852860E+04  0.17242015414E+04  0.10100000352E+00 0.  1.
       -3    1    3    3    0  502  0.79017847467E+03 -0.90806950210E+02 -0.51483996426E+03  0.94746404841E+03  0.10100000352E+00 0. -1.
</event>
<event>
 5   0  0.8166500E-06  0.2488839E+04  0.7818609E-02  0.8406972E-01
       -3   -1    0    0    0  501  0.00000000000E+00  0.00000000000E+00  0.21898283445E+04  0.21898283469E+04  0.10100000352E+00 0. -1.
        3   -1    0    0  501    0  0.00000000000E+00  0.00000000000E+00 -0.70716959713E+03  0.70716960434E+03  0.10100000352E+00 0.  1.
    10030    2    1    2    0    0  0.00000000000E+00  0.00000000000E+00  0.14826587474E+04  0.28969979512E+04  0.24888391206E+04 0.  0.
        1    1    3    3  502    0  0.39243438174E+03 -0.82578364630E+03  0.17239628144E+04  0.19514023573E+04  0.50400001928E-02 0. -1.
       -1    1    3    3    0  502 -0.39243438174E+03  0.82578364630E+03 -0.24130406702E+03  0.94559559392E+03  0.50400001928E-02 0.  1.
</event>
<event>
 5   0  0.2388326E-05  0.2531154E+04  0.7818609E-02  0.8391970E-01
        2   -1    0    0  501    0  0.00000000000E+00  0.00000000000E+00  0.90446389505E+03  0.90446389506E+03  0.25500000920E-02 0.  1.
       -2   -1    0    0    0  501  0.00000000000E+00  0.00000000000E+00 -0.17708668562E+04  0.17708668562E+04  0.25500000920E-02 0. -1.
    10030    2    1    2    0    0  0.00000000000E+00  0.00000000000E+00 -0.86640296116E+03  0.26753307513E+04  0.25311539933E+04 0.  0.
        2    1    3    3  502    0 -0.77614456791E+03  0.92710926927E+03 -0.38071747165E+02  0.12097030402E+04  0.25500000920E-02 0.  1.
       -2    1    3    3    0  502  0.77614456791E+03 -0.92710926927E+03 -0.82833121399E+03  0.14656277111E+04  0.25500000920E-02 0. -1.
</event>
<event>
 5   0  0.1039688E-05  0.2451317E+04  0.7818609E-02  0.8420537E-01
        1   -1    0    0  501    0  0.00000000000E+00  0.00000000000E+00  0.23787212999E+04  0.23787212999E+04  0.50400001928E-02 0. -1.
       -1   -1    0    0    0  501  0.00000000000E+00  0.00000000000E+00 -0.63153214720E+03  0.63153214722E+03  0.50400001928E-02 0.  1.
    10030    2    1    2    0    0  0.00000000000E+00  0.00000000000E+00  0.17471891527E+04  0.30102534471E+04  0.24513171726E+04 0.  0.
        3    1    3    3  502    0 -0.10703927079E+03 -0.12813912422E+03  0.23646905836E+04  0.23705776948E+04  0.10100000352E+00 0. -1.
       -3    1    3    3    0  502  0.10703927079E+03  0.12813912422E+03 -0.61750143095E+03  0.63967575229E+03  0.10100000352E+00 0.  1.
</event>
<event>
 5   0  0.2452457E-05  0.2503148E+04  0.7818609E-02  0.8401865E-01
        2   -1    0    0  501    0  0.00000000000E+00  0.00000000000E+00  0.21278675165E+04  0.21278675165E+04  0.25500000920E-02 0.  1.
       -2   -1    0    0    0  501  0.00000000000E+00  0.00000000000E+00 -0.73615366449E+03  0.73615366450E+03  0.25500000920E-02 0. -1.
    10030    2    1    2    0    0  0.00000000000E+00  0.00000000000E+00  0.13917138520E+04  0.28640211810E+04  0.25031479939E+04 0.  0.
        1    1    3    3  502    0 -0.10621119955E+04 -0.65579203646E+03  0.59166612091E+03  0.13813811511E+04  0.50400001928E-02 0.  1.
       -1    1    3    3    0  502  0.10621119955E+04  0.65579203646E+03  0.80004773109E+03  0.14826400298E+04  0.50400001928E-02 0. -1.
</event>
<event>
 5   0  0.2432309E-05  0.2520100E+04  0.7818609E-02  0.8395860E-01
        2   -1    0    0  501    0  0.00000000000E+00  0.00000000000E+00  0.13990205683E+04  0.13990205683E+04  0.25500000920E-02 0. -1.
       -2   -1    0    0    0  501  0.00000000000E+00  0.00000000000E+00 -0.11348842512E+04  0.11348842512E+04  0.25500000920E-02 0.  1.
    10030    2    1    2    0    0  0.00000000000E+00  0.00000000000E+00  0.26413631710E+03  0.25339048195E+04  0.25201003235E+04 0.  0.
        4    1    3    3  502    0  0.10936726138E+04 -0.10124904473E+02  0.76119720371E+03  0.13325333375E+04  0.12699999809E+01 0. -1.
       -4    1    3    3    0  502 -0.10936726138E+04  0.10124904473E+02 -0.49706088661E+03  0.12013714820E+04  0.12699999809E+01 0.  1.
</event>
<event>
 5   0  0.1002753E-05  0.2480150E+04  0.7818609E-02  0.8410091E-01
       -1   -1    0    0    0  501  0.00000000000E+00  0.00000000000E+00  0.16123459028E+04  0.16123459028E+04  0.50400001928E-02 0. -1.
        1   -1    0    0  501    0  0.00000000000E+00  0.00000000000E+00 -0.95375687080E+03  0.95375687081E+03  0.50400001928E-02 0.  1.
    10030    2    1    2    0    0  0.00000000000E+00  0.00000000000E+00  0.65858903201E+03  0.25661027736E+04  0.24801499817E+04 0.  0.
        5    1    3    3  502    0  0.91940645877E+03  0.28602716052E+03  0.11378134435E+04  0.14905573773E+04  0.46999998093E+01 0. -1.
       -5    1    3    3    0  502 -0.91940645877E+03 -0.28602716052E+03 -0.47922441145E+03  0.10755453963E+04  0.46999998093E+01 0.  1.
</event>
<event>
 5   0  0.2441340E-05  0.2509563E+04  0.7818609E-02  0.8399587E-01
        2   -1    0    0  501    0  0.00000000000E+00  0.00000000000E+00  0.10311233719E+04  0.10311233719E+04  0.25500000920E-02 0. -1.
       -2   -1    0    0    0  501  0.00000000000E+00  0.00000000000E+00 -0.15269523025E+04  0.15269523025E+04  0.25500000920E-02 0.  1.
    10030    2    1    2    0    0  0.00000000000E+00  0.00000000000E+00 -0.49582893059E+03  0.25580756744E+04  0.25095626766E+04 0.  0.
        3    1    3    3  502    0 -0.10666844526E+04  0.32180268819E+02 -0.92069232646E+03  0.14094416133E+04  0.10100000352E+00 0.  1.
       -3    1    3    3    0  502  0.10666844526E+04 -0.32180268819E+02  0.42486339587E+03  0.11486340611E+04  0.10100000352E+00 0. -1.
</event>
<event>
 5   0  0.2441340E-05  0.2506454E+04  0.7818609E-02  0.8400690E-01
       -2   -1    0    0    0  501  0.00000000000E+00  0.00000000000E+00  0.61801571196E+03  0.61801571197E+03  0.25500000920E-02 0.  1.
        2   -1    0    0  501    0  0.00000000000E+00  0.00000000000E+00 -0.25413232764E+04  0.25413232764E+04  0.25500000920E-02 0. -1.
    10030    2    1    2    0    0  0.00000000000E+00  0.00000000000E+00 -0.19233075645E+04  0.31593389884E+04  0.25064538408E+04 0.  0.
        3    1    3    3  502    0  0.56041638363E+03  0.53849241921E+03  0.27755870019E+03  0.82527537879E+03  0.10100000352E+00 0.  1.
       -3    1    3    3    0  502 -0.56041638363E+03 -0.53849241921E+03 -0.22008662647E+04  0.23340636096E+04  0.10100000352E+00 0. -1.
</event>
<event>
 5   0  0.1010338E-05  0.2487215E+04  0.7818609E-02  0.8407554E-01
       -1   -1    0    0    0  501  0.00000000000E+00  0.00000000000E+00  0.84478081416E+03  0.84478081418E+03  0.50400001928E-02 0. -1.
        1   -1    0    0  501    0  0.00000000000E+00  0.00000000000E+00 -0.18307236712E+04  0.18307236712E+04  0.50400001928E-02 0.  1.
    10030    2    1    2    0    0  0.00000000000E+00  0.00000000000E+00 -0.98594285706E+03  0.26755044854E+04  0.24872154981E+04 0.  0.
        2    1    3    3  502    0  0.18372285828E+03 -0.23280243703E+03  0.80618587160E+03  0.85900333114E+03  0.25500000920E-02 0. -1.
       -2    1    3    3    0  502 -0.18372285828E+03  0.23280243703E+03 -0.17921287287E+04  0.18165011543E+04  0.25500000920E-02 0.  1.
</event>
<event>
 5   0  0.1002753E-05  0.2459646E+04  0.7818609E-02  0.8417504E-01
       -1   -1    0    0    0  501  0.00000000000E+00  0.00000000000E+00  0.80060121400E+03  0.80060121401E+03  0.50400001928E-02 0. -1.
        1   -1    0    0  501    0  0.00000000000E+00  0.00000000000E+00 -0.18891612847E+04  0.18891612847E+04  0.50400001928E-02 0.  1.
    10030    2    1    2    0    0  0.00000000000E+00  0.00000000000E+00 -0.10885600707E+04  0.26897624987E+04  0.24596461681E+04 0.  0.
        5    1    3    3  502    0 -0.77256058705E+03 -0.53644320581E+03 -0.14107617633E+04  0.16955506529E+04  0.46999998093E+01 0.  1.
       -5    1    3    3    0  502  0.77256058705E+03  0.53644320581E+03  0.32220169258E+03  0.99421184585E+03  0.46999998093E+01 0. -1.
</event>
<event>
 5   0  0.1008073E-05  0.2437210E+04  0.7818609E-02  0.8425703E-01
       -1   -1    0    0    0  501  0.00000000000E+00  0.00000000000E+00  0.87404544109E+03  0.87404544110E+03  0.50400001928E-02 0. -1.
        1   -1    0    0  501    0  0.00000000000E+00  0.00000000000E+00 -0.16989937724E+04  0.16989937724E+04  0.50400001928E-02 0.  1.
    10030    2    1    2    0    0  0.00000000000E+00  0.00000000000E+00 -0.82494833127E+03  0.25730392135E+04  0.24372096842E+04 0.  0.
        1    1    3    3  502    0 -0.11257640072E+04 -0.25132752668E+03 -0.82742856460E+03  0.14195591411E+04  0.50400001928E-02 0.  1.
       -1    1    3    3    0  502  0.11257640072E+04  0.25132752668E+03  0.24802333284E+01  0.11534800723E+04  0.50400001928E-02 0. -1.
</event>
<event>
 5   0  0.2345143E-05  0.2493617E+04  0.7818609E-02  0.8405263E-01
        2   -1    0    0  501    0  0.00000000000E+00  0.00000000000E+00  0.10105101034E+04  0.10105101034E+04  0.25500000920E-02 0. -1.
       -2   -1    0    0    0  501  0.00000000000E+00  0.00000000000E+00 -0.15383632303E+04  0.15383632303E+04  0.25500000920E-02 0.  1.
    10030    2    1    2    0    0  0.00000000000E+00  0.00000000000E+00 -0.52785312689E+03  0.25488733337E+04  0.24936171213E+04 0.  0.
        5    1    3    3  502    0  0.10314573677E+04  0.53999106675E+02 -0.97774883269E+03  0.14222640665E+04  0.46999998093E+01 0.  1.
       -5    1    3    3    0  502 -0.10314573677E+04 -0.53999106675E+02  0.44989570580E+03  0.11266092673E+04  0.46999998093E+01 0. -1.
</event>
<event>
 5   0  0.2441340E-05  0.2480866E+04  0.7818609E-02  0.8409834E-01
       -2   -1    0    0    0  501  0.00000000000E+00  0.00000000000E+00  0.57727966404E+03  0.57727966404E+03  0.25500000920E-02 0.  1.
        2   -1    0    0  501    0  0.00000000000E+00  0.00000000000E+00 -0.26653867191E+04  0.26653867191E+04  0.25500000920E-02 0. -1.
    10030    2    1    2    0    0  0.00000000000E+00  0.00000000000E+00 -0.20881070551E+04  0.32426663832E+04  0.24808656149E+04 0.  0.
        3    1    3    3  502    0 -0.34510953255E+03  0.98595734442E+03 -0.16972095998E+03  0.10583088816E+04  0.10100000352E+00 0.  1.
       -3    1    3    3    0  502  0.34510953255E+03 -0.98595734442E+03 -0.19183860951E+04  0.21843575015E+04  0.10100000352E+00 0. -1.
</event>
<event>
 5   0  0.2432309E-05  0.2471568E+04  0.7818609E-02  0.8413185E-01
       -2   -1    0    0    0  501  0.00000000000E+00  0.00000000000E+00  0.69446083638E+03  0.69446083638E+03  0.25500000920E-02 0.  1.
        2   -1    0    0  501    0  0.00000000000E+00  0.00000000000E+00 -0.21990623116E+04  0.21990623116E+04  0.25500000920E-02 0. -1.
    10030    2    1    2    0    0  0.00000000000E+00  0.00000000000E+00 -0.15046014753E+04  0.28935231480E+04  0.24715684512E+04 0.  0.
        4    1    3    3  502    0  0.42189867023E+03 -0.25787939218E+03 -0.20781990696E+04  0.21362147023E+04  0.12699999809E+01 0. -1.
       -4    1    3    3    0  502 -0.42189867023E+03  0.25787939218E+03  0.57359759429E+03  0.75730844570E+03  0.12699999809E+01 0.  1.
</event>
<event>
 5   0  0.2441340E-05  0.2501731E+04  0.7818609E-02  0.8402369E-01
        2   -1    0    0  501    0  0.00000000000E+00  0.00000000000E+00  0.22343083582E+04  0.22343083582E+04  0.25500000920E-02 0.  1.
       -2   -1    0    0    0  501  0.00000000000E+00  0.00000000000E+00 -0.70029035186E+03  0.70029035187E+03  0.25500000920E-02 0. -1.
    10030    2    1    2    0    0  0.00000000000E+00  0.00000000000E+00  0.15340180063E+04  0.29345987100E+04  0.25017310697E+04 0.  0.
        3    1    3    3  502    0 -0.12033736434E+04  0.33445648969E+03  0.68663046576E+03  0.14252826652E+04  0.10100000352E+00 0.  1.
       -3    1    3    3    0  502  0.12033736434E+04 -0.33445648969E+03  0.84738754054E+03  0.15093160448E+04  0.10100000352E+00 0. -1.
</event>
<event>
 5   0  0.1002753E-05  0.2488787E+04  0.7818609E-02  0.8406991E-01
       -1   -1    0    0    0  501  0.00000000000E+00  0.00000000000E+00  0.11677455418E+04  0.11677455418E+04  0.50400001928E-02 0.  1.
        1   -1    0    0  501    0  0.00000000000E+00  0.00000000000E+00 -0.13260723146E+04  0.13260723146E+04  0.50400001928E-02 0. -1.
    10030    2    1    2    0    0  0.00000000000E+00  0.00000000000E+00 -0.15832677274E+03  0.24938178564E+04  0.24887868800E+04 0.  0.
        5    1    3    3  502    0 -0.12812730102E+03 -0.95025278849E+03  0.71559565144E+03  0.11964515008E+04  0.46999998093E+01 0.  1.
       -5    1    3    3    0  502  0.12812730102E+03  0.95025278849E+03 -0.87392242418E+03  0.12973663556E+04  0.46999998093E+01 0. -1.
</event>
<event>
 5   0  0.1015327E-05  0.2490538E+04  0.7818609E-02  0.8406364E-01
       -1   -1    0    0    0  501  0.00000000000E+00  0.00000000000E+00  0.88443837288E+03  0.88443837290E+03  0.50400001928E-02 0. -1.
        1   -1    0    0  501    0  0.00000000000E+00  0.00000000000E+00 -0.17533099770E+04  0.17533099770E+04  0.50400001928E-02 0.  1.
    10030    2    1    2    0    0  0.00000000000E+00  0.00000000000E+00 -0.86887160415E+03  0.26377483499E+04  0.24905377919E+04 0.  0.
        4    1    3    3  502    0  0.11254419487E+04  0.32074190424E+03 -0.88527015079E+03  0.14673785476E+04  0.12699999809E+01 0.  1.
       -4    1    3    3    0  502 -0.11254419487E+04 -0.32074190424E+03  0.16398546645E+02  0.11703698024E+04  0.12699999809E+01 0. -1.
</event>
<event>
 5   0  0.1002753E-05  0.2505370E+04  0.7818609E-02  0.8401075E-01
       -1   -1    0    0    0  501  0.00000000000E+00  0.00000000000E+00  0.93478160948E+03  0.93478160950E+03  0.50400001928E-02 0. -1.
        1   -1    0    0  501    0  0.00000000000E+00  0.00000000000E+00 -0.16787014361E+04  0.16787014361E+04  0.50400001928E-02 0.  1.
    10030    2    1    2    0    0  0.00000000000E+00  0.00000000000E+00 -0.74391982657E+03  0.26134830456E+04  0.25053696177E+04 0.  0.
        5    1    3    3  502    0  0.10727272750E+04  0.44181130735E+03  0.12092956776E+03  0.11664420638E+04  0.46999998093E+01 0. -1.
       -5    1    3    3    0  502 -0.10727272750E+04 -0.44181130735E+03 -0.86484939433E+03  0.14470409817E+04  0.46999998093E+01 0.  1.
</event>
<event>
 5   0  0.1015327E-05  0.2496524E+04  0.7818609E-02  0.8404225E-01
       -1   -1    0    0    0  501  0.00000000000E+00  0.00000000000E+00  0.11224589728E+04  0.11224589728E+04  0.50400001928E-02 0. -1.
        1   -1    0    0  501    0  0.00000000000E+00  0.00000000000E+00 -0.13881642526E+04  0.13881642526E+04  0.50400001928E-02 0.  1.
    10030    2    1    2    0    0  0.00000000000E+00  0.00000000000E+00 -0.26570527980E+03  0.25106232255E+04  0.24965235197E+04 0.  0.
        4    1    3    3  502    0  0.78910263839E+01 -0.97022089819E+03 -0.92263189562E+03  0.13388958463E+04  0.12699999809E+01 0. -1.
       -4    1    3    3    0  502 -0.78910263839E+01  0.97022089819E+03  0.65692661582E+03  0.11717273792E+04  0.12699999809E+01 0.  1.
</event>
<event>
 5   0  0.2441340E-05  0.2527556E+04  0.7818609E-02  0.8393234E-01
        2   -1    0    0  501    0  0.00000000000E+00  0.00000000000E+00  0.15886676385E+04  0.15886676385E+04  0.25500000920E-02 0.  1.
       -2   -1    0    0    0  501  0.00000000000E+00  0.00000000000E+00 -0.10053300306E+04  0.10053300306E+04  0.25500000920E-02 0. -1.
    10030    2    1    2    0    0  0.00000000000E+00  0.00000000000E+00  0.58333760793E+03  0.25939976691E+04  0.25275563579E+04 0.  0.
        3    1    3    3  502    0 -0.65672743137E+03  0.57683143094E+03 -0.64507293079E+03  0.10863445655E+04  0.10100000352E+00 0. -1.
       -3    1    3    3    0  502  0.65672743137E+03 -0.57683143094E+03  0.12284105387E+04  0.15076531036E+04  0.10100000352E+00 0.  1.
</event>
<event>
 5   0  0.1039688E-05  0.2488202E+04  0.7818609E-02  0.8407201E-01
       -1   -1    0    0    0  501  0.00000000000E+00  0.00000000000E+00  0.12219697216E+04  0.12219697216E+04  0.50400001928E-02 0. -1.
        1   -1    0    0  501    0  0.00000000000E+00  0.00000000000E+00 -0.12666332085E+04  0.12666332085E+04  0.50400001928E-02 0.  1.
    10030    2    1    2    0    0  0.00000000000E+00  0.00000000000E+00 -0.44663486869E+02  0.24886029301E+04  0.24882021053E+04 0.  0.
        3    1    3    3  502    0  0.11652333130E+04 -0.39528518844E+03  0.16145956630E+03  0.12410029233E+04  0.10100000352E+00 0. -1.
       -3    1    3    3    0  502 -0.11652333130E+04  0.39528518844E+03 -0.20612305317E+03  0.12476000068E+04  0.10100000352E+00 0.  1.
</event>
<event>
 5   0  0.8166500E-06  0.2595649E+04  0.7818609E-02  0.8369681E-01
        4   -1    0    0  501    0  0.00000000000E+00  0.00000000000E+00  0.11050266495E+04  0.11050273793E+04  0.12699999809E+01 0.  1.
       -4   -1    0    0    0  501  0.00000000000E+00  0.00000000000E+00 -0.15242591779E+04  0.15242597069E+04  0.12699999809E+01 0. -1.
    10030    2    1    2    0    0  0.00000000000E+00  0.00000000000E+00 -0.41923252840E+03  0.26292870862E+04  0.25956491806E+04 0.  0.
        1    1    3    3  502    0  0.13087116707E+03 -0.14395013492E+03  0.10901727154E+04  0.11073957978E+04  0.50400001928E-02 0.  1.
       -1    1    3    3    0  502 -0.13087116707E+03  0.14395013492E+03 -0.15094052438E+04  0.15218912884E+04  0.50400001928E-02 0. -1.
</event>
<event>
 5   0  0.2441340E-05  0.2480593E+04  0.7818609E-02  0.8409932E-01
       -2   -1    0    0    0  501  0.00000000000E+00  0.00000000000E+00  0.62140494727E+03  0.62140494727E+03  0.25500000920E-02 0. -1.
        2   -1    0    0  501    0  0.00000000000E+00  0.00000000000E+00 -0.24755768352E+04  0.24755768352E+04  0.25500000920E-02 0.  1.
    10030    2    1    2    0    0  0.00000000000E+00  0.00000000000E+00 -0.18541718879E+04  0.30969817824E+04  0.24805932296E+04 0.  0.
        3    1    3    3  502    0  0.86709813182E+03  0.14659223980E+03 -0.20190546407E+04  0.22022556862E+04  0.10100000352E+00 0.  1.
       -3    1    3    3    0  502 -0.86709813182E+03 -0.14659223980E+03  0.16488275279E+03  0.89472609627E+03  0.10100000352E+00 0. -1.
</event>
<event>
 5   0  0.1039688E-05  0.2390621E+04  0.7818609E-02  0.8443023E-01
        1   -1    0    0  501    0  0.00000000000E+00  0.00000000000E+00  0.18808207379E+04  0.18808207379E+04  0.50400001928E-02 0.  1.
       -1   -1    0    0    0  501  0.00000000000E+00  0.00000000000E+00 -0.75965063934E+03  0.75965063936E+03  0.50400001928E-02 0. -1.
    10030    2    1    2    0    0  0.00000000000E+00  0.00000000000E+00  0.11211700985E+04  0.26404713773E+04  0.23906205689E+04 0.  0.
        3    1    3    3  502    0  0.11910916884E+04 -0.10011640524E+03  0.56790832202E+03  0.13233452222E+04  0.10100000352E+00 0. -1.
       -3    1    3    3    0  502 -0.11910916884E+04  0.10011640524E+03  0.55326177653E+03  0.13171261550E+04  0.10100000352E+00 0.  1.
</event>
<event>
 5   0  0.2432309E-05  0.2509621E+04  0.7818609E-02  0.8399566E-01
       -2   -1    0    0    0  501  0.00000000000E+00  0.00000000000E+00  0.17935320045E+04  0.17935320045E+04  0.25500000920E-02 0. -1.
        2   -1    0    0  501    0  0.00000000000E+00  0.00000000000E+00 -0.87790417320E+03  0.87790417320E+03  0.25500000920E-02 0.  1.
    10030    2    1    2    0    0  0.00000000000E+00  0.00000000000E+00  0.91562783128E+03  0.26714361777E+04  0.25096208730E+04 0.  0.
        4    1    3    3  502    0 -0.67907584325E+03  0.93035515253E+03 -0.72123926777E+02  0.11540832658E+04  0.12699999809E+01 0.  1.
       -4    1    3    3    0  502  0.67907584325E+03 -0.93035515253E+03  0.98775175806E+03  0.15173529119E+04  0.12699999809E+01 0. -1.
</event>
<event>
 5   0  0.8166500E-06  0.2503975E+04  0.7818609E-02  0.8401571E-01
        4   -1    0    0  501    0  0.00000000000E+00  0.00000000000E+00  0.85522847254E+03  0.85522941550E+03  0.12699999809E+01 0.  1.
       -4   -1    0    0    0  501  0.00000000000E+00  0.00000000000E+00 -0.18328090057E+04  0.18328094457E+04  0.12699999809E+01 0. -1.
    10030    2    1    2    0    0  0.00000000000E+00  0.00000000000E+00 -0.97758053315E+03  0.26880388612E+04  0.25039746845E+04 0.  0.
        5    1    3    3  502    0 -0.98283554888E+03  0.18441126758E+03  0.31989538024E+03  0.10499182711E+04  0.46999998093E+01 0.  1.
       -5    1    3    3    0  502  0.98283554888E+03 -0.18441126758E+03 -0.12974759134E+04  0.16381205901E+04  0.46999998093E+01 0. -1.
</event>
<event>
 5   0  0.1010338E-05  0.2631061E+04  0.7818609E-02  0.8357726E-01
        1   -1    0    0  501    0  0.00000000000E+00  0.00000000000E+00  0.16456072335E+04  0.16456072335E+04  0.50400001928E-02 0.  1.
       -1   -1    0    0    0  501  0.00000000000E+00  0.00000000000E+00 -0.10516610187E+04  0.10516610187E+04  0.50400001928E-02 0. -1.
    10030    2    1    2    0    0  0.00000000000E+00  0.00000000000E+00  0.59394621477E+03  0.26972682522E+04  0.26310613673E+04 0.  0.
        2    1    3    3  502    0 -0.67881667596E+03 -0.52911294841E+03 -0.72298395713E+03  0.11240366515E+04  0.25500000920E-02 0. -1.
       -2    1    3    3    0  502  0.67881667596E+03  0.52911294841E+03  0.13169301719E+04  0.15732316007E+04  0.25500000920E-02 0.  1.
</event>
<event>
 5   0  0.1015327E-05  0.2515437E+04  0.7818609E-02  0.8397507E-01
       -1   -1    0    0    0  501  0.00000000000E+00  0.00000000000E+00  0.13353138668E+04  0.13353138668E+04  0.50400001928E-02 0.  1.
        1   -1    0    0  501    0  0.00000000000E+00  0.00000000000E+00 -0.11846323772E+04  0.11846323772E+04  0.50400001928E-02 0. -1.
    10030    2    1    2    0    0  0.00000000000E+00  0.00000000000E+00  0.15068148966E+03  0.25199462440E+04  0.25154371710E+04 0.  0.
        4    1    3    3  502    0 -0.46336006791E+02  0.10859603459E+03 -0.11790676828E+04  0.11849651210E+04  0.12699999809E+01 0. -1.
       -4    1    3    3    0  502  0.46336006791E+02 -0.10859603459E+03  0.13297491725E+04  0.13349811231E+04  0.12699999809E+01 0.  1.
</event>
<event>
 5   0  0.1039688E-05  0.2508768E+04  0.7818609E-02  0.8399869E-01
        1   -1    0    0  501    0  0.00000000000E+00  0.00000000000E+00  0.18676818212E+04  0.18676818212E+04  0.50400001928E-02 0.  1.
       -1   -1    0    0    0  501  0.00000000000E+00  0.00000000000E+00 -0.84247698855E+03  0.84247698857E+03  0.50400001928E-02 0. -1.
    10030    2    1    2    0    0  0.00000000000E+00  0.00000000000E+00  0.10252048326E+04  0.27101588098E+04  0.25087677902E+04 0.  0.
        3    1    3    3  502    0 -0.43893385899E+03  0.79980596932E+03  0.14425970111E+04  0.17068798047E+04  0.10100000352E+00 0.  1.
       -3    1    3    3    0  502  0.43893385899E+03 -0.79980596932E+03 -0.41739217846E+03  0.10032790050E+04  0.10100000352E+00 0. -1.
</event>
<event>
 5   0  0.1002753E-05  0.2461247E+04  0.7818609E-02  0.8416923E-01
        1   -1    0    0  501    0  0.00000000000E+00  0.00000000000E+00  0.18623931708E+04  0.18623931708E+04  0.50400001928E-02 0.  1.
       -1   -1    0    0    0  501  0.00000000000E+00  0.00000000000E+00 -0.81316581966E+03  0.81316581968E+03  0.50400001928E-02 0. -1.
    10030    2    1    2    0    0  0.00000000000E+00  0.00000000000E+00  0.10492273511E+04  0.26755589904E+04  0.24612472198E+04 0.  0.
        5    1    3    3  502    0 -0.19740689102E+03 -0.10161661122E+04  0.12480283074E+04  0.16214684068E+04  0.46999998093E+01 0.  1.
       -5    1    3    3    0  502  0.19740689102E+03  0.10161661122E+04 -0.19880095627E+03  0.10540905836E+04  0.46999998093E+01 0. -1.
</event>
<event>
 5   0  0.2441340E-05  0.2501401E+04  0.7818609E-02  0.8402487E-01
        2   -1    0    0  501    0  0.00000000000E+00  0.00000000000E+00  0.13321797070E+04  0.13321797070E+04  0.25500000920E-02 0. -1.
       -2   -1    0    0    0  501  0.00000000000E+00  0.00000000000E+00 -0.11742044871E+04  0.11742044871E+04  0.25500000920E-02 0.  1.
    10030    2    1    2    0    0  0.00000000000E+00  0.00000000000E+00  0.15797521983E+03  0.25063841941E+04  0.25014007193E+04 0.  0.
        3    1    3    3  502    0 -0.57986040035E+03  0.81911345363E+03  0.82684342109E+03  0.13003287996E+04  0.10100000352E+00 0. -1.
       -3    1    3    3    0  502  0.57986040035E+03 -0.81911345363E+03 -0.66886820126E+03  0.12060553945E+04  0.10100000352E+00 0.  1.
</event>
<event>
 5   0  0.1008073E-05  0.2494094E+04  0.7818609E-02  0.8405093E-01
       -1   -1    0    0    0  501  0.00000000000E+00  0.00000000000E+00  0.15456709642E+04  0.15456709642E+04  0.50400001928E-02 0.  1.
        1   -1    0    0  501    0  0.00000000000E+00  0.00000000000E+00 -0.10061170886E+04  0.10061170886E+04  0.50400001928E-02 0. -1.
    10030    2    1    2    0    0  0.00000000000E+00  0.00000000000E+00  0.53955387566E+03  0.25517880528E+04  0.24940937997E+04 0.  0.
        1    1    3    3  502    0  0.39422508406E+03 -0.11773735931E+04  0.38867167797E+03  0.13010333078E+04  0.50400001928E-02 0. -1.
       -1    1    3    3    0  502 -0.39422508406E+03  0.11773735931E+04  0.15088219769E+03  0.12507547450E+04  0.50400001928E-02 0.  1.
</event>
<event>
 5   0  0.2452457E-05  0.2119636E+04  0.7818609E-02  0.8552643E-01
       -2   -1    0    0    0  501  0.00000000000E+00  0.00000000000E+00  0.80165845823E+03  0.80165845823E+03  0.25500000920E-02 0.  1.
        2   -1    0    0  501    0  0.00000000000E+00  0.00000000000E+00 -0.14011130403E+04  0.14011130403E+04  0.25500000920E-02 0. -1.
    10030    2    1    2    0    0  0.00000000000E+00  0.00000000000E+00 -0.59945458206E+03  0.22027714985E+04  0.21196359307E+04 0.  0.
        1    1    3    3  502    0  0.31261212225E+03  0.82655374829E+03  0.30828102640E+03  0.93592447828E+03  0.50400001928E-02 0.  1.
       -1    1    3    3    0  502 -0.31261212225E+03 -0.82655374829E+03 -0.90773560846E+03  0.12668470202E+04  0.50400001928E-02 0. -1.
</event>
<event>
 5   0  0.1039688E-05  0.2616346E+04  0.7818609E-02  0.8362670E-01
        1   -1    0    0  501    0  0.00000000000E+00  0.00000000000E+00  0.12985124589E+04  0.12985124589E+04  0.50400001928E-02 0.  1.
       -1   -1    0    0    0  501  0.00000000000E+00  0.00000000000E+00 -0.13179055804E+04  0.13179055804E+04  0.50400001928E-02 0. -1.
    10030    2    1    2    0    0  0.00000000000E+00  0.00000000000E+00 -0.19393121463E+02  0.26164180393E+04  0.26163461665E+04 0.  0.
        3    1    3    3  502    0 -0.24449975302E+03  0.12270642868E+04 -0.39161006633E+03  0.13110397963E+04  0.10100000352E+00 0. -1.
       -3    1    3    3    0  502  0.24449975302E+03 -0.12270642868E+04  0.37221694486E+03  0.13053782430E+04  0.10100000352E+00 0.  1.
</event>
<event>
 5   0  0.1010338E-05  0.2516645E+04  0.7818609E-02  0.8397080E-01
        1   -1    0    0  501    0  0.00000000000E+00  0.00000000000E+00  0.18835560464E+04  0.18835560464E+04  0.50400001928E-02 0.  1.
       -1   -1    0    0    0  501  0.00000000000E+00  0.00000000000E+00 -0.84063067499E+03  0.84063067501E+03  0.50400001928E-02 0. -1.
    10030    2    1    2    0    0  0.00000000000E+00  0.00000000000E+00  0.10429253714E+04  0.27241867214E+04  0.25166445841E+04 0.  0.
        2    1    3    3  502    0 -0.10844931731E+03  0.33648026686E+03 -0.78576890370E+03  0.86163390976E+03  0.25500000920E-02 0. -1.
       -2    1    3    3    0  502  0.10844931731E+03 -0.33648026686E+03  0.18286942751E+04  0.18625528117E+04  0.25500000920E-02 0.  1.
</event>
<event>
 5   0  0.1002753E-05  0.2233901E+04  0.7818609E-02  0.8504449E-01
       -1   -1    0    0    0  501  0.00000000000E+00  0.00000000000E+00  0.52220124619E+03  0.52220124622E+03  0.50400001928E-02 0. -1.
        1   -1    0    0  501    0  0.00000000000E+00  0.00000000000E+00 -0.23890751975E+04  0.23890751975E+04  0.50400001928E-02 0.  1.
    10030    2    1    2    0    0  0.00000000000E+00  0.00000000000E+00 -0.18668739513E+04  0.29112764437E+04  0.22339006651E+04 0.  0.
        5    1    3    3  502    0  0.63087290359E+03  0.62498759775E+03 -0.50559765181E+02  0.88948777264E+03  0.46999998093E+01 0. -1.
       -5    1    3    3    0  502 -0.63087290359E+03 -0.62498759775E+03 -0.18163141861E+04  0.20217886711E+04  0.46999998093E+01 0.  1.
</event>
<event>
 5   0  0.2345143E-05  0.2509026E+04  0.7818609E-02  0.8399777E-01
        2   -1    0    0  501    0  0.00000000000E+00  0.00000000000E+00  0.29988279598E+04  0.29988279598E+04  0.25500000920E-02 0. -1.
       -2   -1    0    0    0  501  0.00000000000E+00  0.00000000000E+00 -0.52480618073E+03  0.52480618073E+03  0.25500000920E-02 0.  1.
    10030    2    1    2    0    0  0.00000000000E+00  0.00000000000E+00  0.24740217791E+04  0.35236341405E+04  0.25090264632E+04 0.  0.
        5    1    3    3  502    0 -0.29283909077E+03  0.64978416477E+03 -0.21284515974E+03  0.74384094126E+03  0.46999998093E+01 0.  1.
       -5    1    3    3    0  502  0.29283909077E+03 -0.64978416477E+03  0.26868669388E+04  0.27797931993E+04  0.46999998093E+01 0. -1.
</event>
<event>
 5   0  0.2345143E-05  0.2466849E+04  0.7818609E-02  0.8414892E-01
        2   -1    0    0  501    0  0.00000000000E+00  0.00000000000E+00  0.15056726780E+04  0.15056726780E+04  0.25500000920E-02 0. -1.
       -2   -1    0    0    0  501  0.00000000000E+00  0.00000000000E+00 -0.10104027785E+04  0.10104027785E+04  0.25500000920E-02 0.  1.
    10030    2    1    2    0    0  0.00000000000E+00  0.00000000000E+00  0.49526989954E+03  0.25160754565E+04  0.24668488866E+04 0.  0.
        5    1    3    3  502    0  0.64839361560E+03 -0.69887378147E+03 -0.55058995035E+03  0.11009133602E+04  0.46999998093E+01 0.  1.
       -5    1    3    3    0  502 -0.64839361560E+03  0.69887378147E+03  0.10458598499E+04  0.14151620963E+04  0.46999998093E+01 0. -1.
</event>
<event>
 5   0  0.2345143E-05  0.2509436E+04  0.7818609E-02  0.8399632E-01
       -2   -1    0    0    0  501  0.00000000000E+00  0.00000000000E+00  0.75622802454E+03  0.75622802454E+03  0.25500000920E-02 0.  1.
        2   -1    0    0  501    0  0.00000000000E+00  0.00000000000E+00 -0.20818021081E+04  0.20818021081E+04  0.25500000920E-02 0. -1.
    10030    2    1    2    0    0  0.00000000000E+00  0.00000000000E+00 -0.13255740836E+04  0.28380301327E+04  0.25094358694E+04 0.  0.
        5    1    3    3  502    0 -0.95866967873E+03  0.80914568040E+03 -0.68884101178E+03  0.14311842350E+04  0.46999998093E+01 0.  1.
       -5    1    3    3    0  502  0.95866967873E+03 -0.80914568040E+03 -0.63673307180E+03  0.14068458977E+04  0.46999998093E+01 0. -1.
</event>
<event>
 5   0  0.1015327E-05  0.2458026E+04  0.7818609E-02  0.8418093E-01
       -1   -1    0    0    0  501  0.00000000000E+00  0.00000000000E+00  0.19092104959E+04  0.19092104960E+04  0.50400001928E-02 0.  1.
        1   -1    0    0  501    0  0.00000000000E+00  0.00000000000E+00 -0.79115056944E+03  0.79115056945E+03  0.50400001928E-02 0. -1.
    10030    2    1    2    0    0  0.00000000000E+00  0.00000000000E+00  0.11180599265E+04  0.27003610654E+04  0.24580260138E+04 0.  0.
        4    1    3    3  502    0  0.63267657577E+02  0.12186303857E+04  0.71977180375E+03  0.14167342291E+04  0.12699999809E+01 0.  1.
       -4    1    3    3    0  502 -0.63267657577E+02 -0.12186303857E+04  0.39828812276E+03  0.12836268364E+04  0.12699999809E+01 0. -1.
</event>
<event>
 5   0  0.2388326E-05  0.2471711E+04  0.7818609E-02  0.8413134E-01
       -2   -1    0    0    0  501  0.00000000000E+00  0.00000000000E+00  0.10889677477E+04  0.10889677477E+04  0.25500000920E-02 0.  1.
        2   -1    0    0  501    0  0.00000000000E+00  0.00000000000E+00 -0.14025561018E+04  0.14025561018E+04  0.25500000920E-02 0. -1.
    10030    2    1    2    0    0  0.00000000000E+00  0.00000000000E+00 -0.31358835403E+03  0.24915238495E+04  0.24717106297E+04 0.  0.
        2    1    3    3  502    0  0.10748180616E+04 -0.20563860127E+03 -0.73569492766E+03  0.13186235727E+04  0.25500000920E-02 0. -1.
       -2    1    3    3    0  502 -0.10748180616E+04  0.20563860127E+03  0.42210657363E+03  0.11729002768E+04  0.25500000920E-02 0.  1.
</event>
<event>
 5   0  0.2441340E-05  0.2257904E+04  0.7818609E-02  0.8494706E-01
        2   -1    0    0  501    0  0.00000000000E+00  0.00000000000E+00  0.19193672360E+04  0.19193672360E+04  0.25500000920E-02 0.  1.
       -2   -1    0    0    0  501  0.00000000000E+00  0.00000000000E+00 -0.66403806835E+03  0.66403806835E+03  0.25500000920E-02 0. -1.
    10030    2    1    2    0    0  0.00000000000E+00  0.00000000000E+00  0.12553291677E+04  0.25834053044E+04  0.22579042600E+04 0.  0.
        3    1    3    3  502    0 -0.52500409012E+03  0.72844927135E+03 -0.15528355564E+03  0.91125223096E+03  0.10100000352E+00 0. -1.
       -3    1    3    3    0  502  0.52500409012E+03 -0.72844927135E+03  0.14106127233E+04  0.16721530734E+04  0.10100000352E+00 0.  1.
</event>
<event>
 5   0  0.1039688E-05  0.2498998E+04  0.7818609E-02  0.8403343E-01
        1   -1    0    0  501    0  0.00000000000E+00  0.00000000000E+00  0.13843247963E+04  0.13843247963E+04  0.50400001928E-02 0. -1.
       -1   -1    0    0    0  501  0.00000000000E+00  0.00000000000E+00 -0.11278043347E+04  0.11278043347E+04  0.50400001928E-02 0.  1.
    10030    2    1    2    0    0  0.00000000000E+00  0.00000000000E+00  0.25652046153E+03  0.25121291310E+04  0.24989978039E+04 0.  0.
        3    1    3    3  502    0  0.73738534702E+03 -0.10760255442E+03 -0.87997160123E+03  0.11531112214E+04  0.10100000352E+00 0.  1.
       -3    1    3    3    0  502 -0.73738534702E+03  0.10760255442E+03  0.11364920628E+04  0.13590179096E+04  0.10100000352E+00 0. -1.
</event>
<event>
 5   0  0.2441340E-05  0.2518388E+04  0.7818609E-02  0.8396464E-01
        2   -1    0    0  501    0  0.00000000000E+00  0.00000000000E+00  0.14678955498E+04  0.14678955498E+04  0.25500000920E-02 0. -1.
       -2   -1    0    0    0  501  0.00000000000E+00  0.00000000000E+00 -0.10801654329E+04  0.10801654329E+04  0.25500000920E-02 0.  1.
    10030    2    1    2    0    0  0.00000000000E+00  0.00000000000E+00  0.38773011684E+03  0.25480609827E+04  0.25183883990E+04 0.  0.
        3    1    3    3  502    0  0.78466415335E+03 -0.42831767170E+03 -0.70338464274E+03  0.11374989351E+04  0.10100000352E+00 0.  1.
       -3    1    3    3    0  502 -0.78466415335E+03  0.42831767170E+03  0.10911147596E+04  0.14105620476E+04  0.10100000352E+00 0. -1.
</event>
<event>
 5   0  0.1008073E-05  0.2484853E+04  0.7818609E-02  0.8408402E-01
       -1   -1    0    0    0  501  0.00000000000E+00  0.00000000000E+00  0.15010983666E+04  0.15010983666E+04  0.50400001928E-02 0.  1.
        1   -1    0    0  501    0  0.00000000000E+00  0.00000000000E+00 -0.10283290773E+04  0.10283290773E+04  0.50400001928E-02 0. -1.
    10030    2    1    2    0    0  0.00000000000E+00  0.00000000000E+00  0.47276928926E+03  0.25294274439E+04  0.24848525898E+04 0.  0.
        1    1    3    3  502    0  0.47886650129E+03  0.11417466394E+04  0.34180192745E+03  0.12844170165E+04  0.50400001928E-02 0. -1.
       -1    1    3    3    0  502 -0.47886650129E+03 -0.11417466394E+04  0.13096736182E+03  0.12450104274E+04  0.50400001928E-02 0.  1.
</event>
<event>
 5   0  0.2345143E-05  0.2505829E+04  0.7818609E-02  0.8400912E-01
        2   -1    0    0  501    0  0.00000000000E+00  0.00000000000E+00  0.15398301165E+04  0.15398301165E+04  0.25500000920E-02 0.  1.
       -2   -1    0    0    0  501  0.00000000000E+00  0.00000000000E+00 -0.10194597809E+04  0.10194597809E+04  0.25500000920E-02 0. -1.
    10030    2    1    2    0    0  0.00000000000E+00  0.00000000000E+00  0.52037033565E+03  0.25592898974E+04  0.25058291029E+04 0.  0.
        5    1    3    3  502    0  0.10929653160E+04 -0.46821147003E+03 -0.14318073049E+03  0.11976301492E+04  0.46999998093E+01 0. -1.
       -5    1    3    3    0  502 -0.10929653160E+04  0.46821147003E+03  0.66355106614E+03  0.13616597482E+04  0.46999998093E+01 0.  1.
</event>
<event>
 5   0  0.1039688E-05  0.2488540E+04  0.7818609E-02  0.8407079E-01
       -1   -1    0    0    0  501  0.00000000000E+00  0.00000000000E+00  0.73461930168E+03  0.73461930170E+03  0.50400001928E-02 0. -1.
        1   -1    0    0  501    0  0.00000000000E+00  0.00000000000E+00 -0.21074975279E+04  0.21074975279E+04  0.50400001928E-02 0.  1.
    10030    2    1    2    0    0  0.00000000000E+00  0.00000000000E+00 -0.13728782262E+04  0.28421168296E+04  0.24885404255E+04 0.  0.
        3    1    3    3  502    0 -0.28689277926E+03  0.75928571396E+03  0.39062707524E+03  0.90078398316E+03  0.10100000352E+00 0. -1.
       -3    1    3    3    0  502  0.28689277926E+03 -0.75928571396E+03 -0.17635053015E+04  0.19413328465E+04  0.10100000352E+00 0.  1.
</event>
<event>
 5   0  0.2388326E-05  0.2583611E+04  0.7818609E-02  0.8373789E-01
        2   -1    0    0  501    0  0.00000000000E+00  0.00000000000E+00  0.12433597148E+04  0.12433597148E+04  0.25500000920E-02 0. -1.
       -2   -1    0    0    0  501  0.00000000000E+00  0.00000000000E+00 -0.13421391489E+04  0.13421391489E+04  0.25500000920E-02 0.  1.
    10030    2    1    2    0    0  0.00000000000E+00  0.00000000000E+00 -0.98779434078E+02  0.25854988638E+04  0.25836112320E+04 0.  0.
        2    1    3    3  502    0  0.72183960570E+03  0.90004094634E+03 -0.63087847298E+03  0.13149653110E+04  0.25500000920E-02 0. -1.
       -2    1    3    3    0  502 -0.72183960570E+03 -0.90004094634E+03  0.53209903890E+03  0.12705335528E+04  0.25500000920E-02 0.  1.
</event>
<event>
 5   0  0.1002753E-05  0.2446992E+04  0.7818609E-02  0.8422117E-01
       -1   -1    0    0    0  501  0.00000000000E+00  0.00000000000E+00  0.75979986636E+03  0.75979986637E+03  0.50400001928E-02 0. -1.
        1   -1    0    0  501    0  0.00000000000E+00  0.00000000000E+00 -0.19701803734E+04  0.19701803734E+04  0.50400001928E-02 0.  1.
    10030    2    1    2    0    0  0.00000000000E+00  0.00000000000E+00 -0.12103805071E+04  0.27299802398E+04  0.24469922635E+04 0.  0.
        5    1    3    3  502    0 -0.15479987062E+03  0.10165546775E+04 -0.13448688382E+04  0.16929384791E+04  0.46999998093E+01 0.  1.
       -5    1    3    3    0  502  0.15479987062E+03 -0.10165546775E+04  0.13448833110E+03  0.10370417607E+04  0.46999998093E+01 0. -1.
</event>
<event>
 5   0  0.1010338E-05  0.2500053E+04  0.7818609E-02  0.8402967E-01
        1   -1    0    0  501    0  0.00000000000E+00  0.00000000000E+00  0.23144469734E+04  0.23144469734E+04  0.50400001928E-02 0.  1.
       -1   -1    0    0    0  501  0.00000000000E+00  0.00000000000E+00 -0.67513585762E+03  0.67513585764E+03  0.50400001928E-02 0. -1.
    10030    2    1    2    0    0  0.00000000000E+00  0.00000000000E+00  0.16393111158E+04  0.29895828310E+04  0.25000529133E+04 0.  0.
        2    1    3    3  502    0  0.58613386826E+03 -0.76978885836E+03  0.17661118367E+04  0.20137722855E+04  0.25500000920E-02 0.  1.
       -2    1    3    3    0  502 -0.58613386826E+03  0.76978885836E+03 -0.12680072094E+03  0.97581054555E+03  0.25500000920E-02 0. -1.
</event>
<event>
 5   0  0.8166500E-06  0.2398042E+04  0.7818609E-02  0.8440237E-01
        3   -1    0    0  501    0  0.00000000000E+00  0.00000000000E+00  0.15150010013E+04  0.15150010046E+04  0.10100000352E+00 0. -1.
       -3   -1    0    0    0  501  0.00000000000E+00  0.00000000000E+00 -0.94894432277E+03  0.94894432815E+03  0.10100000352E+00 0.  1.
    10030    2    1    2    0    0  0.00000000000E+00  0.00000000000E+00  0.56605667849E+03  0.24639453328E+04  0.23980422097E+04 0.  0.
        2    1    3    3  502    0  0.34604854863E+03  0.90469258373E+03  0.10091560495E+04  0.13987902635E+04  0.25500000920E-02 0. -1.
       -2    1    3    3    0  502 -0.34604854863E+03 -0.90469258373E+03 -0.44309937097E+03  0.10651550693E+04  0.25500000920E-02 0.  1.
</event>
<event>
 5   0  0.2345143E-05  0.2504952E+04  0.7818609E-02  0.8401224E-01
        2   -1    0    0  501    0  0.00000000000E+00  0.00000000000E+00  0.14276355750E+04  0.14276355750E+04  0.25500000920E-02 0. -1.
       -2   -1    0    0    0  501  0.00000000000E+00  0.00000000000E+00 -0.10988067484E+04  0.10988067484E+04  0.25500000920E-02 0.  1.
    10030    2    1    2    0    0  0.00000000000E+00  0.00000000000E+00  0.32882882659E+03  0.25264423233E+04  0.25049515795E+04 0.  0.
        5    1    3    3  502    0  0.99766944029E+03  0.74980188057E+03  0.58027979512E+02  0.12493744469E+04  0.46999998093E+01 0.  1.
       -5    1    3    3    0  502 -0.99766944029E+03 -0.74980188057E+03  0.27080084708E+03  0.12770678764E+04  0.46999998093E+01 0. -1.
</event>
<event>
 5   0  0.1002753E-05  0.2439571E+04  0.7818609E-02  0.8424836E-01
       -1   -1    0    0    0  501  0.00000000000E+00  0.00000000000E+00  0.94896933393E+03  0.94896933395E+03  0.50400001928E-02 0. -1.
        1   -1    0    0  501    0  0.00000000000E+00  0.00000000000E+00 -0.15678870461E+04  0.15678870461E+04  0.50400001928E-02 0.  1.
    10030    2    1    2    0    0  0.00000000000E+00  0.00000000000E+00 -0.61891771215E+03  0.25168563800E+04  0.24395710490E+04 0.  0.
        5    1    3    3  502    0 -0.92691434857E+03 -0.74428214514E+03 -0.27433511665E+02  0.11890756110E+04  0.46999998093E+01 0. -1.
       -5    1    3    3    0  502  0.92691434857E+03  0.74428214514E+03 -0.59148420049E+03  0.13277807690E+04  0.46999998093E+01 0.  1.
</event>
<event>
 5   0  0.2452457E-05  0.2498602E+04  0.7818609E-02  0.8403484E-01
       -2   -1    0    0    0  501  0.00000000000E+00  0.00000000000E+00  0.11148622775E+04  0.11148622775E+04  0.25500000920E-02 0.  1.
        2   -1    0    0  501    0  0.00000000000E+00  0.00000000000E+00 -0.13999514140E+04  0.13999514140E+04  0.25500000920E-02 0. -1.
    10030    2    1    2    0    0  0.00000000000E+00  0.00000000000E+00 -0.28508913653E+03  0.25148136915E+04  0.24986020266E+04 0.  0.
        1    1    3    3  502    0 -0.42123677506E+03 -0.10643972121E+04 -0.64616216097E+03  0.13144989099E+04  0.50400001928E-02 0.  1.
       -1    1    3    3    0  502  0.42123677506E+03  0.10643972121E+04  0.36107302444E+03  0.12003147816E+04  0.50400001928E-02 0. -1.
</event>
<event>
 5   0  0.2345143E-05  0.2519268E+04  0.7818609E-02  0.8396153E-01
       -2   -1    0    0    0  501  0.00000000000E+00  0.00000000000E+00  0.93936060608E+03  0.93936060608E+03  0.25500000920E-02 0.  1.
        2   -1    0    0  501    0  0.00000000000E+00  0.00000000000E+00 -0.16891035911E+04  0.16891035911E+04  0.25500000920E-02 0. -1.
    10030    2    1    2    0    0  0.00000000000E+00  0.00000000000E+00 -0.74974298506E+03  0.26284641972E+04  0.25192676500E+04 0.  0.
        5    1    3    3  502    0 -0.95490885343E+03 -0.78883905742E+03 -0.13572629907E+03  0.12460183366E+04  0.46999998093E+01 0. -1.
       -5    1    3    3    0  502  0.95490885343E+03  0.78883905742E+03 -0.61401668599E+03  0.13824458606E+04  0.46999998093E+01 0.  1.
</event>
<event>
 5   0  0.2345143E-05  0.2121738E+04  0.7818609E-02  0.8551728E-01
       -2   -1    0    0    0  501  0.00000000000E+00  0.00000000000E+00  0.91810326557E+03  0.91810326557E+03  0.25500000920E-02 0. -1.
        2   -1    0    0  501    0  0.00000000000E+00  0.00000000000E+00 -0.12258348123E+04  0.12258348123E+04  0.25500000920E-02 0.  1.
    10030    2    1    2    0    0  0.00000000000E+00  0.00000000000E+00 -0.30773154669E+03  0.21439380778E+04  0.21217379142E+04 0.  0.
        5    1    3    3  502    0 -0.74521229710E+03 -0.25067901466E+03  0.56579369108E+03  0.96867224953E+03  0.46999998093E+01 0.  1.
       -5    1    3    3    0  502  0.74521229710E+03  0.25067901466E+03 -0.87352523777E+03  0.11752658283E+04  0.46999998093E+01 0. -1.
</event>
<event>
 5   0  0.1002753E-05  0.2095563E+04  0.7818609E-02  0.8563200E-01
       -1   -1    0    0    0  501  0.00000000000E+00  0.00000000000E+00  0.13861192558E+04  0.13861192558E+04  0.50400001928E-02 0. -1.
        1   -1    0    0  501    0  0.00000000000E+00  0.00000000000E+00 -0.79202867097E+03  0.79202867099E+03  0.50400001928E-02 0.  1.
    10030    2    1    2    0    0  0.00000000000E+00  0.00000000000E+00  0.59409058483E+03  0.21781479268E+04  0.20955631148E+04 0.  0.
        5    1    3    3  502    0 -0.72136049165E+03 -0.67589779922E+03  0.65804416315E+03  0.11875365277E+04  0.46999998093E+01 0. -1.
       -5    1    3    3    0  502  0.72136049165E+03  0.67589779922E+03 -0.63953578314E+02  0.99061139913E+03  0.46999998093E+01 0.  1.
</event>
<event>
 5   0  0.8166500E-06  0.2597769E+04  0.7818609E-02  0.8368959E-01
        3   -1    0    0  501    0  0.00000000000E+00  0.00000000000E+00  0.11656045371E+04  0.11656045414E+04  0.10100000352E+00 0.  1.
       -3   -1    0    0    0  501  0.00000000000E+00  0.00000000000E+00 -0.14474040960E+04  0.14474040995E+04  0.10100000352E+00 0. -1.
    10030    2    1    2    0    0  0.00000000000E+00  0.00000000000E+00 -0.28179955894E+03  0.26130086410E+04  0.25977688824E+04 0.  0.
        2    1    3    3  502    0 -0.96075390384E+03  0.58956541420E+02  0.73632701400E+03  0.12118999171E+04  0.25500000920E-02 0.  1.
       -2    1    3    3    0  502  0.96075390384E+03 -0.58956541420E+02 -0.10181265729E+04  0.14011087239E+04  0.25500000920E-02 0. -1.
</event>
<event>
 5   0  0.2345143E-05  0.2514873E+04  0.7818609E-02  0.8397706E-01
        2   -1    0    0  501    0  0.00000000000E+00  0.00000000000E+00  0.20396071040E+04  0.20396071040E+04  0.25500000920E-02 0. -1.
       -2   -1    0    0    0  501  0.00000000000E+00  0.00000000000E+00 -0.77522135880E+03  0.77522135880E+03  0.25500000920E-02 0.  1.
    10030    2    1    2    0    0  0.00000000000E+00  0.00000000000E+00  0.12643857452E+04  0.28148284628E+04  0.25148733492E+04 0.  0.
        5    1    3    3  502    0  0.51778241188E+02 -0.23504453535E+03 -0.74918976443E+03  0.78691442546E+03  0.46999998093E+01 0.  1.
       -5    1    3    3    0  502 -0.51778241188E+02  0.23504453535E+03  0.20135755096E+04  0.20279140373E+04  0.46999998093E+01 0. -1.
</event>
<event>
 5   0  0.1015327E-05  0.2497527E+04  0.7818609E-02  0.8403867E-01
       -1   -1    0    0    0  501  0.00000000000E+00  0.00000000000E+00  0.70035485610E+03  0.70035485611E+03  0.50400001928E-02 0.  1.
        1   -1    0    0  501    0  0.00000000000E+00  0.00000000000E+00 -0.22265995993E+04  0.22265995993E+04  0.50400001928E-02 0. -1.
    10030    2    1    2    0    0  0.00000000000E+00  0.00000000000E+00 -0.15262447432E+04  0.29269544554E+04  0.24975266501E+04 0.  0.
        4    1    3    3  502    0  0.99759694925E+03 -0.45561128285E+03 -0.14629851425E+04  0.18284169257E+04  0.12699999809E+01 0. -1.
       -4    1    3    3    0  502 -0.99759694925E+03  0.45561128285E+03 -0.63259600729E+02  0.10985375297E+04  0.12699999809E+01 0.  1.
</event>
<event>
 5   0  0.2452457E-05  0.2500505E+04  0.7818609E-02  0.8402806E-01
       -2   -1    0    0    0  501  0.00000000000E+00  0.00000000000E+00  0.11667570425E+04  0.11667570425E+04  0.25500000920E-02 0.  1.
        2   -1    0    0  501    0  0.00000000000E+00  0.00000000000E+00 -0.13397225865E+04  0.13397225865E+04  0.25500000920E-02 0. -1.
    10030    2    1    2    0    0  0.00000000000E+00  0.00000000000E+00 -0.17296554395E+03  0.25064796290E+04  0.25005045593E+04 0.  0.
        1    1    3    3  502    0  0.20714529615E+03  0.13892536727E+03 -0.13145312000E+04  0.13379841954E+04  0.50400001928E-02 0. -1.
       -1    1    3    3    0  502 -0.20714529615E+03 -0.13892536727E+03  0.11415656560E+04  0.11684954336E+04  0.50400001928E-02 0.  1.
</event>
<event>
 5   0  0.1002753E-05  0.2488371E+04  0.7818609E-02  0.8407140E-01
       -1   -1    0    0    0  501  0.00000000000E+00  0.00000000000E+00  0.10270799284E+04  0.10270799284E+04  0.50400001928E-02 0.  1.
        1   -1    0    0  501    0  0.00000000000E+00  0.00000000000E+00 -0.15071832204E+04  0.15071832204E+04  0.50400001928E-02 0. -1.
    10030    2    1    2    0    0  0.00000000000E+00  0.00000000000E+00 -0.48010329200E+03  0.25342631489E+04  0.24883710609E+04 0.  0.
        5    1    3    3  502    0  0.43111745929E+03 -0.42411332386E+03 -0.13474136194E+04  0.14769156804E+04  0.46999998093E+01 0. -1.
       -5    1    3    3    0  502 -0.43111745929E+03  0.42411332386E+03  0.86731032738E+03  0.10573474685E+04  0.46999998093E+01 0.  1.
</event>
<event>
 5   0  0.1008073E-05  0.2470406E+04  0.7818609E-02  0.8413605E-01
       -1   -1    0    0    0  501  0.00000000000E+00  0.00000000000E+00  0.68744821599E+03  0.68744821601E+03  0.50400001928E-02 0. -1.
        1   -1    0    0  501    0  0.00000000000E+00  0.00000000000E+00 -0.22194048877E+04  0.22194048877E+04  0.50400001928E-02 0.  1.
    10030    2    1    2    0    0  0.00000000000E+00  0.00000000000E+00 -0.15319566717E+04  0.29068531037E+04  0.24704055786E+04 0.  0.
        1    1    3    3  502    0 -0.81608824613E+03 -0.55087954657E+03  0.11161398983E+03  0.99092178453E+03  0.50400001928E-02 0. -1.
       -1    1    3    3    0  502  0.81608824613E+03  0.55087954657E+03 -0.16435706615E+04  0.19159313192E+04  0.50400001928E-02 0.  1.
</event>
<event>
 5   0  0.1008073E-05  0.2555333E+04  0.7818609E-02  0.8383534E-01
        1   -1    0    0  501    0  0.00000000000E+00  0.00000000000E+00  0.19451269409E+04  0.19451269409E+04  0.50400001928E-02 0.  1.
       -1   -1    0    0    0  501  0.00000000000E+00  0.00000000000E+00 -0.83924141306E+03  0.83924141307E+03  0.50400001928E-02 0. -1.
    10030    2    1    2    0    0  0.00000000000E+00  0.00000000000E+00  0.11058855279E+04  0.27843683540E+04  0.25553325283E+04 0.  0.
        1    1    3    3  502    0  0.94723896852E+03  0.18366456419E+03  0.14655281771E+04  0.17546416083E+04  0.50400001928E-02 0. -1.
       -1    1    3    3    0  502 -0.94723896852E+03 -0.18366456419E+03 -0.35964264926E+03  0.10297267457E+04  0.50400001928E-02 0.  1.
</event>
<event>
 5   0  0.1015327E-05  0.2463747E+04  0.7818609E-02  0.8416016E-01
        1   -1    0    0  501    0  0.00000000000E+00  0.00000000000E+00  0.79916254648E+03  0.79916254650E+03  0.50400001928E-02 0.  1.
       -1   -1    0    0    0  501  0.00000000000E+00  0.00000000000E+00 -0.18988775137E+04  0.18988775137E+04  0.50400001928E-02 0. -1.
    10030    2    1    2    0    0  0.00000000000E+00  0.00000000000E+00 -0.10997149672E+04  0.26980400602E+04  0.24637465692E+04 0.  0.
        4    1    3    3  502    0 -0.90317356915E+03 -0.27679741124E+03 -0.14157255627E+04  0.17019458818E+04  0.12699999809E+01 0. -1.
       -4    1    3    3    0  502  0.90317356915E+03  0.27679741124E+03  0.31601059547E+03  0.99609417839E+03  0.12699999809E+01 0.  1.
</event>
<event>
 5   0  0.2432309E-05  0.2487562E+04  0.7818609E-02  0.8407430E-01
        2   -1    0    0  501    0  0.00000000000E+00  0.00000000000E+00  0.24082864849E+04  0.24082864849E+04  0.25500000920E-02 0.  1.
       -2   -1    0    0    0  501  0.00000000000E+00  0.00000000000E+00 -0.64236158574E+03  0.64236158575E+03  0.25500000920E-02 0. -1.
    10030    2    1    2    0    0  0.00000000000E+00  0.00000000000E+00  0.17659248992E+04  0.30506480707E+04  0.24875616377E+04 0.  0.
        4    1    3    3  502    0 -0.65881834633E+02  0.24954392524E+03 -0.60915961901E+03  0.66158116743E+03  0.12699999809E+01 0. -1.
       -4    1    3    3    0  502  0.65881834633E+02 -0.24954392524E+03  0.23750845182E+04  0.23890669033E+04  0.12699999809E+01 0.  1.
</event>
<event>
 5   0  0.2441340E-05  0.2530353E+04  0.7818609E-02  0.8392251E-01
        2   -1    0    0  501    0  0.00000000000E+00  0.00000000000E+00  0.13177940998E+04  0.13177940998E+04  0.25500000920E-02 0.  1.
       -2   -1    0    0    0  501  0.00000000000E+00  0.00000000000E+00 -0.12146599510E+04  0.12146599510E+04  0.25500000920E-02 0. -1.
    10030    2    1    2    0    0  0.00000000000E+00  0.00000000000E+00  0.10313414878E+03  0.25324540509E+04  0.25303531111E+04 0.  0.
        3    1    3    3  502    0 -0.63000295346E+03 -0.10735039191E+04 -0.17524262520E+03  0.12569902042E+04  0.10100000352E+00 0. -1.
       -3    1    3    3    0  502  0.63000295346E+03  0.10735039191E+04  0.27837677399E+03  0.12754638466E+04  0.10100000352E+00 0.  1.
</event>
<event>
 5   0  0.1008073E-05  0.2565590E+04  0.7818609E-02  0.8379984E-01
       -1   -1    0    0    0  501  0.00000000000E+00  0.00000000000E+00  0.16233469259E+04  0.16233469259E+04  0.50400001928E-02 0.  1.
        1   -1    0    0  501    0  0.00000000000E+00  0.00000000000E+00 -0.10136853174E+04  0.10136853174E+04  0.50400001928E-02 0. -1.
    10030    2    1    2    0    0  0.00000000000E+00  0.00000000000E+00  0.60966160851E+03  0.26370322433E+04  0.25655899468E+04 0.  0.
        1    1    3    3  502    0 -0.11360249704E+04  0.59142692795E+03  0.37912354399E+03  0.13356920327E+04  0.50400001928E-02 0.  1.
       -1    1    3    3    0  502  0.11360249704E+04 -0.59142692795E+03  0.23053806451E+03  0.13013402106E+04  0.50400001928E-02 0. -1.
</event>
<event>
 5   0  0.2345143E-05  0.2515423E+04  0.7818609E-02  0.8397511E-01
       -2   -1    0    0    0  501  0.00000000000E+00  0.00000000000E+00  0.11511356064E+04  0.11511356064E+04  0.25500000920E-02 0. -1.
        2   -1    0    0  501    0  0.00000000000E+00  0.00000000000E+00 -0.13741548040E+04  0.13741548040E+04  0.25500000920E-02 0.  1.
    10030    2    1    2    0    0  0.00000000000E+00  0.00000000000E+00 -0.22301919760E+03  0.25252904105E+04  0.25154232437E+04 0.  0.
        5    1    3    3  502    0 -0.54450574108E+02  0.22249390886E+03  0.11300095540E+04  0.11530013385E+04  0.46999998093E+01 0. -1.
       -5    1    3    3    0  502  0.54450574108E+02 -0.22249390886E+03 -0.13530287516E+04  0.13722890720E+04  0.46999998093E+01 0.  1.
</event>
<event>
 5   0  0.2441340E-05  0.2508307E+04  0.7818609E-02  0.8400032E-01
        2   -1    0    0  501    0  0.00000000000E+00  0.00000000000E+00  0.17788151587E+04  0.17788151587E+04  0.25500000920E-02 0.  1.
       -2   -1    0    0    0  501  0.00000000000E+00  0.00000000000E+00 -0.88424067905E+03  0.88424067906E+03  0.25500000920E-02 0. -1.
    10030    2    1    2    0    0  0.00000000000E+00  0.00000000000E+00  0.89457447969E+03  0.26630558378E+04  0.25083067786E+04 0.  0.
        3    1    3    3  502    0 -0.57270390385E+03 -0.99375990956E+03  0.98588377925E+03  0.15124534227E+04  0.10100000352E+00 0.  1.
       -3    1    3    3    0  502  0.57270390385E+03  0.99375990956E+03 -0.91309299560E+02  0.11506024151E+04  0.10100000352E+00 0. -1.
</event>
<event>
 5   0  0.2432309E-05  0.2495818E+04  0.7818609E-02  0.8404477E-01
       -2   -1    0    0    0  501  0.00000000000E+00  0.00000000000E+00  0.80500275517E+03  0.80500275518E+03  0.25500000920E-02 0. -1.
        2   -1    0    0  501    0  0.00000000000E+00  0.00000000000E+00 -0.19344989987E+04  0.19344989987E+04  0.25500000920E-02 0.  1.
    10030    2    1    2    0    0  0.00000000000E+00  0.00000000000E+00 -0.11294962435E+04  0.27395017538E+04  0.24958181214E+04 0.  0.
        4    1    3    3  502    0 -0.61601572386E+03  0.89968154941E+03 -0.12309450596E+04  0.16444237943E+04  0.12699999809E+01 0.  1.
       -4    1    3    3    0  502  0.61601572386E+03 -0.89968154941E+03  0.10144881613E+03  0.10950779596E+04  0.12699999809E+01 0. -1.
</event>
<event>
 5   0  0.2388326E-05  0.2494166E+04  0.7818609E-02  0.8405067E-01
        2   -1    0    0  501    0  0.00000000000E+00  0.00000000000E+00  0.99212628322E+03  0.99212628322E+03  0.25500000920E-02 0. -1.
       -2   -1    0    0    0  501  0.00000000000E+00  0.00000000000E+00 -0.15675584405E+04  0.15675584405E+04  0.25500000920E-02 0.  1.
    10030    2    1    2    0    0  0.00000000000E+00  0.00000000000E+00 -0.57543215724E+03  0.25596847237E+04  0.24941659362E+04 0.  0.
        2    1    3    3  502    0  0.28774201103E+02  0.45086241876E+03  0.90519111227E+03  0.10116698202E+04  0.25500000920E-02 0. -1.
       -2    1    3    3    0  502 -0.28774201103E+02 -0.45086241876E+03 -0.14806232695E+04  0.15480149035E+04  0.25500000920E-02 0.  1.
</event>
<event>
 5   0  0.2388326E-05  0.2491385E+04  0.7818609E-02  0.8406061E-01
       -2   -1    0    0    0  501  0.00000000000E+00  0.00000000000E+00  0.81845181187E+03  0.81845181188E+03  0.25500000920E-02 0.  1.
        2   -1    0    0  501    0  0.00000000000E+00  0.00000000000E+00 -0.18959576858E+04  0.18959576858E+04  0.25500000920E-02 0. -1.
    10030    2    1    2    0    0  0.00000000000E+00  0.00000000000E+00 -0.10775058739E+04  0.27144094977E+04  0.24913851595E+04 0.  0.
        2    1    3    3  502    0  0.79571328506E+03 -0.84231742427E+03 -0.10369520143E+04  0.15549687313E+04  0.25500000920E-02 0. -1.
       -2    1    3    3    0  502 -0.79571328506E+03  0.84231742427E+03 -0.40553859605E+02  0.11594407664E+04  0.25500000920E-02 0.  1.
</event>
<event>
 5   0  0.2388326E-05  0.2585019E+04  0.7818609E-02  0.8373308E-01
       -2   -1    0    0    0  501  0.00000000000E+00  0.00000000000E+00  0.59420091512E+03  0.59420091513E+03  0.25500000920E-02 0.  1.
        2   -1    0    0  501    0  0.00000000000E+00  0.00000000000E+00 -0.28114752843E+04  0.28114752843E+04  0.25500000920E-02 0. -1.
    10030    2    1    2    0    0  0.00000000000E+00  0.00000000000E+00 -0.22172743691E+04  0.34056761994E+04  0.25850192934E+04 0.  0.
        2    1    3    3  502    0 -0.12530115190E+04  0.18567713893E+03 -0.14472730169E+04  0.19233078413E+04  0.25500000920E-02 0.  1.
       -2    1    3    3    0  502  0.12530115190E+04 -0.18567713893E+03 -0.77000135221E+03  0.14823683581E+04  0.25500000920E-02 0. -1.
</event>
<event>
 5   0  0.2441340E-05  0.2503892E+04  0.7818609E-02  0.8401600E-01
       -2   -1    0    0    0  501  0.00000000000E+00  0.00000000000E+00  0.89766623193E+03  0.89766623193E+03  0.25500000920E-02 0. -1.
        2   -1    0    0  501    0  0.00000000000E+00  0.00000000000E+00 -0.17460488757E+04  0.17460488757E+04  0.25500000920E-02 0.  1.
    10030    2    1    2    0    0  0.00000000000E+00  0.00000000000E+00 -0.84838264375E+03  0.26437151076E+04  0.25038922621E+04 0.  0.
        3    1    3    3  502    0 -0.68423761018E+03 -0.87323774236E+03 -0.10368017041E+04  0.15184475775E+04  0.10100000352E+00 0.  1.
       -3    1    3    3    0  502  0.68423761018E+03  0.87323774236E+03  0.18841906030E+03  0.11252675301E+04  0.10100000352E+00 0. -1.
</event>
<event>
 5   0  0.2432309E-05  0.2494614E+04  0.7818609E-02  0.8404907E-01
        2   -1    0    0  501    0  0.00000000000E+00  0.00000000000E+00  0.15587537985E+04  0.15587537985E+04  0.25500000920E-02 0.  1.
       -2   -1    0    0    0  501  0.00000000000E+00  0.00000000000E+00 -0.99808898129E+03  0.99808898130E+03  0.25500000920E-02 0. -1.
    10030    2    1    2    0    0  0.00000000000E+00  0.00000000000E+00  0.56066481719E+03  0.25568427798E+04  0.24946141913E+04 0.  0.
        4    1    3    3  502    0 -0.36607065247E+03 -0.73397293126E+03  0.12434806439E+04  0.14896206602E+04  0.12699999809E+01 0.  1.
       -4    1    3    3    0  502  0.36607065247E+03  0.73397293126E+03 -0.68281582676E+03  0.10672221196E+04  0.12699999809E+01 0. -1.
</event>
<event>
 5   0  0.2452457E-05  0.2528946E+04  0.7818609E-02  0.8392745E-01
       -2   -1    0    0    0  501  0.00000000000E+00  0.00000000000E+00  0.10575365463E+04  0.10575365463E+04  0.25500000920E-02 0.  1.
        2   -1    0    0  501    0  0.00000000000E+00  0.00000000000E+00 -0.15119025105E+04  0.15119025105E+04  0.25500000920E-02 0. -1.
    10030    2    1    2    0    0  0.00000000000E+00  0.00000000000E+00 -0.45436596419E+03  0.25694390569E+04  0.25289461516E+04 0.  0.
        1    1    3    3  502    0 -0.29916427373E+03  0.85505546014E+03 -0.11235063875E+04  0.14432206017E+04  0.50400001928E-02 0. -1.
       -1    1    3    3    0  502  0.29916427373E+03 -0.85505546014E+03  0.66914042328E+03  0.11262184551E+04  0.50400001928E-02 0.  1.
</event>
<event>
 5   0  0.1008073E-05  0.2495017E+04  0.7818609E-02  0.8404763E-01
        1   -1    0    0  501    0  0.00000000000E+00  0.00000000000E+00  0.11770944773E+04  0.11770944773E+04  0.50400001928E-02 0.  1.
       -1   -1    0    0    0  501  0.00000000000E+00  0.00000000000E+00 -0.13221351208E+04  0.13221351208E+04  0.50400001928E-02 0. -1.
    10030    2    1    2    0    0  0.00000000000E+00  0.00000000000E+00 -0.14504064349E+03  0.24992295981E+04  0.24950173938E+04 0.  0.
        1    1    3    3  502    0  0.71450405585E+03  0.44208278261E+03 -0.99620763641E+03  0.13032201991E+04  0.50400001928E-02 0. -1.
       -1    1    3    3    0  502 -0.71450405585E+03 -0.44208278261E+03  0.85116699292E+03  0.11960093989E+04  0.50400001928E-02 0.  1.
</event>
<event>
 5   0  0.1039688E-05  0.2492132E+04  0.7818609E-02  0.8405794E-01
        1   -1    0    0  501    0  0.00000000000E+00  0.00000000000E+00  0.11981371044E+04  0.11981371044E+04  0.50400001928E-02 0. -1.
       -1   -1    0    0    0  501  0.00000000000E+00  0.00000000000E+00 -0.12959124179E+04  0.12959124179E+04  0.50400001928E-02 0.  1.
    10030    2    1    2    0    0  0.00000000000E+00  0.00000000000E+00 -0.97775313472E+02  0.24940495223E+04  0.24921322212E+04 0.  0.
        3    1    3    3  502    0 -0.20570094624E+01  0.37797344203E+03  0.11393811164E+04  0.12004405411E+04  0.10100000352E+00 0. -1.
       -3    1    3    3    0  502  0.20570094624E+01 -0.37797344203E+03 -0.12371564299E+04  0.12936089812E+04  0.10100000352E+00 0.  1.
</event>
<event>
 5   0  0.1008073E-05  0.2495213E+04  0.7818609E-02  0.8404693E-01
       -1   -1    0    0    0  501  0.00000000000E+00  0.00000000000E+00  0.10617408677E+04  0.10617408677E+04  0.50400001928E-02 0. -1.
        1   -1    0    0  501    0  0.00000000000E+00  0.00000000000E+00 -0.14660088052E+04  0.14660088052E+04  0.50400001928E-02 0.  1.
    10030    2    1    2    0    0  0.00000000000E+00  0.00000000000E+00 -0.40426793750E+03  0.25277496730E+04  0.24952125849E+04 0.  0.
        1    1    3    3  502    0  0.10604026358E+04  0.10495117278E+03  0.45521331736E+03  0.11587440024E+04  0.50400001928E-02 0. -1.
       -1    1    3    3    0  502 -0.10604026358E+04 -0.10495117278E+03 -0.85948125486E+03  0.13690056706E+04  0.50400001928E-02 0.  1.
</event>
<event>
 5   0  0.2432309E-05  0.2525942E+04  0.7818609E-02  0.8393802E-01
        2   -1    0    0  501    0  0.00000000000E+00  0.00000000000E+00  0.13609989184E+04  0.13609989184E+04  0.25500000920E-02 0. -1.
       -2   -1    0    0    0  501  0.00000000000E+00  0.00000000000E+00 -0.11720033003E+04  0.11720033003E+04  0.25500000920E-02 0.  1.
    10030    2    1    2    0    0  0.00000000000E+00  0.00000000000E+00  0.18899561810E+03  0.25330022186E+04  0.25259415860E+04 0.  0.
        4    1    3    3  502    0 -0.83910968755E+03 -0.19629412982E+03 -0.83136906933E+03  0.11974191394E+04  0.12699999809E+01 0.  1.
       -4    1    3    3    0  502  0.83910968755E+03  0.19629412982E+03  0.10203646874E+04  0.13355830792E+04  0.12699999809E+01 0. -1.
</event>
<event>
 5   0  0.2388326E-05  0.2509402E+04  0.7818609E-02  0.8399644E-01
        2   -1    0    0  501    0  0.00000000000E+00  0.00000000000E+00  0.13521383279E+04  0.13521383279E+04  0.25500000920E-02 0.  1.
       -2   -1    0    0    0  501  0.00000000000E+00  0.00000000000E+00 -0.11642854389E+04  0.11642854389E+04  0.25500000920E-02 0. -1.
    10030    2    1    2    0    0  0.00000000000E+00  0.00000000000E+00  0.18785288897E+03  0.25164237668E+04  0.25094022926E+04 0.  0.
        2    1    3    3  502    0 -0.69450229151E+03 -0.87445519551E+03 -0.47974911829E+03  0.12153865798E+04  0.25500000920E-02 0. -1.
       -2    1    3    3    0  502  0.69450229151E+03  0.87445519551E+03  0.66760200725E+03  0.13010371870E+04  0.25500000920E-02 0.  1.
</event>
<event>
 5   0  0.2388326E-05  0.2479234E+04  0.7818609E-02  0.8410421E-01
        2   -1    0    0  501    0  0.00000000000E+00  0.00000000000E+00  0.11205989191E+04  0.11205989191E+04  0.25500000920E-02 0.  1.
       -2   -1    0    0    0  501  0.00000000000E+00  0.00000000000E+00 -0.13712758052E+04  0.13712758052E+04  0.25500000920E-02 0. -1.
    10030    2    1    2    0    0  0.00000000000E+00  0.00000000000E+00 -0.25067688613E+03  0.24918747243E+04  0.24792339019E+04 0.  0.
        2    1    3    3  502    0 -0.56941624552E+03 -0.10614528534E+04 -0.41963361011E+03  0.12755427815E+04  0.25500000920E-02 0. -1.
       -2    1    3    3    0  502  0.56941624552E+03  0.10614528534E+04  0.16895672397E+03  0.12163319429E+04  0.25500000920E-02 0.  1.
</event>
<event>
 5   0  0.2452457E-05  0.2472534E+04  0.7818609E-02  0.8412836E-01
       -2   -1    0    0    0  501  0.00000000000E+00  0.00000000000E+00  0.11414920443E+04  0.11414920443E+04  0.25500000920E-02 0.  1.
        2   -1    0    0  501    0  0.00000000000E+00  0.00000000000E+00 -0.13389111117E+04  0.13389111117E+04  0.25500000920E-02 0. -1.
    10030    2    1    2    0    0  0.00000000000E+00  0.00000000000E+00 -0.19741906737E+03  0.24804031560E+04  0.24725342319E+04 0.  0.
        1    1    3    3  502    0  0.91997198984E+03 -0.18722377605E+03  0.70818553003E+03  0.11759795701E+04  0.50400001928E-02 0.  1.
       -1    1    3    3    0  502 -0.91997198984E+03  0.18722377605E+03 -0.90560459740E+03  0.13044235858E+04  0.50400001928E-02 0. -1.
</event>
<event>
 5   0  0.2345143E-05  0.2453886E+04  0.7818609E-02  0.8419601E-01
       -2   -1    0    0    0  501  0.00000000000E+00  0.00000000000E+00  0.98249138895E+03  0.98249138895E+03  0.25500000920E-02 0. -1.
        2   -1    0    0  501    0  0.00000000000E+00  0.00000000000E+00 -0.15322161154E+04  0.15322161154E+04  0.25500000920E-02 0.  1.
    10030    2    1    2    0    0  0.00000000000E+00  0.00000000000E+00 -0.54972472644E+03  0.25147075043E+04  0.24538860115E+04 0.  0.
        5    1    3    3  502    0 -0.31764731196E+02  0.79014999401E+03 -0.12362081344E+04  0.14675076330E+04  0.46999998093E+01 0.  1.
       -5    1    3    3    0  502  0.31764731196E+02 -0.79014999401E+03  0.68648340798E+03  0.10471998714E+04  0.46999998093E+01 0. -1.
</event>
<event>
 5   0  0.1010338E-05  0.2121372E+04  0.7818609E-02  0.8551887E-01
       -1   -1    0    0    0  501  0.00000000000E+00  0.00000000000E+00  0.75779586001E+03  0.75779586002E+03  0.50400001928E-02 0. -1.
        1   -1    0    0  501    0  0.00000000000E+00  0.00000000000E+00 -0.14846411498E+04  0.14846411498E+04  0.50400001928E-02 0.  1.
    10030    2    1    2    0    0  0.00000000000E+00  0.00000000000E+00 -0.72684528982E+03  0.22424370099E+04  0.21213721191E+04 0.  0.
        2    1    3    3  502    0  0.59541923014E+03  0.87342007710E+03 -0.45598850807E+03  0.11512220508E+04  0.25500000920E-02 0. -1.
       -2    1    3    3    0  502 -0.59541923014E+03 -0.87342007710E+03 -0.27085678175E+03  0.10912149591E+04  0.25500000920E-02 0.  1.
</event>
<event>
 5   0  0.1039688E-05  0.2523451E+04  0.7818609E-02  0.8394678E-01
       -1   -1    0    0    0  501  0.00000000000E+00  0.00000000000E+00  0.84998798675E+03  0.84998798676E+03  0.50400001928E-02 0.  1.
        1   -1    0    0  501    0  0.00000000000E+00  0.00000000000E+00 -0.18729098160E+04  0.18729098160E+04  0.50400001928E-02 0. -1.
    10030    2    1    2    0    0  0.00000000000E+00  0.00000000000E+00 -0.10229218292E+04  0.27228978028E+04  0.25234506881E+04 0.  0.
        3    1    3    3  502    0 -0.10008241620E+04 -0.53987072488E+03  0.78409918714E+02  0.11398497832E+04  0.10100000352E+00 0.  1.
       -3    1    3    3    0  502  0.10008241620E+04  0.53987072488E+03 -0.11013317480E+04  0.15830480195E+04  0.10100000352E+00 0. -1.
</event>
<event>
 5   0  0.1008073E-05  0.2491121E+04  0.7818609E-02  0.8406155E-01
        1   -1    0    0  501    0  0.00000000000E+00  0.00000000000E+00  0.21275118969E+04  0.21275118969E+04  0.50400001928E-02 0. -1.
       -1   -1    0    0    0  501  0.00000000000E+00  0.00000000000E+00 -0.72921873953E+03  0.72921873955E+03  0.50400001928E-02 0.  1.
    10030    2    1    2    0    0  0.00000000000E+00  0.00000000000E+00  0.13982931574E+04  0.28567306365E+04  0.24911214694E+04 0.  0.
        1    1    3    3  502    0  0.26055613121E+03 -0.12047877411E+04  0.90434555258E+03  0.15288047217E+04  0.50400001928E-02 0. -1.
       -1    1    3    3    0  502 -0.26055613121E+03  0.12047877411E+04  0.49394760479E+03  0.13279259147E+04  0.50400001928E-02 0.  1.
</event>
<event>
 5   0  0.1010338E-05  0.2493256E+04  0.7818609E-02  0.8405392E-01
       -1   -1    0    0    0  501  0.00000000000E+00  0.00000000000E+00  0.59192899060E+03  0.59192899062E+03  0.50400001928E-02 0. -1.
        1   -1    0    0  501    0  0.00000000000E+00  0.00000000000E+00 -0.26254518486E+04  0.26254518486E+04  0.50400001928E-02 0.  1.
    10030    2    1    2    0    0  0.00000000000E+00  0.00000000000E+00 -0.20335228580E+04  0.32173808393E+04  0.24932557532E+04 0.  0.
        2    1    3    3  502    0 -0.89583559494E+03 -0.58348411413E+03 -0.18441557128E+04  0.21316391387E+04  0.25500000920E-02 0.  1.
       -2    1    3    3    0  502  0.89583559494E+03  0.58348411413E+03 -0.18936714522E+03  0.10857417005E+04  0.25500000920E-02 0. -1.
</event>
<event>
 5   0  0.2441340E-05  0.2605563E+04  0.7818609E-02  0.8366314E-01
       -2   -1    0    0    0  501  0.00000000000E+00  0.00000000000E+00  0.73497081639E+03  0.73497081640E+03  0.25500000920E-02 0. -1.
        2   -1    0    0  501    0  0.00000000000E+00  0.00000000000E+00 -0.23092620201E+04  0.23092620201E+04  0.25500000920E-02 0.  1.
    10030    2    1    2    0    0  0.00000000000E+00  0.00000000000E+00 -0.15742912037E+04  0.30442328365E+04  0.26055634263E+04 0.  0.
        3    1    3    3  502    0  0.43300540542E+03 -0.67184081150E+03  0.41483177981E+03  0.90052716386E+03  0.10100000352E+00 0. -1.
       -3    1    3    3    0  502 -0.43300540542E+03  0.67184081150E+03 -0.19891229835E+04  0.21437056726E+04  0.10100000352E+00 0.  1.
</event>
<event>
 5   0  0.1010338E-05  0.2479725E+04  0.7818609E-02  0.8410244E-01
        1   -1    0    0  501    0  0.00000000000E+00  0.00000000000E+00  0.14148106528E+04  0.14148106528E+04  0.50400001928E-02 0. -1.
       -1   -1    0    0    0  501  0.00000000000E+00  0.00000000000E+00 -0.10865474468E+04  0.10865474468E+04  0.50400001928E-02 0.  1.
    10030    2    1    2    0    0  0.00000000000E+00  0.00000000000E+00  0.32826320604E+03  0.25013580996E+04  0.24797249061E+04 0.  0.
        2    1    3    3  502    0  0.40678028680E+03 -0.73339128328E+03 -0.75703058916E+03  0.11297912591E+04  0.25500000920E-02 0.  1.
       -2    1    3    3    0  502 -0.40678028680E+03  0.73339128328E+03  0.10852937952E+04  0.13715668405E+04  0.25500000920E-02 0. -1.
</event>
<event>
 5   0  0.2345143E-05  0.2481167E+04  0.7818609E-02  0.8409726E-01
        2   -1    0    0  501    0  0.00000000000E+00  0.00000000000E+00  0.20137258915E+04  0.20137258915E+04  0.25500000920E-02 0. -1.
       -2   -1    0    0    0  501  0.00000000000E+00  0.00000000000E+00 -0.76427873829E+03  0.76427873829E+03  0.25500000920E-02 0.  1.
    10030    2    1    2    0    0  0.00000000000E+00  0.00000000000E+00  0.12494471532E+04  0.27780046298E+04  0.24811673733E+04 0.  0.
        5    1    3    3  502    0  0.10240994341E+04 -0.11117805474E+03  0.13987198467E+04  0.17371181625E+04  0.46999998093E+01 0. -1.
       -5    1    3    3    0  502 -0.10240994341E+04  0.11117805474E+03 -0.14927269351E+03  0.10408864673E+04  0.46999998093E+01 0.  1.
</event>
<event>
 5   0  0.2452457E-05  0.2484198E+04  0.7818609E-02  0.8408637E-01
       -2   -1    0    0    0  501  0.00000000000E+00  0.00000000000E+00  0.62907600627E+03  0.62907600627E+03  0.25500000920E-02 0.  1.
        2   -1    0    0  501    0  0.00000000000E+00  0.00000000000E+00 -0.24525007426E+04  0.24525007426E+04  0.25500000920E-02 0. -1.
    10030    2    1    2    0    0  0.00000000000E+00  0.00000000000E+00 -0.18234247363E+04  0.30815767489E+04  0.24841975546E+04 0.  0.
        1    1    3    3  502    0 -0.10672324419E+04 -0.58452015386E+03 -0.60243792857E+03  0.13577850909E+04  0.50400001928E-02 0.  1.
       -1    1    3    3    0  502  0.10672324419E+04  0.58452015386E+03 -0.12209868078E+04  0.17237916580E+04  0.50400001928E-02 0. -1.
</event>
<event>
 5   0  0.1002753E-05  0.2432481E+04  0.7818609E-02  0.8427442E-01
        1   -1    0    0  501    0  0.00000000000E+00  0.00000000000E+00  0.13618171137E+04  0.13618171137E+04  0.50400001928E-02 0.  1.
       -1   -1    0    0    0  501  0.00000000000E+00  0.00000000000E+00 -0.10862260239E+04  0.10862260239E+04  0.50400001928E-02 0. -1.
    10030    2    1    2    0    0  0.00000000000E+00  0.00000000000E+00  0.27559108984E+03  0.24480431376E+04  0.24324811931E+04 0.  0.
        5    1    3    3  502    0 -0.10267511287E+04 -0.29809542014E+03  0.72128080835E+03  0.12897080500E+04  0.46999998093E+01 0.  1.
       -5    1    3    3    0  502  0.10267511287E+04  0.29809542014E+03 -0.44568971850E+03  0.11583350876E+04  0.46999998093E+01 0. -1.
</event>
<event>
 5   0  0.1039688E-05  0.2509866E+04  0.7818609E-02  0.8399479E-01
        1   -1    0    0  501    0  0.00000000000E+00  0.00000000000E+00  0.15121264116E+04  0.15121264116E+04  0.50400001928E-02 0.  1.
       -1   -1    0    0    0  501  0.00000000000E+00  0.00000000000E+00 -0.10414850891E+04  0.10414850891E+04  0.50400001928E-02 0. -1.
    10030    2    1    2    0    0  0.00000000000E+00  0.00000000000E+00  0.47064132256E+03  0.25536115007E+04  0.25098662199E+04 0.  0.
        3    1    3    3  502    0  0.85226234930E+03 -0.39908020130E+03 -0.60935464535E+03  0.11211285444E+04  0.10100000352E+00 0. -1.
       -3    1    3    3    0  502 -0.85226234930E+03  0.39908020130E+03  0.10799959679E+04  0.14324829563E+04  0.10100000352E+00 0.  1.
</event>
<event>
 5   0  0.1008073E-05  0.2516379E+04  0.7818609E-02  0.8397174E-01
        1   -1    0    0  501    0  0.00000000000E+00  0.00000000000E+00  0.11434463467E+04  0.11434463467E+04  0.50400001928E-02 0.  1.
       -1   -1    0    0    0  501  0.00000000000E+00  0.00000000000E+00 -0.13844466883E+04  0.13844466883E+04  0.50400001928E-02 0. -1.
    10030    2    1    2    0    0  0.00000000000E+00  0.00000000000E+00 -0.24100034157E+03  0.25278930350E+04  0.25163787536E+04 0.  0.
        1    1    3    3  502    0 -0.10569382246E+02 -0.10607213038E+04 -0.80020468837E+03  0.13287471315E+04  0.50400001928E-02 0.  1.
       -1    1    3    3    0  502  0.10569382246E+02  0.10607213038E+04  0.55920434679E+03  0.11991459034E+04  0.50400001928E-02 0. -1.
</event>
<event>
 5   0  0.1002753E-05  0.2495075E+04  0.7818609E-02  0.8404742E-01
        1   -1    0    0  501    0  0.00000000000E+00  0.00000000000E+00  0.11669477757E+04  0.11669477758E+04  0.50400001928E-02 0. -1.
       -1   -1    0    0    0  501  0.00000000000E+00  0.00000000000E+00 -0.13336930428E+04  0.13336930428E+04  0.50400001928E-02 0.  1.
    10030    2    1    2    0    0  0.00000000000E+00  0.00000000000E+00 -0.16674526701E+03  0.25006408185E+04  0.24950752532E+04 0.  0.
        5    1    3    3  502    0 -0.92810721466E+03  0.18060927254E+03  0.73227644336E+03  0.11959321012E+04  0.46999998093E+01 0. -1.
       -5    1    3    3    0  502  0.92810721466E+03 -0.18060927254E+03 -0.89902171038E+03  0.13047087173E+04  0.46999998093E+01 0.  1.
</event>
<event>
 5   0  0.2388326E-05  0.2478224E+04  0.7818609E-02  0.8410785E-01
        2   -1    0    0  501    0  0.00000000000E+00  0.00000000000E+00  0.20766243688E+04  0.20766243689E+04  0.25500000920E-02 0.  1.
       -2   -1    0    0    0  501  0.00000000000E+00  0.00000000000E+00 -0.73937241750E+03  0.73937241751E+03  0.25500000920E-02 0. -1.
    10030    2    1    2    0    0  0.00000000000E+00  0.00000000000E+00  0.13372519513E+04  0.28159967864E+04  0.24782241867E+04 0.  0.
        2    1    3    3  502    0  0.16265632957E+03 -0.11003959727E+04  0.48255687040E+02  0.11133988457E+04  0.25500000920E-02 0. -1.
       -2    1    3    3    0  502 -0.16265632957E+03  0.11003959727E+04  0.12889962643E+04  0.17025979407E+04  0.25500000920E-02 0.  1.
</event>
<event>
 5   0  0.1010338E-05  0.2463288E+04  0.7818609E-02  0.8416182E-01
        1   -1    0    0  501    0  0.00000000000E+00  0.00000000000E+00  0.15098123834E+04  0.15098123834E+04  0.50400001928E-02 0. -1.
       -1   -1    0    0    0  501  0.00000000000E+00  0.00000000000E+00 -0.10047250807E+04  0.10047250807E+04  0.50400001928E-02 0.  1.
    10030    2    1    2    0    0  0.00000000000E+00  0.00000000000E+00  0.50508730268E+03  0.25145374640E+04  0.24632875339E+04 0.  0.
        2    1    3    3  502    0  0.11737261982E+04  0.37068554165E+03  0.29710282943E+03  0.12662191952E+04  0.25500000920E-02 0. -1.
       -2    1    3    3    0  502 -0.11737261982E+04 -0.37068554165E+03  0.20798447325E+03  0.12483182688E+04  0.25500000920E-02 0.  1.
</event>
<event>
 5   0  0.2345143E-05  0.2504196E+04  0.7818609E-02  0.8401492E-01
        2   -1    0    0  501    0  0.00000000000E+00  0.00000000000E+00  0.11607247729E+04  0.11607247729E+04  0.25500000920E-02 0.  1.
       -2   -1    0    0    0  501  0.00000000000E+00  0.00000000000E+00 -0.13506637040E+04  0.13506637040E+04  0.25500000920E-02 0. -1.
    10030    2    1    2    0    0  0.00000000000E+00  0.00000000000E+00 -0.18993893109E+03  0.25113884769E+04  0.25041955363E+04 0.  0.
        5    1    3    3  502    0 -0.10419661564E+04  0.34511638916E+03 -0.69913488040E+03  0.13013878992E+04  0.46999998093E+01 0. -1.
       -5    1    3    3    0  502  0.10419661564E+04 -0.34511638916E+03  0.50919594932E+03  0.12100005777E+04  0.46999998093E+01 0.  1.
</event>
<event>
 5   0  0.1008073E-05  0.2486090E+04  0.7818609E-02  0.8407958E-01
       -1   -1    0    0    0  501  0.00000000000E+00  0.00000000000E+00  0.75581519626E+03  0.75581519628E+03  0.50400001928E-02 0. -1.
        1   -1    0    0  501    0  0.00000000000E+00  0.00000000000E+00 -0.20443637189E+04  0.20443637189E+04  0.50400001928E-02 0.  1.
    10030    2    1    2    0    0  0.00000000000E+00  0.00000000000E+00 -0.12885485227E+04  0.28001789152E+04  0.24860902361E+04 0.  0.
        1    1    3    3  502    0 -0.46817950525E+03 -0.52360022583E+03 -0.17994230774E+04  0.19316502419E+04  0.50400001928E-02 0.  1.
       -1    1    3    3    0  502  0.46817950525E+03  0.52360022583E+03  0.51087455473E+03  0.86852867329E+03  0.50400001928E-02 0. -1.
</event>
<event>
 5   0  0.2441340E-05  0.2498358E+04  0.7818609E-02  0.8403571E-01
       -2   -1    0    0    0  501  0.00000000000E+00  0.00000000000E+00  0.12167422055E+04  0.12167422055E+04  0.25500000920E-02 0.  1.
        2   -1    0    0  501    0  0.00000000000E+00  0.00000000000E+00 -0.12824805778E+04  0.12824805778E+04  0.25500000920E-02 0. -1.
    10030    2    1    2    0    0  0.00000000000E+00  0.00000000000E+00 -0.65738372359E+02  0.24992227833E+04  0.24983580582E+04 0.  0.
        3    1    3    3  502    0  0.12060575007E+04 -0.16480970692E+03  0.24778326467E+03  0.12422292425E+04  0.10100000352E+00 0.  1.
       -3    1    3    3    0  502 -0.12060575007E+04  0.16480970692E+03 -0.31352163703E+03  0.12569935408E+04  0.10100000352E+00 0. -1.
</event>
<event>
 5   0  0.2345143E-05  0.2505456E+04  0.7818609E-02  0.8401045E-01
       -2   -1    0    0    0  501  0.00000000000E+00  0.00000000000E+00  0.85358744557E+03  0.85358744557E+03  0.25500000920E-02 0.  1.
        2   -1    0    0  501    0  0.00000000000E+00  0.00000000000E+00 -0.18385076375E+04  0.18385076375E+04  0.25500000920E-02 0. -1.
    10030    2    1    2    0    0  0.00000000000E+00  0.00000000000E+00 -0.98492019192E+03  0.26920950831E+04  0.25054556775E+04 0.  0.
        5    1    3    3  502    0 -0.17910523248E+02  0.11776838767E+04 -0.95091103482E+03  0.15137747476E+04  0.46999998093E+01 0. -1.
       -5    1    3    3    0  502  0.17910523248E+02 -0.11776838767E+04 -0.34009157102E+02  0.11783203355E+04  0.46999998093E+01 0.  1.
</event>
<event>
 5   0  0.2345143E-05  0.2530711E+04  0.7818609E-02  0.8392125E-01
        2   -1    0    0  501    0  0.00000000000E+00  0.00000000000E+00  0.88515803023E+03  0.88515803024E+03  0.25500000920E-02 0.  1.
       -2   -1    0    0    0  501  0.00000000000E+00  0.00000000000E+00 -0.18088575884E+04  0.18088575884E+04  0.25500000920E-02 0. -1.
    10030    2    1    2    0    0  0.00000000000E+00  0.00000000000E+00 -0.92369955821E+03  0.26940156187E+04  0.25307112202E+04 0.  0.
        5    1    3    3  502    0 -0.11206060153E+04  0.53015109135E+03 -0.19194451231E+03  0.12544651478E+04  0.46999998093E+01 0. -1.
       -5    1    3    3    0  502  0.11206060153E+04 -0.53015109135E+03 -0.73175504590E+03  0.14395504709E+04  0.46999998093E+01 0.  1.
</event>
<event>
 5   0  0.2441340E-05  0.2497689E+04  0.7818609E-02  0.8403809E-01
        2   -1    0    0  501    0  0.00000000000E+00  0.00000000000E+00  0.20217787621E+04  0.20217787621E+04  0.25500000920E-02 0. -1.
       -2   -1    0    0    0  501  0.00000000000E+00  0.00000000000E+00 -0.77140593661E+03  0.77140593661E+03  0.25500000920E-02 0.  1.
    10030    2    1    2    0    0  0.00000000000E+00  0.00000000000E+00  0.12503728255E+04  0.27931846987E+04  0.24976886432E+04 0.  0.
        3    1    3    3  502    0  0.14453175502E+03  0.93664377031E+03  0.15346815759E+04  0.18037290623E+04  0.10100000352E+00 0. -1.
       -3    1    3    3    0  502 -0.14453175502E+03 -0.93664377031E+03 -0.28430875039E+03  0.98945563641E+03  0.10100000352E+00 0.  1.
</event>
<event>
 5   0  0.1008073E-05  0.2103842E+04  0.7818609E-02  0.8559553E-01
       -1   -1    0    0    0  501  0.00000000000E+00  0.00000000000E+00  0.40579221322E+03  0.40579221326E+03  0.50400001928E-02 0. -1.
        1   -1    0    0  501    0  0.00000000000E+00  0.00000000000E+00 -0.27268582104E+04  0.27268582104E+04  0.50400001928E-02 0.  1.
    10030    2    1    2    0    0  0.00000000000E+00  0.00000000000E+00 -0.23210659972E+04  0.31326504237E+04  0.21038420363E+04 0.  0.
        1    1    3    3  502    0  0.43732847439E+02 -0.56774527104E+03 -0.24775241418E+04  0.25421198099E+04  0.50400001928E-02 0.  1.
       -1    1    3    3    0  502 -0.43732847439E+02  0.56774527104E+03  0.15645814462E+03  0.59053061375E+03  0.50400001928E-02 0. -1.
</event>
<event>
 5   0  0.1015327E-05  0.2494605E+04  0.7818609E-02  0.8404910E-01
       -1   -1    0    0    0  501  0.00000000000E+00  0.00000000000E+00  0.62951034087E+03  0.62951034089E+03  0.50400001928E-02 0.  1.
        1   -1    0    0  501    0  0.00000000000E+00  0.00000000000E+00 -0.24713865156E+04  0.24713865156E+04  0.50400001928E-02 0. -1.
    10030    2    1    2    0    0  0.00000000000E+00  0.00000000000E+00 -0.18418761747E+04  0.31008968565E+04  0.24946048728E+04 0.  0.
        4    1    3    3  502    0 -0.12192557912E+04  0.15369798743E+03 -0.11862451494E+04  0.17080359841E+04  0.12699999809E+01 0. -1.
       -4    1    3    3    0  502  0.12192557912E+04 -0.15369798743E+03 -0.65563102537E+03  0.13928608724E+04  0.12699999809E+01 0.  1.
</event>
<event>
 5   0  0.1002753E-05  0.2485850E+04  0.7818609E-02  0.8408044E-01
        1   -1    0    0  501    0  0.00000000000E+00  0.00000000000E+00  0.10150454946E+04  0.10150454946E+04  0.50400001928E-02 0. -1.
       -1   -1    0    0    0  501  0.00000000000E+00  0.00000000000E+00 -0.15219639811E+04  0.15219639811E+04  0.50400001928E-02 0.  1.
    10030    2    1    2    0    0  0.00000000000E+00  0.00000000000E+00 -0.50691848658E+03  0.25370094757E+04  0.24858501016E+04 0.  0.
        5    1    3    3  502    0  0.10410765407E+04 -0.63068222632E+03 -0.51011063581E+03  0.13197861133E+04  0.46999998093E+01 0.  1.
       -5    1    3    3    0  502 -0.10410765407E+04  0.63068222632E+03  0.31921492307E+01  0.12172233624E+04  0.46999998093E+01 0. -1.
</event>
<event>
 5   0  0.2388326E-05  0.2497547E+04  0.7818609E-02  0.8403860E-01
       -2   -1    0    0    0  501  0.00000000000E+00  0.00000000000E+00  0.12501831028E+04  0.12501831028E+04  0.25500000920E-02 0.  1.
        2   -1    0    0  501    0  0.00000000000E+00  0.00000000000E+00 -0.12473651046E+04  0.12473651046E+04  0.25500000920E-02 0. -1.
    10030    2    1    2    0    0  0.00000000000E+00  0.00000000000E+00  0.28179981503E+01  0.24975482074E+04  0.24975466176E+04 0.  0.
        2    1    3    3  502    0 -0.11773564748E+04  0.25055096683E+03  0.33381065632E+03  0.12491491544E+04  0.25500000920E-02 0.  1.
       -2    1    3    3    0  502  0.11773564748E+04 -0.25055096683E+03 -0.33099265817E+03  0.12483990530E+04  0.25500000920E-02 0. -1.
</event>
<event>
 5   0  0.1039688E-05  0.2489794E+04  0.7818609E-02  0.8406631E-01
       -1   -1    0    0    0  501  0.00000000000E+00  0.00000000000E+00  0.97196888992E+03  0.97196888994E+03  0.50400001928E-02 0.  1.
        1   -1    0    0  501    0  0.00000000000E+00  0.00000000000E+00 -0.15944628173E+04  0.15944628173E+04  0.50400001928E-02 0. -1.
    10030    2    1    2    0    0  0.00000000000E+00  0.00000000000E+00 -0.62249392740E+03  0.25664317073E+04  0.24897937703E+04 0.  0.
        3    1    3    3  502    0 -0.29429941315E+03  0.31003778432E+01 -0.15580855692E+04  0.15856394319E+04  0.10100000352E+00 0. -1.
       -3    1    3    3    0  502  0.29429941315E+03 -0.31003778432E+01  0.93559164181E+03  0.98079227533E+03  0.10100000352E+00 0.  1.
</event>
<event>
 5   0  0.1015327E-05  0.2479003E+04  0.7818609E-02  0.8410504E-01
       -1   -1    0    0    0  501  0.00000000000E+00  0.00000000000E+00  0.10162970804E+04  0.10162970804E+04  0.50400001928E-02 0. -1.
        1   -1    0    0  501    0  0.00000000000E+00  0.00000000000E+00 -0.15117274933E+04  0.15117274934E+04  0.50400001928E-02 0.  1.
    10030    2    1    2    0    0  0.00000000000E+00  0.00000000000E+00 -0.49543041293E+03  0.25280245738E+04  0.24790032173E+04 0.  0.
        4    1    3    3  502    0 -0.59988118180E+03 -0.57252241540E+03 -0.11871945969E+04  0.14481270566E+04  0.12699999809E+01 0.  1.
       -4    1    3    3    0  502  0.59988118180E+03  0.57252241540E+03  0.69176418396E+03  0.10798975171E+04  0.12699999809E+01 0. -1.
</event>
<event>
 5   0  0.2432309E-05  0.2491157E+04  0.7818609E-02  0.8406143E-01
        2   -1    0    0  501    0  0.00000000000E+00  0.00000000000E+00  0.14585825792E+04  0.14585825792E+04  0.25500000920E-02 0. -1.
       -2   -1    0    0    0  501  0.00000000000E+00  0.00000000000E+00 -0.10636802170E+04  0.10636802170E+04  0.25500000920E-02 0.  1.
    10030    2    1    2    0    0  0.00000000000E+00  0.00000000000E+00  0.39490236216E+03  0.25222627961E+04  0.24911567067E+04 0.  0.
        4    1    3    3  502    0  0.41909746220E+03  0.77254932667E+03 -0.69617288993E+03  0.11212196264E+04  0.12699999809E+01 0.  1.
       -4    1    3    3    0  502 -0.41909746220E+03 -0.77254932667E+03  0.10910752521E+04  0.14010431698E+04  0.12699999809E+01 0. -1.
</event>
<event>
 5   0  0.1015327E-05  0.2506428E+04  0.7818609E-02  0.8400699E-01
       -1   -1    0    0    0  501  0.00000000000E+00  0.00000000000E+00  0.77937490233E+03  0.77937490235E+03  0.50400001928E-02 0. -1.
        1   -1    0    0  501    0  0.00000000000E+00  0.00000000000E+00 -0.20151345896E+04  0.20151345896E+04  0.50400001928E-02 0.  1.
    10030    2    1    2    0    0  0.00000000000E+00  0.00000000000E+00 -0.12357596873E+04  0.27945094920E+04  0.25064279954E+04 0.  0.
        4    1    3    3  502    0  0.12053238215E+04  0.26240403289E+03 -0.37137454368E+03  0.12882476686E+04  0.12699999809E+01 0. -1.
       -4    1    3    3    0  502 -0.12053238215E+04 -0.26240403289E+03 -0.86438514363E+03  0.15062618234E+04  0.12699999809E+01 0.  1.
</event>
<event>
 5   0  0.1015327E-05  0.2501903E+04  0.7818609E-02  0.8402308E-01
        1   -1    0    0  501    0  0.00000000000E+00  0.00000000000E+00  0.19156145403E+04  0.19156145403E+04  0.50400001928E-02 0. -1.
       -1   -1    0    0    0  501  0.00000000000E+00  0.00000000000E+00 -0.81690735946E+03  0.81690735948E+03  0.50400001928E-02 0.  1.
    10030    2    1    2    0    0  0.00000000000E+00  0.00000000000E+00  0.10987071808E+04  0.27325218997E+04  0.25019029684E+04 0.  0.
        4    1    3    3  502    0 -0.10440795830E+04  0.13396479270E+03  0.12875469702E+04  0.16630777356E+04  0.12699999809E+01 0. -1.
       -4    1    3    3    0  502  0.10440795830E+04 -0.13396479270E+03 -0.18883978942E+03  0.10694441641E+04  0.12699999809E+01 0.  1.
</event>
<event>
 5   0  0.1008073E-05  0.2528982E+04  0.7818609E-02  0.8392733E-01
       -1   -1    0    0    0  501  0.00000000000E+00  0.00000000000E+00  0.92927057314E+03  0.92927057315E+03  0.50400001928E-02 0.  1.
        1   -1    0    0  501    0  0.00000000000E+00  0.00000000000E+00 -0.17206370621E+04  0.17206370621E+04  0.50400001928E-02 0. -1.
    10030    2    1    2    0    0  0.00000000000E+00  0.00000000000E+00 -0.79136648891E+03  0.26499076352E+04  0.25289819207E+04 0.  0.
        1    1    3    3  502    0  0.31686153063E+03  0.81216674977E+03  0.56403915276E+03  0.10383430189E+04  0.50400001928E-02 0.  1.
       -1    1    3    3    0  502 -0.31686153063E+03 -0.81216674977E+03 -0.13554056417E+04  0.16115646163E+04  0.50400001928E-02 0. -1.
</event>
<event>
 5   0  0.2452457E-05  0.2545236E+04  0.7818609E-02  0.8387045E-01
        2   -1    0    0  501    0  0.00000000000E+00  0.00000000000E+00  0.14841618122E+04  0.14841618122E+04  0.25500000920E-02 0. -1.
       -2   -1    0    0    0  501  0.00000000000E+00  0.00000000000E+00 -0.10912259944E+04  0.10912259944E+04  0.25500000920E-02 0.  1.
    10030    2    1    2    0    0  0.00000000000E+00  0.00000000000E+00  0.39293581783E+03  0.25753878066E+04  0.25452355092E+04 0.  0.
        1    1    3    3  502    0  0.55237348065E+03 -0.24071994400E+01 -0.96360157584E+03  0.11106980930E+04  0.50400001928E-02 0.  1.
       -1    1    3    3    0  502 -0.55237348065E+03  0.24071994400E+01  0.13565373937E+04  0.14646897136E+04  0.50400001928E-02 0. -1.
</event>
<event>
 5   0  0.1039688E-05  0.2525995E+04  0.7818609E-02  0.8393783E-01
       -1   -1    0    0    0  501  0.00000000000E+00  0.00000000000E+00  0.97486885967E+03  0.97486885968E+03  0.50400001928E-02 0.  1.
        1   -1    0    0  501    0  0.00000000000E+00  0.00000000000E+00 -0.16362840334E+04  0.16362840335E+04  0.50400001928E-02 0. -1.
    10030    2    1    2    0    0  0.00000000000E+00  0.00000000000E+00 -0.66141517378E+03  0.26111528931E+04  0.25259947346E+04 0.  0.
        3    1    3    3  502    0  0.19380651489E+03 -0.85202673523E+03 -0.12734013452E+04  0.15443644385E+04  0.10100000352E+00 0. -1.
       -3    1    3    3    0  502 -0.19380651489E+03  0.85202673523E+03  0.61198617140E+03  0.10667884546E+04  0.10100000352E+00 0.  1.
</event>
<event>
 5   0  0.2388326E-05  0.2499257E+04  0.7818609E-02  0.8403250E-01
       -2   -1    0    0    0  501  0.00000000000E+00  0.00000000000E+00  0.11339502089E+04  0.11339502089E+04  0.25500000920E-02 0. -1.
        2   -1    0    0  501    0  0.00000000000E+00  0.00000000000E+00 -0.13771072106E+04  0.13771072106E+04  0.25500000920E-02 0.  1.
    10030    2    1    2    0    0  0.00000000000E+00  0.00000000000E+00 -0.24315700174E+03  0.25110574195E+04  0.24992566968E+04 0.  0.
        2    1    3    3  502    0  0.11739360593E+04  0.42797327709E+03 -0.13851072837E+03  0.12571683336E+04  0.25500000920E-02 0.  1.
       -2    1    3    3    0  502 -0.11739360593E+04 -0.42797327709E+03 -0.10464627337E+03  0.12538890859E+04  0.25500000920E-02 0. -1.
</event>
<event>
 5   0  0.2441340E-05  0.2450749E+04  0.7818609E-02  0.8420744E-01
       -2   -1    0    0    0  501  0.00000000000E+00  0.00000000000E+00  0.99798032942E+03  0.99798032942E+03  0.25500000920E-02 0.  1.
        2   -1    0    0  501    0  0.00000000000E+00  0.00000000000E+00 -0.15045817625E+04  0.15045817625E+04  0.25500000920E-02 0. -1.
    10030    2    1    2    0    0  0.00000000000E+00  0.00000000000E+00 -0.50660143312E+03  0.25025620920E+04  0.24507492756E+04 0.  0.
        3    1    3    3  502    0 -0.12191231897E+04 -0.12089188544E+03 -0.22693245270E+03  0.12459432363E+04  0.10100000352E+00 0. -1.
       -3    1    3    3    0  502  0.12191231897E+04  0.12089188544E+03 -0.27966898042E+03  0.12566188557E+04  0.10100000352E+00 0.  1.
</event>
<event>
 5   0  0.1002753E-05  0.2319770E+04  0.7818609E-02  0.8470167E-01
       -1   -1    0    0    0  501  0.00000000000E+00  0.00000000000E+00  0.92801973922E+03  0.92801973923E+03  0.50400001928E-02 0.  1.
        1   -1    0    0  501    0  0.00000000000E+00  0.00000000000E+00 -0.14496817670E+04  0.14496817670E+04  0.50400001928E-02 0. -1.
    10030    2    1    2    0    0  0.00000000000E+00  0.00000000000E+00 -0.52166202776E+03  0.23777015062E+04  0.23197700708E+04 0.  0.
        5    1    3    3  502    0  0.74382932850E+03  0.85066264976E+03 -0.52890051168E+03  0.12476645602E+04  0.46999998093E+01 0. -1.
       -5    1    3    3    0  502 -0.74382932850E+03 -0.85066264976E+03  0.72384839171E+01  0.11300369460E+04  0.46999998093E+01 0.  1.
</event>
<event>
 5   0  0.2432309E-05  0.2501551E+04  0.7818609E-02  0.8402433E-01
        2   -1    0    0  501    0  0.00000000000E+00  0.00000000000E+00  0.20346351078E+04  0.20346351078E+04  0.25500000920E-02 0. -1.
       -2   -1    0    0    0  501  0.00000000000E+00  0.00000000000E+00 -0.76890418979E+03  0.76890418980E+03  0.25500000920E-02 0.  1.
    10030    2    1    2    0    0  0.00000000000E+00  0.00000000000E+00  0.12657309180E+04  0.28035392976E+04  0.25015510861E+04 0.  0.
        4    1    3    3  502    0 -0.59034735209E+03  0.21782992586E+03  0.18443211563E+04  0.19487129120E+04  0.12699999809E+01 0. -1.
       -4    1    3    3    0  502  0.59034735209E+03 -0.21782992586E+03 -0.57859023834E+03  0.85482638560E+03  0.12699999809E+01 0.  1.
</event>
<event>
 5   0  0.2432309E-05  0.2499418E+04  0.7818609E-02  0.8403193E-01
        2   -1    0    0  501    0  0.00000000000E+00  0.00000000000E+00  0.21867770387E+04  0.21867770387E+04  0.25500000920E-02 0.  1.
       -2   -1    0    0    0  501  0.00000000000E+00  0.00000000000E+00 -0.71418895830E+03  0.71418895831E+03  0.25500000920E-02 0. -1.
    10030    2    1    2    0    0  0.00000000000E+00  0.00000000000E+00  0.14725880804E+04  0.29009659970E+04  0.24994175444E+04 0.  0.
        4    1    3    3  502    0 -0.57940868716E+02  0.34848256661E+03 -0.65502956169E+03  0.74421944552E+03  0.12699999809E+01 0. -1.
       -4    1    3    3    0  502  0.57940868716E+02 -0.34848256661E+03  0.21276176421E+04  0.21567465514E+04  0.12699999809E+01 0.  1.
</event>
<event>
 5   0  0.2388326E-05  0.2503507E+04  0.7818609E-02  0.8401737E-01
        2   -1    0    0  501    0  0.00000000000E+00  0.00000000000E+00  0.87052991939E+03  0.87052991939E+03  0.25500000920E-02 0. -1.
       -2   -1    0    0    0  501  0.00000000000E+00  0.00000000000E+00 -0.17999234524E+04  0.17999234524E+04  0.25500000920E-02 0.  1.
    10030    2    1    2    0    0  0.00000000000E+00  0.00000000000E+00 -0.92939353302E+03  0.26704533718E+04  0.25035073141E+04 0.  0.
        2    1    3    3  502    0  0.38426877164E+03  0.10243254378E+04 -0.11135201701E+04  0.15610356372E+04  0.25500000920E-02 0.  1.
       -2    1    3    3    0  502 -0.38426877164E+03 -0.10243254378E+04  0.18412663712E+03  0.11094177346E+04  0.25500000920E-02 0. -1.
</event>
<event>
 5   0  0.1002753E-05  0.2480143E+04  0.7818609E-02  0.8410094E-01
       -1   -1    0    0    0  501  0.00000000000E+00  0.00000000000E+00  0.69001785659E+03  0.69001785661E+03  0.50400001928E-02 0.  1.
        1   -1    0    0  501    0  0.00000000000E+00  0.00000000000E+00 -0.22286053752E+04  0.22286053752E+04  0.50400001928E-02 0. -1.
    10030    2    1    2    0    0  0.00000000000E+00  0.00000000000E+00 -0.15385875186E+04  0.29186232318E+04  0.24801431445E+04 0.  0.
        5    1    3    3  502    0 -0.21497573315E+03  0.11569082870E+04 -0.12297566620E+04  0.17020502014E+04  0.46999998093E+01 0. -1.
       -5    1    3    3    0  502  0.21497573315E+03 -0.11569082870E+04 -0.30883085666E+03  0.12165730305E+04  0.46999998093E+01 0.  1.
</event>
<event>
 5   0  0.2441340E-05  0.2452994E+04  0.7818609E-02  0.8419926E-01
       -2   -1    0    0    0  501  0.00000000000E+00  0.00000000000E+00  0.53862531735E+03  0.53862531736E+03  0.25500000920E-02 0.  1.
        2   -1    0    0  501    0  0.00000000000E+00  0.00000000000E+00 -0.27928400279E+04  0.27928400279E+04  0.25500000920E-02 0. -1.
    10030    2    1    2    0    0  0.00000000000E+00  0.00000000000E+00 -0.22542147106E+04  0.33314653453E+04  0.24529935559E+04 0.  0.
        3    1    3    3  502    0  0.75204631345E+03  0.91675421111E+02 -0.24370558098E+04  0.25521009131E+04  0.10100000352E+00 0. -1.
       -3    1    3    3    0  502 -0.75204631345E+03 -0.91675421111E+02  0.18284109921E+03  0.77936443219E+03  0.10100000352E+00 0.  1.
</event>
<event>
 5   0  0.1039688E-05  0.2674118E+04  0.7818609E-02  0.8343452E-01
       -1   -1    0    0    0  501  0.00000000000E+00  0.00000000000E+00  0.16995129932E+04  0.16995129932E+04  0.50400001928E-02 0. -1.
        1   -1    0    0  501    0  0.00000000000E+00  0.00000000000E+00 -0.10519055106E+04  0.10519055107E+04  0.50400001928E-02 0.  1.
    10030    2    1    2    0    0  0.00000000000E+00  0.00000000000E+00  0.64760748257E+03  0.27514185039E+04  0.26741182345E+04 0.  0.
        3    1    3    3  502    0  0.58405279610E+03  0.10867005848E+04  0.85415630022E+03  0.15005395113E+04  0.10100000352E+00 0. -1.
       -3    1    3    3    0  502 -0.58405279610E+03 -0.10867005848E+04 -0.20654881766E+03  0.12508789925E+04  0.10100000352E+00 0.  1.
</event>
<event>
 5   0  0.2432309E-05  0.2473377E+04  0.7818609E-02  0.8412532E-01
        2   -1    0    0  501    0  0.00000000000E+00  0.00000000000E+00  0.16436638056E+04  0.16436638057E+04  0.25500000920E-02 0.  1.
       -2   -1    0    0    0  501  0.00000000000E+00  0.00000000000E+00 -0.93048153288E+03  0.93048153288E+03  0.25500000920E-02 0. -1.
    10030    2    1    2    0    0  0.00000000000E+00  0.00000000000E+00  0.71318227277E+03  0.25741453385E+04  0.24733773003E+04 0.  0.
        4    1    3    3  502    0 -0.29954494676E+03 -0.61579078988E+03  0.14283380501E+04  0.15840065247E+04  0.12699999809E+01 0.  1.
       -4    1    3    3    0  502  0.29954494676E+03  0.61579078988E+03 -0.71515577729E+03  0.99013881386E+03  0.12699999809E+01 0. -1.
</event>
<event>
 5   0  0.1015327E-05  0.2449266E+04  0.7818609E-02  0.8421286E-01
       -1   -1    0    0    0  501  0.00000000000E+00  0.00000000000E+00  0.87390046494E+03  0.87390046495E+03  0.50400001928E-02 0. -1.
        1   -1    0    0  501    0  0.00000000000E+00  0.00000000000E+00 -0.17161291530E+04  0.17161291530E+04  0.50400001928E-02 0.  1.
    10030    2    1    2    0    0  0.00000000000E+00  0.00000000000E+00 -0.84222868805E+03  0.25900296179E+04  0.24492660653E+04 0.  0.
        4    1    3    3  502    0 -0.19722092624E+02  0.10768468340E+04  0.19525324948E+03  0.10945837150E+04  0.12699999809E+01 0. -1.
       -4    1    3    3    0  502  0.19722092624E+02 -0.10768468340E+04 -0.10374819375E+04  0.14954459029E+04  0.12699999809E+01 0.  1.
</event>
<event>
 5   0  0.1039688E-05  0.2508032E+04  0.7818609E-02  0.8400130E-01
       -1   -1    0    0    0  501  0.00000000000E+00  0.00000000000E+00  0.14717185421E+04  0.14717185421E+04  0.50400001928E-02 0.  1.
        1   -1    0    0  501    0  0.00000000000E+00  0.00000000000E+00 -0.10685166908E+04  0.10685166908E+04  0.50400001928E-02 0. -1.
    10030    2    1    2    0    0  0.00000000000E+00  0.00000000000E+00  0.40320185130E+03  0.25402352328E+04  0.25080317592E+04 0.  0.
        3    1    3    3  502    0 -0.49941648905E+03 -0.10373282273E+04 -0.30186227053E+03  0.11902048233E+04  0.10100000352E+00 0. -1.
       -3    1    3    3    0  502  0.49941648905E+03  0.10373282273E+04  0.70506412184E+03  0.13500304096E+04  0.10100000352E+00 0.  1.
</event>
<event>
 5   0  0.2388326E-05  0.2506746E+04  0.7818609E-02  0.8400586E-01
        2   -1    0    0  501    0  0.00000000000E+00  0.00000000000E+00  0.11402216780E+04  0.11402216780E+04  0.25500000920E-02 0. -1.
       -2   -1    0    0    0  501  0.00000000000E+00  0.00000000000E+00 -0.13777526763E+04  0.13777526763E+04  0.25500000920E-02 0.  1.
    10030    2    1    2    0    0  0.00000000000E+00  0.00000000000E+00 -0.23753099822E+03  0.25179743543E+04  0.25067456739E+04 0.  0.
        2    1    3    3  502    0  0.17034014724E+03  0.77684602061E+03 -0.10918348921E+04  0.13507808620E+04  0.25500000920E-02 0.  1.
       -2    1    3    3    0  502 -0.17034014724E+03 -0.77684602061E+03  0.85430389384E+03  0.11671934923E+04  0.25500000920E-02 0. -1.
</event>
<event>
 5   0  0.1039688E-05  0.2468051E+04  0.7818609E-02  0.8414457E-01
       -1   -1    0    0    0  501  0.00000000000E+00  0.00000000000E+00  0.67201901721E+03  0.67201901723E+03  0.50400001928E-02 0.  1.
        1   -1    0    0  501    0  0.00000000000E+00  0.00000000000E+00 -0.22660355608E+04  0.22660355608E+04  0.50400001928E-02 0. -1.
    10030    2    1    2    0    0  0.00000000000E+00  0.00000000000E+00 -0.15940165436E+04  0.29380545780E+04  0.24680510453E+04 0.  0.
        3    1    3    3  502    0  0.42016143190E+03 -0.20010761424E+03  0.56355035268E+03  0.73086776939E+03  0.10100000352E+00 0.  1.
       -3    1    3    3    0  502 -0.42016143190E+03  0.20010761424E+03 -0.21575668963E+04  0.22071868086E+04  0.10100000352E+00 0. -1.
</event>
<event>
 5   0  0.2432309E-05  0.2493466E+04  0.7818609E-02  0.8405317E-01
        2   -1    0    0  501    0  0.00000000000E+00  0.00000000000E+00  0.58716838586E+03  0.58716838586E+03  0.25500000920E-02 0.  1.
       -2   -1    0    0    0  501  0.00000000000E+00  0.00000000000E+00 -0.26471852019E+04  0.26471852019E+04  0.25500000920E-02 0. -1.
    10030    2    1    2    0    0  0.00000000000E+00  0.00000000000E+00 -0.20600168160E+04  0.32343535878E+04  0.24934662316E+04 0.  0.
        4    1    3    3  502    0  0.98646757171E+03  0.78097469768E+02 -0.20137134297E+04  0.22437158632E+04  0.12699999809E+01 0. -1.
       -4    1    3    3    0  502 -0.98646757171E+03 -0.78097469768E+02 -0.46303386296E+02  0.99063772455E+03  0.12699999809E+01 0.  1.
</event>
<event>
 5   0  0.2452457E-05  0.2494528E+04  0.7818609E-02  0.8404938E-01
        2   -1    0    0  501    0  0.00000000000E+00  0.00000000000E+00  0.12547713441E+04  0.12547713441E+04  0.25500000920E-02 0. -1.
       -2   -1    0    0    0  501  0.00000000000E+00  0.00000000000E+00 -0.12398011566E+04  0.12398011566E+04  0.25500000920E-02 0.  1.
    10030    2    1    2    0    0  0.00000000000E+00  0.00000000000E+00  0.14970187480E+02  0.24945725007E+04  0.24945275815E+04 0.  0.
        1    1    3    3  502    0  0.91407832106E+03  0.27185861915E+02  0.85566822493E+03  0.12523762850E+04  0.50400001928E-02 0. -1.
       -1    1    3    3    0  502 -0.91407832106E+03 -0.27185861915E+02 -0.84069803745E+03  0.12421962157E+04  0.50400001928E-02 0.  1.
</event>
<event>
 5   0  0.2441340E-05  0.2516627E+04  0.7818609E-02  0.8397086E-01
       -2   -1    0    0    0  501  0.00000000000E+00  0.00000000000E+00  0.81126514416E+03  0.81126514417E+03  0.25500000920E-02 0. -1.
        2   -1    0    0  501    0  0.00000000000E+00  0.00000000000E+00 -0.19517086469E+04  0.19517086469E+04  0.25500000920E-02 0.  1.
    10030    2    1    2    0    0  0.00000000000E+00  0.00000000000E+00 -0.11404435027E+04  0.27629737911E+04  0.25166272642E+04 0.  0.
        3    1    3    3  502    0  0.75037264353E+03  0.76970864912E+03 -0.12883465429E+04  0.16778996792E+04  0.10100000352E+00 0.  1.
       -3    1    3    3    0  502 -0.75037264353E+03 -0.76970864912E+03  0.14790304018E+03  0.10850741118E+04  0.10100000352E+00 0. -1.
</event>
<event>
 5   0  0.2441340E-05  0.2506571E+04  0.7818609E-02  0.8400648E-01
        2   -1    0    0  501    0  0.00000000000E+00  0.00000000000E+00  0.12973985511E+04  0.12973985511E+04  0.25500000920E-02 0.  1.
       -2   -1    0    0    0  501  0.00000000000E+00  0.00000000000E+00 -0.12106724845E+04  0.12106724846E+04  0.25500000920E-02 0. -1.
    10030    2    1    2    0    0  0.00000000000E+00  0.00000000000E+00  0.86726066557E+02  0.25080710357E+04  0.25065711459E+04 0.  0.
        3    1    3    3  502    0  0.56551066006E+02 -0.86855735258E+03  0.94564250370E+03  0.12852352519E+04  0.10100000352E+00 0.  1.
       -3    1    3    3    0  502 -0.56551066006E+02  0.86855735258E+03 -0.85891643714E+03  0.12228357837E+04  0.10100000352E+00 0. -1.
</event>
<event>
 5   0  0.2345143E-05  0.2471457E+04  0.7818609E-02  0.8413225E-01
       -2   -1    0    0    0  501  0.00000000000E+00  0.00000000000E+00  0.10493578222E+04  0.10493578222E+04  0.25500000920E-02 0. -1.
        2   -1    0    0  501    0  0.00000000000E+00  0.00000000000E+00 -0.14551988685E+04  0.14551988685E+04  0.25500000920E-02 0.  1.
    10030    2    1    2    0    0  0.00000000000E+00  0.00000000000E+00 -0.40584104639E+03  0.25045566907E+04  0.24714565062E+04 0.  0.
        5    1    3    3  502    0 -0.78361406660E+03  0.12231473744E+03  0.75739450053E+03  0.10966678712E+04  0.46999998093E+01 0. -1.
       -5    1    3    3    0  502  0.78361406660E+03 -0.12231473744E+03 -0.11632355469E+04  0.14078888195E+04  0.46999998093E+01 0.  1.
</event>
<event>
 5   0  0.1039688E-05  0.2504149E+04  0.7818609E-02  0.8401509E-01
        1   -1    0    0  501    0  0.00000000000E+00  0.00000000000E+00  0.14116364739E+04  0.14116364739E+04  0.50400001928E-02 0.  1.
       -1   -1    0    0    0  501  0.00000000000E+00  0.00000000000E+00 -0.11105479908E+04  0.11105479908E+04  0.50400001928E-02 0. -1.
    10030    2    1    2    0    0  0.00000000000E+00  0.00000000000E+00  0.30108848312E+03  0.25221844647E+04  0.25041485977E+04 0.  0.
        3    1    3    3  502    0  0.69118086435E+03  0.59863005758E+03 -0.71095307016E+03  0.11582500642E+04  0.10100000352E+00 0. -1.
       -3    1    3    3    0  502 -0.69118086435E+03 -0.59863005758E+03  0.10120415533E+04  0.13639344005E+04  0.10100000352E+00 0.  1.
</event>
<event>
 5   0  0.1015327E-05  0.2493272E+04  0.7818609E-02  0.8405386E-01
       -1   -1    0    0    0  501  0.00000000000E+00  0.00000000000E+00  0.78690897792E+03  0.78690897794E+03  0.50400001928E-02 0.  1.
        1   -1    0    0  501    0  0.00000000000E+00  0.00000000000E+00 -0.19749440233E+04  0.19749440233E+04  0.50400001928E-02 0. -1.
    10030    2    1    2    0    0  0.00000000000E+00  0.00000000000E+00 -0.11880350454E+04  0.27618530013E+04  0.24932718928E+04 0.  0.
        4    1    3    3  502    0 -0.96650308367E+03  0.59904640910E+03 -0.27978166189E+02  0.11374397574E+04  0.12699999809E+01 0.  1.
       -4    1    3    3    0  502  0.96650308367E+03 -0.59904640910E+03 -0.11600568792E+04  0.16244132439E+04  0.12699999809E+01 0. -1.
</event>
<event>
 5   0  0.2432309E-05  0.2541825E+04  0.7818609E-02  0.8388235E-01
       -2   -1    0    0    0  501  0.00000000000E+00  0.00000000000E+00  0.17398430116E+04  0.17398430116E+04  0.25500000920E-02 0. -1.
        2   -1    0    0  501    0  0.00000000000E+00  0.00000000000E+00 -0.92837038584E+03  0.92837038584E+03  0.25500000920E-02 0.  1.
    10030    2    1    2    0    0  0.00000000000E+00  0.00000000000E+00  0.81147262576E+03  0.26682133974E+04  0.25418251144E+04 0.  0.
        4    1    3    3  502    0  0.10224034531E+04  0.14748530247E+01  0.11981948603E+04  0.15751138156E+04  0.12699999809E+01 0. -1.
       -4    1    3    3    0  502 -0.10224034531E+04 -0.14748530247E+01 -0.38672223449E+03  0.10930995818E+04  0.12699999809E+01 0.  1.
</event>
<event>
 5   0  0.1039688E-05  0.2494765E+04  0.7818609E-02  0.8404853E-01
        1   -1    0    0  501    0  0.00000000000E+00  0.00000000000E+00  0.98764731241E+03  0.98764731242E+03  0.50400001928E-02 0. -1.
       -1   -1    0    0    0  501  0.00000000000E+00  0.00000000000E+00 -0.15754237419E+04  0.15754237419E+04  0.50400001928E-02 0.  1.
    10030    2    1    2    0    0  0.00000000000E+00  0.00000000000E+00 -0.58777642947E+03  0.25630710543E+04  0.24947649385E+04 0.  0.
        3    1    3    3  502    0 -0.22009983746E+03 -0.35755027947E+03 -0.15006448807E+04  0.15582750749E+04  0.10100000352E+00 0.  1.
       -3    1    3    3    0  502  0.22009983746E+03  0.35755027947E+03  0.91286845124E+03  0.10047959794E+04  0.10100000352E+00 0. -1.
</event>
<event>
 5   0  0.1015327E-05  0.2482692E+04  0.7818609E-02  0.8409177E-01
       -1   -1    0    0    0  501  0.00000000000E+00  0.00000000000E+00  0.12015815230E+04  0.12015815230E+04  0.50400001928E-02 0.  1.
        1   -1    0    0  501    0  0.00000000000E+00  0.00000000000E+00 -0.12824268994E+04  0.12824268994E+04  0.50400001928E-02 0. -1.
    10030    2    1    2    0    0  0.00000000000E+00  0.00000000000E+00 -0.80845376434E+02  0.24840084225E+04  0.24826924634E+04 0.  0.
        4    1    3    3  502    0  0.10574615774E+04  0.63885387354E+03  0.80387305682E+02  0.12380722884E+04  0.12699999809E+01 0. -1.
       -4    1    3    3    0  502 -0.10574615774E+04 -0.63885387354E+03 -0.16123268212E+03  0.12459361341E+04  0.12699999809E+01 0.  1.
</event>
<event>
 5   0  0.1002753E-05  0.2452024E+04  0.7818609E-02  0.8420279E-01
       -1   -1    0    0    0  501  0.00000000000E+00  0.00000000000E+00  0.79841959307E+03  0.79841959309E+03  0.50400001928E-02 0. -1.
        1   -1    0    0  501    0  0.00000000000E+00  0.00000000000E+00 -0.18826006518E+04  0.18826006518E+04  0.50400001928E-02 0.  1.
    10030    2    1    2    0    0  0.00000000000E+00  0.00000000000E+00 -0.10841810588E+04  0.26810202449E+04  0.24520238550E+04 0.  0.
        5    1    3    3  502    0 -0.36348823220E+03  0.10928718120E+04 -0.10015627635E+04  0.15263166617E+04  0.46999998093E+01 0.  1.
       -5    1    3    3    0  502  0.36348823220E+03 -0.10928718120E+04 -0.82618295285E+02  0.11547035833E+04  0.46999998093E+01 0. -1.
</event>
<event>
 5   0  0.1039688E-05  0.2505223E+04  0.7818609E-02  0.8401127E-01
       -1   -1    0    0    0  501  0.00000000000E+00  0.00000000000E+00  0.31740347109E+04  0.31740347109E+04  0.50400001928E-02 0.  1.
        1   -1    0    0  501    0  0.00000000000E+00  0.00000000000E+00 -0.49433473291E+03  0.49433473293E+03  0.50400001928E-02 0. -1.
    10030    2    1    2    0    0  0.00000000000E+00  0.00000000000E+00  0.26796999780E+04  0.36683694439E+04  0.25052230249E+04 0.  0.
        3    1    3    3  502    0 -0.76685242268E+03  0.65341019515E+03  0.24297648069E+04  0.26303544530E+04  0.10100000352E+00 0.  1.
       -3    1    3    3    0  502  0.76685242268E+03 -0.65341019515E+03  0.24993517110E+03  0.10380149909E+04  0.10100000352E+00 0. -1.
</event>
<event>
 5   0  0.1002753E-05  0.2479769E+04  0.7818609E-02  0.8410229E-01
       -1   -1    0    0    0  501  0.00000000000E+00  0.00000000000E+00  0.87621503538E+03  0.87621503539E+03  0.50400001928E-02 0. -1.
        1   -1    0    0  501    0  0.00000000000E+00  0.00000000000E+00 -0.17544932838E+04  0.17544932838E+04  0.50400001928E-02 0.  1.
    10030    2    1    2    0    0  0.00000000000E+00  0.00000000000E+00 -0.87827824844E+03  0.26307083192E+04  0.24797688560E+04 0.  0.
        5    1    3    3  502    0  0.46420805939E+03  0.92491392217E+03 -0.11635937062E+04  0.15572178040E+04  0.46999998093E+01 0.  1.
       -5    1    3    3    0  502 -0.46420805939E+03 -0.92491392217E+03  0.28531545781E+03  0.10734905152E+04  0.46999998093E+01 0. -1.
</event>
<event>
 5   0  0.1010338E-05  0.2483263E+04  0.7818609E-02  0.8408972E-01
       -1   -1    0    0    0  501  0.00000000000E+00  0.00000000000E+00  0.16367219586E+04  0.16367219586E+04  0.50400001928E-02 0.  1.
        1   -1    0    0  501    0  0.00000000000E+00  0.00000000000E+00 -0.94191279252E+03  0.94191279254E+03  0.50400001928E-02 0. -1.
    10030    2    1    2    0    0  0.00000000000E+00  0.00000000000E+00  0.69480916611E+03  0.25786347512E+04  0.24832634582E+04 0.  0.
        2    1    3    3  502    0  0.39285877670E+03 -0.48515647256E+03 -0.76709762076E+03  0.98901647159E+03  0.25500000920E-02 0. -1.
       -2    1    3    3    0  502 -0.39285877670E+03  0.48515647256E+03  0.14619067869E+04  0.15896182796E+04  0.25500000920E-02 0.  1.
</event>
<event>
 5   0  0.1010338E-05  0.2483366E+04  0.7818609E-02  0.8408935E-01
       -1   -1    0    0    0  501  0.00000000000E+00  0.00000000000E+00  0.15867898921E+04  0.15867898921E+04  0.50400001928E-02 0.  1.
        1   -1    0    0  501    0  0.00000000000E+00  0.00000000000E+00 -0.97163285369E+03  0.97163285370E+03  0.50400001928E-02 0. -1.
    10030    2    1    2    0    0  0.00000000000E+00  0.00000000000E+00  0.61515703845E+03  0.25584227458E+04  0.24833664177E+04 0.  0.
        2    1    3    3  502    0  0.20762227798E+03 -0.47093685175E+03 -0.85656900552E+03  0.99929924941E+03  0.25500000920E-02 0. -1.
       -2    1    3    3    0  502 -0.20762227798E+03  0.47093685175E+03  0.14717260440E+04  0.15591234964E+04  0.25500000920E-02 0.  1.
</event>
<event>
 5   0  0.2345143E-05  0.2467843E+04  0.7818609E-02  0.8414532E-01
       -2   -1    0    0    0  501  0.00000000000E+00  0.00000000000E+00  0.86905841033E+03  0.86905841033E+03  0.25500000920E-02 0. -1.
        2   -1    0    0  501    0  0.00000000000E+00  0.00000000000E+00 -0.17519677123E+04  0.17519677123E+04  0.25500000920E-02 0.  1.
    10030    2    1    2    0    0  0.00000000000E+00  0.00000000000E+00 -0.88290930198E+03  0.26210261226E+04  0.24678430056E+04 0.  0.
        5    1    3    3  502    0 -0.86336208004E+03  0.78345228112E+03 -0.87070589792E+03  0.14551090711E+04  0.46999998093E+01 0.  1.
       -5    1    3    3    0  502  0.86336208004E+03 -0.78345228112E+03 -0.12203404058E+02  0.11659170516E+04  0.46999998093E+01 0. -1.
</event>
<event>
 5   0  0.1039688E-05  0.2492102E+04  0.7818609E-02  0.8405805E-01
        1   -1    0    0  501    0  0.00000000000E+00  0.00000000000E+00  0.11107008581E+04  0.11107008581E+04  0.50400001928E-02 0. -1.
       -1   -1    0    0    0  501  0.00000000000E+00  0.00000000000E+00 -0.13978951152E+04  0.13978951152E+04  0.50400001928E-02 0.  1.
    10030    2    1    2    0    0  0.00000000000E+00  0.00000000000E+00 -0.28719425710E+03  0.25085959734E+04  0.24921021681E+04 0.  0.
        3    1    3    3  502    0 -0.12115001463E+04 -0.15500595135E+03 -0.39197672162E+03  0.12827334914E+04  0.10100000352E+00 0. -1.
       -3    1    3    3    0  502  0.12115001463E+04  0.15500595135E+03  0.10478246452E+03  0.12258624819E+04  0.10100000352E+00 0.  1.
</event>
<event>
 5   0  0.2345143E-05  0.2362128E+04  0.7818609E-02  0.8453820E-01
       -2   -1    0    0    0  501  0.00000000000E+00  0.00000000000E+00  0.10434462794E+04  0.10434462794E+04  0.25500000920E-02 0.  1.
        2   -1    0    0  501    0  0.00000000000E+00  0.00000000000E+00 -0.13368315358E+04  0.13368315358E+04  0.25500000920E-02 0. -1.
    10030    2    1    2    0    0  0.00000000000E+00  0.00000000000E+00 -0.29338525639E+03  0.23802778151E+04  0.23621277630E+04 0.  0.
        5    1    3    3  502    0 -0.40481471236E+03  0.90636208129E+03 -0.79154932864E+03  0.12696218348E+04  0.46999998093E+01 0. -1.
       -5    1    3    3    0  502  0.40481471236E+03 -0.90636208129E+03  0.49816407225E+03  0.11106559803E+04  0.46999998093E+01 0.  1.
</event>
<event>
 5   0  0.1039688E-05  0.2553951E+04  0.7818609E-02  0.8384014E-01
       -1   -1    0    0    0  501  0.00000000000E+00  0.00000000000E+00  0.58545614091E+03  0.58545614093E+03  0.50400001928E-02 0.  1.
        1   -1    0    0  501    0  0.00000000000E+00  0.00000000000E+00 -0.27852912388E+04  0.27852912388E+04  0.50400001928E-02 0. -1.
    10030    2    1    2    0    0  0.00000000000E+00  0.00000000000E+00 -0.21998350979E+04  0.33707473798E+04  0.25539505555E+04 0.  0.
        3    1    3    3  502    0 -0.45389428746E+03 -0.83776089626E+03 -0.22219968356E+04  0.24176710469E+04  0.10100000352E+00 0. -1.
       -3    1    3    3    0  502  0.45389428746E+03  0.83776089626E+03  0.22161737636E+02  0.95307633288E+03  0.10100000352E+00 0.  1.
</event>
<event>
 5   0  0.2432309E-05  0.2490166E+04  0.7818609E-02  0.8406497E-01
       -2   -1    0    0    0  501  0.00000000000E+00  0.00000000000E+00  0.81238932377E+03  0.81238932377E+03  0.25500000920E-02 0. -1.
        2   -1    0    0  501    0  0.00000000000E+00  0.00000000000E+00 -0.19082369164E+04  0.19082369164E+04  0.25500000920E-02 0.  1.
    10030    2    1    2    0    0  0.00000000000E+00  0.00000000000E+00 -0.10958475926E+04  0.27206262401E+04  0.24901656958E+04 0.  0.
        4    1    3    3  502    0  0.87614883753E+03  0.12738481574E+03  0.40851845551E+03  0.97506544303E+03  0.12699999809E+01 0. -1.
       -4    1    3    3    0  502 -0.87614883753E+03 -0.12738481574E+03 -0.15043660481E+04  0.17455607971E+04  0.12699999809E+01 0.  1.
</event>
<event>
 5   0  0.1015327E-05  0.2226922E+04  0.7818609E-02  0.8507306E-01
        1   -1    0    0  501    0  0.00000000000E+00  0.00000000000E+00  0.21078618007E+04  0.21078618007E+04  0.50400001928E-02 0. -1.
       -1   -1    0    0    0  501  0.00000000000E+00  0.00000000000E+00 -0.58817663074E+03  0.58817663076E+03  0.50400001928E-02 0.  1.
    10030    2    1    2    0    0  0.00000000000E+00  0.00000000000E+00  0.15196851700E+04  0.26960384315E+04  0.22269216888E+04 0.  0.
        4    1    3    3  502    0 -0.28670315489E+03 -0.57338723967E+03 -0.34233536906E+03  0.72675081249E+03  0.12699999809E+01 0.  1.
       -4    1    3    3    0  502  0.28670315489E+03  0.57338723967E+03  0.18620205390E+04  0.19692876190E+04  0.12699999809E+01 0. -1.
</event>
<event>
 5   0  0.2432309E-05  0.2507377E+04  0.7818609E-02  0.8400362E-01
       -2   -1    0    0    0  501  0.00000000000E+00  0.00000000000E+00  0.89884950655E+03  0.89884950655E+03  0.25500000920E-02 0. -1.
        2   -1    0    0  501    0  0.00000000000E+00  0.00000000000E+00 -0.17486079932E+04  0.17486079932E+04  0.25500000920E-02 0.  1.
    10030    2    1    2    0    0  0.00000000000E+00  0.00000000000E+00 -0.84975848666E+03  0.26474574998E+04  0.25073774601E+04 0.  0.
        4    1    3    3  502    0  0.79454594866E+03 -0.25723882623E+03 -0.14121340822E+04  0.16406094469E+04  0.12699999809E+01 0.  1.
       -4    1    3    3    0  502 -0.79454594866E+03  0.25723882623E+03  0.56237559552E+03  0.10068480529E+04  0.12699999809E+01 0. -1.
</event>
<event>
 5   0  0.2388326E-05  0.2528919E+04  0.7818609E-02  0.8392755E-01
        2   -1    0    0  501    0  0.00000000000E+00  0.00000000000E+00  0.12458092482E+04  0.12458092482E+04  0.25500000920E-02 0. -1.
       -2   -1    0    0    0  501  0.00000000000E+00  0.00000000000E+00 -0.12833885089E+04  0.12833885089E+04  0.25500000920E-02 0.  1.
    10030    2    1    2    0    0  0.00000000000E+00  0.00000000000E+00 -0.37579260677E+02  0.25291977571E+04  0.25289185621E+04 0.  0.
        2    1    3    3  502    0 -0.20904846932E+02 -0.16914333339E+03  0.12342695981E+04  0.12459807063E+04  0.25500000920E-02 0. -1.
       -2    1    3    3    0  502  0.20904846932E+02  0.16914333339E+03 -0.12718488587E+04  0.12832170507E+04  0.25500000920E-02 0.  1.
</event>
<event>
 5   0  0.1008073E-05  0.2506319E+04  0.7818609E-02  0.8400738E-01
        1   -1    0    0  501    0  0.00000000000E+00  0.00000000000E+00  0.16550106773E+04  0.16550106773E+04  0.50400001928E-02 0. -1.
       -1   -1    0    0    0  501  0.00000000000E+00  0.00000000000E+00 -0.94888102671E+03  0.94888102672E+03  0.50400001928E-02 0.  1.
    10030    2    1    2    0    0  0.00000000000E+00  0.00000000000E+00  0.70612965055E+03  0.26038917040E+04  0.25063185996E+04 0.  0.
        1    1    3    3  502    0 -0.98343083952E+02  0.12330236892E+04  0.56186007466E+03  0.13585674528E+04  0.50400001928E-02 0. -1.
       -1    1    3    3    0  502  0.98343083952E+02 -0.12330236892E+04  0.14426957589E+03  0.12453242512E+04  0.50400001928E-02 0.  1.
</event>
<event>
 5   0  0.1008073E-05  0.2655271E+04  0.7818609E-02  0.8349665E-01
       -1   -1    0    0    0  501  0.00000000000E+00  0.00000000000E+00  0.73360598689E+03  0.73360598690E+03  0.50400001928E-02 0.  1.
        1   -1    0    0  501    0  0.00000000000E+00  0.00000000000E+00 -0.24026745517E+04  0.24026745517E+04  0.50400001928E-02 0. -1.
    10030    2    1    2    0    0  0.00000000000E+00  0.00000000000E+00 -0.16690685648E+04  0.31362805386E+04  0.26552713125E+04 0.  0.
        1    1    3    3  502    0 -0.54337030672E+03 -0.88256016842E+03  0.14550402554E+03  0.10465826114E+04  0.50400001928E-02 0.  1.
       -1    1    3    3    0  502  0.54337030672E+03  0.88256016842E+03 -0.18145725903E+04  0.20896979271E+04  0.50400001928E-02 0. -1.
</event>
<event>
 5   0  0.2345143E-05  0.2461993E+04  0.7818609E-02  0.8416652E-01
        2   -1    0    0  501    0  0.00000000000E+00  0.00000000000E+00  0.14354745040E+04  0.14354745040E+04  0.25500000920E-02 0. -1.
       -2   -1    0    0    0  501  0.00000000000E+00  0.00000000000E+00 -0.10556459385E+04  0.10556459385E+04  0.25500000920E-02 0.  1.
    10030    2    1    2    0    0  0.00000000000E+00  0.00000000000E+00  0.37982856552E+03  0.24911204426E+04  0.24619933632E+04 0.  0.
        5    1    3    3  502    0  0.57506971239E+02  0.67912693181E+03  0.12271321947E+04  0.14037079306E+04  0.46999998093E+01 0. -1.
       -5    1    3    3    0  502 -0.57506971239E+02 -0.67912693181E+03 -0.84730362914E+03  0.10874125120E+04  0.46999998093E+01 0.  1.
</event>
<event>
 5   0  0.2441340E-05  0.2515411E+04  0.7818609E-02  0.8397516E-01
       -2   -1    0    0    0  501  0.00000000000E+00  0.00000000000E+00  0.11104963260E+04  0.11104963260E+04  0.25500000920E-02 0.  1.
        2   -1    0    0  501    0  0.00000000000E+00  0.00000000000E+00 -0.14244290535E+04  0.14244290535E+04  0.25500000920E-02 0. -1.
    10030    2    1    2    0    0  0.00000000000E+00  0.00000000000E+00 -0.31393272749E+03  0.25349253796E+04  0.25154110842E+04 0.  0.
        3    1    3    3  502    0 -0.94379223694E+03 -0.42940083755E+03  0.56038056300E+03  0.11786243046E+04  0.10100000352E+00 0.  1.
       -3    1    3    3    0  502  0.94379223694E+03  0.42940083755E+03 -0.87431329049E+03  0.13563010750E+04  0.10100000352E+00 0. -1.
</event>
<event>
 5   0  0.2345143E-05  0.2514085E+04  0.7818609E-02  0.8397985E-01
       -2   -1    0    0    0  501  0.00000000000E+00  0.00000000000E+00  0.99180341367E+03  0.99180341368E+03  0.25500000920E-02 0. -1.
        2   -1    0    0  501    0  0.00000000000E+00  0.00000000000E+00 -0.15932152260E+04  0.15932152260E+04  0.25500000920E-02 0.  1.
    10030    2    1    2    0    0  0.00000000000E+00  0.00000000000E+00 -0.60141181231E+03  0.25850186397E+04  0.25140853604E+04 0.  0.
        5    1    3    3  502    0 -0.72064947213E+03  0.94773026375E+03 -0.71532739175E+03  0.13889721674E+04  0.46999998093E+01 0.  1.
       -5    1    3    3    0  502  0.72064947213E+03 -0.94773026375E+03  0.11391557944E+03  0.11960464722E+04  0.46999998093E+01 0. -1.
</event>
<event>
 5   0  0.1010338E-05  0.2516787E+04  0.7818609E-02  0.8397029E-01
       -1   -1    0    0    0  501  0.00000000000E+00  0.00000000000E+00  0.11876246748E+04  0.11876246748E+04  0.50400001928E-02 0. -1.
        1   -1    0    0  501    0  0.00000000000E+00  0.00000000000E+00 -0.13333790140E+04  0.13333790140E+04  0.50400001928E-02 0.  1.
    10030    2    1    2    0    0  0.00000000000E+00  0.00000000000E+00 -0.14575433914E+03  0.25210036888E+04  0.25167866957E+04 0.  0.
        2    1    3    3  502    0 -0.62915702369E+01  0.72392996222E+03 -0.11038926394E+04  0.13201110307E+04  0.25500000920E-02 0.  1.
       -2    1    3    3    0  502  0.62915702369E+01 -0.72392996222E+03  0.95813830022E+03  0.12008926582E+04  0.25500000920E-02 0. -1.
</event>
<event>
 5   0  0.2432309E-05  0.2565496E+04  0.7818609E-02  0.8380017E-01
       -2   -1    0    0    0  501  0.00000000000E+00  0.00000000000E+00  0.20277681746E+04  0.20277681746E+04  0.25500000920E-02 0. -1.
        2   -1    0    0  501    0  0.00000000000E+00  0.00000000000E+00 -0.81145467375E+03  0.81145467375E+03  0.25500000920E-02 0.  1.
    10030    2    1    2    0    0  0.00000000000E+00  0.00000000000E+00  0.12163135008E+04  0.28392228483E+04  0.25654956344E+04 0.  0.
        4    1    3    3  502    0  0.84974944317E+02 -0.59372247300E+03  0.18630311468E+04  0.19571953870E+04  0.12699999809E+01 0. -1.
       -4    1    3    3    0  502 -0.84974944317E+02  0.59372247300E+03 -0.64671764594E+03  0.88202746135E+03  0.12699999809E+01 0.  1.
</event>
<event>
 5   0  0.1039688E-05  0.2468164E+04  0.7818609E-02  0.8414416E-01
        1   -1    0    0  501    0  0.00000000000E+00  0.00000000000E+00  0.11240958140E+04  0.11240958140E+04  0.50400001928E-02 0. -1.
       -1   -1    0    0    0  501  0.00000000000E+00  0.00000000000E+00 -0.13548295522E+04  0.13548295522E+04  0.50400001928E-02 0.  1.
    10030    2    1    2    0    0  0.00000000000E+00  0.00000000000E+00 -0.23073373814E+03  0.24789253662E+04  0.24681638749E+04 0.  0.
        3    1    3    3  502    0  0.51118120554E+03  0.88006110492E+03 -0.81636738438E+03  0.13047105004E+04  0.10100000352E+00 0.  1.
       -3    1    3    3    0  502 -0.51118120554E+03 -0.88006110492E+03  0.58563364625E+03  0.11742148658E+04  0.10100000352E+00 0. -1.
</event>
<event>
 5   0  0.2441340E-05  0.2458308E+04  0.7818609E-02  0.8417991E-01
        2   -1    0    0  501    0  0.00000000000E+00  0.00000000000E+00  0.17222537018E+04  0.17222537018E+04  0.25500000920E-02 0. -1.
       -2   -1    0    0    0  501  0.00000000000E+00  0.00000000000E+00 -0.87723396604E+03  0.87723396604E+03  0.25500000920E-02 0.  1.
    10030    2    1    2    0    0  0.00000000000E+00  0.00000000000E+00  0.84501973574E+03  0.25994876678E+04  0.24583079102E+04 0.  0.
        3    1    3    3  502    0 -0.60081943520E+01 -0.77183680848E+03 -0.58900949068E+03  0.97092757075E+03  0.10100000352E+00 0.  1.
       -3    1    3    3    0  502  0.60081943520E+01  0.77183680848E+03  0.14340292264E+04  0.16285600971E+04  0.10100000352E+00 0. -1.
</event>
<event>
 5   0  0.1008073E-05  0.2522337E+04  0.7818609E-02  0.8395071E-01
        1   -1    0    0  501    0  0.00000000000E+00  0.00000000000E+00  0.26005543823E+04  0.26005543823E+04  0.50400001928E-02 0. -1.
       -1   -1    0    0    0  501  0.00000000000E+00  0.00000000000E+00 -0.61161802593E+03  0.61161802595E+03  0.50400001928E-02 0.  1.
    10030    2    1    2    0    0  0.00000000000E+00  0.00000000000E+00  0.19889363564E+04  0.32121724083E+04  0.25223369622E+04 0.  0.
        1    1    3    3  502    0  0.11494308509E+04 -0.43650507496E+03  0.13519947981E+04  0.18274621461E+04  0.50400001928E-02 0. -1.
       -1    1    3    3    0  502 -0.11494308509E+04  0.43650507496E+03  0.63694155833E+03  0.13847102622E+04  0.50400001928E-02 0.  1.
</event>
<event>
 5   0  0.2345143E-05  0.2500336E+04  0.7818609E-02  0.8402866E-01
       -2   -1    0    0    0  501  0.00000000000E+00  0.00000000000E+00  0.20633930670E+04  0.20633930670E+04  0.25500000920E-02 0.  1.
        2   -1    0    0  501    0  0.00000000000E+00  0.00000000000E+00 -0.75745144353E+03  0.75745144354E+03  0.25500000920E-02 0. -1.
    10030    2    1    2    0    0  0.00000000000E+00  0.00000000000E+00  0.13059416234E+04  0.28208445105E+04  0.25003360231E+04 0.  0.
        5    1    3    3  502    0 -0.89117144012E+03 -0.62128891988E+03 -0.44966685033E+02  0.10873042584E+04  0.46999998093E+01 0.  1.
       -5    1    3    3    0  502  0.89117144012E+03  0.62128891988E+03  0.13509083085E+04  0.17335402521E+04  0.46999998093E+01 0. -1.
</event>
<event>
 5   0  0.1015327E-05  0.2504674E+04  0.7818609E-02  0.8401322E-01
       -1   -1    0    0    0  501  0.00000000000E+00  0.00000000000E+00  0.10133355462E+04  0.10133355462E+04  0.50400001928E-02 0. -1.
        1   -1    0    0  501    0  0.00000000000E+00  0.00000000000E+00 -0.15477084973E+04  0.15477084974E+04  0.50400001928E-02 0.  1.
    10030    2    1    2    0    0  0.00000000000E+00  0.00000000000E+00 -0.53437295118E+03  0.25610440435E+04  0.25046740590E+04 0.  0.
        4    1    3    3  502    0  0.48428567140E+03 -0.85901398815E+03 -0.10565112268E+04  0.14452180557E+04  0.12699999809E+01 0.  1.
       -4    1    3    3    0  502 -0.48428567140E+03  0.85901398815E+03  0.52213827559E+03  0.11158259878E+04  0.12699999809E+01 0. -1.
</event>
<event>
 5   0  0.2388326E-05  0.2508370E+04  0.7818609E-02  0.8400010E-01
        2   -1    0    0  501    0  0.00000000000E+00  0.00000000000E+00  0.19675668760E+04  0.19675668760E+04  0.25500000920E-02 0. -1.
       -2   -1    0    0    0  501  0.00000000000E+00  0.00000000000E+00 -0.79945425974E+03  0.79945425974E+03  0.25500000920E-02 0.  1.
    10030    2    1    2    0    0  0.00000000000E+00  0.00000000000E+00  0.11681126163E+04  0.27670211358E+04  0.25083697657E+04 0.  0.
        2    1    3    3  502    0  0.38879800872E+03 -0.10280998185E+03  0.18945117881E+04  0.19367262840E+04  0.25500000920E-02 0. -1.
       -2    1    3    3    0  502 -0.38879800872E+03  0.10280998185E+03 -0.72639917184E+03  0.83029485173E+03  0.25500000920E-02 0.  1.
</event>
<event>
 5   0  0.2441340E-05  0.2548533E+04  0.7818609E-02  0.8385897E-01
       -2   -1    0    0    0  501  0.00000000000E+00  0.00000000000E+00  0.68294014785E+03  0.68294014785E+03  0.25500000920E-02 0.  1.
        2   -1    0    0  501    0  0.00000000000E+00  0.00000000000E+00 -0.23775948771E+04  0.23775948771E+04  0.25500000920E-02 0. -1.
    10030    2    1    2    0    0  0.00000000000E+00  0.00000000000E+00 -0.16946547293E+04  0.30605350250E+04  0.25485329089E+04 0.  0.
        3    1    3    3  502    0 -0.31654803445E+03  0.12331643736E+04 -0.78312738240E+03  0.14947192170E+04  0.10100000352E+00 0. -1.
       -3    1    3    3    0  502  0.31654803445E+03 -0.12331643736E+04 -0.91152734688E+03  0.15658158080E+04  0.10100000352E+00 0.  1.
</event>
<event>
 5   0  0.1002753E-05  0.2484542E+04  0.7818609E-02  0.8408513E-01
       -1   -1    0    0    0  501  0.00000000000E+00  0.00000000000E+00  0.11256961115E+04  0.11256961115E+04  0.50400001928E-02 0.  1.
        1   -1    0    0  501    0  0.00000000000E+00  0.00000000000E+00 -0.13709177354E+04  0.13709177354E+04  0.50400001928E-02 0. -1.
    10030    2    1    2    0    0  0.00000000000E+00  0.00000000000E+00 -0.24522162397E+03  0.24966138469E+04  0.24845416188E+04 0.  0.
        5    1    3    3  502    0  0.48116460251E+03 -0.71132291894E+03  0.77936693798E+03  0.11597131472E+04  0.46999998093E+01 0.  1.
       -5    1    3    3    0  502 -0.48116460251E+03  0.71132291894E+03 -0.10245885620E+04  0.13369006997E+04  0.46999998093E+01 0. -1.
</event>
<event>
 5   0  0.1010338E-05  0.2464703E+04  0.7818609E-02  0.8415669E-01
        1   -1    0    0  501    0  0.00000000000E+00  0.00000000000E+00  0.15628465458E+04  0.15628465458E+04  0.50400001928E-02 0. -1.
       -1   -1    0    0    0  501  0.00000000000E+00  0.00000000000E+00 -0.97174594916E+03  0.97174594917E+03  0.50400001928E-02 0.  1.
    10030    2    1    2    0    0  0.00000000000E+00  0.00000000000E+00  0.59110059663E+03  0.25345924950E+04  0.24647026596E+04 0.  0.
        2    1    3    3  502    0 -0.29788171718E+03  0.72827482569E+03  0.12709027728E+04  0.14947613847E+04  0.25500000920E-02 0. -1.
       -2    1    3    3    0  502  0.29788171718E+03 -0.72827482569E+03 -0.67980217619E+03  0.10398311103E+04  0.25500000920E-02 0.  1.
</event>
<event>
 5   0  0.2432309E-05  0.2556587E+04  0.7818609E-02  0.8383099E-01
        2   -1    0    0  501    0  0.00000000000E+00  0.00000000000E+00  0.16122389971E+04  0.16122389971E+04  0.25500000920E-02 0.  1.
       -2   -1    0    0    0  501  0.00000000000E+00  0.00000000000E+00 -0.10135187011E+04  0.10135187011E+04  0.25500000920E-02 0. -1.
    10030    2    1    2    0    0  0.00000000000E+00  0.00000000000E+00  0.59872029603E+03  0.26257576983E+04  0.25565870799E+04 0.  0.
        4    1    3    3  502    0  0.82986682815E+03 -0.17578307513E+03  0.12815038090E+04  0.15368253861E+04  0.12699999809E+01 0.  1.
       -4    1    3    3    0  502 -0.82986682815E+03  0.17578307513E+03 -0.68278351297E+03  0.10889323122E+04  0.12699999809E+01 0. -1.
</event>
<event>
 5   0  0.2388326E-05  0.2491830E+04  0.7818609E-02  0.8405902E-01
       -2   -1    0    0    0  501  0.00000000000E+00  0.00000000000E+00  0.11637142765E+04  0.11637142765E+04  0.25500000920E-02 0.  1.
        2   -1    0    0  501    0  0.00000000000E+00  0.00000000000E+00 -0.13339217622E+04  0.13339217622E+04  0.25500000920E-02 0. -1.
    10030    2    1    2    0    0  0.00000000000E+00  0.00000000000E+00 -0.17020748570E+03  0.24976360387E+04  0.24918296879E+04 0.  0.
        2    1    3    3  502    0 -0.22536998943E+03  0.11362679274E+04  0.37466692777E+03  0.12174858282E+04  0.25500000920E-02 0.  1.
       -2    1    3    3    0  502  0.22536998943E+03 -0.11362679274E+04 -0.54487441347E+03  0.12801502105E+04  0.25500000920E-02 0. -1.
</event>
<event>
 5   0  0.1010338E-05  0.2515097E+04  0.7818609E-02  0.8397627E-01
       -1   -1    0    0    0  501  0.00000000000E+00  0.00000000000E+00  0.82284827206E+03  0.82284827208E+03  0.50400001928E-02 0. -1.
        1   -1    0    0  501    0  0.00000000000E+00  0.00000000000E+00 -0.19218948579E+04  0.19218948579E+04  0.50400001928E-02 0.  1.
    10030    2    1    2    0    0  0.00000000000E+00  0.00000000000E+00 -0.10990465859E+04  0.27447431300E+04  0.25150967083E+04 0.  0.
        2    1    3    3  502    0 -0.94589399617E+03  0.47674123938E+03  0.19017869942E+03  0.10761810252E+04  0.25500000920E-02 0. -1.
       -2    1    3    3    0  502  0.94589399617E+03 -0.47674123938E+03 -0.12892252853E+04  0.16685621048E+04  0.25500000920E-02 0.  1.
</event>
<event>
 5   0  0.2388326E-05  0.2407547E+04  0.7818609E-02  0.8436684E-01
        2   -1    0    0  501    0  0.00000000000E+00  0.00000000000E+00  0.16753191964E+04  0.16753191964E+04  0.25500000920E-02 0. -1.
       -2   -1    0    0    0  501  0.00000000000E+00  0.00000000000E+00 -0.86495189731E+03  0.86495189732E+03  0.25500000920E-02 0.  1.
    10030    2    1    2    0    0  0.00000000000E+00  0.00000000000E+00  0.81036729910E+03  0.25402710937E+04  0.24075468989E+04 0.  0.
        2    1    3    3  502    0 -0.95487902157E+02 -0.62362522262E+03 -0.67653867335E+03  0.92505726000E+03  0.25500000920E-02 0.  1.
       -2    1    3    3    0  502  0.95487902157E+02  0.62362522262E+03  0.14869059725E+04  0.16152138337E+04  0.25500000920E-02 0. -1.
</event>
<event>
 5   0  0.2345143E-05  0.2540943E+04  0.7818609E-02  0.8388543E-01
        2   -1    0    0  501    0  0.00000000000E+00  0.00000000000E+00  0.25716237718E+04  0.25716237718E+04  0.25500000920E-02 0.  1.
       -2   -1    0    0    0  501  0.00000000000E+00  0.00000000000E+00 -0.62765708489E+03  0.62765708490E+03  0.25500000920E-02 0. -1.
    10030    2    1    2    0    0  0.00000000000E+00  0.00000000000E+00  0.19439666869E+04  0.31992808567E+04  0.25409430376E+04 0.  0.
        5    1    3    3  502    0 -0.81670283469E+02  0.69265791695E+02 -0.62195343626E+03  0.63112277092E+03  0.46999998093E+01 0. -1.
       -5    1    3    3    0  502  0.81670283469E+02 -0.69265791695E+02  0.25659201232E+04  0.25681580858E+04  0.46999998093E+01 0.  1.
</event>
<event>
 5   0  0.2432309E-05  0.2500348E+04  0.7818609E-02  0.8402862E-01
       -2   -1    0    0    0  501  0.00000000000E+00  0.00000000000E+00  0.62474909923E+03  0.62474909924E+03  0.25500000920E-02 0. -1.
        2   -1    0    0  501    0  0.00000000000E+00  0.00000000000E+00 -0.25016996052E+04  0.25016996052E+04  0.25500000920E-02 0.  1.
    10030    2    1    2    0    0  0.00000000000E+00  0.00000000000E+00 -0.18769505060E+04  0.31264487045E+04  0.25003476358E+04 0.  0.
        4    1    3    3  502    0 -0.10078835130E+03  0.23973181147E+03  0.59055318458E+03  0.64527847470E+03  0.12699999809E+01 0. -1.
       -4    1    3    3    0  502  0.10078835130E+03 -0.23973181147E+03 -0.24675036906E+04  0.24811702298E+04  0.12699999809E+01 0.  1.
</event>
<event>
 5   0  0.2388326E-05  0.2527138E+04  0.7818609E-02  0.8393381E-01
        2   -1    0    0  501    0  0.00000000000E+00  0.00000000000E+00  0.10912836437E+04  0.10912836437E+04  0.25500000920E-02 0.  1.
       -2   -1    0    0    0  501  0.00000000000E+00  0.00000000000E+00 -0.14630539245E+04  0.14630539245E+04  0.25500000920E-02 0. -1.
    10030    2    1    2    0    0  0.00000000000E+00  0.00000000000E+00 -0.37177028086E+03  0.25543375682E+04  0.25271381582E+04 0.  0.
        2    1    3    3  502    0 -0.10599873429E+04 -0.27250584988E+03 -0.82416749495E+03  0.13700673944E+04  0.25500000920E-02 0. -1.
       -2    1    3    3    0  502  0.10599873429E+04  0.27250584988E+03  0.45239721409E+03  0.11842701739E+04  0.25500000920E-02 0.  1.
</event>
<event>
 5   0  0.8166500E-06  0.2497294E+04  0.7818609E-02  0.8403950E-01
       -4   -1    0    0    0  501  0.00000000000E+00  0.00000000000E+00  0.78441568158E+03  0.78441670967E+03  0.12699999809E+01 0. -1.
        4   -1    0    0  501    0  0.00000000000E+00  0.00000000000E+00 -0.19876163742E+04  0.19876167799E+04  0.12699999809E+01 0.  1.
    10030    2    1    2    0    0  0.00000000000E+00  0.00000000000E+00 -0.12032006926E+04  0.27720334896E+04  0.24972940878E+04 0.  0.
        2    1    3    3  502    0 -0.11644101670E+04 -0.37030882546E+03 -0.88707013077E+03  0.15099248591E+04  0.25500000920E-02 0.  1.
       -2    1    3    3    0  502  0.11644101670E+04  0.37030882546E+03 -0.31613056184E+03  0.12621086305E+04  0.25500000920E-02 0. -1.
</event>
<event>
 5   0  0.1008073E-05  0.2504889E+04  0.7818609E-02  0.8401246E-01
        1   -1    0    0  501    0  0.00000000000E+00  0.00000000000E+00  0.95385705662E+03  0.95385705663E+03  0.50400001928E-02 0. -1.
       -1   -1    0    0    0  501  0.00000000000E+00  0.00000000000E+00 -0.16444987490E+04  0.16444987490E+04  0.50400001928E-02 0.  1.
    10030    2    1    2    0    0  0.00000000000E+00  0.00000000000E+00 -0.69064169235E+03  0.25983558056E+04  0.25048886094E+04 0.  0.
        1    1    3    3  502    0  0.91354136141E+03  0.46825394189E+03  0.39894531801E+03  0.11013523232E+04  0.50400001928E-02 0. -1.
       -1    1    3    3    0  502 -0.91354136141E+03 -0.46825394189E+03 -0.10895870104E+04  0.14970034824E+04  0.50400001928E-02 0.  1.
</event>
<event>
 5   0  0.2441340E-05  0.2499313E+04  0.7818609E-02  0.8403230E-01
       -2   -1    0    0    0  501  0.00000000000E+00  0.00000000000E+00  0.71796922250E+03  0.71796922251E+03  0.25500000920E-02 0.  1.
        2   -1    0    0  501    0  0.00000000000E+00  0.00000000000E+00 -0.21750807818E+04  0.21750807818E+04  0.25500000920E-02 0. -1.
    10030    2    1    2    0    0  0.00000000000E+00  0.00000000000E+00 -0.14571115593E+04  0.28930500043E+04  0.24993127518E+04 0.  0.
        3    1    3    3  502    0 -0.41173659387E+03 -0.11441193041E+04 -0.39486129872E+03  0.12784566713E+04  0.10100000352E+00 0.  1.
       -3    1    3    3    0  502  0.41173659387E+03  0.11441193041E+04 -0.10622502606E+04  0.16145933331E+04  0.10100000352E+00 0. -1.
</event>
<event>
 5   0  0.1008073E-05  0.2505618E+04  0.7818609E-02  0.8400987E-01
       -1   -1    0    0    0  501  0.00000000000E+00  0.00000000000E+00  0.12037798762E+04  0.12037798763E+04  0.50400001928E-02 0. -1.
        1   -1    0    0  501    0  0.00000000000E+00  0.00000000000E+00 -0.13038353173E+04  0.13038353173E+04  0.50400001928E-02 0.  1.
    10030    2    1    2    0    0  0.00000000000E+00  0.00000000000E+00 -0.10005544103E+03  0.25076151935E+04  0.25056182605E+04 0.  0.
        1    1    3    3  502    0 -0.32373680061E+03 -0.43145056138E+03  0.10816146390E+04  0.12086543469E+04  0.50400001928E-02 0. -1.
       -1    1    3    3    0  502  0.32373680061E+03  0.43145056138E+03 -0.11816700800E+04  0.12989608466E+04  0.50400001928E-02 0.  1.
</event>
<event>
 5   0  0.2388326E-05  0.2507504E+04  0.7818609E-02  0.8400317E-01
       -2   -1    0    0    0  501  0.00000000000E+00  0.00000000000E+00  0.68998722759E+03  0.68998722759E+03  0.25500000920E-02 0. -1.
        2   -1    0    0  501    0  0.00000000000E+00  0.00000000000E+00 -0.22781501876E+04  0.22781501876E+04  0.25500000920E-02 0.  1.
    10030    2    1    2    0    0  0.00000000000E+00  0.00000000000E+00 -0.15881629601E+04  0.29681374152E+04  0.25075043625E+04 0.  0.
        2    1    3    3  502    0  0.12289840128E+04  0.24240104165E+03 -0.85598085826E+03  0.15171892428E+04  0.25500000920E-02 0. -1.
       -2    1    3    3    0  502 -0.12289840128E+04 -0.24240104165E+03 -0.73218210179E+03  0.14509481724E+04  0.25500000920E-02 0.  1.
</event>
<event>
 5   0  0.2345143E-05  0.2487129E+04  0.7818609E-02  0.8407585E-01
        2   -1    0    0  501    0  0.00000000000E+00  0.00000000000E+00  0.49586597018E+03  0.49586597019E+03  0.25500000920E-02 0.  1.
       -2   -1    0    0    0  501  0.00000000000E+00  0.00000000000E+00 -0.31186911974E+04  0.31186911974E+04  0.25500000920E-02 0. -1.
    10030    2    1    2    0    0  0.00000000000E+00  0.00000000000E+00 -0.26228252272E+04  0.36145571676E+04  0.24871291372E+04 0.  0.
        5    1    3    3  502    0 -0.79035194613E+03 -0.55262450497E+03 -0.24524011468E+04  0.26352122337E+04  0.46999998093E+01 0. -1.
       -5    1    3    3    0  502  0.79035194613E+03  0.55262450497E+03 -0.17042408045E+03  0.97934493384E+03  0.46999998093E+01 0.  1.
</event>
<event>
 5   0  0.1039688E-05  0.2463070E+04  0.7818609E-02  0.8416261E-01
       -1   -1    0    0    0  501  0.00000000000E+00  0.00000000000E+00  0.96000992715E+03  0.96000992716E+03  0.50400001928E-02 0.  1.
        1   -1    0    0  501    0  0.00000000000E+00  0.00000000000E+00 -0.15798571575E+04  0.15798571575E+04  0.50400001928E-02 0. -1.
    10030    2    1    2    0    0  0.00000000000E+00  0.00000000000E+00 -0.61984723036E+03  0.25398670847E+04  0.24630700800E+04 0.  0.
        3    1    3    3  502    0 -0.58262344781E+02 -0.10296224647E+04 -0.10040855316E+04  0.14393417543E+04  0.10100000352E+00 0. -1.
       -3    1    3    3    0  502  0.58262344781E+02  0.10296224647E+04  0.38423830121E+03  0.11005253304E+04  0.10100000352E+00 0.  1.
</event>
<event>
 5   0  0.1008073E-05  0.2525747E+04  0.7818609E-02  0.8393870E-01
       -1   -1    0    0    0  501  0.00000000000E+00  0.00000000000E+00  0.87559836933E+03  0.87559836935E+03  0.50400001928E-02 0. -1.
        1   -1    0    0  501    0  0.00000000000E+00  0.00000000000E+00 -0.18214391997E+04  0.18214391997E+04  0.50400001928E-02 0.  1.
    10030    2    1    2    0    0  0.00000000000E+00  0.00000000000E+00 -0.94584083037E+03  0.26970375691E+04  0.25257467752E+04 0.  0.
        1    1    3    3  502    0  0.84253681317E+03 -0.77677717326E+03  0.93725908874E+02  0.11497980712E+04  0.50400001928E-02 0.  1.
       -1    1    3    3    0  502 -0.84253681317E+03  0.77677717326E+03 -0.10395667392E+04  0.15472394979E+04  0.50400001928E-02 0. -1.
</event>
<event>
 5   0  0.1002753E-05  0.2460128E+04  0.7818609E-02  0.8417330E-01
        1   -1    0    0  501    0  0.00000000000E+00  0.00000000000E+00  0.10034690700E+04  0.10034690700E+04  0.50400001928E-02 0.  1.
       -1   -1    0    0    0  501  0.00000000000E+00  0.00000000000E+00 -0.15078262713E+04  0.15078262713E+04  0.50400001928E-02 0. -1.
    10030    2    1    2    0    0  0.00000000000E+00  0.00000000000E+00 -0.50435720133E+03  0.25112953413E+04  0.24601276602E+04 0.  0.
        5    1    3    3  502    0 -0.63241014625E+02  0.12145789808E+04 -0.43994290432E+03  0.12933574044E+04  0.46999998093E+01 0. -1.
       -5    1    3    3    0  502  0.63241014625E+02 -0.12145789808E+04 -0.64414297010E+02  0.12179379369E+04  0.46999998093E+01 0.  1.
</event>
<event>
 5   0  0.1039688E-05  0.2508497E+04  0.7818609E-02  0.8399965E-01
       -1   -1    0    0    0  501  0.00000000000E+00  0.00000000000E+00  0.10090955736E+04  0.10090955736E+04  0.50400001928E-02 0. -1.
        1   -1    0    0  501    0  0.00000000000E+00  0.00000000000E+00 -0.15589592686E+04  0.15589592686E+04  0.50400001928E-02 0.  1.
    10030    2    1    2    0    0  0.00000000000E+00  0.00000000000E+00 -0.54986369498E+03  0.25680548422E+04  0.25084966792E+04 0.  0.
        3    1    3    3  502    0  0.79148442341E+03  0.23534303192E+03  0.69157274810E+03  0.10770825462E+04  0.10100000352E+00 0. -1.
       -3    1    3    3    0  502 -0.79148442341E+03 -0.23534303192E+03 -0.12414364431E+04  0.14909722960E+04  0.10100000352E+00 0.  1.
</event>
<event>
 5   0  0.2345143E-05  0.2552692E+04  0.7818609E-02  0.8384451E-01
        2   -1    0    0  501    0  0.00000000000E+00  0.00000000000E+00  0.19004445234E+04  0.19004445234E+04  0.25500000920E-02 0. -1.
       -2   -1    0    0    0  501  0.00000000000E+00  0.00000000000E+00 -0.85719892879E+03  0.85719892880E+03  0.25500000920E-02 0.  1.
    10030    2    1    2    0    0  0.00000000000E+00  0.00000000000E+00  0.10432455946E+04  0.27576434522E+04  0.25526919201E+04 0.  0.
        5    1    3    3  502    0  0.11449640644E+03 -0.11858499150E+04  0.26940975475E+02  0.11916783770E+04  0.46999998093E+01 0. -1.
       -5    1    3    3    0  502 -0.11449640644E+03  0.11858499150E+04  0.10163046191E+04  0.15659650752E+04  0.46999998093E+01 0.  1.
</event>
<event>
 5   0  0.2345143E-05  0.2851426E+04  0.7818609E-02  0.8287478E-01
       -2   -1    0    0    0  501  0.00000000000E+00  0.00000000000E+00  0.85045622718E+03  0.85045622718E+03  0.25500000920E-02 0. -1.
        2   -1    0    0  501    0  0.00000000000E+00  0.00000000000E+00 -0.23900796653E+04  0.23900796653E+04  0.25500000920E-02 0.  1.
    10030    2    1    2    0    0  0.00000000000E+00  0.00000000000E+00 -0.15396234381E+04  0.32405358925E+04  0.28514264043E+04 0.  0.
        5    1    3    3  502    0  0.50560418412E+03  0.47342223795E+03 -0.21860048262E+04  0.22931208857E+04  0.46999998093E+01 0.  1.
       -5    1    3    3    0  502 -0.50560418412E+03 -0.47342223795E+03  0.64638138802E+03  0.94741500682E+03  0.46999998093E+01 0. -1.
</event>
<event>
 5   0  0.1008073E-05  0.2419573E+04  0.7818609E-02  0.8432212E-01
       -1   -1    0    0    0  501  0.00000000000E+00  0.00000000000E+00  0.80683630541E+03  0.80683630542E+03  0.50400001928E-02 0. -1.
        1   -1    0    0  501    0  0.00000000000E+00  0.00000000000E+00 -0.18139786962E+04  0.18139786962E+04  0.50400001928E-02 0.  1.
    10030    2    1    2    0    0  0.00000000000E+00  0.00000000000E+00 -0.10071423908E+04  0.26208150016E+04  0.24195734081E+04 0.  0.
        1    1    3    3  502    0  0.24470316708E+03 -0.63851026141E+03  0.57743745035E+03  0.89499106308E+03  0.50400001928E-02 0. -1.
       -1    1    3    3    0  502 -0.24470316708E+03  0.63851026141E+03 -0.15845798411E+04  0.17258239385E+04  0.50400001928E-02 0.  1.
</event>
<event>
 5   0  0.8166500E-06  0.2618034E+04  0.7818609E-02  0.8362101E-01
        3   -1    0    0  501    0  0.00000000000E+00  0.00000000000E+00  0.18261147853E+04  0.18261147881E+04  0.10100000352E+00 0.  1.
       -3   -1    0    0    0  501  0.00000000000E+00  0.00000000000E+00 -0.93834508143E+03  0.93834508686E+03  0.10100000352E+00 0. -1.
    10030    2    1    2    0    0  0.00000000000E+00  0.00000000000E+00  0.88776970385E+03  0.27644598749E+04  0.26180342536E+04 0.  0.
        2    1    3    3  502    0  0.10717811311E+04  0.68302211248E+03  0.77493493173E+03  0.14885422895E+04  0.25500000920E-02 0.  1.
       -2    1    3    3    0  502 -0.10717811311E+04 -0.68302211248E+03  0.11283477212E+03  0.12759175855E+04  0.25500000920E-02 0. -1.
</event>
<event>
 5   0  0.2441340E-05  0.2487348E+04  0.7818609E-02  0.8407507E-01
       -2   -1    0    0    0  501  0.00000000000E+00  0.00000000000E+00  0.10764930181E+04  0.10764930181E+04  0.25500000920E-02 0.  1.
        2   -1    0    0  501    0  0.00000000000E+00  0.00000000000E+00 -0.14368179751E+04  0.14368179751E+04  0.25500000920E-02 0. -1.
    10030    2    1    2    0    0  0.00000000000E+00  0.00000000000E+00 -0.36032495700E+03  0.25133109932E+04  0.24873475981E+04 0.  0.
        3    1    3    3  502    0  0.47187867602E+03  0.11093886380E+04 -0.48882095214E+03  0.13009068254E+04  0.10100000352E+00 0. -1.
       -3    1    3    3    0  502 -0.47187867602E+03 -0.11093886380E+04  0.12849599514E+03  0.12124041678E+04  0.10100000352E+00 0.  1.
</event>
<event>
 5   0  0.2345143E-05  0.2500081E+04  0.7818609E-02  0.8402957E-01
       -2   -1    0    0    0  501  0.00000000000E+00  0.00000000000E+00  0.12911675566E+04  0.12911675566E+04  0.25500000920E-02 0.  1.
        2   -1    0    0  501    0  0.00000000000E+00  0.00000000000E+00 -0.12102238593E+04  0.12102238593E+04  0.25500000920E-02 0. -1.
    10030    2    1    2    0    0  0.00000000000E+00  0.00000000000E+00  0.80943697308E+02  0.25013914158E+04  0.25000814253E+04 0.  0.
        5    1    3    3  502    0 -0.74604304783E+02  0.13844604890E+03  0.12812210593E+04  0.12908456932E+04  0.46999998093E+01 0.  1.
       -5    1    3    3    0  502  0.74604304783E+02 -0.13844604890E+03 -0.12002773620E+04  0.12105457226E+04  0.46999998093E+01 0. -1.
</event>
<event>
 5   0  0.2432309E-05  0.2501596E+04  0.7818609E-02  0.8402417E-01
        2   -1    0    0  501    0  0.00000000000E+00  0.00000000000E+00  0.22601737979E+04  0.22601737979E+04  0.25500000920E-02 0.  1.
       -2   -1    0    0    0  501  0.00000000000E+00  0.00000000000E+00 -0.69220155410E+03  0.69220155410E+03  0.25500000920E-02 0. -1.
    10030    2    1    2    0    0  0.00000000000E+00  0.00000000000E+00  0.15679722438E+04  0.29523753520E+04  0.25015961428E+04 0.  0.
        4    1    3    3  502    0 -0.29557530286E+03 -0.11651485514E+03 -0.64378537586E+03  0.71791482378E+03  0.12699999809E+01 0. -1.
       -4    1    3    3    0  502  0.29557530286E+03  0.11651485514E+03  0.22117576196E+04  0.22344605282E+04  0.12699999809E+01 0.  1.
</event>
<event>
 5   0  0.1039688E-05  0.2511104E+04  0.7818609E-02  0.8399040E-01
       -1   -1    0    0    0  501  0.00000000000E+00  0.00000000000E+00  0.15896919588E+04  0.15896919588E+04  0.50400001928E-02 0.  1.
        1   -1    0    0  501    0  0.00000000000E+00  0.00000000000E+00 -0.99164557432E+03  0.99164557434E+03  0.50400001928E-02 0. -1.
    10030    2    1    2    0    0  0.00000000000E+00  0.00000000000E+00  0.59804638448E+03  0.25813375331E+04  0.25111041360E+04 0.  0.
        3    1    3    3  502    0  0.96398754281E+03 -0.73375942047E+03  0.63799765404E+03  0.13692026463E+04  0.10100000352E+00 0.  1.
       -3    1    3    3    0  502 -0.96398754281E+03  0.73375942047E+03 -0.39951269566E+02  0.12121348869E+04  0.10100000352E+00 0. -1.
</event>
<event>
 5   0  0.1015327E-05  0.2398487E+04  0.7818609E-02  0.8440070E-01
        1   -1    0    0  501    0  0.00000000000E+00  0.00000000000E+00  0.80898064762E+03  0.80898064763E+03  0.50400001928E-02 0.  1.
       -1   -1    0    0    0  501  0.00000000000E+00  0.00000000000E+00 -0.17777739341E+04  0.17777739341E+04  0.50400001928E-02 0. -1.
    10030    2    1    2    0    0  0.00000000000E+00  0.00000000000E+00 -0.96879328651E+03  0.25867545818E+04  0.23984867801E+04 0.  0.
        4    1    3    3  502    0 -0.60501229887E+03 -0.49305640911E+03  0.49758930102E+03  0.92560317077E+03  0.12699999809E+01 0.  1.
       -4    1    3    3    0  502  0.60501229887E+03  0.49305640911E+03 -0.14663825875E+04  0.16611514110E+04  0.12699999809E+01 0. -1.
</event>
<event>
 5   0  0.1015327E-05  0.2495403E+04  0.7818609E-02  0.8404625E-01
        1   -1    0    0  501    0  0.00000000000E+00  0.00000000000E+00  0.12520057711E+04  0.12520057711E+04  0.50400001928E-02 0.  1.
       -1   -1    0    0    0  501  0.00000000000E+00  0.00000000000E+00 -0.12434119929E+04  0.12434119929E+04  0.50400001928E-02 0. -1.
    10030    2    1    2    0    0  0.00000000000E+00  0.00000000000E+00  0.85937782008E+01  0.24954177641E+04  0.24954029663E+04 0.  0.
        4    1    3    3  502    0 -0.11432050941E+04  0.40986369751E+03 -0.28180136538E+03  0.12467236102E+04  0.12699999809E+01 0. -1.
       -4    1    3    3    0  502  0.11432050941E+04 -0.40986369751E+03  0.29039514359E+03  0.12486941539E+04  0.12699999809E+01 0.  1.
</event>
<event>
 5   0  0.1015327E-05  0.2363936E+04  0.7818609E-02  0.8453130E-01
       -1   -1    0    0    0  501  0.00000000000E+00  0.00000000000E+00  0.58413106052E+03  0.58413106054E+03  0.50400001928E-02 0. -1.
        1   -1    0    0  501    0  0.00000000000E+00  0.00000000000E+00 -0.23916695223E+04  0.23916695223E+04  0.50400001928E-02 0.  1.
    10030    2    1    2    0    0  0.00000000000E+00  0.00000000000E+00 -0.18075384617E+04  0.29758005828E+04  0.23639360858E+04 0.  0.
        4    1    3    3  502    0 -0.10027196837E+04  0.61546200652E+03 -0.76131185179E+03  0.14013698991E+04  0.12699999809E+01 0. -1.
       -4    1    3    3    0  502  0.10027196837E+04 -0.61546200652E+03 -0.10462266100E+04  0.15744306837E+04  0.12699999809E+01 0.  1.
</event>
<event>
 5   0  0.1008073E-05  0.2464536E+04  0.7818609E-02  0.8415730E-01
       -1   -1    0    0    0  501  0.00000000000E+00  0.00000000000E+00  0.79549352450E+03  0.79549352451E+03  0.50400001928E-02 0. -1.
        1   -1    0    0  501    0  0.00000000000E+00  0.00000000000E+00 -0.19088589307E+04  0.19088589307E+04  0.50400001928E-02 0.  1.
    10030    2    1    2    0    0  0.00000000000E+00  0.00000000000E+00 -0.11133654062E+04  0.27043524552E+04  0.24645364015E+04 0.  0.
        1    1    3    3  502    0 -0.12974356086E+03  0.49420157632E+03 -0.17871429941E+04  0.18587492222E+04  0.50400001928E-02 0.  1.
       -1    1    3    3    0  502  0.12974356086E+03 -0.49420157632E+03  0.67377758793E+03  0.84560323299E+03  0.50400001928E-02 0. -1.
</event>
<event>
 5   0  0.1002753E-05  0.2547958E+04  0.7818609E-02  0.8386097E-01
        1   -1    0    0  501    0  0.00000000000E+00  0.00000000000E+00  0.12220253638E+04  0.12220253638E+04  0.50400001928E-02 0. -1.
       -1   -1    0    0    0  501  0.00000000000E+00  0.00000000000E+00 -0.13281409941E+04  0.13281409941E+04  0.50400001928E-02 0.  1.
    10030    2    1    2    0    0  0.00000000000E+00  0.00000000000E+00 -0.10611563033E+03  0.25501663579E+04  0.25479575989E+04 0.  0.
        5    1    3    3  502    0  0.55506895688E+02  0.78550674097E+03  0.94925828400E+03  0.12333755451E+04  0.46999998093E+01 0. -1.
       -5    1    3    3    0  502 -0.55506895688E+02 -0.78550674097E+03 -0.10553739143E+04  0.13167908128E+04  0.46999998093E+01 0.  1.
</event>
<event>
 5   0  0.2432309E-05  0.2499112E+04  0.7818609E-02  0.8403302E-01
       -2   -1    0    0    0  501  0.00000000000E+00  0.00000000000E+00  0.13758945285E+04  0.13758945285E+04  0.25500000920E-02 0. -1.
        2   -1    0    0  501    0  0.00000000000E+00  0.00000000000E+00 -0.11348181653E+04  0.11348181653E+04  0.25500000920E-02 0.  1.
    10030    2    1    2    0    0  0.00000000000E+00  0.00000000000E+00  0.24107636317E+03  0.25107126937E+04  0.24991119258E+04 0.  0.
        4    1    3    3  502    0  0.10908269194E+02 -0.54364861177E+02 -0.11335809481E+04  0.11349369618E+04  0.12699999809E+01 0.  1.
       -4    1    3    3    0  502 -0.10908269194E+02  0.54364861177E+02  0.13746573112E+04  0.13757757320E+04  0.12699999809E+01 0. -1.
</event>
<event>
 5   0  0.8166500E-06  0.2486394E+04  0.7818609E-02  0.8407849E-01
       -3   -1    0    0    0  501  0.00000000000E+00  0.00000000000E+00  0.22956846080E+04  0.22956846102E+04  0.10100000352E+00 0. -1.
        3   -1    0    0  501    0  0.00000000000E+00  0.00000000000E+00 -0.67323651281E+03  0.67323652039E+03  0.10100000352E+00 0.  1.
    10030    2    1    2    0    0  0.00000000000E+00  0.00000000000E+00  0.16224480951E+04  0.29689211306E+04  0.24863939467E+04 0.  0.
        2    1    3    3  502    0  0.75310701280E+02 -0.99249188013E+03  0.17006452290E+04  0.19705090786E+04  0.25500000920E-02 0. -1.
       -2    1    3    3    0  502 -0.75310701280E+02  0.99249188013E+03 -0.78197133821E+02  0.99841205201E+03  0.25500000920E-02 0.  1.
</event>
<event>
 5   0  0.2432309E-05  0.2499105E+04  0.7818609E-02  0.8403304E-01
       -2   -1    0    0    0  501  0.00000000000E+00  0.00000000000E+00  0.10568586616E+04  0.10568586616E+04  0.25500000920E-02 0. -1.
        2   -1    0    0  501    0  0.00000000000E+00  0.00000000000E+00 -0.14773800014E+04  0.14773800015E+04  0.25500000920E-02 0.  1.
    10030    2    1    2    0    0  0.00000000000E+00  0.00000000000E+00 -0.42052133981E+03  0.25342386631E+04  0.24991053208E+04 0.  0.
        4    1    3    3  502    0  0.41899103675E+03 -0.55377295976E+02 -0.14027002243E+04  0.14649879405E+04  0.12699999809E+01 0.  1.
       -4    1    3    3    0  502 -0.41899103675E+03  0.55377295976E+02  0.98217888445E+03  0.10692507226E+04  0.12699999809E+01 0. -1.
</event>
<event>
 5   0  0.1008073E-05  0.2420035E+04  0.7818609E-02  0.8432040E-01
       -1   -1    0    0    0  501  0.00000000000E+00  0.00000000000E+00  0.65369279278E+03  0.65369279280E+03  0.50400001928E-02 0.  1.
        1   -1    0    0  501    0  0.00000000000E+00  0.00000000000E+00 -0.22398026508E+04  0.22398026508E+04  0.50400001928E-02 0. -1.
    10030    2    1    2    0    0  0.00000000000E+00  0.00000000000E+00 -0.15861098580E+04  0.28934954436E+04  0.24200354131E+04 0.  0.
        1    1    3    3  502    0  0.98092973717E+03 -0.45647178860E+03 -0.14524962982E+03  0.10916442177E+04  0.50400001928E-02 0.  1.
       -1    1    3    3    0  502 -0.98092973717E+03  0.45647178860E+03 -0.14408602282E+04  0.18018512259E+04  0.50400001928E-02 0. -1.
</event>
<event>
 5   0  0.2452457E-05  0.2508198E+04  0.7818609E-02  0.8400071E-01
        2   -1    0    0  501    0  0.00000000000E+00  0.00000000000E+00  0.13325970155E+04  0.13325970155E+04  0.25500000920E-02 0.  1.
       -2   -1    0    0    0  501  0.00000000000E+00  0.00000000000E+00 -0.11802250753E+04  0.11802250753E+04  0.25500000920E-02 0. -1.
    10030    2    1    2    0    0  0.00000000000E+00  0.00000000000E+00  0.15237194016E+03  0.25128220908E+04  0.25081980887E+04 0.  0.
        1    1    3    3  502    0 -0.94185412894E+03  0.44838692522E+02 -0.75217854843E+03  0.12061808643E+04  0.50400001928E-02 0. -1.
       -1    1    3    3    0  502  0.94185412894E+03 -0.44838692522E+02  0.90455048859E+03  0.13066412266E+04  0.50400001928E-02 0.  1.
</event>
<event>
 5   0  0.1039688E-05  0.2492718E+04  0.7818609E-02  0.8405584E-01
       -1   -1    0    0    0  501  0.00000000000E+00  0.00000000000E+00  0.12596162379E+04  0.12596162379E+04  0.50400001928E-02 0.  1.
        1   -1    0    0  501    0  0.00000000000E+00  0.00000000000E+00 -0.12332411239E+04  0.12332411239E+04  0.50400001928E-02 0. -1.
    10030    2    1    2    0    0  0.00000000000E+00  0.00000000000E+00  0.26375113947E+02  0.24928573618E+04  0.24927178300E+04 0.  0.
        3    1    3    3  502    0  0.11864789125E+04  0.16686526793E+03  0.35647679285E+03  0.12500607751E+04  0.10100000352E+00 0.  1.
       -3    1    3    3    0  502 -0.11864789125E+04 -0.16686526793E+03 -0.33010167891E+03  0.12427965867E+04  0.10100000352E+00 0. -1.
</event>
<event>
 5   0  0.2388326E-05  0.2517894E+04  0.7818609E-02  0.8396638E-01
       -2   -1    0    0    0  501  0.00000000000E+00  0.00000000000E+00  0.81504701711E+03  0.81504701711E+03  0.25500000920E-02 0. -1.
        2   -1    0    0  501    0  0.00000000000E+00  0.00000000000E+00 -0.19446080218E+04  0.19446080218E+04  0.25500000920E-02 0.  1.
    10030    2    1    2    0    0  0.00000000000E+00  0.00000000000E+00 -0.11295610046E+04  0.27596550389E+04  0.25178935383E+04 0.  0.
        2    1    3    3  502    0 -0.26287573543E+03  0.12062891424E+04 -0.29472880709E+03  0.12692920141E+04  0.25500000920E-02 0. -1.
       -2    1    3    3    0  502  0.26287573543E+03 -0.12062891424E+04 -0.83483219756E+03  0.14903630247E+04  0.25500000920E-02 0.  1.
</event>
<event>
 5   0  0.1008073E-05  0.2444311E+04  0.7818609E-02  0.8423098E-01
        1   -1    0    0  501    0  0.00000000000E+00  0.00000000000E+00  0.11448043476E+04  0.11448043476E+04  0.50400001928E-02 0.  1.
       -1   -1    0    0    0  501  0.00000000000E+00  0.00000000000E+00 -0.13047330087E+04  0.13047330087E+04  0.50400001928E-02 0. -1.
    10030    2    1    2    0    0  0.00000000000E+00  0.00000000000E+00 -0.15992866115E+03  0.24495373563E+04  0.24443109629E+04 0.  0.
        1    1    3    3  502    0  0.20473952918E+03  0.77490180454E+03 -0.10045816527E+04  0.12851363268E+04  0.50400001928E-02 0. -1.
       -1    1    3    3    0  502 -0.20473952918E+03 -0.77490180454E+03  0.84465299151E+03  0.11644010295E+04  0.50400001928E-02 0.  1.
</event>
<event>
 5   0  0.1002753E-05  0.2488556E+04  0.7818609E-02  0.8407074E-01
       -1   -1    0    0    0  501  0.00000000000E+00  0.00000000000E+00  0.86221187430E+03  0.86221187432E+03  0.50400001928E-02 0.  1.
        1   -1    0    0  501    0  0.00000000000E+00  0.00000000000E+00 -0.17956463165E+04  0.17956463165E+04  0.50400001928E-02 0. -1.
    10030    2    1    2    0    0  0.00000000000E+00  0.00000000000E+00 -0.93343444220E+03  0.26578581908E+04  0.24885558673E+04 0.  0.
        5    1    3    3  502    0  0.82115691503E+03 -0.77638988262E+03  0.89404219911E+02  0.11336203657E+04  0.46999998093E+01 0.  1.
       -5    1    3    3    0  502 -0.82115691503E+03  0.77638988262E+03 -0.10228386621E+04  0.15242378252E+04  0.46999998093E+01 0. -1.
</event>
<event>
 5   0  0.1008073E-05  0.2488200E+04  0.7818609E-02  0.8407201E-01
        1   -1    0    0  501    0  0.00000000000E+00  0.00000000000E+00  0.25683814478E+04  0.25683814478E+04  0.50400001928E-02 0.  1.
       -1   -1    0    0    0  501  0.00000000000E+00  0.00000000000E+00 -0.60263048280E+03  0.60263048282E+03  0.50400001928E-02 0. -1.
    10030    2    1    2    0    0  0.00000000000E+00  0.00000000000E+00  0.19657509650E+04  0.31710119306E+04  0.24882001141E+04 0.  0.
        1    1    3    3  502    0 -0.69473195648E+03 -0.83848770685E+03  0.17497235664E+04  0.20608849276E+04  0.50400001928E-02 0.  1.
       -1    1    3    3    0  502  0.69473195648E+03  0.83848770685E+03  0.21602739857E+03  0.11101270030E+04  0.50400001928E-02 0. -1.
</event>
<event>
 5   0  0.2345143E-05  0.2500998E+04  0.7818609E-02  0.8402630E-01
        2   -1    0    0  501    0  0.00000000000E+00  0.00000000000E+00  0.10537628891E+04  0.10537628891E+04  0.25500000920E-02 0. -1.
       -2   -1    0    0    0  501  0.00000000000E+00  0.00000000000E+00 -0.14839650255E+04  0.14839650255E+04  0.25500000920E-02 0.  1.
    10030    2    1    2    0    0  0.00000000000E+00  0.00000000000E+00 -0.43020213640E+03  0.25377279146E+04  0.25009976190E+04 0.  0.
        5    1    3    3  502    0  0.93730953117E+03  0.58711810523E+03 -0.80716711370E+03  0.13692325099E+04  0.46999998093E+01 0.  1.
       -5    1    3    3    0  502 -0.93730953117E+03 -0.58711810523E+03  0.37696497730E+03  0.11684954047E+04  0.46999998093E+01 0. -1.
</event>
<event>
 5   0  0.2441340E-05  0.2563570E+04  0.7818609E-02  0.8380682E-01
        2   -1    0    0  501    0  0.00000000000E+00  0.00000000000E+00  0.18503077531E+04  0.18503077531E+04  0.25500000920E-02 0.  1.
       -2   -1    0    0    0  501  0.00000000000E+00  0.00000000000E+00 -0.88794584904E+03  0.88794584904E+03  0.25500000920E-02 0. -1.
    10030    2    1    2    0    0  0.00000000000E+00  0.00000000000E+00  0.96236190406E+03  0.27382536021E+04  0.25635702361E+04 0.  0.
        3    1    3    3  502    0  0.75794660342E+03  0.53877214281E+03 -0.46109505960E+03  0.10379629761E+04  0.10100000352E+00 0. -1.
       -3    1    3    3    0  502 -0.75794660342E+03 -0.53877214281E+03  0.14234569637E+04  0.17002906261E+04  0.10100000352E+00 0.  1.
</event>
<event>
 5   0  0.2452457E-05  0.2478925E+04  0.7818609E-02  0.8410532E-01
       -2   -1    0    0    0  501  0.00000000000E+00  0.00000000000E+00  0.13785194003E+04  0.13785194003E+04  0.25500000920E-02 0. -1.
        2   -1    0    0  501    0  0.00000000000E+00  0.00000000000E+00 -0.11144325209E+04  0.11144325209E+04  0.25500000920E-02 0.  1.
    10030    2    1    2    0    0  0.00000000000E+00  0.00000000000E+00  0.26408687940E+03  0.24929519212E+04  0.24789246462E+04 0.  0.
        1    1    3    3  502    0  0.19625717777E+03 -0.42406260776E+03 -0.10224600393E+04  0.11241754788E+04  0.50400001928E-02 0.  1.
       -1    1    3    3    0  502 -0.19625717777E+03  0.42406260776E+03  0.12865469187E+04  0.13687764424E+04  0.50400001928E-02 0. -1.
</event>
<event>
 5   0  0.1010338E-05  0.2520589E+04  0.7818609E-02  0.8395687E-01
       -1   -1    0    0    0  501  0.00000000000E+00  0.00000000000E+00  0.10206325538E+04  0.10206325538E+04  0.50400001928E-02 0.  1.
        1   -1    0    0  501    0  0.00000000000E+00  0.00000000000E+00 -0.15562331484E+04  0.15562331485E+04  0.50400001928E-02 0. -1.
    10030    2    1    2    0    0  0.00000000000E+00  0.00000000000E+00 -0.53560059469E+03  0.25768657022E+04  0.25205889888E+04 0.  0.
        2    1    3    3  502    0 -0.12007193678E+03  0.74456168538E+03  0.76447282504E+03  0.10738752598E+04  0.25500000920E-02 0.  1.
       -2    1    3    3    0  502  0.12007193678E+03 -0.74456168538E+03 -0.13000734197E+04  0.15029904424E+04  0.25500000920E-02 0. -1.
</event>
<event>
 5   0  0.1008073E-05  0.2469140E+04  0.7818609E-02  0.8414063E-01
        1   -1    0    0  501    0  0.00000000000E+00  0.00000000000E+00  0.16721252745E+04  0.16721252745E+04  0.50400001928E-02 0. -1.
       -1   -1    0    0    0  501  0.00000000000E+00  0.00000000000E+00 -0.91151261807E+03  0.91151261808E+03  0.50400001928E-02 0.  1.
    10030    2    1    2    0    0  0.00000000000E+00  0.00000000000E+00  0.76061265648E+03  0.25836378926E+04  0.24691401635E+04 0.  0.
        1    1    3    3  502    0  0.49274923026E+03 -0.18763210858E+03  0.15483848850E+04  0.16356965990E+04  0.50400001928E-02 0. -1.
       -1    1    3    3    0  502 -0.49274923026E+03  0.18763210858E+03 -0.78777222849E+03  0.94794129359E+03  0.50400001928E-02 0.  1.
</event>
<event>
 5   0  0.2345143E-05  0.2518466E+04  0.7818609E-02  0.8396436E-01
       -2   -1    0    0    0  501  0.00000000000E+00  0.00000000000E+00  0.10125903635E+04  0.10125903635E+04  0.25500000920E-02 0.  1.
        2   -1    0    0  501    0  0.00000000000E+00  0.00000000000E+00 -0.15659523126E+04  0.15659523126E+04  0.25500000920E-02 0. -1.
    10030    2    1    2    0    0  0.00000000000E+00  0.00000000000E+00 -0.55336194913E+03  0.25785426760E+04  0.25184663757E+04 0.  0.
        5    1    3    3  502    0  0.85624803787E+03  0.19763718716E+03  0.64673400841E+03  0.10911040866E+04  0.46999998093E+01 0.  1.
       -5    1    3    3    0  502 -0.85624803787E+03 -0.19763718716E+03 -0.12000959575E+04  0.14874385895E+04  0.46999998093E+01 0. -1.
</event>
<event>
 5   0  0.1002753E-05  0.2482792E+04  0.7818609E-02  0.8409142E-01
        1   -1    0    0  501    0  0.00000000000E+00  0.00000000000E+00  0.13591194499E+04  0.13591194500E+04  0.50400001928E-02 0. -1.
       -1   -1    0    0    0  501  0.00000000000E+00  0.00000000000E+00 -0.11338697937E+04  0.11338697938E+04  0.50400001928E-02 0.  1.
    10030    2    1    2    0    0  0.00000000000E+00  0.00000000000E+00  0.22524965619E+03  0.24929892437E+04  0.24827923718E+04 0.  0.
        5    1    3    3  502    0 -0.80740258731E+03  0.88405256591E+03  0.44198803669E+03  0.12762536550E+04  0.46999998093E+01 0.  1.
       -5    1    3    3    0  502  0.80740258731E+03 -0.88405256591E+03 -0.21673838050E+03  0.12167355887E+04  0.46999998093E+01 0. -1.
</event>
<event>
 5   0  0.1015327E-05  0.2339232E+04  0.7818609E-02  0.8462611E-01
        1   -1    0    0  501    0  0.00000000000E+00  0.00000000000E+00  0.18045483700E+04  0.18045483700E+04  0.50400001928E-02 0.  1.
       -1   -1    0    0    0  501  0.00000000000E+00  0.00000000000E+00 -0.75808519755E+03  0.75808519756E+03  0.50400001928E-02 0. -1.
    10030    2    1    2    0    0  0.00000000000E+00  0.00000000000E+00  0.10464631724E+04  0.25626335676E+04  0.23392318462E+04 0.  0.
        4    1    3    3  502    0 -0.48961689492E+03  0.19164881238E+03  0.16677801612E+04  0.17486984446E+04  0.12699999809E+01 0.  1.
       -4    1    3    3    0  502  0.48961689492E+03 -0.19164881238E+03 -0.62131698873E+03  0.81393512301E+03  0.12699999809E+01 0. -1.
</event>
<event>
 5   0  0.2345143E-05  0.2519860E+04  0.7818609E-02  0.8395944E-01
       -2   -1    0    0    0  501  0.00000000000E+00  0.00000000000E+00  0.12586489454E+04  0.12586489454E+04  0.25500000920E-02 0.  1.
        2   -1    0    0  501    0  0.00000000000E+00  0.00000000000E+00 -0.12612120756E+04  0.12612120756E+04  0.25500000920E-02 0. -1.
    10030    2    1    2    0    0  0.00000000000E+00  0.00000000000E+00 -0.25631301997E+01  0.25198610210E+04  0.25198597175E+04 0.  0.
        5    1    3    3  502    0  0.89440202369E+03 -0.57311376713E+03  0.67620442275E+03  0.12592413912E+04  0.46999998093E+01 0.  1.
       -5    1    3    3    0  502 -0.89440202369E+03  0.57311376713E+03 -0.67876755295E+03  0.12606196298E+04  0.46999998093E+01 0. -1.
</event>
<event>
 5   0  0.8166500E-06  0.2487773E+04  0.7818609E-02  0.8407354E-01
        3   -1    0    0  501    0  0.00000000000E+00  0.00000000000E+00  0.17363967556E+04  0.17363967585E+04  0.10100000352E+00 0. -1.
       -3   -1    0    0    0  501  0.00000000000E+00  0.00000000000E+00 -0.89107180649E+03  0.89107181221E+03  0.10100000352E+00 0.  1.
    10030    2    1    2    0    0  0.00000000000E+00  0.00000000000E+00  0.84532494911E+03  0.26274685707E+04  0.24877734665E+04 0.  0.
        3    1    3    3  502    0 -0.56990531443E+03 -0.36149737323E+03  0.15262190906E+04  0.16687771394E+04  0.10100000352E+00 0. -1.
       -3    1    3    3    0  502  0.56990531443E+03  0.36149737323E+03 -0.68089414154E+03  0.95869143130E+03  0.10100000352E+00 0.  1.
</event>
<event>
 5   0  0.2345143E-05  0.2493890E+04  0.7818609E-02  0.8405165E-01
        2   -1    0    0  501    0  0.00000000000E+00  0.00000000000E+00  0.83504428388E+03  0.83504428388E+03  0.25500000920E-02 0.  1.
       -2   -1    0    0    0  501  0.00000000000E+00  0.00000000000E+00 -0.18620233613E+04  0.18620233613E+04  0.25500000920E-02 0. -1.
    10030    2    1    2    0    0  0.00000000000E+00  0.00000000000E+00 -0.10269790774E+04  0.26970676452E+04  0.24938901053E+04 0.  0.
        5    1    3    3  502    0 -0.41507729539E+03 -0.35615271977E+03 -0.17253712539E+04  0.18099894958E+04  0.46999998093E+01 0. -1.
       -5    1    3    3    0  502  0.41507729539E+03  0.35615271977E+03  0.69839217651E+03  0.88707814941E+03  0.46999998093E+01 0.  1.
</event>
<event>
 5   0  0.2432309E-05  0.2508941E+04  0.7818609E-02  0.8399807E-01
       -2   -1    0    0    0  501  0.00000000000E+00  0.00000000000E+00  0.75275788148E+03  0.75275788148E+03  0.25500000920E-02 0. -1.
        2   -1    0    0  501    0  0.00000000000E+00  0.00000000000E+00 -0.20905743810E+04  0.20905743810E+04  0.25500000920E-02 0.  1.
    10030    2    1    2    0    0  0.00000000000E+00  0.00000000000E+00 -0.13378164995E+04  0.28433322624E+04  0.25089410851E+04 0.  0.
        4    1    3    3  502    0  0.11719574661E+04  0.43168150850E+03 -0.53548168800E+03  0.13588875886E+04  0.12699999809E+01 0. -1.
       -4    1    3    3    0  502 -0.11719574661E+04 -0.43168150850E+03 -0.80233481148E+03  0.14844446739E+04  0.12699999809E+01 0.  1.
</event>
<event>
 5   0  0.2452457E-05  0.2504777E+04  0.7818609E-02  0.8401286E-01
       -2   -1    0    0    0  501  0.00000000000E+00  0.00000000000E+00  0.10569632198E+04  0.10569632198E+04  0.25500000920E-02 0.  1.
        2   -1    0    0  501    0  0.00000000000E+00  0.00000000000E+00 -0.14839467437E+04  0.14839467437E+04  0.25500000920E-02 0. -1.
    10030    2    1    2    0    0  0.00000000000E+00  0.00000000000E+00 -0.42698352393E+03  0.25409099636E+04  0.25047771384E+04 0.  0.
        1    1    3    3  502    0  0.60289199291E+03  0.59353983804E+02 -0.13254222571E+04  0.14573077267E+04  0.50400001928E-02 0. -1.
       -1    1    3    3    0  502 -0.60289199291E+03 -0.59353983804E+02  0.89843873318E+03  0.10836022369E+04  0.50400001928E-02 0.  1.
</event>
<event>
 5   0  0.2452457E-05  0.2490284E+04  0.7818609E-02  0.8406455E-01
       -2   -1    0    0    0  501  0.00000000000E+00  0.00000000000E+00  0.11490327299E+04  0.11490327299E+04  0.25500000920E-02 0. -1.
        2   -1    0    0  501    0  0.00000000000E+00  0.00000000000E+00 -0.13492902603E+04  0.13492902603E+04  0.25500000920E-02 0.  1.
    10030    2    1    2    0    0  0.00000000000E+00  0.00000000000E+00 -0.20025753045E+03  0.24983229902E+04  0.24902840571E+04 0.  0.
        1    1    3    3  502    0  0.37807201661E+03 -0.13516185265E+02 -0.12902370747E+04  0.13445567470E+04  0.50400001928E-02 0.  1.
       -1    1    3    3    0  502 -0.37807201661E+03  0.13516185265E+02  0.10899795443E+04  0.11537662432E+04  0.50400001928E-02 0. -1.
</event>
<event>
 5   0  0.1010338E-05  0.2518238E+04  0.7818609E-02  0.8396517E-01
       -1   -1    0    0    0  501  0.00000000000E+00  0.00000000000E+00  0.12965983454E+04  0.12965983454E+04  0.50400001928E-02 0.  1.
        1   -1    0    0  501    0  0.00000000000E+00  0.00000000000E+00 -0.12227225942E+04  0.12227225942E+04  0.50400001928E-02 0. -1.
    10030    2    1    2    0    0  0.00000000000E+00  0.00000000000E+00  0.73875751188E+02  0.25193209396E+04  0.25182375524E+04 0.  0.
        2    1    3    3  502    0 -0.52433381821E+03  0.55176721380E+03 -0.96649267467E+03  0.12302361974E+04  0.25500000920E-02 0. -1.
       -2    1    3    3    0  502  0.52433381821E+03 -0.55176721380E+03  0.10403684259E+04  0.12890847422E+04  0.25500000920E-02 0.  1.
</event>
<event>
 5   0  0.2452457E-05  0.2526399E+04  0.7818609E-02  0.8393641E-01
        2   -1    0    0  501    0  0.00000000000E+00  0.00000000000E+00  0.15463416433E+04  0.15463416433E+04  0.25500000920E-02 0.  1.
       -2   -1    0    0    0  501  0.00000000000E+00  0.00000000000E+00 -0.10319018666E+04  0.10319018666E+04  0.25500000920E-02 0. -1.
    10030    2    1    2    0    0  0.00000000000E+00  0.00000000000E+00  0.51443977674E+03  0.25782435099E+04  0.25263988823E+04 0.  0.
        1    1    3    3  502    0 -0.64448759747E+03 -0.71925934680E+03  0.10881613767E+04  0.14549204284E+04  0.50400001928E-02 0.  1.
       -1    1    3    3    0  502  0.64448759747E+03  0.71925934680E+03 -0.57372159992E+03  0.11233230815E+04  0.50400001928E-02 0. -1.
</event>
<event>
 5   0  0.1002753E-05  0.2328671E+04  0.7818609E-02  0.8466702E-01
       -1   -1    0    0    0  501  0.00000000000E+00  0.00000000000E+00  0.19507594082E+04  0.19507594082E+04  0.50400001928E-02 0. -1.
        1   -1    0    0  501    0  0.00000000000E+00  0.00000000000E+00 -0.69494830433E+03  0.69494830435E+03  0.50400001928E-02 0.  1.
    10030    2    1    2    0    0  0.00000000000E+00  0.00000000000E+00  0.12558111039E+04  0.26457077126E+04  0.23286708165E+04 0.  0.
        5    1    3    3  502    0 -0.28783910196E+02  0.22233265629E+03 -0.67018400779E+03  0.70670292049E+03  0.46999998093E+01 0.  1.
       -5    1    3    3    0  502  0.28783910196E+02 -0.22233265629E+03  0.19259951117E+04  0.19390047921E+04  0.46999998093E+01 0. -1.
</event>
<event>
 5   0  0.1039688E-05  0.2539705E+04  0.7818609E-02  0.8388975E-01
        1   -1    0    0  501    0  0.00000000000E+00  0.00000000000E+00  0.21921458916E+04  0.21921458916E+04  0.50400001928E-02 0.  1.
       -1   -1    0    0    0  501  0.00000000000E+00  0.00000000000E+00 -0.73559243412E+03  0.73559243414E+03  0.50400001928E-02 0. -1.
    10030    2    1    2    0    0  0.00000000000E+00  0.00000000000E+00  0.14565534575E+04  0.29277383258E+04  0.25397054415E+04 0.  0.
        3    1    3    3  502    0 -0.78823129470E+03  0.34953019319E+03 -0.34638130336E+03  0.92922545565E+03  0.10100000352E+00 0. -1.
       -3    1    3    3    0  502  0.78823129470E+03 -0.34953019319E+03  0.18029347609E+04  0.19985128701E+04  0.10100000352E+00 0.  1.
</event>
<event>
 5   0  0.2432309E-05  0.2504866E+04  0.7818609E-02  0.8401254E-01
        2   -1    0    0  501    0  0.00000000000E+00  0.00000000000E+00  0.25939948824E+04  0.25939948824E+04  0.25500000920E-02 0.  1.
       -2   -1    0    0    0  501  0.00000000000E+00  0.00000000000E+00 -0.60469972139E+03  0.60469972139E+03  0.25500000920E-02 0. -1.
    10030    2    1    2    0    0  0.00000000000E+00  0.00000000000E+00  0.19892951610E+04  0.31986946038E+04  0.25048656512E+04 0.  0.
        4    1    3    3  502    0  0.86508071552E+03  0.21092018124E+03  0.21193687418E+04  0.22988208812E+04  0.12699999809E+01 0.  1.
       -4    1    3    3    0  502 -0.86508071552E+03 -0.21092018124E+03 -0.13007358083E+03  0.89987372256E+03  0.12699999809E+01 0. -1.
</event>
<event>
 5   0  0.1008073E-05  0.2562397E+04  0.7818609E-02  0.8381087E-01
       -1   -1    0    0    0  501  0.00000000000E+00  0.00000000000E+00  0.18306698343E+04  0.18306698343E+04  0.50400001928E-02 0.  1.
        1   -1    0    0  501    0  0.00000000000E+00  0.00000000000E+00 -0.89664996992E+03  0.89664996993E+03  0.50400001928E-02 0. -1.
    10030    2    1    2    0    0  0.00000000000E+00  0.00000000000E+00  0.93401986434E+03  0.27273198042E+04  0.25623973555E+04 0.  0.
        1    1    3    3  502    0 -0.66191109720E+03 -0.10645811604E+04  0.74863532570E+03  0.14601075983E+04  0.50400001928E-02 0. -1.
       -1    1    3    3    0  502  0.66191109720E+03  0.10645811604E+04  0.18538453864E+03  0.12672122059E+04  0.50400001928E-02 0.  1.
</event>
<event>
 5   0  0.2441340E-05  0.2491978E+04  0.7818609E-02  0.8405849E-01
       -2   -1    0    0    0  501  0.00000000000E+00  0.00000000000E+00  0.13277835856E+04  0.13277835856E+04  0.25500000920E-02 0.  1.
        2   -1    0    0  501    0  0.00000000000E+00  0.00000000000E+00 -0.11692331499E+04  0.11692331499E+04  0.25500000920E-02 0. -1.
    10030    2    1    2    0    0  0.00000000000E+00  0.00000000000E+00  0.15855043569E+03  0.24970167355E+04  0.24919779969E+04 0.  0.
        3    1    3    3  502    0  0.29150614234E+03 -0.54536124944E+03  0.11631711795E+04  0.13173313654E+04  0.10100000352E+00 0.  1.
       -3    1    3    3    0  502 -0.29150614234E+03  0.54536124944E+03 -0.10046207438E+04  0.11796853701E+04  0.10100000352E+00 0. -1.
</event>
<event>
 5   0  0.2441340E-05  0.2485849E+04  0.7818609E-02  0.8408044E-01
       -2   -1    0    0    0  501  0.00000000000E+00  0.00000000000E+00  0.82794345375E+03  0.82794345375E+03  0.25500000920E-02 0.  1.
        2   -1    0    0  501    0  0.00000000000E+00  0.00000000000E+00 -0.18659024062E+04  0.18659024062E+04  0.25500000920E-02 0. -1.
    10030    2    1    2    0    0  0.00000000000E+00  0.00000000000E+00 -0.10379589525E+04  0.26938458600E+04  0.24858492976E+04 0.  0.
        3    1    3    3  502    0  0.39802850101E+03 -0.11753825705E+04 -0.59492006616E+03  0.13761834071E+04  0.10100000352E+00 0.  1.
       -3    1    3    3    0  502 -0.39802850101E+03  0.11753825705E+04 -0.44303888633E+03  0.13176624529E+04  0.10100000352E+00 0. -1.
</event>
<event>
 5   0  0.2441340E-05  0.2524583E+04  0.7818609E-02  0.8394280E-01
       -2   -1    0    0    0  501  0.00000000000E+00  0.00000000000E+00  0.14171594223E+04  0.14171594223E+04  0.25500000920E-02 0. -1.
        2   -1    0    0  501    0  0.00000000000E+00  0.00000000000E+00 -0.11243474782E+04  0.11243474782E+04  0.25500000920E-02 0.  1.
    10030    2    1    2    0    0  0.00000000000E+00  0.00000000000E+00  0.29281194414E+03  0.25415069006E+04  0.25245828350E+04 0.  0.
        3    1    3    3  502    0 -0.39962437805E+03  0.11642289253E+04  0.42801498910E+03  0.13031981718E+04  0.10100000352E+00 0. -1.
       -3    1    3    3    0  502  0.39962437805E+03 -0.11642289253E+04 -0.13520304495E+03  0.12383087287E+04  0.10100000352E+00 0.  1.
</event>
<event>
 5   0  0.1010338E-05  0.2530329E+04  0.7818609E-02  0.8392260E-01
       -1   -1    0    0    0  501  0.00000000000E+00  0.00000000000E+00  0.78098069692E+03  0.78098069694E+03  0.50400001928E-02 0.  1.
        1   -1    0    0  501    0  0.00000000000E+00  0.00000000000E+00 -0.20495270921E+04  0.20495270921E+04  0.50400001928E-02 0. -1.
    10030    2    1    2    0    0  0.00000000000E+00  0.00000000000E+00 -0.12685463951E+04  0.28305077890E+04  0.25303289089E+04 0.  0.
        2    1    3    3  502    0  0.57916878900E+03  0.93558807494E+03 -0.13327510071E+04  0.17282901316E+04  0.25500000920E-02 0. -1.
       -2    1    3    3    0  502 -0.57916878900E+03 -0.93558807494E+03  0.64204611920E+02  0.11022176574E+04  0.25500000920E-02 0.  1.
</event>
<event>
 5   0  0.2345143E-05  0.2503871E+04  0.7818609E-02  0.8401608E-01
       -2   -1    0    0    0  501  0.00000000000E+00  0.00000000000E+00  0.11910952358E+04  0.11910952358E+04  0.25500000920E-02 0.  1.
        2   -1    0    0  501    0  0.00000000000E+00  0.00000000000E+00 -0.13158835439E+04  0.13158835439E+04  0.25500000920E-02 0. -1.
    10030    2    1    2    0    0  0.00000000000E+00  0.00000000000E+00 -0.12478830815E+03  0.25069787797E+04  0.25038710989E+04 0.  0.
        5    1    3    3  502    0  0.28577985846E+03  0.11455448082E+03 -0.12773777748E+04  0.13139668664E+04  0.46999998093E+01 0. -1.
       -5    1    3    3    0  502 -0.28577985846E+03 -0.11455448082E+03  0.11525894666E+04  0.11930119132E+04  0.46999998093E+01 0.  1.
</event>
<event>
 5   0  0.2345143E-05  0.2474241E+04  0.7818609E-02  0.8412220E-01
       -2   -1    0    0    0  501  0.00000000000E+00  0.00000000000E+00  0.81399391561E+03  0.81399391562E+03  0.25500000920E-02 0.  1.
        2   -1    0    0  501    0  0.00000000000E+00  0.00000000000E+00 -0.18801948223E+04  0.18801948223E+04  0.25500000920E-02 0. -1.
    10030    2    1    2    0    0  0.00000000000E+00  0.00000000000E+00 -0.10662009067E+04  0.26941887380E+04  0.24742410114E+04 0.  0.
        5    1    3    3  502    0 -0.89978440393E+03  0.45367617414E+03  0.24833708965E+03  0.10378475055E+04  0.46999998093E+01 0.  1.
       -5    1    3    3    0  502  0.89978440393E+03 -0.45367617414E+03 -0.13145379964E+04  0.16563412325E+04  0.46999998093E+01 0. -1.
</event>
<event>
 5   0  0.2432309E-05  0.2536765E+04  0.7818609E-02  0.8390004E-01
        2   -1    0    0  501    0  0.00000000000E+00  0.00000000000E+00  0.24914164605E+04  0.24914164605E+04  0.25500000920E-02 0.  1.
       -2   -1    0    0    0  501  0.00000000000E+00  0.00000000000E+00 -0.64573484768E+03  0.64573484769E+03  0.25500000920E-02 0. -1.
    10030    2    1    2    0    0  0.00000000000E+00  0.00000000000E+00  0.18456816128E+04  0.31371513082E+04  0.25367652068E+04 0.  0.
        4    1    3    3  502    0  0.15631212517E+02  0.12608780963E+04  0.75357042776E+03  0.14689887376E+04  0.12699999809E+01 0. -1.
       -4    1    3    3    0  502 -0.15631212517E+02 -0.12608780963E+04  0.10921111851E+04  0.16681625706E+04  0.12699999809E+01 0.  1.
</event>
<event>
 5   0  0.2432309E-05  0.2552809E+04  0.7818609E-02  0.8384410E-01
       -2   -1    0    0    0  501  0.00000000000E+00  0.00000000000E+00  0.11503439019E+04  0.11503439019E+04  0.25500000920E-02 0. -1.
        2   -1    0    0  501    0  0.00000000000E+00  0.00000000000E+00 -0.14162797407E+04  0.14162797407E+04  0.25500000920E-02 0.  1.
    10030    2    1    2    0    0  0.00000000000E+00  0.00000000000E+00 -0.26593583879E+03  0.25666236426E+04  0.25528092472E+04 0.  0.
        4    1    3    3  502    0 -0.64873074382E+03 -0.10409962965E+04 -0.48798250711E+03  0.13200959842E+04  0.12699999809E+01 0.  1.
       -4    1    3    3    0  502  0.64873074382E+03  0.10409962965E+04  0.22204666832E+03  0.12465276584E+04  0.12699999809E+01 0. -1.
</event>
<event>
 5   0  0.1015327E-05  0.2533098E+04  0.7818609E-02  0.8391288E-01
        1   -1    0    0  501    0  0.00000000000E+00  0.00000000000E+00  0.18033860601E+04  0.18033860602E+04  0.50400001928E-02 0.  1.
       -1   -1    0    0    0  501  0.00000000000E+00  0.00000000000E+00 -0.88951946052E+03  0.88951946053E+03  0.50400001928E-02 0. -1.
    10030    2    1    2    0    0  0.00000000000E+00  0.00000000000E+00  0.91386659963E+03  0.26929055207E+04  0.25330984942E+04 0.  0.
        4    1    3    3  502    0  0.81833452935E+03 -0.82446205104E+03  0.99348856886E+03  0.15285385912E+04  0.12699999809E+01 0. -1.
       -4    1    3    3    0  502 -0.81833452935E+03  0.82446205104E+03 -0.79621969227E+02  0.11643669295E+04  0.12699999809E+01 0.  1.
</event>
<event>
 5   0  0.2441340E-05  0.2476115E+04  0.7818609E-02  0.8411544E-01
        2   -1    0    0  501    0  0.00000000000E+00  0.00000000000E+00  0.93116145012E+03  0.93116145012E+03  0.25500000920E-02 0.  1.
       -2   -1    0    0    0  501  0.00000000000E+00  0.00000000000E+00 -0.16461016042E+04  0.16461016042E+04  0.25500000920E-02 0. -1.
    10030    2    1    2    0    0  0.00000000000E+00  0.00000000000E+00 -0.71494015409E+03  0.25772630543E+04  0.24761149867E+04 0.  0.
        3    1    3    3  502    0 -0.73978193217E+03 -0.96498717125E+03 -0.11490792455E+03  0.12213440912E+04  0.10100000352E+00 0. -1.
       -3    1    3    3    0  502  0.73978193217E+03  0.96498717125E+03 -0.60003222954E+03  0.13559189631E+04  0.10100000352E+00 0.  1.
</event>
<event>
 5   0  0.1015327E-05  0.2459331E+04  0.7818609E-02  0.8417619E-01
        1   -1    0    0  501    0  0.00000000000E+00  0.00000000000E+00  0.14904165578E+04  0.14904165578E+04  0.50400001928E-02 0.  1.
       -1   -1    0    0    0  501  0.00000000000E+00  0.00000000000E+00 -0.10145331846E+04  0.10145331846E+04  0.50400001928E-02 0. -1.
    10030    2    1    2    0    0  0.00000000000E+00  0.00000000000E+00  0.47588337317E+03  0.25049497424E+04  0.24593308495E+04 0.  0.
        4    1    3    3  502    0 -0.11759054130E+03  0.10034091777E+04  0.95195705358E+03  0.13881215214E+04  0.12699999809E+01 0.  1.
       -4    1    3    3    0  502  0.11759054130E+03 -0.10034091777E+04 -0.47607368041E+03  0.11168282211E+04  0.12699999809E+01 0. -1.
</event>
<event>
 5   0  0.2452457E-05  0.2543107E+04  0.7818609E-02  0.8387787E-01
        2   -1    0    0  501    0  0.00000000000E+00  0.00000000000E+00  0.19021542376E+04  0.19021542376E+04  0.25500000920E-02 0. -1.
       -2   -1    0    0    0  501  0.00000000000E+00  0.00000000000E+00 -0.85000890133E+03  0.85000890134E+03  0.25500000920E-02 0.  1.
    10030    2    1    2    0    0  0.00000000000E+00  0.00000000000E+00  0.10521453363E+04  0.27521631389E+04  0.25431067879E+04 0.  0.
        1    1    3    3  502    0 -0.12434578699E+04  0.20443307453E+03  0.34220071088E+03  0.13057877633E+04  0.50400001928E-02 0.  1.
       -1    1    3    3    0  502  0.12434578699E+04 -0.20443307453E+03  0.70994462540E+03  0.14463753757E+04  0.50400001928E-02 0. -1.
</event>
<event>
 5   0  0.2388326E-05  0.2512312E+04  0.7818609E-02  0.8398612E-01
        2   -1    0    0  501    0  0.00000000000E+00  0.00000000000E+00  0.15495693168E+04  0.15495693168E+04  0.25500000920E-02 0. -1.
       -2   -1    0    0    0  501  0.00000000000E+00  0.00000000000E+00 -0.10183009950E+04  0.10183009950E+04  0.25500000920E-02 0.  1.
    10030    2    1    2    0    0  0.00000000000E+00  0.00000000000E+00  0.53126832185E+03  0.25678703118E+04  0.25123120643E+04 0.  0.
        2    1    3    3  502    0  0.74292617101E+03  0.95666743440E+03 -0.74556620675E+02  0.12135528688E+04  0.25500000920E-02 0. -1.
       -2    1    3    3    0  502 -0.74292617101E+03 -0.95666743440E+03  0.60582494252E+03  0.13543174431E+04  0.25500000920E-02 0.  1.
</event>
<event>
 5   0  0.1008073E-05  0.2501323E+04  0.7818609E-02  0.8402514E-01
        1   -1    0    0  501    0  0.00000000000E+00  0.00000000000E+00  0.87516900866E+03  0.87516900867E+03  0.50400001928E-02 0.  1.
       -1   -1    0    0    0  501  0.00000000000E+00  0.00000000000E+00 -0.17872596354E+04  0.17872596354E+04  0.50400001928E-02 0. -1.
    10030    2    1    2    0    0  0.00000000000E+00  0.00000000000E+00 -0.91209062677E+03  0.26624286441E+04  0.25013230446E+04 0.  0.
        1    1    3    3  502    0  0.92222590210E+03  0.51693549095E+03  0.25514449430E+03  0.10875760338E+04  0.50400001928E-02 0.  1.
       -1    1    3    3    0  502 -0.92222590210E+03 -0.51693549095E+03 -0.11672351211E+04  0.15748526103E+04  0.50400001928E-02 0. -1.
</event>
<event>
 5   0  0.1010338E-05  0.2193590E+04  0.7818609E-02  0.8521101E-01
       -1   -1    0    0    0  501  0.00000000000E+00  0.00000000000E+00  0.64967636799E+03  0.64967636801E+03  0.50400001928E-02 0. -1.
        1   -1    0    0  501    0  0.00000000000E+00  0.00000000000E+00 -0.18516290369E+04  0.18516290369E+04  0.50400001928E-02 0.  1.
    10030    2    1    2    0    0  0.00000000000E+00  0.00000000000E+00 -0.12019526689E+04  0.25013054049E+04  0.21935903242E+04 0.  0.
        2    1    3    3  502    0  0.10217119361E+04 -0.35990983460E+03 -0.79692281519E+03  0.13448108948E+04  0.25500000920E-02 0.  1.
       -2    1    3    3    0  502 -0.10217119361E+04  0.35990983460E+03 -0.40502985368E+03  0.11564945101E+04  0.25500000920E-02 0. -1.
</event>
<event>
 5   0  0.2432309E-05  0.2461259E+04  0.7818609E-02  0.8416919E-01
       -2   -1    0    0    0  501  0.00000000000E+00  0.00000000000E+00  0.13456029599E+04  0.13456029599E+04  0.25500000920E-02 0. -1.
        2   -1    0    0  501    0  0.00000000000E+00  0.00000000000E+00 -0.11254794985E+04  0.11254794985E+04  0.25500000920E-02 0.  1.
    10030    2    1    2    0    0  0.00000000000E+00  0.00000000000E+00  0.22012346138E+03  0.24710824584E+04  0.24612586573E+04 0.  0.
        4    1    3    3  502    0 -0.24045879503E+03  0.33670496911E+03  0.12736770177E+04  0.13391958134E+04  0.12699999809E+01 0. -1.
       -4    1    3    3    0  502  0.24045879503E+03 -0.33670496911E+03 -0.10535535563E+04  0.11318866450E+04  0.12699999809E+01 0.  1.
</event>
<event>
 5   0  0.2432309E-05  0.2484306E+04  0.7818609E-02  0.8408598E-01
       -2   -1    0    0    0  501  0.00000000000E+00  0.00000000000E+00  0.15950431215E+04  0.15950431215E+04  0.25500000920E-02 0. -1.
        2   -1    0    0  501    0  0.00000000000E+00  0.00000000000E+00 -0.96733692066E+03  0.96733692066E+03  0.25500000920E-02 0.  1.
    10030    2    1    2    0    0  0.00000000000E+00  0.00000000000E+00  0.62770620082E+03  0.25623800421E+04  0.24843060210E+04 0.  0.
        4    1    3    3  502    0 -0.73991374791E+03 -0.64176685840E+03 -0.47409591012E+03  0.10881661637E+04  0.12699999809E+01 0.  1.
       -4    1    3    3    0  502  0.73991374791E+03  0.64176685840E+03  0.11018021109E+04  0.14742138785E+04  0.12699999809E+01 0. -1.
</event>
<event>
 5   0  0.1015327E-05  0.2513953E+04  0.7818609E-02  0.8398031E-01
        1   -1    0    0  501    0  0.00000000000E+00  0.00000000000E+00  0.19926155004E+04  0.19926155004E+04  0.50400001928E-02 0.  1.
       -1   -1    0    0    0  501  0.00000000000E+00  0.00000000000E+00 -0.79292284597E+03  0.79292284599E+03  0.50400001928E-02 0. -1.
    10030    2    1    2    0    0  0.00000000000E+00  0.00000000000E+00  0.11996926544E+04  0.27855383464E+04  0.25139533437E+04 0.  0.
        4    1    3    3  502    0 -0.75442681989E+03  0.77803990138E+03 -0.10572051045E+03  0.10888913417E+04  0.12699999809E+01 0. -1.
       -4    1    3    3    0  502  0.75442681989E+03 -0.77803990138E+03  0.13054131649E+04  0.16966470047E+04  0.12699999809E+01 0.  1.
</event>
<event>
 5   0  0.1010338E-05  0.2503243E+04  0.7818609E-02  0.8401831E-01
       -1   -1    0    0    0  501  0.00000000000E+00  0.00000000000E+00  0.12288126790E+04  0.12288126790E+04  0.50400001928E-02 0. -1.
        1   -1    0    0  501    0  0.00000000000E+00  0.00000000000E+00 -0.12748541953E+04  0.12748541954E+04  0.50400001928E-02 0.  1.
    10030    2    1    2    0    0  0.00000000000E+00  0.00000000000E+00 -0.46041516327E+02  0.25036668744E+04  0.25032434953E+04 0.  0.
        2    1    3    3  502    0 -0.17614158285E+03  0.86386462828E+03 -0.91157916939E+03  0.12681737008E+04  0.25500000920E-02 0.  1.
       -2    1    3    3    0  502  0.17614158285E+03 -0.86386462828E+03  0.86553765306E+03  0.12354931736E+04  0.25500000920E-02 0. -1.
</event>
<event>
 5   0  0.2345143E-05  0.2480916E+04  0.7818609E-02  0.8409816E-01
       -2   -1    0    0    0  501  0.00000000000E+00  0.00000000000E+00  0.11388140173E+04  0.11388140173E+04  0.25500000920E-02 0. -1.
        2   -1    0    0  501    0  0.00000000000E+00  0.00000000000E+00 -0.13511742813E+04  0.13511742813E+04  0.25500000920E-02 0.  1.
    10030    2    1    2    0    0  0.00000000000E+00  0.00000000000E+00 -0.21236026409E+03  0.24899882986E+04  0.24809161303E+04 0.  0.
        5    1    3    3  502    0  0.14909587454E+02  0.12246543485E+04  0.91296965328E+02  0.12281521872E+04  0.46999998093E+01 0. -1.
       -5    1    3    3    0  502 -0.14909587454E+02 -0.12246543485E+04 -0.30365722941E+03  0.12618361114E+04  0.46999998093E+01 0.  1.
</event>
<event>
 5   0  0.8166500E-06  0.2521359E+04  0.7818609E-02  0.8395415E-01
       -4   -1    0    0    0  501  0.00000000000E+00  0.00000000000E+00  0.92527653102E+03  0.92527740260E+03  0.12699999809E+01 0. -1.
        4   -1    0    0  501    0  0.00000000000E+00  0.00000000000E+00 -0.17176611539E+04  0.17176616234E+04  0.12699999809E+01 0.  1.
    10030    2    1    2    0    0  0.00000000000E+00  0.00000000000E+00 -0.79238462292E+03  0.26429390260E+04  0.25213594160E+04 0.  0.
        4    1    3    3  502    0  0.12501810059E+04 -0.16192864215E+03 -0.40851862329E+03  0.13251650882E+04  0.12699999809E+01 0. -1.
       -4    1    3    3    0  502 -0.12501810059E+04  0.16192864215E+03 -0.38386599963E+03  0.13177739378E+04  0.12699999809E+01 0.  1.
</event>
<event>
 5   0  0.1002753E-05  0.2492321E+04  0.7818609E-02  0.8405726E-01
        1   -1    0    0  501    0  0.00000000000E+00  0.00000000000E+00  0.12403414182E+04  0.12403414182E+04  0.50400001928E-02 0. -1.
       -1   -1    0    0    0  501  0.00000000000E+00  0.00000000000E+00 -0.12520071534E+04  0.12520071534E+04  0.50400001928E-02 0.  1.
    10030    2    1    2    0    0  0.00000000000E+00  0.00000000000E+00 -0.11665735177E+02  0.24923485716E+04  0.24923212701E+04 0.  0.
        5    1    3    3  502    0  0.10563359499E+04 -0.57074042602E+03 -0.33945901154E+03  0.12477358628E+04  0.46999998093E+01 0.  1.
       -5    1    3    3    0  502 -0.10563359499E+04  0.57074042602E+03  0.32779327636E+03  0.12446127088E+04  0.46999998093E+01 0. -1.
</event>
<event>
 5   0  0.2388326E-05  0.2593000E+04  0.7818609E-02  0.8370583E-01
        2   -1    0    0  501    0  0.00000000000E+00  0.00000000000E+00  0.20175079545E+04  0.20175079545E+04  0.25500000920E-02 0.  1.
       -2   -1    0    0    0  501  0.00000000000E+00  0.00000000000E+00 -0.83316253273E+03  0.83316253274E+03  0.25500000920E-02 0. -1.
    10030    2    1    2    0    0  0.00000000000E+00  0.00000000000E+00  0.11843454217E+04  0.28506704872E+04  0.25929998358E+04 0.  0.
        2    1    3    3  502    0 -0.71997094269E+02 -0.31229706355E+03  0.19732736232E+04  0.19991302682E+04  0.25500000920E-02 0.  1.
       -2    1    3    3    0  502  0.71997094269E+02  0.31229706355E+03 -0.78892820144E+03  0.85154021897E+03  0.25500000920E-02 0. -1.
</event>
<event>
 5   0  0.1015327E-05  0.2467586E+04  0.7818609E-02  0.8414625E-01
       -1   -1    0    0    0  501  0.00000000000E+00  0.00000000000E+00  0.11226710424E+04  0.11226710424E+04  0.50400001928E-02 0.  1.
        1   -1    0    0  501    0  0.00000000000E+00  0.00000000000E+00 -0.13559135751E+04  0.13559135751E+04  0.50400001928E-02 0. -1.
    10030    2    1    2    0    0  0.00000000000E+00  0.00000000000E+00 -0.23324253265E+03  0.24785846175E+04  0.24675857892E+04 0.  0.
        4    1    3    3  502    0 -0.86679429208E+02  0.25338396953E+03  0.10931251060E+04  0.11254514071E+04  0.12699999809E+01 0.  1.
       -4    1    3    3    0  502  0.86679429208E+02 -0.25338396953E+03 -0.13263676386E+04  0.13531332104E+04  0.12699999809E+01 0. -1.
</event>
<event>
 5   0  0.2441340E-05  0.2471765E+04  0.7818609E-02  0.8413114E-01
       -2   -1    0    0    0  501  0.00000000000E+00  0.00000000000E+00  0.67036623223E+03  0.67036623224E+03  0.25500000920E-02 0. -1.
        2   -1    0    0  501    0  0.00000000000E+00  0.00000000000E+00 -0.22784648615E+04  0.22784648615E+04  0.25500000920E-02 0.  1.
    10030    2    1    2    0    0  0.00000000000E+00  0.00000000000E+00 -0.16080986293E+04  0.29488310937E+04  0.24717652837E+04 0.  0.
        3    1    3    3  502    0  0.80581351910E+03  0.57502734858E+03  0.78625276677E+02  0.99306284973E+03  0.10100000352E+00 0. -1.
       -3    1    3    3    0  502 -0.80581351910E+03 -0.57502734858E+03 -0.16867239059E+04  0.19557682440E+04  0.10100000352E+00 0.  1.
</event>
<event>
 5   0  0.1010338E-05  0.2460259E+04  0.7818609E-02  0.8417282E-01
       -1   -1    0    0    0  501  0.00000000000E+00  0.00000000000E+00  0.83703706444E+03  0.83703706446E+03  0.50400001928E-02 0.  1.
        1   -1    0    0  501    0  0.00000000000E+00  0.00000000000E+00 -0.18078273176E+04  0.18078273177E+04  0.50400001928E-02 0. -1.
    10030    2    1    2    0    0  0.00000000000E+00  0.00000000000E+00 -0.97079025320E+03  0.26448643821E+04  0.24602589059E+04 0.  0.
        2    1    3    3  502    0 -0.83196923664E+03 -0.89405323494E+03 -0.32697978209E+03  0.12642862712E+04  0.25500000920E-02 0. -1.
       -2    1    3    3    0  502  0.83196923664E+03  0.89405323494E+03 -0.64381047111E+03  0.13805781109E+04  0.25500000920E-02 0.  1.
</event>
<event>
 5   0  0.2388326E-05  0.2487597E+04  0.7818609E-02  0.8407417E-01
        2   -1    0    0  501    0  0.00000000000E+00  0.00000000000E+00  0.63117977402E+03  0.63117977402E+03  0.25500000920E-02 0.  1.
       -2   -1    0    0    0  501  0.00000000000E+00  0.00000000000E+00 -0.24510214773E+04  0.24510214773E+04  0.25500000920E-02 0. -1.
    10030    2    1    2    0    0  0.00000000000E+00  0.00000000000E+00 -0.18198417033E+04  0.30822012513E+04  0.24875973807E+04 0.  0.
        2    1    3    3  502    0 -0.40758585602E+03 -0.82369153221E+03 -0.19483715753E+04  0.21542390224E+04  0.25500000920E-02 0. -1.
       -2    1    3    3    0  502  0.40758585602E+03  0.82369153221E+03  0.12852987202E+03  0.92796222890E+03  0.25500000920E-02 0.  1.
</event>
<event>
 5   0  0.1039688E-05  0.2579095E+04  0.7818609E-02  0.8375337E-01
       -1   -1    0    0    0  501  0.00000000000E+00  0.00000000000E+00  0.23402939050E+04  0.23402939050E+04  0.50400001928E-02 0. -1.
        1   -1    0    0  501    0  0.00000000000E+00  0.00000000000E+00 -0.71056550572E+03  0.71056550574E+03  0.50400001928E-02 0.  1.
    10030    2    1    2    0    0  0.00000000000E+00  0.00000000000E+00  0.16297283993E+04  0.30508594107E+04  0.25790945094E+04 0.  0.
        3    1    3    3  502    0  0.87241216362E+03 -0.27342176717E+03 -0.26092203884E+03  0.95075904758E+03  0.10100000352E+00 0.  1.
       -3    1    3    3    0  502 -0.87241216362E+03  0.27342176717E+03  0.18906504381E+04  0.21001003631E+04  0.10100000352E+00 0. -1.
</event>
<event>
 5   0  0.2388326E-05  0.2539089E+04  0.7818609E-02  0.8389191E-01
       -2   -1    0    0    0  501  0.00000000000E+00  0.00000000000E+00  0.63352544841E+03  0.63352544841E+03  0.25500000920E-02 0.  1.
        2   -1    0    0  501    0  0.00000000000E+00  0.00000000000E+00 -0.25440860182E+04  0.25440860182E+04  0.25500000920E-02 0. -1.
    10030    2    1    2    0    0  0.00000000000E+00  0.00000000000E+00 -0.19105605698E+04  0.31776114666E+04  0.25390889984E+04 0.  0.
        2    1    3    3  502    0  0.11366248984E+04 -0.42894567600E+03 -0.49404236015E+03  0.13114832848E+04  0.25500000920E-02 0.  1.
       -2    1    3    3    0  502 -0.11366248984E+04  0.42894567600E+03 -0.14165182096E+04  0.18661281818E+04  0.25500000920E-02 0. -1.
</event>
<event>
 5   0  0.1002753E-05  0.2493522E+04  0.7818609E-02  0.8405297E-01
        1   -1    0    0  501    0  0.00000000000E+00  0.00000000000E+00  0.15702880787E+04  0.15702880787E+04  0.50400001928E-02 0.  1.
       -1   -1    0    0    0  501  0.00000000000E+00  0.00000000000E+00 -0.98989051959E+03  0.98989051961E+03  0.50400001928E-02 0. -1.
    10030    2    1    2    0    0  0.00000000000E+00  0.00000000000E+00  0.58039755914E+03  0.25601785983E+04  0.24935222335E+04 0.  0.
        5    1    3    3  502    0  0.11649957750E+04 -0.43154662531E+03  0.39760663914E+03  0.13044388737E+04  0.46999998093E+01 0.  1.
       -5    1    3    3    0  502 -0.11649957750E+04  0.43154662531E+03  0.18279092000E+03  0.12557397247E+04  0.46999998093E+01 0. -1.
</event>
<event>
 5   0  0.1015327E-05  0.2513354E+04  0.7818609E-02  0.8398243E-01
        1   -1    0    0  501    0  0.00000000000E+00  0.00000000000E+00  0.11214402336E+04  0.11214402337E+04  0.50400001928E-02 0.  1.
       -1   -1    0    0    0  501  0.00000000000E+00  0.00000000000E+00 -0.14082227991E+04  0.14082227991E+04  0.50400001928E-02 0. -1.
    10030    2    1    2    0    0  0.00000000000E+00  0.00000000000E+00 -0.28678256549E+03  0.25296630328E+04  0.25133544954E+04 0.  0.
        4    1    3    3  502    0 -0.11423818839E+04  0.49453969176E+03 -0.31664251770E+03  0.12844726437E+04  0.12699999809E+01 0. -1.
       -4    1    3    3    0  502  0.11423818839E+04 -0.49453969176E+03  0.29859952212E+02  0.12451903891E+04  0.12699999809E+01 0.  1.
</event>
<event>
 5   0  0.2441340E-05  0.2467212E+04  0.7818609E-02  0.8414760E-01
        2   -1    0    0  501    0  0.00000000000E+00  0.00000000000E+00  0.10956218528E+04  0.10956218528E+04  0.25500000920E-02 0. -1.
       -2   -1    0    0    0  501  0.00000000000E+00  0.00000000000E+00 -0.13889684339E+04  0.13889684339E+04  0.25500000920E-02 0.  1.
    10030    2    1    2    0    0  0.00000000000E+00  0.00000000000E+00 -0.29334658109E+03  0.24845902867E+04  0.24672123289E+04 0.  0.
        3    1    3    3  502    0 -0.11377957619E+04 -0.17056641270E+03  0.30155959404E+03  0.11893739092E+04  0.10100000352E+00 0. -1.
       -3    1    3    3    0  502  0.11377957619E+04  0.17056641270E+03 -0.59490617513E+03  0.12952163774E+04  0.10100000352E+00 0.  1.
</event>
<event>
 5   0  0.1039688E-05  0.2379970E+04  0.7818609E-02  0.8447041E-01
        1   -1    0    0  501    0  0.00000000000E+00  0.00000000000E+00  0.72572762539E+03  0.72572762541E+03  0.50400001928E-02 0.  1.
       -1   -1    0    0    0  501  0.00000000000E+00  0.00000000000E+00 -0.19512338592E+04  0.19512338592E+04  0.50400001928E-02 0. -1.
    10030    2    1    2    0    0  0.00000000000E+00  0.00000000000E+00 -0.12255062338E+04  0.26769614846E+04  0.23799700126E+04 0.  0.
        3    1    3    3  502    0  0.61822818032E+03 -0.10053474534E+04 -0.78383450359E+03  0.14168013708E+04  0.10100000352E+00 0. -1.
       -3    1    3    3    0  502 -0.61822818032E+03  0.10053474534E+04 -0.44167173023E+03  0.12601601138E+04  0.10100000352E+00 0.  1.
</event>
<event>
 5   0  0.1010338E-05  0.2483346E+04  0.7818609E-02  0.8408943E-01
       -1   -1    0    0    0  501  0.00000000000E+00  0.00000000000E+00  0.78190381751E+03  0.78190381753E+03  0.50400001928E-02 0.  1.
        1   -1    0    0  501    0  0.00000000000E+00  0.00000000000E+00 -0.19717915998E+04  0.19717915998E+04  0.50400001928E-02 0. -1.
    10030    2    1    2    0    0  0.00000000000E+00  0.00000000000E+00 -0.11898877823E+04  0.27536954173E+04  0.24833456298E+04 0.  0.
        2    1    3    3  502    0  0.51223054285E+03  0.84329993237E+03 -0.14308079353E+04  0.17380294166E+04  0.25500000920E-02 0. -1.
       -2    1    3    3    0  502 -0.51223054285E+03 -0.84329993237E+03  0.24092015306E+03  0.10156660008E+04  0.25500000920E-02 0.  1.
</event>
<event>
 5   0  0.1010338E-05  0.2494784E+04  0.7818609E-02  0.8404846E-01
        1   -1    0    0  501    0  0.00000000000E+00  0.00000000000E+00  0.17759737208E+04  0.17759737208E+04  0.50400001928E-02 0.  1.
       -1   -1    0    0    0  501  0.00000000000E+00  0.00000000000E+00 -0.87613139050E+03  0.87613139052E+03  0.50400001928E-02 0. -1.
    10030    2    1    2    0    0  0.00000000000E+00  0.00000000000E+00  0.89984233028E+03  0.26521051113E+04  0.24947836183E+04 0.  0.
        2    1    3    3  502    0  0.45798802622E+03  0.40789766096E+03  0.16046280655E+04  0.17178372340E+04  0.25500000920E-02 0.  1.
       -2    1    3    3    0  502 -0.45798802622E+03 -0.40789766096E+03 -0.70478573522E+03  0.93426787730E+03  0.25500000920E-02 0. -1.
</event>
<event>
 5   0  0.2432309E-05  0.2501898E+04  0.7818609E-02  0.8402310E-01
        2   -1    0    0  501    0  0.00000000000E+00  0.00000000000E+00  0.11089743109E+04  0.11089743109E+04  0.25500000920E-02 0. -1.
       -2   -1    0    0    0  501  0.00000000000E+00  0.00000000000E+00 -0.14110999406E+04  0.14110999406E+04  0.25500000920E-02 0.  1.
    10030    2    1    2    0    0  0.00000000000E+00  0.00000000000E+00 -0.30212562966E+03  0.25200742515E+04  0.25018981468E+04 0.  0.
        4    1    3    3  502    0  0.29908981208E+03 -0.10416258975E+04 -0.78044845343E+03  0.13354926534E+04  0.12699999809E+01 0.  1.
       -4    1    3    3    0  502 -0.29908981208E+03  0.10416258975E+04  0.47832282377E+03  0.11845815981E+04  0.12699999809E+01 0. -1.
</event>
<event>
 5   0  0.1008073E-05  0.2475247E+04  0.7818609E-02  0.8411857E-01
       -1   -1    0    0    0  501  0.00000000000E+00  0.00000000000E+00  0.11632666166E+04  0.11632666166E+04  0.50400001928E-02 0.  1.
        1   -1    0    0  501    0  0.00000000000E+00  0.00000000000E+00 -0.13167335045E+04  0.13167335045E+04  0.50400001928E-02 0. -1.
    10030    2    1    2    0    0  0.00000000000E+00  0.00000000000E+00 -0.15346688790E+03  0.24800001211E+04  0.24752471624E+04 0.  0.
        1    1    3    3  502    0  0.11985045694E+04 -0.30506639735E+03 -0.12408325510E+03  0.12429301524E+04  0.50400001928E-02 0.  1.
       -1    1    3    3    0  502 -0.11985045694E+04  0.30506639735E+03 -0.29383632798E+02  0.12370699687E+04  0.50400001928E-02 0. -1.
</event>
<event>
 5   0  0.1008073E-05  0.2483561E+04  0.7818609E-02  0.8408866E-01
        1   -1    0    0  501    0  0.00000000000E+00  0.00000000000E+00  0.10533210042E+04  0.10533210042E+04  0.50400001928E-02 0. -1.
       -1   -1    0    0    0  501  0.00000000000E+00  0.00000000000E+00 -0.14639586095E+04  0.14639586095E+04  0.50400001928E-02 0.  1.
    10030    2    1    2    0    0  0.00000000000E+00  0.00000000000E+00 -0.41063760531E+03  0.25172796136E+04  0.24835606315E+04 0.  0.
        1    1    3    3  502    0 -0.50804807626E+03  0.92492783765E+03 -0.86873873998E+03  0.13668618624E+04  0.50400001928E-02 0.  1.
       -1    1    3    3    0  502  0.50804807626E+03 -0.92492783765E+03  0.45810113466E+03  0.11504177512E+04  0.50400001928E-02 0. -1.
</event>
<event>
 5   0  0.2345143E-05  0.2502989E+04  0.7818609E-02  0.8401922E-01
       -2   -1    0    0    0  501  0.00000000000E+00  0.00000000000E+00  0.12803132283E+04  0.12803132283E+04  0.25500000920E-02 0. -1.
        2   -1    0    0  501    0  0.00000000000E+00  0.00000000000E+00 -0.12233241509E+04  0.12233241509E+04  0.25500000920E-02 0.  1.
    10030    2    1    2    0    0  0.00000000000E+00  0.00000000000E+00  0.56989077448E+02  0.25036373793E+04  0.25029886879E+04 0.  0.
        5    1    3    3  502    0  0.37927563739E+03 -0.11557363054E+04 -0.26592777751E+03  0.12451168979E+04  0.46999998093E+01 0.  1.
       -5    1    3    3    0  502 -0.37927563739E+03  0.11557363054E+04  0.32291685496E+03  0.12585204813E+04  0.46999998093E+01 0. -1.
</event>
<event>
 5   0  0.2452457E-05  0.2408844E+04  0.7818609E-02  0.8436200E-01
       -2   -1    0    0    0  501  0.00000000000E+00  0.00000000000E+00  0.76925694026E+03  0.76925694027E+03  0.25500000920E-02 0.  1.
        2   -1    0    0  501    0  0.00000000000E+00  0.00000000000E+00 -0.18857586359E+04  0.18857586359E+04  0.25500000920E-02 0. -1.
    10030    2    1    2    0    0  0.00000000000E+00  0.00000000000E+00 -0.11165016956E+04  0.26550155761E+04  0.24088444685E+04 0.  0.
        1    1    3    3  502    0 -0.25638488521E+03  0.15881411321E+03  0.72696571754E+03  0.78704147694E+03  0.50400001928E-02 0.  1.
       -1    1    3    3    0  502  0.25638488521E+03 -0.15881411321E+03 -0.18434674131E+04  0.18679740992E+04  0.50400001928E-02 0. -1.
</event>
<event>
 5   0  0.2452457E-05  0.2512655E+04  0.7818609E-02  0.8398491E-01
       -2   -1    0    0    0  501  0.00000000000E+00  0.00000000000E+00  0.88155364162E+03  0.88155364163E+03  0.25500000920E-02 0.  1.
        2   -1    0    0  501    0  0.00000000000E+00  0.00000000000E+00 -0.17904292119E+04  0.17904292119E+04  0.25500000920E-02 0. -1.
    10030    2    1    2    0    0  0.00000000000E+00  0.00000000000E+00 -0.90887557023E+03  0.26719828535E+04  0.25126554812E+04 0.  0.
        1    1    3    3  502    0  0.54635990127E+03 -0.10435281772E+04 -0.91906299308E+03  0.14940337960E+04  0.50400001928E-02 0.  1.
       -1    1    3    3    0  502 -0.54635990127E+03  0.10435281772E+04  0.10187422849E+02  0.11779490575E+04  0.50400001928E-02 0. -1.
</event>
<event>
 5   0  0.1039688E-05  0.2486285E+04  0.7818609E-02  0.8407888E-01
        1   -1    0    0  501    0  0.00000000000E+00  0.00000000000E+00  0.17056539310E+04  0.17056539310E+04  0.50400001928E-02 0. -1.
       -1   -1    0    0    0  501  0.00000000000E+00  0.00000000000E+00 -0.90604709825E+03  0.90604709826E+03  0.50400001928E-02 0.  1.
    10030    2    1    2    0    0  0.00000000000E+00  0.00000000000E+00  0.79960683272E+03  0.26117010292E+04  0.24862846135E+04 0.  0.
        3    1    3    3  502    0 -0.68290746168E+03 -0.46695599672E+03 -0.57489945786E+03  0.10074323307E+04  0.10100000352E+00 0.  1.
       -3    1    3    3    0  502  0.68290746168E+03  0.46695599672E+03  0.13745062906E+04  0.16042686985E+04  0.10100000352E+00 0. -1.
</event>
<event>
 5   0  0.2345143E-05  0.2488615E+04  0.7818609E-02  0.8407053E-01
        2   -1    0    0  501    0  0.00000000000E+00  0.00000000000E+00  0.14049851796E+04  0.14049851796E+04  0.25500000920E-02 0. -1.
       -2   -1    0    0    0  501  0.00000000000E+00  0.00000000000E+00 -0.11020049917E+04  0.11020049917E+04  0.25500000920E-02 0.  1.
    10030    2    1    2    0    0  0.00000000000E+00  0.00000000000E+00  0.30298018796E+03  0.25069901713E+04  0.24886146195E+04 0.  0.
        5    1    3    3  502    0 -0.95803262646E+03 -0.14935239265E+03  0.93708541706E+03  0.13484375475E+04  0.46999998093E+01 0. -1.
       -5    1    3    3    0  502  0.95803262646E+03  0.14935239265E+03 -0.63410522910E+03  0.11585526238E+04  0.46999998093E+01 0.  1.
</event>
<event>
 5   0  0.2388326E-05  0.2390531E+04  0.7818609E-02  0.8443057E-01
        2   -1    0    0  501    0  0.00000000000E+00  0.00000000000E+00  0.17190708807E+04  0.17190708807E+04  0.25500000920E-02 0. -1.
       -2   -1    0    0    0  501  0.00000000000E+00  0.00000000000E+00 -0.83106500091E+03  0.83106500092E+03  0.25500000920E-02 0.  1.
    10030    2    1    2    0    0  0.00000000000E+00  0.00000000000E+00  0.88800587977E+03  0.25501358816E+04  0.23905310230E+04 0.  0.
        2    1    3    3  502    0  0.10571609541E+04  0.49994773669E+03  0.70773924715E+03  0.13669059457E+04  0.25500000920E-02 0. -1.
       -2    1    3    3    0  502 -0.10571609541E+04 -0.49994773669E+03  0.18026663262E+03  0.11832299359E+04  0.25500000920E-02 0.  1.
</event>
<event>
 5   0  0.1002753E-05  0.2509939E+04  0.7818609E-02  0.8399453E-01
        1   -1    0    0  501    0  0.00000000000E+00  0.00000000000E+00  0.22984088709E+04  0.22984088709E+04  0.50400001928E-02 0.  1.
       -1   -1    0    0    0  501  0.00000000000E+00  0.00000000000E+00 -0.68523403430E+03  0.68523403432E+03  0.50400001928E-02 0. -1.
    10030    2    1    2    0    0  0.00000000000E+00  0.00000000000E+00  0.16131748366E+04  0.29836429052E+04  0.25099386312E+04 0.  0.
        5    1    3    3  502    0  0.10982615881E+04  0.51981162537E+03  0.43342561401E+03  0.12900629809E+04  0.46999998093E+01 0. -1.
       -5    1    3    3    0  502 -0.10982615881E+04 -0.51981162537E+03  0.11797492226E+04  0.16935799243E+04  0.46999998093E+01 0.  1.
</event>
<event>
 5   0  0.2452457E-05  0.2505270E+04  0.7818609E-02  0.8401111E-01
       -2   -1    0    0    0  501  0.00000000000E+00  0.00000000000E+00  0.15397518287E+04  0.15397518287E+04  0.25500000920E-02 0.  1.
        2   -1    0    0  501    0  0.00000000000E+00  0.00000000000E+00 -0.10190565716E+04  0.10190565716E+04  0.25500000920E-02 0. -1.
    10030    2    1    2    0    0  0.00000000000E+00  0.00000000000E+00  0.52069525711E+03  0.25588084004E+04  0.25052698216E+04 0.  0.
        1    1    3    3  502    0  0.85440248336E+03  0.53006026366E+03  0.10233917893E+04  0.14346770512E+04  0.50400001928E-02 0.  1.
       -1    1    3    3    0  502 -0.85440248336E+03 -0.53006026366E+03 -0.50269653222E+03  0.11241313492E+04  0.50400001928E-02 0. -1.
</event>
<event>
 5   0  0.2432309E-05  0.2492479E+04  0.7818609E-02  0.8405670E-01
       -2   -1    0    0    0  501  0.00000000000E+00  0.00000000000E+00  0.12224884406E+04  0.12224884406E+04  0.25500000920E-02 0. -1.
        2   -1    0    0  501    0  0.00000000000E+00  0.00000000000E+00 -0.12704523978E+04  0.12704523978E+04  0.25500000920E-02 0.  1.
    10030    2    1    2    0    0  0.00000000000E+00  0.00000000000E+00 -0.47963957208E+02  0.24929408383E+04  0.24924793845E+04 0.  0.
        4    1    3    3  502    0 -0.34198101301E+03  0.35570415535E+03 -0.11685868322E+04  0.12684925135E+04  0.12699999809E+01 0.  1.
       -4    1    3    3    0  502  0.34198101301E+03 -0.35570415535E+03  0.11206228750E+04  0.12244483249E+04  0.12699999809E+01 0. -1.
</event>
<event>
 5   0  0.2452457E-05  0.2611745E+04  0.7818609E-02  0.8364223E-01
        2   -1    0    0  501    0  0.00000000000E+00  0.00000000000E+00  0.11785062480E+04  0.11785062480E+04  0.25500000920E-02 0. -1.
       -2   -1    0    0    0  501  0.00000000000E+00  0.00000000000E+00 -0.14470040318E+04  0.14470040318E+04  0.25500000920E-02 0.  1.
    10030    2    1    2    0    0  0.00000000000E+00  0.00000000000E+00 -0.26849778381E+03  0.26255102799E+04  0.26117452345E+04 0.  0.
        1    1    3    3  502    0 -0.10010854833E+03  0.22231578126E+03  0.11554222928E+04  0.11808669285E+04  0.50400001928E-02 0. -1.
       -1    1    3    3    0  502  0.10010854833E+03 -0.22231578126E+03 -0.14239200766E+04  0.14446433514E+04  0.50400001928E-02 0.  1.
</event>
<event>
 5   0  0.2388326E-05  0.2499136E+04  0.7818609E-02  0.8403293E-01
       -2   -1    0    0    0  501  0.00000000000E+00  0.00000000000E+00  0.11355500081E+04  0.11355500081E+04  0.25500000920E-02 0.  1.
        2   -1    0    0  501    0  0.00000000000E+00  0.00000000000E+00 -0.13750346753E+04  0.13750346753E+04  0.25500000920E-02 0. -1.
    10030    2    1    2    0    0  0.00000000000E+00  0.00000000000E+00 -0.23948466722E+03  0.25105846834E+04  0.24991363601E+04 0.  0.
        2    1    3    3  502    0  0.10935607158E+04  0.59619590702E+03 -0.18803005144E+02  0.12456637394E+04  0.25500000920E-02 0. -1.
       -2    1    3    3    0  502 -0.10935607158E+04 -0.59619590702E+03 -0.22068166207E+03  0.12649209440E+04  0.25500000920E-02 0.  1.
</event>
<event>
 5   0  0.1010338E-05  0.2470856E+04  0.7818609E-02  0.8413443E-01
        1   -1    0    0  501    0  0.00000000000E+00  0.00000000000E+00  0.11854474313E+04  0.11854474313E+04  0.50400001928E-02 0.  1.
       -1   -1    0    0    0  501  0.00000000000E+00  0.00000000000E+00 -0.12875153955E+04  0.12875153955E+04  0.50400001928E-02 0. -1.
    10030    2    1    2    0    0  0.00000000000E+00  0.00000000000E+00 -0.10206796418E+03  0.24729628269E+04  0.24708555752E+04 0.  0.
        2    1    3    3  502    0 -0.45579120020E+03  0.18304960442E+03  0.10835240081E+04  0.11896541732E+04  0.25500000920E-02 0.  1.
       -2    1    3    3    0  502  0.45579120020E+03 -0.18304960442E+03 -0.11855919722E+04  0.12833086536E+04  0.25500000920E-02 0. -1.
</event>
<event>
 5   0  0.1010338E-05  0.2526417E+04  0.7818609E-02  0.8393634E-01
       -1   -1    0    0    0  501  0.00000000000E+00  0.00000000000E+00  0.71274366276E+03  0.71274366278E+03  0.50400001928E-02 0.  1.
        1   -1    0    0  501    0  0.00000000000E+00  0.00000000000E+00 -0.22388071436E+04  0.22388071436E+04  0.50400001928E-02 0. -1.
    10030    2    1    2    0    0  0.00000000000E+00  0.00000000000E+00 -0.15260634808E+04  0.29515508064E+04  0.25264169124E+04 0.  0.
        2    1    3    3  502    0  0.90702820910E+03  0.19323592948E+03 -0.17650656753E+04  0.19938648738E+04  0.25500000920E-02 0. -1.
       -2    1    3    3    0  502 -0.90702820910E+03 -0.19323592948E+03  0.23900219451E+03  0.95768593261E+03  0.25500000920E-02 0.  1.
</event>
<event>
 5   0  0.2452457E-05  0.2491949E+04  0.7818609E-02  0.8405859E-01
        2   -1    0    0  501    0  0.00000000000E+00  0.00000000000E+00  0.15880970182E+04  0.15880970182E+04  0.25500000920E-02 0. -1.
       -2   -1    0    0    0  501  0.00000000000E+00  0.00000000000E+00 -0.97755495792E+03  0.97755495793E+03  0.25500000920E-02 0.  1.
    10030    2    1    2    0    0  0.00000000000E+00  0.00000000000E+00  0.61054206032E+03  0.25656519762E+04  0.24919487265E+04 0.  0.
        1    1    3    3  502    0 -0.85977498588E+03  0.77183112438E+03 -0.17490895109E+03  0.11685587072E+04  0.50400001928E-02 0.  1.
       -1    1    3    3    0  502  0.85977498588E+03 -0.77183112438E+03  0.78545101141E+03  0.13970932690E+04  0.50400001928E-02 0. -1.
</event>
<event>
 5   0  0.1039688E-05  0.2471664E+04  0.7818609E-02  0.8413151E-01
       -1   -1    0    0    0  501  0.00000000000E+00  0.00000000000E+00  0.23441068031E+04  0.23441068031E+04  0.50400001928E-02 0. -1.
        1   -1    0    0  501    0  0.00000000000E+00  0.00000000000E+00 -0.65154035717E+03  0.65154035719E+03  0.50400001928E-02 0.  1.
    10030    2    1    2    0    0  0.00000000000E+00  0.00000000000E+00  0.16925664459E+04  0.29956471603E+04  0.24716635562E+04 0.  0.
        3    1    3    3  502    0  0.70086748372E+03 -0.31944902682E+03  0.20176118475E+04  0.21596343412E+04  0.10100000352E+00 0. -1.
       -3    1    3    3    0  502 -0.70086748372E+03  0.31944902682E+03 -0.32504540152E+03  0.83601281911E+03  0.10100000352E+00 0.  1.
</event>
<event>
 5   0  0.1002753E-05  0.2496285E+04  0.7818609E-02  0.8404310E-01
        1   -1    0    0  501    0  0.00000000000E+00  0.00000000000E+00  0.14684072463E+04  0.14684072463E+04  0.50400001928E-02 0.  1.
       -1   -1    0    0    0  501  0.00000000000E+00  0.00000000000E+00 -0.10609181428E+04  0.10609181428E+04  0.50400001928E-02 0. -1.
    10030    2    1    2    0    0  0.00000000000E+00  0.00000000000E+00  0.40748910349E+03  0.25293253892E+04  0.24962851510E+04 0.  0.
        5    1    3    3  502    0  0.30948623591E+02  0.48436373549E+03 -0.96137601993E+03  0.10769549606E+04  0.46999998093E+01 0. -1.
       -5    1    3    3    0  502 -0.30948623591E+02 -0.48436373549E+03  0.13688651234E+04  0.14523704285E+04  0.46999998093E+01 0.  1.
</event>
<event>
 5   0  0.2441340E-05  0.2490605E+04  0.7818609E-02  0.8406340E-01
        2   -1    0    0  501    0  0.00000000000E+00  0.00000000000E+00  0.18024220521E+04  0.18024220521E+04  0.25500000920E-02 0.  1.
       -2   -1    0    0    0  501  0.00000000000E+00  0.00000000000E+00 -0.86038585153E+03  0.86038585154E+03  0.25500000920E-02 0. -1.
    10030    2    1    2    0    0  0.00000000000E+00  0.00000000000E+00  0.94203620057E+03  0.26628079036E+04  0.24906050928E+04 0.  0.
        3    1    3    3  502    0 -0.11832130992E+04 -0.33585077252E+03  0.26263311408E+03  0.12576824489E+04  0.10100000352E+00 0.  1.
       -3    1    3    3    0  502  0.11832130992E+04  0.33585077252E+03  0.67940308648E+03  0.14051254547E+04  0.10100000352E+00 0. -1.
</event>
<event>
 5   0  0.1015327E-05  0.2492875E+04  0.7818609E-02  0.8405528E-01
       -1   -1    0    0    0  501  0.00000000000E+00  0.00000000000E+00  0.17979046308E+04  0.17979046308E+04  0.50400001928E-02 0. -1.
        1   -1    0    0  501    0  0.00000000000E+00  0.00000000000E+00 -0.86412044564E+03  0.86412044566E+03  0.50400001928E-02 0.  1.
    10030    2    1    2    0    0  0.00000000000E+00  0.00000000000E+00  0.93378418512E+03  0.26620250764E+04  0.24928747668E+04 0.  0.
        4    1    3    3  502    0  0.87104568828E+03 -0.87782182162E+03  0.30038638068E+03  0.12726057253E+04  0.12699999809E+01 0. -1.
       -4    1    3    3    0  502 -0.87104568828E+03  0.87782182162E+03  0.63339780444E+03  0.13894193511E+04  0.12699999809E+01 0.  1.
</event>
<event>
 5   0  0.2388326E-05  0.2478913E+04  0.7818609E-02  0.8410536E-01
       -2   -1    0    0    0  501  0.00000000000E+00  0.00000000000E+00  0.11173632776E+04  0.11173632776E+04  0.25500000920E-02 0. -1.
        2   -1    0    0  501    0  0.00000000000E+00  0.00000000000E+00 -0.13748911064E+04  0.13748911064E+04  0.25500000920E-02 0.  1.
    10030    2    1    2    0    0  0.00000000000E+00  0.00000000000E+00 -0.25752782885E+03  0.24922543840E+04  0.24789133369E+04 0.  0.
        2    1    3    3  502    0 -0.10061948657E+04 -0.16565435901E+03  0.57957260174E+03  0.11729338750E+04  0.25500000920E-02 0. -1.
       -2    1    3    3    0  502  0.10061948657E+04  0.16565435901E+03 -0.83710043059E+03  0.13193205090E+04  0.25500000920E-02 0.  1.
</event>
<event>
 5   0  0.1008073E-05  0.2503808E+04  0.7818609E-02  0.8401630E-01
        1   -1    0    0  501    0  0.00000000000E+00  0.00000000000E+00  0.17646443698E+04  0.17646443698E+04  0.50400001928E-02 0. -1.
       -1   -1    0    0    0  501  0.00000000000E+00  0.00000000000E+00 -0.88814728844E+03  0.88814728846E+03  0.50400001928E-02 0.  1.
    10030    2    1    2    0    0  0.00000000000E+00  0.00000000000E+00  0.87649708136E+03  0.26527916583E+04  0.25038083889E+04 0.  0.
        1    1    3    3  502    0  0.22908519509E+03  0.65863415643E+03  0.15398180683E+04  0.16903605125E+04  0.50400001928E-02 0. -1.
       -1    1    3    3    0  502 -0.22908519509E+03 -0.65863415643E+03 -0.66332098695E+03  0.96243114579E+03  0.50400001928E-02 0.  1.
</event>
<event>
 5   0  0.1008073E-05  0.2323304E+04  0.7818609E-02  0.8468789E-01
        1   -1    0    0  501    0  0.00000000000E+00  0.00000000000E+00  0.15864307955E+04  0.15864307955E+04  0.50400001928E-02 0. -1.
       -1   -1    0    0    0  501  0.00000000000E+00  0.00000000000E+00 -0.85061121948E+03  0.85061121950E+03  0.50400001928E-02 0.  1.
    10030    2    1    2    0    0  0.00000000000E+00  0.00000000000E+00  0.73581957605E+03  0.24370420150E+04  0.23233043999E+04 0.  0.
        1    1    3    3  502    0 -0.44421079830E+03  0.91176330172E+03  0.96202992473E+03  0.13979045489E+04  0.50400001928E-02 0. -1.
       -1    1    3    3    0  502  0.44421079830E+03 -0.91176330172E+03 -0.22621034868E+03  0.10391374662E+04  0.50400001928E-02 0.  1.
</event>
<event>
 5   0  0.2345143E-05  0.2534508E+04  0.7818609E-02  0.8390794E-01
        2   -1    0    0  501    0  0.00000000000E+00  0.00000000000E+00  0.99755189944E+03  0.99755189944E+03  0.25500000920E-02 0. -1.
       -2   -1    0    0    0  501  0.00000000000E+00  0.00000000000E+00 -0.16098742718E+04  0.16098742718E+04  0.25500000920E-02 0.  1.
    10030    2    1    2    0    0  0.00000000000E+00  0.00000000000E+00 -0.61232237233E+03  0.26074261712E+04  0.25345083450E+04 0.  0.
        5    1    3    3  502    0  0.93712154129E+03  0.49738400814E+03 -0.10191540335E+04  0.14711507974E+04  0.46999998093E+01 0.  1.
       -5    1    3    3    0  502 -0.93712154129E+03 -0.49738400814E+03  0.40683166113E+03  0.11362753738E+04  0.46999998093E+01 0. -1.
</event>
<event>
 5   0  0.1039688E-05  0.2272789E+04  0.7818609E-02  0.8488728E-01
        1   -1    0    0  501    0  0.00000000000E+00  0.00000000000E+00  0.99104892953E+03  0.99104892954E+03  0.50400001928E-02 0.  1.
       -1   -1    0    0    0  501  0.00000000000E+00  0.00000000000E+00 -0.13030560643E+04  0.13030560643E+04  0.50400001928E-02 0. -1.
    10030    2    1    2    0    0  0.00000000000E+00  0.00000000000E+00 -0.31200713479E+03  0.22941049939E+04  0.22727888751E+04 0.  0.
        3    1    3    3  502    0  0.70352253382E+03  0.87052036307E+03  0.42417436495E+02  0.11200664745E+04  0.10100000352E+00 0. -1.
       -3    1    3    3    0  502 -0.70352253382E+03 -0.87052036307E+03 -0.35442457129E+03  0.11740385194E+04  0.10100000352E+00 0.  1.
</event>
<event>
 5   0  0.1002753E-05  0.2538741E+04  0.7818609E-02  0.8389312E-01
        1   -1    0    0  501    0  0.00000000000E+00  0.00000000000E+00  0.14752902131E+04  0.14752902131E+04  0.50400001928E-02 0. -1.
       -1   -1    0    0    0  501  0.00000000000E+00  0.00000000000E+00 -0.10921929133E+04  0.10921929134E+04  0.50400001928E-02 0.  1.
    10030    2    1    2    0    0  0.00000000000E+00  0.00000000000E+00  0.38309729974E+03  0.25674831264E+04  0.25387410391E+04 0.  0.
        5    1    3    3  502    0  0.89618264011E+03 -0.89843283695E+03  0.22279404491E+03  0.12884037269E+04  0.46999998093E+01 0. -1.
       -5    1    3    3    0  502 -0.89618264011E+03  0.89843283695E+03  0.16030325484E+03  0.12790793996E+04  0.46999998093E+01 0.  1.
</event>
<event>
 5   0  0.2388326E-05  0.2507386E+04  0.7818609E-02  0.8400359E-01
       -2   -1    0    0    0  501  0.00000000000E+00  0.00000000000E+00  0.62020435711E+03  0.62020435712E+03  0.25500000920E-02 0.  1.
        2   -1    0    0  501    0  0.00000000000E+00  0.00000000000E+00 -0.25342385034E+04  0.25342385034E+04  0.25500000920E-02 0. -1.
    10030    2    1    2    0    0  0.00000000000E+00  0.00000000000E+00 -0.19140341463E+04  0.31544428605E+04  0.25073856997E+04 0.  0.
        2    1    3    3  502    0  0.45169656367E+03 -0.11666812902E+04 -0.85503853892E+03  0.15153434996E+04  0.25500000920E-02 0. -1.
       -2    1    3    3    0  502 -0.45169656367E+03  0.11666812902E+04 -0.10589956073E+04  0.16390993609E+04  0.25500000920E-02 0.  1.
</event>
<event>
 5   0  0.2432309E-05  0.2518557E+04  0.7818609E-02  0.8396404E-01
       -2   -1    0    0    0  501  0.00000000000E+00  0.00000000000E+00  0.81443686770E+03  0.81443686771E+03  0.25500000920E-02 0. -1.
        2   -1    0    0  501    0  0.00000000000E+00  0.00000000000E+00 -0.19470899916E+04  0.19470899916E+04  0.25500000920E-02 0.  1.
    10030    2    1    2    0    0  0.00000000000E+00  0.00000000000E+00 -0.11326531239E+04  0.27615268593E+04  0.25185566294E+04 0.  0.
        4    1    3    3  502    0 -0.98932946415E+03 -0.77780945763E+03 -0.51704725009E+03  0.13605512900E+04  0.12699999809E+01 0.  1.
       -4    1    3    3    0  502  0.98932946415E+03  0.77780945763E+03 -0.61560587382E+03  0.14009755693E+04  0.12699999809E+01 0. -1.
</event>
<event>
 5   0  0.1039688E-05  0.2195939E+04  0.7818609E-02  0.8520120E-01
        1   -1    0    0  501    0  0.00000000000E+00  0.00000000000E+00  0.19961718039E+04  0.19961718039E+04  0.50400001928E-02 0.  1.
       -1   -1    0    0    0  501  0.00000000000E+00  0.00000000000E+00 -0.60392429755E+03  0.60392429757E+03  0.50400001928E-02 0. -1.
    10030    2    1    2    0    0  0.00000000000E+00  0.00000000000E+00  0.13922475063E+04  0.26000961015E+04  0.21959386644E+04 0.  0.
        3    1    3    3  502    0  0.39157899824E+03 -0.56989329818E+03  0.17059881368E+04  0.18407900522E+04  0.10100000352E+00 0.  1.
       -3    1    3    3    0  502 -0.39157899824E+03  0.56989329818E+03 -0.31374063040E+03  0.75930604933E+03  0.10100000352E+00 0. -1.
</event>
<event>
 5   0  0.2388326E-05  0.2497320E+04  0.7818609E-02  0.8403941E-01
       -2   -1    0    0    0  501  0.00000000000E+00  0.00000000000E+00  0.79319811379E+03  0.79319811379E+03  0.25500000920E-02 0. -1.
        2   -1    0    0  501    0  0.00000000000E+00  0.00000000000E+00 -0.19656523160E+04  0.19656523160E+04  0.25500000920E-02 0.  1.
    10030    2    1    2    0    0  0.00000000000E+00  0.00000000000E+00 -0.11724542023E+04  0.27588504298E+04  0.24973199310E+04 0.  0.
        2    1    3    3  502    0  0.19504829395E+03 -0.41208869248E+03  0.69796022600E+03  0.83367224046E+03  0.25500000920E-02 0. -1.
       -2    1    3    3    0  502 -0.19504829395E+03  0.41208869248E+03 -0.18704144283E+04  0.19251781894E+04  0.25500000920E-02 0.  1.
</event>
<event>
 5   0  0.2432309E-05  0.2472128E+04  0.7818609E-02  0.8412983E-01
        2   -1    0    0  501    0  0.00000000000E+00  0.00000000000E+00  0.28252960260E+04  0.28252960260E+04  0.25500000920E-02 0. -1.
       -2   -1    0    0    0  501  0.00000000000E+00  0.00000000000E+00 -0.54077690059E+03  0.54077690059E+03  0.25500000920E-02 0.  1.
    10030    2    1    2    0    0  0.00000000000E+00  0.00000000000E+00  0.22845191254E+04  0.33660729266E+04  0.24721284984E+04 0.  0.
        4    1    3    3  502    0 -0.22090595929E+03 -0.42411935110E+03  0.26942411551E+04  0.27363504311E+04  0.12699999809E+01 0. -1.
       -4    1    3    3    0  502  0.22090595929E+03  0.42411935110E+03 -0.40972202971E+03  0.62972249551E+03  0.12699999809E+01 0.  1.
</event>
<event>
 5   0  0.2441340E-05  0.2466155E+04  0.7818609E-02  0.8415143E-01
       -2   -1    0    0    0  501  0.00000000000E+00  0.00000000000E+00  0.52371162866E+03  0.52371162867E+03  0.25500000920E-02 0.  1.
        2   -1    0    0  501    0  0.00000000000E+00  0.00000000000E+00 -0.29032767776E+04  0.29032767776E+04  0.25500000920E-02 0. -1.
    10030    2    1    2    0    0  0.00000000000E+00  0.00000000000E+00 -0.23795651490E+04  0.34269884063E+04  0.24661547475E+04 0.  0.
        3    1    3    3  502    0  0.10970855195E+04  0.52701233059E+03 -0.91486076827E+03  0.15225993791E+04  0.10100000352E+00 0.  1.
       -3    1    3    3    0  502 -0.10970855195E+04 -0.52701233059E+03 -0.14647043807E+04  0.19043890272E+04  0.10100000352E+00 0. -1.
</event>
<event>
 5   0  0.1002753E-05  0.2496929E+04  0.7818609E-02  0.8404081E-01
        1   -1    0    0  501    0  0.00000000000E+00  0.00000000000E+00  0.70667907100E+03  0.70667907101E+03  0.50400001928E-02 0.  1.
       -1   -1    0    0    0  501  0.00000000000E+00  0.00000000000E+00 -0.22056167942E+04  0.22056167942E+04  0.50400001928E-02 0. -1.
    10030    2    1    2    0    0  0.00000000000E+00  0.00000000000E+00 -0.14989377232E+04  0.29122958652E+04  0.24969286951E+04 0.  0.
        5    1    3    3  502    0 -0.56437120765E+03  0.37539923635E+03  0.47336666337E+03  0.82676328817E+03  0.46999998093E+01 0.  1.
       -5    1    3    3    0  502  0.56437120765E+03 -0.37539923635E+03 -0.19723043866E+04  0.20855325771E+04  0.46999998093E+01 0. -1.
</event>
<event>
 5   0  0.2388326E-05  0.2534694E+04  0.7818609E-02  0.8390729E-01
       -2   -1    0    0    0  501  0.00000000000E+00  0.00000000000E+00  0.92900441410E+03  0.92900441410E+03  0.25500000920E-02 0.  1.
        2   -1    0    0  501    0  0.00000000000E+00  0.00000000000E+00 -0.17289140101E+04  0.17289140101E+04  0.25500000920E-02 0. -1.
    10030    2    1    2    0    0  0.00000000000E+00  0.00000000000E+00 -0.79990959596E+03  0.26579184242E+04  0.25346942592E+04 0.  0.
        2    1    3    3  502    0  0.50438229307E+03 -0.55847200871E+03 -0.14692728515E+04  0.16507741197E+04  0.25500000920E-02 0. -1.
       -2    1    3    3    0  502 -0.50438229307E+03  0.55847200871E+03  0.66936325557E+03  0.10071443045E+04  0.25500000920E-02 0.  1.
</event>
<event>
 5   0  0.8166500E-06  0.2445225E+04  0.7818609E-02  0.8422763E-01
        3   -1    0    0  501    0  0.00000000000E+00  0.00000000000E+00  0.55986498295E+03  0.55986499206E+03  0.10100000352E+00 0. -1.
       -3   -1    0    0    0  501  0.00000000000E+00  0.00000000000E+00 -0.26698964863E+04  0.26698964882E+04  0.10100000352E+00 0.  1.
    10030    2    1    2    0    0  0.00000000000E+00  0.00000000000E+00 -0.21100315033E+04  0.32297614803E+04  0.24452251991E+04 0.  0.
        5    1    3    3  502    0  0.49836725361E+03  0.11038026698E+04 -0.12760716644E+04  0.17592985068E+04  0.46999998093E+01 0. -1.
       -5    1    3    3    0  502 -0.49836725361E+03 -0.11038026698E+04 -0.83395983889E+03  0.14704629734E+04  0.46999998093E+01 0.  1.
</event>
<event>
 5   0  0.1015327E-05  0.2480667E+04  0.7818609E-02  0.8409905E-01
       -1   -1    0    0    0  501  0.00000000000E+00  0.00000000000E+00  0.15393802146E+04  0.15393802147E+04  0.50400001928E-02 0.  1.
        1   -1    0    0  501    0  0.00000000000E+00  0.00000000000E+00 -0.99938104988E+03  0.99938104990E+03  0.50400001928E-02 0. -1.
    10030    2    1    2    0    0  0.00000000000E+00  0.00000000000E+00  0.53999916476E+03  0.25387612645E+04  0.24806671805E+04 0.  0.
        4    1    3    3  502    0 -0.52085093312E+03  0.82213709562E+03 -0.51692271703E+03  0.11020008198E+04  0.12699999809E+01 0. -1.
       -4    1    3    3    0  502  0.52085093312E+03 -0.82213709562E+03  0.10569218818E+04  0.14367604448E+04  0.12699999809E+01 0.  1.
</event>
<event>
 5   0  0.2388326E-05  0.2542472E+04  0.7818609E-02  0.8388009E-01
       -2   -1    0    0    0  501  0.00000000000E+00  0.00000000000E+00  0.90146892015E+03  0.90146892015E+03  0.25500000920E-02 0. -1.
        2   -1    0    0  501    0  0.00000000000E+00  0.00000000000E+00 -0.17926747712E+04  0.17926747712E+04  0.25500000920E-02 0.  1.
    10030    2    1    2    0    0  0.00000000000E+00  0.00000000000E+00 -0.89120585101E+03  0.26941436913E+04  0.25424717030E+04 0.  0.
        2    1    3    3  502    0  0.89752594218E+03  0.83059046020E+03 -0.81360592090E+03  0.14688049305E+04  0.25500000920E-02 0.  1.
       -2    1    3    3    0  502 -0.89752594218E+03 -0.83059046020E+03 -0.77599930108E+02  0.12253387608E+04  0.25500000920E-02 0. -1.
</event>
<event>
 5   0  0.1002753E-05  0.2503698E+04  0.7818609E-02  0.8401669E-01
        1   -1    0    0  501    0  0.00000000000E+00  0.00000000000E+00  0.29553635836E+04  0.29553635836E+04  0.50400001928E-02 0.  1.
       -1   -1    0    0    0  501  0.00000000000E+00  0.00000000000E+00 -0.53026491299E+03  0.53026491301E+03  0.50400001928E-02 0. -1.
    10030    2    1    2    0    0  0.00000000000E+00  0.00000000000E+00  0.24250986706E+04  0.34856284966E+04  0.25036977561E+04 0.  0.
        5    1    3    3  502    0  0.52388143773E+03 -0.11088911630E+04  0.15620205032E+04  0.19859560706E+04  0.46999998093E+01 0.  1.
       -5    1    3    3    0  502 -0.52388143773E+03  0.11088911630E+04  0.86307816742E+03  0.14996724260E+04  0.46999998093E+01 0. -1.
</event>
<event>
 5   0  0.1002753E-05  0.2501891E+04  0.7818609E-02  0.8402312E-01
       -1   -1    0    0    0  501  0.00000000000E+00  0.00000000000E+00  0.12088436776E+04  0.12088436776E+04  0.50400001928E-02 0. -1.
        1   -1    0    0  501    0  0.00000000000E+00  0.00000000000E+00 -0.12945134756E+04  0.12945134756E+04  0.50400001928E-02 0.  1.
    10030    2    1    2    0    0  0.00000000000E+00  0.00000000000E+00 -0.85669798000E+02  0.25033571533E+04  0.25018908295E+04 0.  0.
        5    1    3    3  502    0  0.61589485421E+02  0.10244672001E+04  0.67278776177E+03  0.12271885638E+04  0.46999998093E+01 0. -1.
       -5    1    3    3    0  502 -0.61589485421E+02 -0.10244672001E+04 -0.75845755977E+03  0.12761685895E+04  0.46999998093E+01 0.  1.
</event>
<event>
 5   0  0.1039688E-05  0.2492085E+04  0.7818609E-02  0.8405811E-01
       -1   -1    0    0    0  501  0.00000000000E+00  0.00000000000E+00  0.10545156252E+04  0.10545156252E+04  0.50400001928E-02 0.  1.
        1   -1    0    0  501    0  0.00000000000E+00  0.00000000000E+00 -0.14723561035E+04  0.14723561035E+04  0.50400001928E-02 0. -1.
    10030    2    1    2    0    0  0.00000000000E+00  0.00000000000E+00 -0.41784047822E+03  0.25268717287E+04  0.24920854857E+04 0.  0.
        3    1    3    3  502    0  0.37143306969E+03 -0.11740893956E+04 -0.40176993777E+03  0.12953252592E+04  0.10100000352E+00 0. -1.
       -3    1    3    3    0  502 -0.37143306969E+03  0.11740893956E+04 -0.16070540454E+02  0.12315464695E+04  0.10100000352E+00 0.  1.
</event>
<event>
 5   0  0.1010338E-05  0.2486473E+04  0.7818609E-02  0.8407820E-01
        1   -1    0    0  501    0  0.00000000000E+00  0.00000000000E+00  0.80988509702E+03  0.80988509704E+03  0.50400001928E-02 0.  1.
       -1   -1    0    0    0  501  0.00000000000E+00  0.00000000000E+00 -0.19084648336E+04  0.19084648336E+04  0.50400001928E-02 0. -1.
    10030    2    1    2    0    0  0.00000000000E+00  0.00000000000E+00 -0.10985797366E+04  0.27183499306E+04  0.24864731866E+04 0.  0.
        2    1    3    3  502    0  0.10246699905E+04  0.93769391048E+01 -0.13189297110E+04  0.16702131897E+04  0.25500000920E-02 0. -1.
       -2    1    3    3    0  502 -0.10246699905E+04 -0.93769391048E+01  0.22034997446E+03  0.10481367409E+04  0.25500000920E-02 0.  1.
</event>
<event>
 5   0  0.2345143E-05  0.2501753E+04  0.7818609E-02  0.8402361E-01
       -2   -1    0    0    0  501  0.00000000000E+00  0.00000000000E+00  0.95109357593E+03  0.95109357593E+03  0.25500000920E-02 0.  1.
        2   -1    0    0  501    0  0.00000000000E+00  0.00000000000E+00 -0.16451509627E+04  0.16451509627E+04  0.25500000920E-02 0. -1.
    10030    2    1    2    0    0  0.00000000000E+00  0.00000000000E+00 -0.69405738675E+03  0.25962445386E+04  0.25017533948E+04 0.  0.
        5    1    3    3  502    0 -0.16792137702E+03  0.83486717421E+03  0.60380287868E+03  0.10439352440E+04  0.46999998093E+01 0.  1.
       -5    1    3    3    0  502  0.16792137702E+03 -0.83486717421E+03 -0.12978602654E+04  0.15523092946E+04  0.46999998093E+01 0. -1.
</event>
<event>
 5   0  0.1015327E-05  0.2504382E+04  0.7818609E-02  0.8401426E-01
       -1   -1    0    0    0  501  0.00000000000E+00  0.00000000000E+00  0.20150246237E+04  0.20150246237E+04  0.50400001928E-02 0.  1.
        1   -1    0    0  501    0  0.00000000000E+00  0.00000000000E+00 -0.77814541228E+03  0.77814541229E+03  0.50400001928E-02 0. -1.
    10030    2    1    2    0    0  0.00000000000E+00  0.00000000000E+00  0.12368792114E+04  0.27931700360E+04  0.25043818931E+04 0.  0.
        4    1    3    3  502    0 -0.43877210909E+03  0.29008316647E+03  0.18858355204E+04  0.19578167509E+04  0.12699999809E+01 0.  1.
       -4    1    3    3    0  502  0.43877210909E+03 -0.29008316647E+03 -0.64895630894E+03  0.83535328514E+03  0.12699999809E+01 0. -1.
</event>
<event>
 5   0  0.1002753E-05  0.2507898E+04  0.7818609E-02  0.8400177E-01
       -1   -1    0    0    0  501  0.00000000000E+00  0.00000000000E+00  0.10328464153E+04  0.10328464153E+04  0.50400001928E-02 0. -1.
        1   -1    0    0  501    0  0.00000000000E+00  0.00000000000E+00 -0.15223828069E+04  0.15223828069E+04  0.50400001928E-02 0.  1.
    10030    2    1    2    0    0  0.00000000000E+00  0.00000000000E+00 -0.48953639161E+03  0.25552292222E+04  0.25078976253E+04 0.  0.
        5    1    3    3  502    0 -0.48672446396E+03  0.11435608028E+04 -0.75091355069E+02  0.12451075516E+04  0.46999998093E+01 0.  1.
       -5    1    3    3    0  502  0.48672446396E+03 -0.11435608028E+04 -0.41444503654E+03  0.13101216706E+04  0.46999998093E+01 0. -1.
</event>
<event>
 5   0  0.2388326E-05  0.2491448E+04  0.7818609E-02  0.8406038E-01
       -2   -1    0    0    0  501  0.00000000000E+00  0.00000000000E+00  0.15163210204E+04  0.15163210204E+04  0.25500000920E-02 0. -1.
        2   -1    0    0  501    0  0.00000000000E+00  0.00000000000E+00 -0.10234171083E+04  0.10234171083E+04  0.25500000920E-02 0.  1.
    10030    2    1    2    0    0  0.00000000000E+00  0.00000000000E+00  0.49290391207E+03  0.25397381286E+04  0.24914484734E+04 0.  0.
        2    1    3    3  502    0  0.26922697941E+03 -0.24037840363E+03  0.14618547405E+04  0.15057503863E+04  0.25500000920E-02 0. -1.
       -2    1    3    3    0  502 -0.26922697941E+03  0.24037840363E+03 -0.96895082845E+03  0.10339877424E+04  0.25500000920E-02 0.  1.
</event>
<event>
 5   0  0.1010338E-05  0.2457826E+04  0.7818609E-02  0.8418166E-01
       -1   -1    0    0    0  501  0.00000000000E+00  0.00000000000E+00  0.10006688544E+04  0.10006688544E+04  0.50400001928E-02 0.  1.
        1   -1    0    0  501    0  0.00000000000E+00  0.00000000000E+00 -0.15092177339E+04  0.15092177339E+04  0.50400001928E-02 0. -1.
    10030    2    1    2    0    0  0.00000000000E+00  0.00000000000E+00 -0.50854887951E+03  0.25098865884E+04  0.24578260158E+04 0.  0.
        2    1    3    3  502    0  0.24935454010E+03 -0.95086121326E+03 -0.10074001259E+04  0.14075403181E+04  0.25500000920E-02 0. -1.
       -2    1    3    3    0  502 -0.24935454010E+03  0.95086121326E+03  0.49885124636E+03  0.11023462703E+04  0.25500000920E-02 0.  1.
</event>
<event>
 5   0  0.2345143E-05  0.2467884E+04  0.7818609E-02  0.8414517E-01
       -2   -1    0    0    0  501  0.00000000000E+00  0.00000000000E+00  0.83524371095E+03  0.83524371095E+03  0.25500000920E-02 0. -1.
        2   -1    0    0  501    0  0.00000000000E+00  0.00000000000E+00 -0.18229569571E+04  0.18229569571E+04  0.25500000920E-02 0.  1.
    10030    2    1    2    0    0  0.00000000000E+00  0.00000000000E+00 -0.98771324613E+03  0.26582006680E+04  0.24678843844E+04 0.  0.
        5    1    3    3  502    0  0.65806722111E+03 -0.99722618506E+03 -0.16172930551E+03  0.12056910840E+04  0.46999998093E+01 0.  1.
       -5    1    3    3    0  502 -0.65806722111E+03  0.99722618506E+03 -0.82598394062E+03  0.14525095841E+04  0.46999998093E+01 0. -1.
</event>
<event>
 5   0  0.1008073E-05  0.2505412E+04  0.7818609E-02  0.8401060E-01
       -1   -1    0    0    0  501  0.00000000000E+00  0.00000000000E+00  0.12033380255E+04  0.12033380255E+04  0.50400001928E-02 0. -1.
        1   -1    0    0  501    0  0.00000000000E+00  0.00000000000E+00 -0.13040990757E+04  0.13040990757E+04  0.50400001928E-02 0.  1.
    10030    2    1    2    0    0  0.00000000000E+00  0.00000000000E+00 -0.10076105026E+03  0.25074371012E+04  0.25054117480E+04 0.  0.
        1    1    3    3  502    0  0.68791919655E+02  0.75913544480E+03 -0.10452933310E+04  0.12936989988E+04  0.50400001928E-02 0.  1.
       -1    1    3    3    0  502 -0.68791919655E+02 -0.75913544480E+03  0.94453228073E+03  0.12137381024E+04  0.50400001928E-02 0. -1.
</event>
<event>
 5   0  0.2441340E-05  0.2380028E+04  0.7818609E-02  0.8447019E-01
       -2   -1    0    0    0  501  0.00000000000E+00  0.00000000000E+00  0.11212776278E+04  0.11212776278E+04  0.25500000920E-02 0. -1.
        2   -1    0    0  501    0  0.00000000000E+00  0.00000000000E+00 -0.12629636965E+04  0.12629636965E+04  0.25500000920E-02 0.  1.
    10030    2    1    2    0    0  0.00000000000E+00  0.00000000000E+00 -0.14168606872E+03  0.23842413244E+04  0.23800276786E+04 0.  0.
        3    1    3    3  502    0 -0.88741412875E+03 -0.46328523788E+03 -0.71540728235E+03  0.12304245761E+04  0.10100000352E+00 0.  1.
       -3    1    3    3    0  502  0.88741412875E+03  0.46328523788E+03  0.57372121362E+03  0.11538167483E+04  0.10100000352E+00 0. -1.
</event>
<event>
 5   0  0.2345143E-05  0.2482208E+04  0.7818609E-02  0.8409351E-01
       -2   -1    0    0    0  501  0.00000000000E+00  0.00000000000E+00  0.64952836976E+03  0.64952836976E+03  0.25500000920E-02 0. -1.
        2   -1    0    0  501    0  0.00000000000E+00  0.00000000000E+00 -0.23714735660E+04  0.23714735660E+04  0.25500000920E-02 0.  1.
    10030    2    1    2    0    0  0.00000000000E+00  0.00000000000E+00 -0.17219451962E+04  0.30210019357E+04  0.24822081776E+04 0.  0.
        5    1    3    3  502    0 -0.96038063191E+03 -0.33891007413E+03 -0.17242518430E+04  0.20025627342E+04  0.46999998093E+01 0.  1.
       -5    1    3    3    0  502  0.96038063191E+03  0.33891007413E+03  0.23066467917E+01  0.10184392015E+04  0.46999998093E+01 0. -1.
</event>
<event>
 5   0  0.1008073E-05  0.2514024E+04  0.7818609E-02  0.8398006E-01
       -1   -1    0    0    0  501  0.00000000000E+00  0.00000000000E+00  0.13423918104E+04  0.13423918104E+04  0.50400001928E-02 0.  1.
        1   -1    0    0  501    0  0.00000000000E+00  0.00000000000E+00 -0.11770624173E+04  0.11770624173E+04  0.50400001928E-02 0. -1.
    10030    2    1    2    0    0  0.00000000000E+00  0.00000000000E+00  0.16532939311E+03  0.25194542277E+04  0.25140238259E+04 0.  0.
        1    1    3    3  502    0  0.54172143586E+03 -0.76544427614E+03  0.92155819489E+03  0.13147762397E+04  0.50400001928E-02 0.  1.
       -1    1    3    3    0  502 -0.54172143586E+03  0.76544427614E+03 -0.75622880178E+03  0.12046779879E+04  0.50400001928E-02 0. -1.
</event>
<event>
 5   0  0.2388326E-05  0.2518293E+04  0.7818609E-02  0.8396497E-01
       -2   -1    0    0    0  501  0.00000000000E+00  0.00000000000E+00  0.21057289635E+04  0.21057289635E+04  0.25500000920E-02 0. -1.
        2   -1    0    0  501    0  0.00000000000E+00  0.00000000000E+00 -0.75292199643E+03  0.75292199644E+03  0.25500000920E-02 0.  1.
    10030    2    1    2    0    0  0.00000000000E+00  0.00000000000E+00  0.13528069671E+04  0.28586509599E+04  0.25182927988E+04 0.  0.
        2    1    3    3  502    0 -0.75216432187E+03  0.32303334149E+03  0.17624489675E+04  0.19432776616E+04  0.25500000920E-02 0. -1.
       -2    1    3    3    0  502  0.75216432187E+03 -0.32303334149E+03 -0.40964200047E+03  0.91537329836E+03  0.25500000920E-02 0.  1.
</event>
<event>
 5   0  0.2345143E-05  0.2508545E+04  0.7818609E-02  0.8399948E-01
        2   -1    0    0  501    0  0.00000000000E+00  0.00000000000E+00  0.16051156275E+04  0.16051156275E+04  0.25500000920E-02 0. -1.
       -2   -1    0    0    0  501  0.00000000000E+00  0.00000000000E+00 -0.98011570818E+03  0.98011570818E+03  0.25500000920E-02 0.  1.
    10030    2    1    2    0    0  0.00000000000E+00  0.00000000000E+00  0.62499991932E+03  0.25852313357E+04  0.25085446298E+04 0.  0.
        5    1    3    3  502    0  0.66950502665E+01 -0.87803914011E+03  0.12355246759E+04  0.15157641208E+04  0.46999998093E+01 0. -1.
       -5    1    3    3    0  502 -0.66950502665E+01  0.87803914011E+03 -0.61052475657E+03  0.10694672149E+04  0.46999998093E+01 0.  1.
</event>
<event>
 5   0  0.1015327E-05  0.2472239E+04  0.7818609E-02  0.8412943E-01
        1   -1    0    0  501    0  0.00000000000E+00  0.00000000000E+00  0.21184485973E+04  0.21184485973E+04  0.50400001928E-02 0. -1.
       -1   -1    0    0    0  501  0.00000000000E+00  0.00000000000E+00 -0.72127877779E+03  0.72127877780E+03  0.50400001928E-02 0.  1.
    10030    2    1    2    0    0  0.00000000000E+00  0.00000000000E+00  0.13971698195E+04  0.28397273751E+04  0.24722394828E+04 0.  0.
        4    1    3    3  502    0 -0.11342193987E+04 -0.40170646806E+03  0.37335651689E+03  0.12598485752E+04  0.12699999809E+01 0.  1.
       -4    1    3    3    0  502  0.11342193987E+04  0.40170646806E+03  0.10238133026E+04  0.15798787999E+04  0.12699999809E+01 0. -1.
</event>
<event>
 5   0  0.2345143E-05  0.2491954E+04  0.7818609E-02  0.8405858E-01
       -2   -1    0    0    0  501  0.00000000000E+00  0.00000000000E+00  0.15638141627E+04  0.15638141627E+04  0.25500000920E-02 0. -1.
        2   -1    0    0  501    0  0.00000000000E+00  0.00000000000E+00 -0.99273853079E+03  0.99273853080E+03  0.25500000920E-02 0.  1.
    10030    2    1    2    0    0  0.00000000000E+00  0.00000000000E+00  0.57107563186E+03  0.25565526934E+04  0.24919539115E+04 0.  0.
        5    1    3    3  502    0  0.66505857157E+03  0.34970222090E+03 -0.73412943804E+03  0.10505059108E+04  0.46999998093E+01 0.  1.
       -5    1    3    3    0  502 -0.66505857157E+03 -0.34970222090E+03  0.13052050699E+04  0.15060467826E+04  0.46999998093E+01 0. -1.
</event>
<event>
 5   0  0.1015327E-05  0.2460777E+04  0.7818609E-02  0.8417094E-01
        1   -1    0    0  501    0  0.00000000000E+00  0.00000000000E+00  0.20124099801E+04  0.20124099801E+04  0.50400001928E-02 0.  1.
       -1   -1    0    0    0  501  0.00000000000E+00  0.00000000000E+00 -0.75226039199E+03  0.75226039200E+03  0.50400001928E-02 0. -1.
    10030    2    1    2    0    0  0.00000000000E+00  0.00000000000E+00  0.12601495881E+04  0.27646703721E+04  0.24607773735E+04 0.  0.
        4    1    3    3  502    0 -0.13986118072E+03 -0.59744231693E+03  0.18282471352E+04  0.19284677006E+04  0.12699999809E+01 0.  1.
       -4    1    3    3    0  502  0.13986118072E+03  0.59744231693E+03 -0.56809754709E+03  0.83620267152E+03  0.12699999809E+01 0. -1.
</event>
<event>
 5   0  0.1002753E-05  0.2482473E+04  0.7818609E-02  0.8409256E-01
       -1   -1    0    0    0  501  0.00000000000E+00  0.00000000000E+00  0.55433246250E+03  0.55433246252E+03  0.50400001928E-02 0. -1.
        1   -1    0    0  501    0  0.00000000000E+00  0.00000000000E+00 -0.27793221908E+04  0.27793221908E+04  0.50400001928E-02 0.  1.
    10030    2    1    2    0    0  0.00000000000E+00  0.00000000000E+00 -0.22249897283E+04  0.33336546533E+04  0.24824733748E+04 0.  0.
        5    1    3    3  502    0 -0.76867526855E+03  0.97253194860E+03 -0.10279217495E+04  0.16103804745E+04  0.46999998093E+01 0. -1.
       -5    1    3    3    0  502  0.76867526855E+03 -0.97253194860E+03 -0.11970679787E+04  0.17232741788E+04  0.46999998093E+01 0.  1.
</event>
<event>
 5   0  0.1002753E-05  0.2491479E+04  0.7818609E-02  0.8406027E-01
        1   -1    0    0  501    0  0.00000000000E+00  0.00000000000E+00  0.18466524099E+04  0.18466524099E+04  0.50400001928E-02 0.  1.
       -1   -1    0    0    0  501  0.00000000000E+00  0.00000000000E+00 -0.84036795780E+03  0.84036795782E+03  0.50400001928E-02 0. -1.
    10030    2    1    2    0    0  0.00000000000E+00  0.00000000000E+00  0.10062844521E+04  0.26870203677E+04  0.24914794918E+04 0.  0.
        5    1    3    3  502    0  0.74787921566E+03 -0.98107514554E+03  0.31630081597E+03  0.12735384009E+04  0.46999998093E+01 0. -1.
       -5    1    3    3    0  502 -0.74787921566E+03  0.98107514554E+03  0.68998363614E+03  0.14134819668E+04  0.46999998093E+01 0.  1.
</event>
<event>
 5   0  0.2441340E-05  0.2402342E+04  0.7818609E-02  0.8438627E-01
       -2   -1    0    0    0  501  0.00000000000E+00  0.00000000000E+00  0.96938905694E+03  0.96938905694E+03  0.25500000920E-02 0. -1.
        2   -1    0    0  501    0  0.00000000000E+00  0.00000000000E+00 -0.14883723828E+04  0.14883723828E+04  0.25500000920E-02 0.  1.
    10030    2    1    2    0    0  0.00000000000E+00  0.00000000000E+00 -0.51898332587E+03  0.24577614397E+04  0.24023421076E+04 0.  0.
        3    1    3    3  502    0 -0.17761712161E+03 -0.47497727437E+03 -0.13734913623E+04  0.14641139934E+04  0.10100000352E+00 0.  1.
       -3    1    3    3    0  502  0.17761712161E+03  0.47497727437E+03  0.85450803647E+03  0.99364744635E+03  0.10100000352E+00 0. -1.
</event>
<event>
 5   0  0.1002753E-05  0.2494145E+04  0.7818609E-02  0.8405074E-01
        1   -1    0    0  501    0  0.00000000000E+00  0.00000000000E+00  0.17726200785E+04  0.17726200785E+04  0.50400001928E-02 0. -1.
       -1   -1    0    0    0  501  0.00000000000E+00  0.00000000000E+00 -0.87733953714E+03  0.87733953716E+03  0.50400001928E-02 0.  1.
    10030    2    1    2    0    0  0.00000000000E+00  0.00000000000E+00  0.89528054137E+03  0.26499596157E+04  0.24941448869E+04 0.  0.
        5    1    3    3  502    0 -0.49628109932E+03 -0.10943704790E+04  0.80198058779E+03  0.14446925722E+04  0.46999998093E+01 0.  1.
       -5    1    3    3    0  502  0.49628109932E+03  0.10943704790E+04  0.93299953578E+02  0.12052670435E+04  0.46999998093E+01 0. -1.
</event>
<event>
 5   0  0.1002753E-05  0.2574632E+04  0.7818609E-02  0.8376869E-01
        1   -1    0    0  501    0  0.00000000000E+00  0.00000000000E+00  0.12701054983E+04  0.12701054984E+04  0.50400001928E-02 0. -1.
       -1   -1    0    0    0  501  0.00000000000E+00  0.00000000000E+00 -0.13047598649E+04  0.13047598649E+04  0.50400001928E-02 0.  1.
    10030    2    1    2    0    0  0.00000000000E+00  0.00000000000E+00 -0.34654366593E+02  0.25748653633E+04  0.25746321512E+04 0.  0.
        5    1    3    3  502    0 -0.40059876868E+03 -0.11042080677E+04 -0.54406812131E+03  0.12945219353E+04  0.46999998093E+01 0.  1.
       -5    1    3    3    0  502  0.40059876868E+03  0.11042080677E+04  0.50941375472E+03  0.12803434280E+04  0.46999998093E+01 0. -1.
</event>
<event>
 5   0  0.2441340E-05  0.2490341E+04  0.7818609E-02  0.8406435E-01
        2   -1    0    0  501    0  0.00000000000E+00  0.00000000000E+00  0.21388180080E+04  0.21388180080E+04  0.25500000920E-02 0. -1.
       -2   -1    0    0    0  501  0.00000000000E+00  0.00000000000E+00 -0.72490924786E+03  0.72490924786E+03  0.25500000920E-02 0.  1.
    10030    2    1    2    0    0  0.00000000000E+00  0.00000000000E+00  0.14139087601E+04  0.28637272558E+04  0.24903405016E+04 0.  0.
        3    1    3    3  502    0  0.76956781886E+03  0.39693569268E+03  0.17359084828E+04  0.19398893893E+04  0.10100000352E+00 0. -1.
       -3    1    3    3    0  502 -0.76956781886E+03 -0.39693569268E+03 -0.32199972270E+03  0.92383786650E+03  0.10100000352E+00 0.  1.
</event>
<event>
 5   0  0.2452457E-05  0.2495072E+04  0.7818609E-02  0.8404743E-01
       -2   -1    0    0    0  501  0.00000000000E+00  0.00000000000E+00  0.98566829669E+03  0.98566829669E+03  0.25500000920E-02 0.  1.
        2   -1    0    0  501    0  0.00000000000E+00  0.00000000000E+00 -0.15789756123E+04  0.15789756123E+04  0.25500000920E-02 0. -1.
    10030    2    1    2    0    0  0.00000000000E+00  0.00000000000E+00 -0.59330731561E+03  0.25646439090E+04  0.24950721050E+04 0.  0.
        1    1    3    3  502    0  0.94868065616E+03  0.57295429952E+03  0.29209545696E+03  0.11461201389E+04  0.50400001928E-02 0. -1.
       -1    1    3    3    0  502 -0.94868065616E+03 -0.57295429952E+03 -0.88540277257E+03  0.14185237701E+04  0.50400001928E-02 0.  1.
</event>
<event>
 5   0  0.2432309E-05  0.2511433E+04  0.7818609E-02  0.8398924E-01
       -2   -1    0    0    0  501  0.00000000000E+00  0.00000000000E+00  0.13884385026E+04  0.13884385026E+04  0.25500000920E-02 0. -1.
        2   -1    0    0  501    0  0.00000000000E+00  0.00000000000E+00 -0.11356814927E+04  0.11356814927E+04  0.25500000920E-02 0.  1.
    10030    2    1    2    0    0  0.00000000000E+00  0.00000000000E+00  0.25275700993E+03  0.25241199953E+04  0.25114329863E+04 0.  0.
        4    1    3    3  502    0 -0.12142064210E+04  0.27803634078E+03  0.28599153347E+03  0.12780431173E+04  0.12699999809E+01 0. -1.
       -4    1    3    3    0  502  0.12142064210E+04 -0.27803634078E+03 -0.33234523541E+02  0.12460768780E+04  0.12699999809E+01 0.  1.
</event>
<event>
 5   0  0.1010338E-05  0.2490547E+04  0.7818609E-02  0.8406361E-01
        1   -1    0    0  501    0  0.00000000000E+00  0.00000000000E+00  0.14595129014E+04  0.14595129014E+04  0.50400001928E-02 0.  1.
       -1   -1    0    0    0  501  0.00000000000E+00  0.00000000000E+00 -0.10624822721E+04  0.10624822721E+04  0.50400001928E-02 0. -1.
    10030    2    1    2    0    0  0.00000000000E+00  0.00000000000E+00  0.39703062929E+03  0.25219951735E+04  0.24905473966E+04 0.  0.
        2    1    3    3  502    0 -0.91247728168E+03  0.49277335598E+03 -0.49958512408E+03  0.11510975919E+04  0.25500000920E-02 0. -1.
       -2    1    3    3    0  502  0.91247728168E+03 -0.49277335598E+03  0.89661575337E+03  0.13708975816E+04  0.25500000920E-02 0.  1.
</event>
<event>
 5   0  0.2345143E-05  0.2479694E+04  0.7818609E-02  0.8410256E-01
       -2   -1    0    0    0  501  0.00000000000E+00  0.00000000000E+00  0.14180177128E+04  0.14180177128E+04  0.25500000920E-02 0.  1.
        2   -1    0    0  501    0  0.00000000000E+00  0.00000000000E+00 -0.10840629230E+04  0.10840629230E+04  0.25500000920E-02 0. -1.
    10030    2    1    2    0    0  0.00000000000E+00  0.00000000000E+00  0.33395478978E+03  0.25020806358E+04  0.24796938735E+04 0.  0.
        5    1    3    3  502    0 -0.30337706818E+03 -0.74558108572E+03  0.11185018183E+04  0.13780410765E+04  0.46999998093E+01 0.  1.
       -5    1    3    3    0  502  0.30337706818E+03  0.74558108572E+03 -0.78454702854E+03  0.11240395593E+04  0.46999998093E+01 0. -1.
</event>
<event>
 5   0  0.1015327E-05  0.2494682E+04  0.7818609E-02  0.8404883E-01
       -1   -1    0    0    0  501  0.00000000000E+00  0.00000000000E+00  0.84381266764E+03  0.84381266765E+03  0.50400001928E-02 0.  1.
        1   -1    0    0  501    0  0.00000000000E+00  0.00000000000E+00 -0.18438442944E+04  0.18438442944E+04  0.50400001928E-02 0. -1.
    10030    2    1    2    0    0  0.00000000000E+00  0.00000000000E+00 -0.10000316267E+04  0.26876569620E+04  0.24946816813E+04 0.  0.
        4    1    3    3  502    0  0.70204169814E+03 -0.10091346226E+04 -0.72764718412E+03  0.14285262580E+04  0.12699999809E+01 0.  1.
       -4    1    3    3    0  502 -0.70204169814E+03  0.10091346226E+04 -0.27238444262E+03  0.12591307040E+04  0.12699999809E+01 0. -1.
</event>
<event>
 5   0  0.2452457E-05  0.2478906E+04  0.7818609E-02  0.8410539E-01
        2   -1    0    0  501    0  0.00000000000E+00  0.00000000000E+00  0.28239279385E+04  0.28239279385E+04  0.25500000920E-02 0.  1.
       -2   -1    0    0    0  501  0.00000000000E+00  0.00000000000E+00 -0.54400964080E+03  0.54400964081E+03  0.25500000920E-02 0. -1.
    10030    2    1    2    0    0  0.00000000000E+00  0.00000000000E+00  0.22799182977E+04  0.33679375793E+04  0.24789062294E+04 0.  0.
        1    1    3    3  502    0 -0.18826783313E+02  0.39848031602E+03 -0.45440363827E+03  0.60466823674E+03  0.50400001928E-02 0. -1.
       -1    1    3    3    0  502  0.18826783313E+02 -0.39848031602E+03  0.27343219360E+04  0.27632693426E+04  0.50400001928E-02 0.  1.
</event>
<event>
 5   0  0.8166500E-06  0.2488301E+04  0.7818609E-02  0.8407165E-01
       -4   -1    0    0    0  501  0.00000000000E+00  0.00000000000E+00  0.17099887842E+04  0.17099892558E+04  0.12699999809E+01 0.  1.
        4   -1    0    0  501    0  0.00000000000E+00  0.00000000000E+00 -0.90521554811E+03  0.90521643900E+03  0.12699999809E+01 0. -1.
    10030    2    1    2    0    0  0.00000000000E+00  0.00000000000E+00  0.80477323611E+03  0.26152056948E+04  0.24883007987E+04 0.  0.
        2    1    3    3  502    0 -0.16871243156E+03  0.10664798356E+04  0.10520266674E+04  0.15075155831E+04  0.25500000920E-02 0.  1.
       -2    1    3    3    0  502  0.16871243156E+03 -0.10664798356E+04 -0.24725343125E+03  0.11076901117E+04  0.25500000920E-02 0. -1.
</event>
<event>
 5   0  0.2388326E-05  0.2460939E+04  0.7818609E-02  0.8417035E-01
        2   -1    0    0  501    0  0.00000000000E+00  0.00000000000E+00  0.10767379646E+04  0.10767379646E+04  0.25500000920E-02 0. -1.
       -2   -1    0    0    0  501  0.00000000000E+00  0.00000000000E+00 -0.14061498589E+04  0.14061498589E+04  0.25500000920E-02 0.  1.
    10030    2    1    2    0    0  0.00000000000E+00  0.00000000000E+00 -0.32941189423E+03  0.24828878235E+04  0.24609387940E+04 0.  0.
        2    1    3    3  502    0 -0.60084569280E+03  0.33780299010E+03  0.86366339871E+03  0.11050071823E+04  0.25500000920E-02 0. -1.
       -2    1    3    3    0  502  0.60084569280E+03 -0.33780299010E+03 -0.11930752929E+04  0.13778806412E+04  0.25500000920E-02 0.  1.
</event>
<event>
 5   0  0.1008073E-05  0.2513363E+04  0.7818609E-02  0.8398240E-01
       -1   -1    0    0    0  501  0.00000000000E+00  0.00000000000E+00  0.13201783571E+04  0.13201783571E+04  0.50400001928E-02 0. -1.
        1   -1    0    0  501    0  0.00000000000E+00  0.00000000000E+00 -0.11962386851E+04  0.11962386851E+04  0.50400001928E-02 0.  1.
    10030    2    1    2    0    0  0.00000000000E+00  0.00000000000E+00  0.12393967197E+03  0.25164170422E+04  0.25133630235E+04 0.  0.
        1    1    3    3  502    0  0.34744883201E+03  0.11417086254E+04  0.45618567843E+03  0.12776246120E+04  0.50400001928E-02 0. -1.
       -1    1    3    3    0  502 -0.34744883201E+03 -0.11417086254E+04 -0.33224600645E+03  0.12387924301E+04  0.50400001928E-02 0.  1.
</event>
<event>
 5   0  0.1015327E-05  0.2491284E+04  0.7818609E-02  0.8406097E-01
        1   -1    0    0  501    0  0.00000000000E+00  0.00000000000E+00  0.16678909004E+04  0.16678909004E+04  0.50400001928E-02 0. -1.
       -1   -1    0    0    0  501  0.00000000000E+00  0.00000000000E+00 -0.93029112675E+03  0.93029112676E+03  0.50400001928E-02 0.  1.
    10030    2    1    2    0    0  0.00000000000E+00  0.00000000000E+00  0.73759977364E+03  0.25981820272E+04  0.24912840906E+04 0.  0.
        4    1    3    3  502    0  0.11981183162E+03  0.12130134647E+04  0.63645577708E+03  0.13750760377E+04  0.12699999809E+01 0. -1.
       -4    1    3    3    0  502 -0.11981183162E+03 -0.12130134647E+04  0.10114399655E+03  0.12231059894E+04  0.12699999809E+01 0.  1.
</event>
<event>
 5   0  0.2388326E-05  0.2472071E+04  0.7818609E-02  0.8413003E-01
        2   -1    0    0  501    0  0.00000000000E+00  0.00000000000E+00  0.77963523367E+03  0.77963523368E+03  0.25500000920E-02 0.  1.
       -2   -1    0    0    0  501  0.00000000000E+00  0.00000000000E+00 -0.19596142877E+04  0.19596142877E+04  0.25500000920E-02 0. -1.
    10030    2    1    2    0    0  0.00000000000E+00  0.00000000000E+00 -0.11799790540E+04  0.27392495214E+04  0.24720714740E+04 0.  0.
        2    1    3    3  502    0  0.11589596161E+04 -0.29998316185E+03 -0.93081522340E+03  0.15164413174E+04  0.25500000920E-02 0. -1.
       -2    1    3    3    0  502 -0.11589596161E+04  0.29998316185E+03 -0.24916383064E+03  0.12228082039E+04  0.25500000920E-02 0.  1.
</event>
<event>
 5   0  0.2345143E-05  0.2509888E+04  0.7818609E-02  0.8399471E-01
        2   -1    0    0  501    0  0.00000000000E+00  0.00000000000E+00  0.12390590534E+04  0.12390590534E+04  0.25500000920E-02 0.  1.
       -2   -1    0    0    0  501  0.00000000000E+00  0.00000000000E+00 -0.12710329365E+04  0.12710329365E+04  0.25500000920E-02 0. -1.
    10030    2    1    2    0    0  0.00000000000E+00  0.00000000000E+00 -0.31973883155E+02  0.25100919899E+04  0.25098883378E+04 0.  0.
        5    1    3    3  502    0  0.14893913100E+03 -0.16421329236E+03 -0.12512850876E+04  0.12707813858E+04  0.46999998093E+01 0. -1.
       -5    1    3    3    0  502 -0.14893913100E+03  0.16421329236E+03  0.12193112044E+04  0.12393106041E+04  0.46999998093E+01 0.  1.
</event>
<event>
 5   0  0.1008073E-05  0.2524531E+04  0.7818609E-02  0.8394298E-01
       -1   -1    0    0    0  501  0.00000000000E+00  0.00000000000E+00  0.10581589589E+04  0.10581589589E+04  0.50400001928E-02 0. -1.
        1   -1    0    0  501    0  0.00000000000E+00  0.00000000000E+00 -0.15057418771E+04  0.15057418771E+04  0.50400001928E-02 0.  1.
    10030    2    1    2    0    0  0.00000000000E+00  0.00000000000E+00 -0.44758291824E+03  0.25639008361E+04  0.25245310512E+04 0.  0.
        1    1    3    3  502    0 -0.12342914880E+04  0.18091795343E+03 -0.28154365384E+02  0.12477978408E+04  0.50400001928E-02 0.  1.
       -1    1    3    3    0  502  0.12342914880E+04 -0.18091795343E+03 -0.41942855285E+03  0.13161029953E+04  0.50400001928E-02 0. -1.
</event>
<event>
 5   0  0.1010338E-05  0.2501361E+04  0.7818609E-02  0.8402501E-01
        1   -1    0    0  501    0  0.00000000000E+00  0.00000000000E+00  0.11427903990E+04  0.11427903990E+04  0.50400001928E-02 0. -1.
       -1   -1    0    0    0  501  0.00000000000E+00  0.00000000000E+00 -0.13687561651E+04  0.13687561651E+04  0.50400001928E-02 0.  1.
    10030    2    1    2    0    0  0.00000000000E+00  0.00000000000E+00 -0.22596576609E+03  0.25115465640E+04  0.25013607528E+04 0.  0.
        2    1    3    3  502    0 -0.10698413259E+04 -0.25132157510E+03  0.48650652929E+03  0.12018367609E+04  0.25500000920E-02 0.  1.
       -2    1    3    3    0  502  0.10698413259E+04  0.25132157510E+03 -0.71247229539E+03  0.13097098032E+04  0.25500000920E-02 0. -1.
</event>
<event>
 5   0  0.2432309E-05  0.2511502E+04  0.7818609E-02  0.8398899E-01
       -2   -1    0    0    0  501  0.00000000000E+00  0.00000000000E+00  0.13741302700E+04  0.13741302700E+04  0.25500000920E-02 0.  1.
        2   -1    0    0  501    0  0.00000000000E+00  0.00000000000E+00 -0.11475702190E+04  0.11475702190E+04  0.25500000920E-02 0. -1.
    10030    2    1    2    0    0  0.00000000000E+00  0.00000000000E+00  0.22656005095E+03  0.25217004890E+04  0.25115023193E+04 0.  0.
        4    1    3    3  502    0  0.73489354876E+03 -0.57810965217E+03  0.95491404815E+03  0.13364661426E+04  0.12699999809E+01 0.  1.
       -4    1    3    3    0  502 -0.73489354876E+03  0.57810965217E+03 -0.72835399720E+03  0.11852343465E+04  0.12699999809E+01 0. -1.
</event>
<event>
 5   0  0.8166500E-06  0.2457964E+04  0.7818609E-02  0.8418116E-01
       -3   -1    0    0    0  501  0.00000000000E+00  0.00000000000E+00  0.21288288751E+04  0.21288288774E+04  0.10100000352E+00 0. -1.
        3   -1    0    0  501    0  0.00000000000E+00  0.00000000000E+00 -0.70949661403E+03  0.70949662122E+03  0.10100000352E+00 0.  1.
    10030    2    1    2    0    0  0.00000000000E+00  0.00000000000E+00  0.14193322610E+04  0.28383254987E+04  0.24579641106E+04 0.  0.
        3    1    3    3  502    0 -0.30250706540E+03 -0.89942448440E+03  0.16114942953E+04  0.18701306911E+04  0.10100000352E+00 0. -1.
       -3    1    3    3    0  502  0.30250706540E+03  0.89942448440E+03 -0.19216203429E+03  0.96819480756E+03  0.10100000352E+00 0.  1.
</event>
<event>
 5   0  0.2432309E-05  0.2494012E+04  0.7818609E-02  0.8405122E-01
        2   -1    0    0  501    0  0.00000000000E+00  0.00000000000E+00  0.16980613530E+04  0.16980613530E+04  0.25500000920E-02 0. -1.
       -2   -1    0    0    0  501  0.00000000000E+00  0.00000000000E+00 -0.91576404226E+03  0.91576404227E+03  0.25500000920E-02 0.  1.
    10030    2    1    2    0    0  0.00000000000E+00  0.00000000000E+00  0.78229731077E+03  0.26138253953E+04  0.24940116509E+04 0.  0.
        4    1    3    3  502    0 -0.10546521159E+04 -0.37626772005E+02  0.10873782299E+04  0.15152887142E+04  0.12699999809E+01 0.  1.
       -4    1    3    3    0  502  0.10546521159E+04  0.37626772005E+02 -0.30508091916E+03  0.10985366811E+04  0.12699999809E+01 0. -1.
</event>
<event>
 5   0  0.2432309E-05  0.2509881E+04  0.7818609E-02  0.8399474E-01
        2   -1    0    0  501    0  0.00000000000E+00  0.00000000000E+00  0.30068875747E+04  0.30068875747E+04  0.25500000920E-02 0.  1.
       -2   -1    0    0    0  501  0.00000000000E+00  0.00000000000E+00 -0.52375614422E+03  0.52375614422E+03  0.25500000920E-02 0. -1.
    10030    2    1    2    0    0  0.00000000000E+00  0.00000000000E+00  0.24831314305E+04  0.35306437189E+04  0.25098811464E+04 0.  0.
        4    1    3    3  502    0 -0.92105581882E+02 -0.29117310782E+03 -0.47068573977E+03  0.56108100615E+03  0.12699999809E+01 0. -1.
       -4    1    3    3    0  502  0.92105581882E+02  0.29117310782E+03  0.29538171703E+04  0.29695627128E+04  0.12699999809E+01 0.  1.
</event>
<event>
 5   0  0.2345143E-05  0.2498392E+04  0.7818609E-02  0.8403559E-01
        2   -1    0    0  501    0  0.00000000000E+00  0.00000000000E+00  0.12179796510E+04  0.12179796510E+04  0.25500000920E-02 0. -1.
       -2   -1    0    0    0  501  0.00000000000E+00  0.00000000000E+00 -0.12812127171E+04  0.12812127171E+04  0.25500000920E-02 0.  1.
    10030    2    1    2    0    0  0.00000000000E+00  0.00000000000E+00 -0.63233066134E+02  0.24991923681E+04  0.24983922975E+04 0.  0.
        5    1    3    3  502    0  0.45920379007E+03  0.59026452149E+03  0.96929801584E+03  0.12242716445E+04  0.46999998093E+01 0. -1.
       -5    1    3    3    0  502 -0.45920379007E+03 -0.59026452149E+03 -0.10325310820E+04  0.12749207236E+04  0.46999998093E+01 0.  1.
</event>
<event>
 5   0  0.1010338E-05  0.2477118E+04  0.7818609E-02  0.8411183E-01
        1   -1    0    0  501    0  0.00000000000E+00  0.00000000000E+00  0.99324542581E+03  0.99324542582E+03  0.50400001928E-02 0.  1.
       -1   -1    0    0    0  501  0.00000000000E+00  0.00000000000E+00 -0.15444611081E+04  0.15444611081E+04  0.50400001928E-02 0. -1.
    10030    2    1    2    0    0  0.00000000000E+00  0.00000000000E+00 -0.55121568229E+03  0.25377065339E+04  0.24771184316E+04 0.  0.
        2    1    3    3  502    0  0.48092248547E+03  0.21925832722E+02 -0.14446865997E+04  0.15227890696E+04  0.25500000920E-02 0. -1.
       -2    1    3    3    0  502 -0.48092248547E+03 -0.21925832722E+02  0.89347091739E+03  0.10149174643E+04  0.25500000920E-02 0.  1.
</event>
<event>
 5   0  0.1008073E-05  0.2499696E+04  0.7818609E-02  0.8403094E-01
        1   -1    0    0  501    0  0.00000000000E+00  0.00000000000E+00  0.94105010074E+03  0.94105010075E+03  0.50400001928E-02 0.  1.
       -1   -1    0    0    0  501  0.00000000000E+00  0.00000000000E+00 -0.16599759765E+04  0.16599759765E+04  0.50400001928E-02 0. -1.
    10030    2    1    2    0    0  0.00000000000E+00  0.00000000000E+00 -0.71892587577E+03  0.26010260773E+04  0.24996964295E+04 0.  0.
        1    1    3    3  502    0  0.10741572804E+04 -0.49468455299E+03  0.61400284570E+02  0.11841860770E+04  0.50400001928E-02 0.  1.
       -1    1    3    3    0  502 -0.10741572804E+04  0.49468455299E+03 -0.78032616034E+03  0.14168400003E+04  0.50400001928E-02 0. -1.
</event>
<event>
 5   0  0.8166500E-06  0.2530254E+04  0.7818609E-02  0.8392286E-01
        3   -1    0    0  501    0  0.00000000000E+00  0.00000000000E+00  0.96003271359E+03  0.96003271891E+03  0.10100000352E+00 0. -1.
       -3   -1    0    0    0  501  0.00000000000E+00  0.00000000000E+00 -0.16671785447E+04  0.16671785477E+04  0.10100000352E+00 0.  1.
    10030    2    1    2    0    0  0.00000000000E+00  0.00000000000E+00 -0.70714583106E+03  0.26272112666E+04  0.25302537053E+04 0.  0.
        4    1    3    3  502    0 -0.77331659887E+03  0.35020701618E+03 -0.13275368038E+04  0.15757598468E+04  0.12699999809E+01 0.  1.
       -4    1    3    3    0  502  0.77331659887E+03 -0.35020701618E+03  0.62039097278E+03  0.10514514198E+04  0.12699999809E+01 0. -1.
</event>
<event>
 5   0  0.2452457E-05  0.2522259E+04  0.7818609E-02  0.8395098E-01
        2   -1    0    0  501    0  0.00000000000E+00  0.00000000000E+00  0.10699585288E+04  0.10699585288E+04  0.25500000920E-02 0.  1.
       -2   -1    0    0    0  501  0.00000000000E+00  0.00000000000E+00 -0.14864573376E+04  0.14864573376E+04  0.25500000920E-02 0. -1.
    10030    2    1    2    0    0  0.00000000000E+00  0.00000000000E+00 -0.41649880876E+03  0.25564158664E+04  0.25222590716E+04 0.  0.
        1    1    3    3  502    0  0.64199806030E+03  0.90533800589E+03  0.39873397656E+03  0.11793164115E+04  0.50400001928E-02 0.  1.
       -1    1    3    3    0  502 -0.64199806030E+03 -0.90533800589E+03 -0.81523278532E+03  0.13770994549E+04  0.50400001928E-02 0. -1.
</event>
<event>
 5   0  0.2345143E-05  0.2502245E+04  0.7818609E-02  0.8402186E-01
       -2   -1    0    0    0  501  0.00000000000E+00  0.00000000000E+00  0.74721029282E+03  0.74721029283E+03  0.25500000920E-02 0.  1.
        2   -1    0    0  501    0  0.00000000000E+00  0.00000000000E+00 -0.20948695688E+04  0.20948695688E+04  0.25500000920E-02 0. -1.
    10030    2    1    2    0    0  0.00000000000E+00  0.00000000000E+00 -0.13476592760E+04  0.28420798617E+04  0.25022454747E+04 0.  0.
        5    1    3    3  502    0  0.25389120437E+03 -0.31342824669E+02 -0.20648364290E+04  0.20806284351E+04  0.46999998093E+01 0. -1.
       -5    1    3    3    0  502 -0.25389120437E+03  0.31342824669E+02  0.71717715298E+03  0.76145142660E+03  0.46999998093E+01 0.  1.
</event>
<event>
 5   0  0.2432309E-05  0.2362960E+04  0.7818609E-02  0.8453502E-01
       -2   -1    0    0    0  501  0.00000000000E+00  0.00000000000E+00  0.90710299317E+03  0.90710299317E+03  0.25500000920E-02 0.  1.
        2   -1    0    0  501    0  0.00000000000E+00  0.00000000000E+00 -0.15388499516E+04  0.15388499516E+04  0.25500000920E-02 0. -1.
    10030    2    1    2    0    0  0.00000000000E+00  0.00000000000E+00 -0.63174695840E+03  0.24459529448E+04  0.23629603442E+04 0.  0.
        4    1    3    3  502    0 -0.49885803101E+03  0.91718583313E+03 -0.88829198953E+03  0.13708221836E+04  0.12699999809E+01 0. -1.
       -4    1    3    3    0  502  0.49885803101E+03 -0.91718583313E+03  0.25654503112E+03  0.10751307611E+04  0.12699999809E+01 0.  1.
</event>
<event>
 5   0  0.1002753E-05  0.2478788E+04  0.7818609E-02  0.8410582E-01
       -1   -1    0    0    0  501  0.00000000000E+00  0.00000000000E+00  0.76040919412E+03  0.76040919414E+03  0.50400001928E-02 0.  1.
        1   -1    0    0  501    0  0.00000000000E+00  0.00000000000E+00 -0.20200929877E+04  0.20200929877E+04  0.50400001928E-02 0. -1.
    10030    2    1    2    0    0  0.00000000000E+00  0.00000000000E+00 -0.12596837936E+04  0.27805021819E+04  0.24787878335E+04 0.  0.
        5    1    3    3  502    0  0.10849866331E+04 -0.54332117402E+03 -0.91290928652E+03  0.15184924589E+04  0.46999998093E+01 0. -1.
       -5    1    3    3    0  502 -0.10849866331E+04  0.54332117402E+03 -0.34677450708E+03  0.12620097230E+04  0.46999998093E+01 0.  1.
</event>
<event>
 5   0  0.1039688E-05  0.2526089E+04  0.7818609E-02  0.8393750E-01
        1   -1    0    0  501    0  0.00000000000E+00  0.00000000000E+00  0.17275658879E+04  0.17275658879E+04  0.50400001928E-02 0. -1.
       -1   -1    0    0    0  501  0.00000000000E+00  0.00000000000E+00 -0.92342730206E+03  0.92342730207E+03  0.50400001928E-02 0.  1.
    10030    2    1    2    0    0  0.00000000000E+00  0.00000000000E+00  0.80413858586E+03  0.26509931900E+04  0.25260890776E+04 0.  0.
        3    1    3    3  502    0 -0.10228661465E+04 -0.62622011724E+02 -0.37274917712E+03  0.10904671611E+04  0.10100000352E+00 0.  1.
       -3    1    3    3    0  502  0.10228661465E+04  0.62622011724E+02  0.11768877630E+04  0.15605260289E+04  0.10100000352E+00 0. -1.
</event>
<event>
 5   0  0.1010338E-05  0.2509585E+04  0.7818609E-02  0.8399579E-01
        1   -1    0    0  501    0  0.00000000000E+00  0.00000000000E+00  0.19354711064E+04  0.19354711064E+04  0.50400001928E-02 0. -1.
       -1   -1    0    0    0  501  0.00000000000E+00  0.00000000000E+00 -0.81349953024E+03  0.81349953025E+03  0.50400001928E-02 0.  1.
    10030    2    1    2    0    0  0.00000000000E+00  0.00000000000E+00  0.11219715762E+04  0.27489706367E+04  0.25095854924E+04 0.  0.
        2    1    3    3  502    0 -0.50986223515E+03 -0.34749518463E+03  0.17578159260E+04  0.18629624881E+04  0.25500000920E-02 0. -1.
       -2    1    3    3    0  502  0.50986223515E+03  0.34749518463E+03 -0.63584434984E+03  0.88600814861E+03  0.25500000920E-02 0.  1.
</event>
<event>
 5   0  0.1010338E-05  0.2493299E+04  0.7818609E-02  0.8405377E-01
        1   -1    0    0  501    0  0.00000000000E+00  0.00000000000E+00  0.13430357549E+04  0.13430357549E+04  0.50400001928E-02 0.  1.
       -1   -1    0    0    0  501  0.00000000000E+00  0.00000000000E+00 -0.11571803910E+04  0.11571803910E+04  0.50400001928E-02 0. -1.
    10030    2    1    2    0    0  0.00000000000E+00  0.00000000000E+00  0.18585536387E+03  0.25002161459E+04  0.24932987306E+04 0.  0.
        2    1    3    3  502    0 -0.50241736206E+03 -0.48055661674E+03  0.11305820304E+04  0.13272428546E+04  0.25500000920E-02 0.  1.
       -2    1    3    3    0  502  0.50241736206E+03  0.48055661674E+03 -0.94472666654E+03  0.11729732913E+04  0.25500000920E-02 0. -1.
</event>
<event>
 5   0  0.1002753E-05  0.2507029E+04  0.7818609E-02  0.8400486E-01
        1   -1    0    0  501    0  0.00000000000E+00  0.00000000000E+00  0.20034702962E+04  0.20034702963E+04  0.50400001928E-02 0. -1.
       -1   -1    0    0    0  501  0.00000000000E+00  0.00000000000E+00 -0.78428862945E+03  0.78428862946E+03  0.50400001928E-02 0.  1.
    10030    2    1    2    0    0  0.00000000000E+00  0.00000000000E+00  0.12191816668E+04  0.27877589257E+04  0.25070292961E+04 0.  0.
        5    1    3    3  502    0 -0.11214621129E+04  0.18597956051E+03  0.22227764430E+02  0.11370056425E+04  0.46999998093E+01 0. -1.
       -5    1    3    3    0  502  0.11214621129E+04 -0.18597956051E+03  0.11969539024E+04  0.16507532832E+04  0.46999998093E+01 0.  1.
</event>
<event>
 5   0  0.2452457E-05  0.2517849E+04  0.7818609E-02  0.8396654E-01
        2   -1    0    0  501    0  0.00000000000E+00  0.00000000000E+00  0.15600115068E+04  0.15600115068E+04  0.25500000920E-02 0. -1.
       -2   -1    0    0    0  501  0.00000000000E+00  0.00000000000E+00 -0.10159484540E+04  0.10159484540E+04  0.25500000920E-02 0.  1.
    10030    2    1    2    0    0  0.00000000000E+00  0.00000000000E+00  0.54406305275E+03  0.25759599608E+04  0.25178493033E+04 0.  0.
        1    1    3    3  502    0 -0.40118585971E+03  0.11222693853E+04 -0.14285541134E+03  0.12003525881E+04  0.50400001928E-02 0. -1.
       -1    1    3    3    0  502  0.40118585971E+03 -0.11222693853E+04  0.68691846409E+03  0.13756073726E+04  0.50400001928E-02 0.  1.
</event>
<event>
 5   0  0.1015327E-05  0.2216216E+04  0.7818609E-02  0.8511709E-01
        1   -1    0    0  501    0  0.00000000000E+00  0.00000000000E+00  0.18749067944E+04  0.18749067944E+04  0.50400001928E-02 0.  1.
       -1   -1    0    0    0  501  0.00000000000E+00  0.00000000000E+00 -0.65491453365E+03  0.65491453367E+03  0.50400001928E-02 0. -1.
    10030    2    1    2    0    0  0.00000000000E+00  0.00000000000E+00  0.12199922608E+04  0.25298213281E+04  0.22162163333E+04 0.  0.
        4    1    3    3  502    0 -0.97273938692E+03  0.53035751118E+03  0.63285735220E+03  0.12759353611E+04  0.12699999809E+01 0.  1.
       -4    1    3    3    0  502  0.97273938692E+03 -0.53035751118E+03  0.58713490858E+03  0.12538859670E+04  0.12699999809E+01 0. -1.
</event>
<event>
 5   0  0.1008073E-05  0.2552994E+04  0.7818609E-02  0.8384346E-01
       -1   -1    0    0    0  501  0.00000000000E+00  0.00000000000E+00  0.14489754431E+04  0.14489754431E+04  0.50400001928E-02 0. -1.
        1   -1    0    0  501    0  0.00000000000E+00  0.00000000000E+00 -0.11245491907E+04  0.11245491907E+04  0.50400001928E-02 0.  1.
    10030    2    1    2    0    0  0.00000000000E+00  0.00000000000E+00  0.32442625241E+03  0.25735246339E+04  0.25529936639E+04 0.  0.
        1    1    3    3  502    0  0.42595478261E+03 -0.40360845613E+03 -0.98052895460E+03  0.11427048147E+04  0.50400001928E-02 0.  1.
       -1    1    3    3    0  502 -0.42595478261E+03  0.40360845613E+03  0.13049552070E+04  0.14308198192E+04  0.50400001928E-02 0. -1.
</event>
<event>
 5   0  0.2432309E-05  0.2505252E+04  0.7818609E-02  0.8401117E-01
        2   -1    0    0  501    0  0.00000000000E+00  0.00000000000E+00  0.12715409349E+04  0.12715409349E+04  0.25500000920E-02 0.  1.
       -2   -1    0    0    0  501  0.00000000000E+00  0.00000000000E+00 -0.12339924733E+04  0.12339924733E+04  0.25500000920E-02 0. -1.
    10030    2    1    2    0    0  0.00000000000E+00  0.00000000000E+00  0.37548461604E+02  0.25055334082E+04  0.25052520377E+04 0.  0.
        4    1    3    3  502    0 -0.61719906572E+03  0.94258237732E+03 -0.52871222871E+03  0.12445619544E+04  0.12699999809E+01 0.  1.
       -4    1    3    3    0  502  0.61719906572E+03 -0.94258237732E+03  0.56626069032E+03  0.12609714537E+04  0.12699999809E+01 0. -1.
</event>
<event>
 5   0  0.1002753E-05  0.2421615E+04  0.7818609E-02  0.8431455E-01
       -1   -1    0    0    0  501  0.00000000000E+00  0.00000000000E+00  0.95345431293E+03  0.95345431294E+03  0.50400001928E-02 0. -1.
        1   -1    0    0  501    0  0.00000000000E+00  0.00000000000E+00 -0.15376240626E+04  0.15376240626E+04  0.50400001928E-02 0.  1.
    10030    2    1    2    0    0  0.00000000000E+00  0.00000000000E+00 -0.58416974970E+03  0.24910783756E+04  0.24216145806E+04 0.  0.
        5    1    3    3  502    0  0.80565625502E+03  0.30686336407E+03  0.58246978482E+03  0.10404519526E+04  0.46999998093E+01 0. -1.
       -5    1    3    3    0  502 -0.80565625502E+03 -0.30686336407E+03 -0.11666395345E+04  0.14506264230E+04  0.46999998093E+01 0.  1.
</event>
<event>
 5   0  0.8166500E-06  0.2050026E+04  0.7818609E-02  0.8583583E-01
       -3   -1    0    0    0  501  0.00000000000E+00  0.00000000000E+00  0.10580758009E+04  0.10580758057E+04  0.10100000352E+00 0. -1.
        3   -1    0    0  501    0  0.00000000000E+00  0.00000000000E+00 -0.99298303054E+03  0.99298303568E+03  0.10100000352E+00 0.  1.
    10030    2    1    2    0    0  0.00000000000E+00  0.00000000000E+00  0.65092770385E+02  0.20510588414E+04  0.20500256833E+04 0.  0.
        4    1    3    3  502    0  0.61609024591E+02  0.10191770885E+04  0.12277000683E+03  0.10283927737E+04  0.12699999809E+01 0. -1.
       -4    1    3    3    0  502 -0.61609024591E+02 -0.10191770885E+04 -0.57677236445E+02  0.10226660677E+04  0.12699999809E+01 0.  1.
</event>
<event>
 5   0  0.1015327E-05  0.2515748E+04  0.7818609E-02  0.8397397E-01
       -1   -1    0    0    0  501  0.00000000000E+00  0.00000000000E+00  0.13740759316E+04  0.13740759316E+04  0.50400001928E-02 0. -1.
        1   -1    0    0  501    0  0.00000000000E+00  0.00000000000E+00 -0.11514992042E+04  0.11514992042E+04  0.50400001928E-02 0.  1.
    10030    2    1    2    0    0  0.00000000000E+00  0.00000000000E+00  0.22257672736E+03  0.25255751358E+04  0.25157482718E+04 0.  0.
        4    1    3    3  502    0 -0.11174546972E+04 -0.46095505479E+03  0.46058591113E+03  0.12935708552E+04  0.12699999809E+01 0. -1.
       -4    1    3    3    0  502  0.11174546972E+04  0.46095505479E+03 -0.23800918377E+03  0.12320042806E+04  0.12699999809E+01 0.  1.
</event>
<event>
 5   0  0.2452457E-05  0.2480060E+04  0.7818609E-02  0.8410124E-01
       -2   -1    0    0    0  501  0.00000000000E+00  0.00000000000E+00  0.17247064650E+04  0.17247064650E+04  0.25500000920E-02 0. -1.
        2   -1    0    0  501    0  0.00000000000E+00  0.00000000000E+00 -0.89155721107E+03  0.89155721107E+03  0.25500000920E-02 0.  1.
    10030    2    1    2    0    0  0.00000000000E+00  0.00000000000E+00  0.83314925393E+03  0.26162636761E+04  0.24800600685E+04 0.  0.
        1    1    3    3  502    0  0.10730556676E+04 -0.48830844935E+03  0.82210971223E+03  0.14372744993E+04  0.50400001928E-02 0. -1.
       -1    1    3    3    0  502 -0.10730556676E+04  0.48830844935E+03  0.11039541703E+02  0.11789891768E+04  0.50400001928E-02 0.  1.
</event>
<event>
 5   0  0.1015327E-05  0.2432348E+04  0.7818609E-02  0.8427491E-01
        1   -1    0    0  501    0  0.00000000000E+00  0.00000000000E+00  0.11295241498E+04  0.11295241498E+04  0.50400001928E-02 0.  1.
       -1   -1    0    0    0  501  0.00000000000E+00  0.00000000000E+00 -0.13094707351E+04  0.13094707352E+04  0.50400001928E-02 0. -1.
    10030    2    1    2    0    0  0.00000000000E+00  0.00000000000E+00 -0.17994658534E+03  0.24389948850E+04  0.24323476880E+04 0.  0.
        4    1    3    3  502    0 -0.82798416130E+03  0.45185149859E+03  0.67981579935E+03  0.11627031788E+04  0.12699999809E+01 0.  1.
       -4    1    3    3    0  502  0.82798416130E+03 -0.45185149859E+03 -0.85976238468E+03  0.12762917061E+04  0.12699999809E+01 0. -1.
</event>
<event>
 5   0  0.2452457E-05  0.2519793E+04  0.7818609E-02  0.8395968E-01
        2   -1    0    0  501    0  0.00000000000E+00  0.00000000000E+00  0.23650121430E+04  0.23650121430E+04  0.25500000920E-02 0.  1.
       -2   -1    0    0    0  501  0.00000000000E+00  0.00000000000E+00 -0.67117613928E+03  0.67117613928E+03  0.25500000920E-02 0. -1.
    10030    2    1    2    0    0  0.00000000000E+00  0.00000000000E+00  0.16938360037E+04  0.30361882823E+04  0.25197934197E+04 0.  0.
        1    1    3    3  502    0  0.37979089125E+03  0.11093104004E+04  0.29143228489E+03  0.12081984366E+04  0.50400001928E-02 0. -1.
       -1    1    3    3    0  502 -0.37979089125E+03 -0.11093104004E+04  0.14024037188E+04  0.18279898457E+04  0.50400001928E-02 0.  1.
</event>
<event>
 5   0  0.2441340E-05  0.2519911E+04  0.7818609E-02  0.8395926E-01
        2   -1    0    0  501    0  0.00000000000E+00  0.00000000000E+00  0.14831756998E+04  0.14831756998E+04  0.25500000920E-02 0. -1.
       -2   -1    0    0    0  501  0.00000000000E+00  0.00000000000E+00 -0.10703298944E+04  0.10703298944E+04  0.25500000920E-02 0.  1.
    10030    2    1    2    0    0  0.00000000000E+00  0.00000000000E+00  0.41284580541E+03  0.25535055941E+04  0.25199105461E+04 0.  0.
        3    1    3    3  502    0  0.11114792781E+03 -0.60470048668E+03  0.13208441214E+04  0.14569302467E+04  0.10100000352E+00 0. -1.
       -3    1    3    3    0  502 -0.11114792781E+03  0.60470048668E+03 -0.90799831602E+03  0.10965753474E+04  0.10100000352E+00 0.  1.
</event>
<event>
 5   0  0.2441340E-05  0.2491576E+04  0.7818609E-02  0.8405993E-01
       -2   -1    0    0    0  501  0.00000000000E+00  0.00000000000E+00  0.68146299771E+03  0.68146299772E+03  0.25500000920E-02 0.  1.
        2   -1    0    0  501    0  0.00000000000E+00  0.00000000000E+00 -0.22774349746E+04  0.22774349746E+04  0.25500000920E-02 0. -1.
    10030    2    1    2    0    0  0.00000000000E+00  0.00000000000E+00 -0.15959719769E+04  0.29588979724E+04  0.24915759390E+04 0.  0.
        3    1    3    3  502    0  0.67235330474E+03  0.78842476274E+03 -0.16193069358E+04  0.19224535197E+04  0.10100000352E+00 0. -1.
       -3    1    3    3    0  502 -0.67235330474E+03 -0.78842476274E+03  0.23334958895E+02  0.10364444526E+04  0.10100000352E+00 0.  1.
</event>
<event>
 5   0  0.1008073E-05  0.2485606E+04  0.7818609E-02  0.8408132E-01
        1   -1    0    0  501    0  0.00000000000E+00  0.00000000000E+00  0.16329190314E+04  0.16329190314E+04  0.50400001928E-02 0.  1.
       -1   -1    0    0    0  501  0.00000000000E+00  0.00000000000E+00 -0.94588818731E+03  0.94588818732E+03  0.50400001928E-02 0. -1.
    10030    2    1    2    0    0  0.00000000000E+00  0.00000000000E+00  0.68703084409E+03  0.25788072187E+04  0.24856056185E+04 0.  0.
        1    1    3    3  502    0 -0.88729696082E+03  0.83604537341E+03  0.59400382861E+03  0.13561372761E+04  0.50400001928E-02 0. -1.
       -1    1    3    3    0  502  0.88729696082E+03 -0.83604537341E+03  0.93027015482E+02  0.12226699427E+04  0.50400001928E-02 0.  1.
</event>
<event>
 5   0  0.1002753E-05  0.2504503E+04  0.7818609E-02  0.8401383E-01
       -1   -1    0    0    0  501  0.00000000000E+00  0.00000000000E+00  0.90767087626E+03  0.90767087627E+03  0.50400001928E-02 0.  1.
        1   -1    0    0  501    0  0.00000000000E+00  0.00000000000E+00 -0.17276455125E+04  0.17276455125E+04  0.50400001928E-02 0. -1.
    10030    2    1    2    0    0  0.00000000000E+00  0.00000000000E+00 -0.81997463627E+03  0.26353163888E+04  0.25045027580E+04 0.  0.
        5    1    3    3  502    0 -0.46339928246E+03 -0.35800906500E+03 -0.15746900774E+04  0.16800536644E+04  0.46999998093E+01 0. -1.
       -5    1    3    3    0  502  0.46339928246E+03  0.35800906500E+03  0.75471544108E+03  0.95526272439E+03  0.46999998093E+01 0.  1.
</event>
<event>
 5   0  0.2441340E-05  0.2488253E+04  0.7818609E-02  0.8407182E-01
       -2   -1    0    0    0  501  0.00000000000E+00  0.00000000000E+00  0.77094593934E+03  0.77094593935E+03  0.25500000920E-02 0. -1.
        2   -1    0    0  501    0  0.00000000000E+00  0.00000000000E+00 -0.20077300800E+04  0.20077300800E+04  0.25500000920E-02 0.  1.
    10030    2    1    2    0    0  0.00000000000E+00  0.00000000000E+00 -0.12367841407E+04  0.27786760194E+04  0.24882534859E+04 0.  0.
        3    1    3    3  502    0 -0.26257572629E+03  0.31559090781E+03 -0.19299089173E+04  0.19730920081E+04  0.10100000352E+00 0.  1.
       -3    1    3    3    0  502  0.26257572629E+03 -0.31559090781E+03  0.69312477660E+03  0.80558401130E+03  0.10100000352E+00 0. -1.
</event>
<event>
 5   0  0.1002753E-05  0.2086383E+04  0.7818609E-02  0.8567266E-01
       -1   -1    0    0    0  501  0.00000000000E+00  0.00000000000E+00  0.74500363921E+03  0.74500363922E+03  0.50400001928E-02 0. -1.
        1   -1    0    0  501    0  0.00000000000E+00  0.00000000000E+00 -0.14607293343E+04  0.14607293344E+04  0.50400001928E-02 0.  1.
    10030    2    1    2    0    0  0.00000000000E+00  0.00000000000E+00 -0.71572569514E+03  0.22057329736E+04  0.20863831575E+04 0.  0.
        5    1    3    3  502    0 -0.40421860890E+03  0.36861465867E+03  0.58118034762E+03  0.79816172348E+03  0.46999998093E+01 0. -1.
       -5    1    3    3    0  502  0.40421860890E+03 -0.36861465867E+03 -0.12969060428E+04  0.14075712501E+04  0.46999998093E+01 0.  1.
</event>
<event>
 5   0  0.2388326E-05  0.2517449E+04  0.7818609E-02  0.8396796E-01
       -2   -1    0    0    0  501  0.00000000000E+00  0.00000000000E+00  0.11932320822E+04  0.11932320822E+04  0.25500000920E-02 0.  1.
        2   -1    0    0  501    0  0.00000000000E+00  0.00000000000E+00 -0.13278114628E+04  0.13278114628E+04  0.25500000920E-02 0. -1.
    10030    2    1    2    0    0  0.00000000000E+00  0.00000000000E+00 -0.13457938058E+03  0.25210435450E+04  0.25174488965E+04 0.  0.
        2    1    3    3  502    0 -0.75280293813E+03  0.62466520802E+03 -0.86054976486E+03  0.13028679072E+04  0.25500000920E-02 0. -1.
       -2    1    3    3    0  502  0.75280293813E+03 -0.62466520802E+03  0.72597038429E+03  0.12181756378E+04  0.25500000920E-02 0.  1.
</event>
<event>
 5   0  0.1039688E-05  0.2492166E+04  0.7818609E-02  0.8405782E-01
       -1   -1    0    0    0  501  0.00000000000E+00  0.00000000000E+00  0.12944316456E+04  0.12944316456E+04  0.50400001928E-02 0.  1.
        1   -1    0    0  501    0  0.00000000000E+00  0.00000000000E+00 -0.11995404061E+04  0.11995404062E+04  0.50400001928E-02 0. -1.
    10030    2    1    2    0    0  0.00000000000E+00  0.00000000000E+00  0.94891239416E+02  0.24939720517E+04  0.24921661757E+04 0.  0.
        3    1    3    3  502    0  0.80360331949E+03  0.43468940830E+03 -0.80051121469E+03  0.12147227634E+04  0.10100000352E+00 0. -1.
       -3    1    3    3    0  502 -0.80360331949E+03 -0.43468940830E+03  0.89540245411E+03  0.12792492884E+04  0.10100000352E+00 0.  1.
</event>
<event>
 5   0  0.1039688E-05  0.2542573E+04  0.7818609E-02  0.8387974E-01
        1   -1    0    0  501    0  0.00000000000E+00  0.00000000000E+00  0.12571602005E+04  0.12571602006E+04  0.50400001928E-02 0. -1.
       -1   -1    0    0    0  501  0.00000000000E+00  0.00000000000E+00 -0.12855715288E+04  0.12855715288E+04  0.50400001928E-02 0.  1.
    10030    2    1    2    0    0  0.00000000000E+00  0.00000000000E+00 -0.28411328258E+02  0.25427317294E+04  0.25425729968E+04 0.  0.
        3    1    3    3  502    0 -0.44169341739E+03 -0.11889495439E+04  0.72259307707E+02  0.12703997444E+04  0.10100000352E+00 0.  1.
       -3    1    3    3    0  502  0.44169341739E+03  0.11889495439E+04 -0.10067063597E+03  0.12723319850E+04  0.10100000352E+00 0. -1.
</event>
<event>
 5   0  0.1015327E-05  0.2488185E+04  0.7818609E-02  0.8407207E-01
       -1   -1    0    0    0  501  0.00000000000E+00  0.00000000000E+00  0.65825550256E+03  0.65825550258E+03  0.50400001928E-02 0. -1.
        1   -1    0    0  501    0  0.00000000000E+00  0.00000000000E+00 -0.23513154068E+04  0.23513154068E+04  0.50400001928E-02 0.  1.
    10030    2    1    2    0    0  0.00000000000E+00  0.00000000000E+00 -0.16930599042E+04  0.30095709093E+04  0.24881851256E+04 0.  0.
        4    1    3    3  502    0  0.77054646448E+03 -0.15844838918E+03 -0.20122931304E+04  0.21605955201E+04  0.12699999809E+01 0.  1.
       -4    1    3    3    0  502 -0.77054646448E+03  0.15844838918E+03  0.31923322619E+03  0.84897538925E+03  0.12699999809E+01 0. -1.
</event>
<event>
 5   0  0.2432309E-05  0.2501609E+04  0.7818609E-02  0.8402412E-01
       -2   -1    0    0    0  501  0.00000000000E+00  0.00000000000E+00  0.11818276668E+04  0.11818276668E+04  0.25500000920E-02 0.  1.
        2   -1    0    0  501    0  0.00000000000E+00  0.00000000000E+00 -0.13238074924E+04  0.13238074924E+04  0.25500000920E-02 0. -1.
    10030    2    1    2    0    0  0.00000000000E+00  0.00000000000E+00 -0.14197982557E+03  0.25056351592E+04  0.25016093380E+04 0.  0.
        4    1    3    3  502    0 -0.76896759356E+03 -0.41117182576E+03 -0.96917004148E+03  0.13037122430E+04  0.12699999809E+01 0. -1.
       -4    1    3    3    0  502  0.76896759356E+03  0.41117182576E+03  0.82719021591E+03  0.12019229162E+04  0.12699999809E+01 0.  1.
</event>
<event>
 5   0  0.1039688E-05  0.2523889E+04  0.7818609E-02  0.8394524E-01
       -1   -1    0    0    0  501  0.00000000000E+00  0.00000000000E+00  0.14194865680E+04  0.14194865680E+04  0.50400001928E-02 0. -1.
        1   -1    0    0  501    0  0.00000000000E+00  0.00000000000E+00 -0.11218876780E+04  0.11218876780E+04  0.50400001928E-02 0.  1.
    10030    2    1    2    0    0  0.00000000000E+00  0.00000000000E+00  0.29759889000E+03  0.25413742460E+04  0.25238894506E+04 0.  0.
        3    1    3    3  502    0  0.65632756930E+03  0.78494034313E+03 -0.59497005654E+03  0.11835905537E+04  0.10100000352E+00 0.  1.
       -3    1    3    3    0  502 -0.65632756930E+03 -0.78494034313E+03  0.89256894654E+03  0.13577836923E+04  0.10100000352E+00 0. -1.
</event>
<event>
 5   0  0.1002753E-05  0.2494478E+04  0.7818609E-02  0.8404955E-01
        1   -1    0    0  501    0  0.00000000000E+00  0.00000000000E+00  0.15951076232E+04  0.15951076232E+04  0.50400001928E-02 0. -1.
       -1   -1    0    0    0  501  0.00000000000E+00  0.00000000000E+00 -0.97523507476E+03  0.97523507477E+03  0.50400001928E-02 0.  1.
    10030    2    1    2    0    0  0.00000000000E+00  0.00000000000E+00  0.61987254846E+03  0.25703426980E+04  0.24944778229E+04 0.  0.
        5    1    3    3  502    0  0.81760977199E+03 -0.60377308551E+03  0.10548010600E+04  0.14648054629E+04  0.46999998093E+01 0. -1.
       -5    1    3    3    0  502 -0.81760977199E+03  0.60377308551E+03 -0.43492851152E+03  0.11055372351E+04  0.46999998093E+01 0.  1.
</event>
<event>
 5   0  0.1015327E-05  0.2475555E+04  0.7818609E-02  0.8411746E-01
        1   -1    0    0  501    0  0.00000000000E+00  0.00000000000E+00  0.17723115860E+04  0.17723115860E+04  0.50400001928E-02 0.  1.
       -1   -1    0    0    0  501  0.00000000000E+00  0.00000000000E+00 -0.86446018087E+03  0.86446018088E+03  0.50400001928E-02 0. -1.
    10030    2    1    2    0    0  0.00000000000E+00  0.00000000000E+00  0.90785140511E+03  0.26367717669E+04  0.24755547210E+04 0.  0.
        4    1    3    3  502    0  0.93358434181E+03  0.56100499498E+03  0.10802553826E+04  0.15340337780E+04  0.12699999809E+01 0.  1.
       -4    1    3    3    0  502 -0.93358434181E+03 -0.56100499498E+03 -0.17240397747E+03  0.11027379888E+04  0.12699999809E+01 0. -1.
</event>
<event>
 5   0  0.2388326E-05  0.2450932E+04  0.7818609E-02  0.8420678E-01
       -2   -1    0    0    0  501  0.00000000000E+00  0.00000000000E+00  0.88924019343E+03  0.88924019343E+03  0.25500000920E-02 0. -1.
        2   -1    0    0  501    0  0.00000000000E+00  0.00000000000E+00 -0.16888200040E+04  0.16888200040E+04  0.25500000920E-02 0.  1.
    10030    2    1    2    0    0  0.00000000000E+00  0.00000000000E+00 -0.79957981055E+03  0.25780601974E+04  0.24509317632E+04 0.  0.
        2    1    3    3  502    0 -0.74305664552E+03 -0.64974089503E+03  0.36415283019E+03  0.10520949068E+04  0.25500000920E-02 0. -1.
       -2    1    3    3    0  502  0.74305664552E+03  0.64974089503E+03 -0.11637326407E+04  0.15259652906E+04  0.25500000920E-02 0.  1.
</event>
<event>
 5   0  0.2432309E-05  0.2536953E+04  0.7818609E-02  0.8389938E-01
        2   -1    0    0  501    0  0.00000000000E+00  0.00000000000E+00  0.15147380896E+04  0.15147380896E+04  0.25500000920E-02 0. -1.
       -2   -1    0    0    0  501  0.00000000000E+00  0.00000000000E+00 -0.10622515381E+04  0.10622515381E+04  0.25500000920E-02 0.  1.
    10030    2    1    2    0    0  0.00000000000E+00  0.00000000000E+00  0.45248655150E+03  0.25769896277E+04  0.25369531848E+04 0.  0.
        4    1    3    3  502    0 -0.15918267730E+03 -0.10291732203E+04  0.96189241697E+03  0.14176654319E+04  0.12699999809E+01 0. -1.
       -4    1    3    3    0  502  0.15918267730E+03  0.10291732203E+04 -0.50940586547E+03  0.11593241958E+04  0.12699999809E+01 0.  1.
</event>
<event>
 5   0  0.2432309E-05  0.2522819E+04  0.7818609E-02  0.8394901E-01
       -2   -1    0    0    0  501  0.00000000000E+00  0.00000000000E+00  0.98860297943E+03  0.98860297943E+03  0.25500000920E-02 0. -1.
        2   -1    0    0  501    0  0.00000000000E+00  0.00000000000E+00 -0.16094973223E+04  0.16094973223E+04  0.25500000920E-02 0.  1.
    10030    2    1    2    0    0  0.00000000000E+00  0.00000000000E+00 -0.62089434291E+03  0.25981003018E+04  0.25228189378E+04 0.  0.
        4    1    3    3  502    0 -0.10590031875E+04 -0.64000981001E+03 -0.56281460204E+03  0.13593609518E+04  0.12699999809E+01 0.  1.
       -4    1    3    3    0  502  0.10590031875E+04  0.64000981001E+03 -0.58079740873E+02  0.12387393500E+04  0.12699999809E+01 0. -1.
</event>
<event>
 5   0  0.1015327E-05  0.2376645E+04  0.7818609E-02  0.8448300E-01
        1   -1    0    0  501    0  0.00000000000E+00  0.00000000000E+00  0.14455203389E+04  0.14455203389E+04  0.50400001928E-02 0. -1.
       -1   -1    0    0    0  501  0.00000000000E+00  0.00000000000E+00 -0.97688685077E+03  0.97688685079E+03  0.50400001928E-02 0.  1.
    10030    2    1    2    0    0  0.00000000000E+00  0.00000000000E+00  0.46863348812E+03  0.24224071897E+04  0.23766445352E+04 0.  0.
        4    1    3    3  502    0 -0.41859927633E+03  0.58023337306E+03  0.12013810044E+04  0.13982896882E+04  0.12699999809E+01 0. -1.
       -4    1    3    3    0  502  0.41859927633E+03 -0.58023337306E+03 -0.73274751631E+03  0.10241175015E+04  0.12699999809E+01 0.  1.
</event>
<event>
 5   0  0.2388326E-05  0.2496601E+04  0.7818609E-02  0.8404197E-01
        2   -1    0    0  501    0  0.00000000000E+00  0.00000000000E+00  0.14253330847E+04  0.14253330847E+04  0.25500000920E-02 0. -1.
       -2   -1    0    0    0  501  0.00000000000E+00  0.00000000000E+00 -0.10932564207E+04  0.10932564207E+04  0.25500000920E-02 0.  1.
    10030    2    1    2    0    0  0.00000000000E+00  0.00000000000E+00  0.33207666397E+03  0.25185895054E+04  0.24966013270E+04 0.  0.
        2    1    3    3  502    0 -0.10392273255E+04  0.62319794405E+03 -0.13641115644E+03  0.12194167111E+04  0.25500000920E-02 0.  1.
       -2    1    3    3    0  502  0.10392273255E+04 -0.62319794405E+03  0.46848782041E+03  0.12991727943E+04  0.25500000920E-02 0. -1.
</event>
<event>
 5   0  0.2432309E-05  0.2379241E+04  0.7818609E-02  0.8447317E-01
        2   -1    0    0  501    0  0.00000000000E+00  0.00000000000E+00  0.21851154543E+04  0.21851154543E+04  0.25500000920E-02 0. -1.
       -2   -1    0    0    0  501  0.00000000000E+00  0.00000000000E+00 -0.64765316628E+03  0.64765316629E+03  0.25500000920E-02 0.  1.
    10030    2    1    2    0    0  0.00000000000E+00  0.00000000000E+00  0.15374622880E+04  0.28327686206E+04  0.23792410073E+04 0.  0.
        4    1    3    3  502    0 -0.11416246015E+04  0.27628270972E+03  0.54422307987E+03  0.12945343719E+04  0.12699999809E+01 0. -1.
       -4    1    3    3    0  502  0.11416246015E+04 -0.27628270972E+03  0.99323920811E+03  0.15382342487E+04  0.12699999809E+01 0.  1.
</event>
<event>
 5   0  0.2345143E-05  0.2491993E+04  0.7818609E-02  0.8405843E-01
        2   -1    0    0  501    0  0.00000000000E+00  0.00000000000E+00  0.12139175690E+04  0.12139175690E+04  0.25500000920E-02 0.  1.
       -2   -1    0    0    0  501  0.00000000000E+00  0.00000000000E+00 -0.12789235031E+04  0.12789235032E+04  0.25500000920E-02 0. -1.
    10030    2    1    2    0    0  0.00000000000E+00  0.00000000000E+00 -0.65005934151E+02  0.24928410722E+04  0.24919933466E+04 0.  0.
        5    1    3    3  502    0 -0.90128569542E+03 -0.79118861574E+03 -0.37053845795E+03  0.12552355035E+04  0.46999998093E+01 0. -1.
       -5    1    3    3    0  502  0.90128569542E+03  0.79118861574E+03  0.30553252380E+03  0.12376055686E+04  0.46999998093E+01 0.  1.
</event>
<event>
 5   0  0.1010338E-05  0.2527318E+04  0.7818609E-02  0.8393317E-01
        1   -1    0    0  501    0  0.00000000000E+00  0.00000000000E+00  0.15655044204E+04  0.15655044204E+04  0.50400001928E-02 0.  1.
       -1   -1    0    0    0  501  0.00000000000E+00  0.00000000000E+00 -0.10200125639E+04  0.10200125639E+04  0.50400001928E-02 0. -1.
    10030    2    1    2    0    0  0.00000000000E+00  0.00000000000E+00  0.54549185657E+03  0.25855169843E+04  0.25273180866E+04 0.  0.
        2    1    3    3  502    0  0.62281381524E+03 -0.52666973857E+03  0.12601433760E+04  0.15010794083E+04  0.25500000920E-02 0.  1.
       -2    1    3    3    0  502 -0.62281381524E+03  0.52666973857E+03 -0.71465151945E+03  0.10844375760E+04  0.25500000920E-02 0. -1.
</event>
<event>
 5   0  0.2345143E-05  0.2492541E+04  0.7818609E-02  0.8405648E-01
       -2   -1    0    0    0  501  0.00000000000E+00  0.00000000000E+00  0.65072943491E+03  0.65072943491E+03  0.25500000920E-02 0. -1.
        2   -1    0    0  501    0  0.00000000000E+00  0.00000000000E+00 -0.23868452951E+04  0.23868452951E+04  0.25500000920E-02 0.  1.
    10030    2    1    2    0    0  0.00000000000E+00  0.00000000000E+00 -0.17361158602E+04  0.30375747300E+04  0.24925412655E+04 0.  0.
        5    1    3    3  502    0  0.82422582674E+03 -0.93815221332E+01  0.27107335167E+03  0.86772062233E+03  0.46999998093E+01 0. -1.
       -5    1    3    3    0  502 -0.82422582674E+03  0.93815221332E+01 -0.20071892119E+04  0.21698541077E+04  0.46999998093E+01 0.  1.
</event>
<event>
 5   0  0.8166500E-06  0.2508527E+04  0.7818609E-02  0.8399954E-01
        3   -1    0    0  501    0  0.00000000000E+00  0.00000000000E+00  0.12252002977E+04  0.12252003018E+04  0.10100000352E+00 0. -1.
       -3   -1    0    0    0  501  0.00000000000E+00  0.00000000000E+00 -0.12840160161E+04  0.12840160201E+04  0.10100000352E+00 0.  1.
    10030    2    1    2    0    0  0.00000000000E+00  0.00000000000E+00 -0.58815718447E+02  0.25092163219E+04  0.25085269106E+04 0.  0.
        4    1    3    3  502    0  0.82332481568E+03 -0.39345505416E+02  0.91624255711E+03  0.12324422328E+04  0.12699999809E+01 0. -1.
       -4    1    3    3    0  502 -0.82332481568E+03  0.39345505416E+02 -0.97505827555E+03  0.12767740891E+04  0.12699999809E+01 0.  1.
</event>
<event>
 5   0  0.1010338E-05  0.2505392E+04  0.7818609E-02  0.8401067E-01
        1   -1    0    0  501    0  0.00000000000E+00  0.00000000000E+00  0.32057205848E+04  0.32057205848E+04  0.50400001928E-02 0.  1.
       -1   -1    0    0    0  501  0.00000000000E+00  0.00000000000E+00 -0.48951469801E+03  0.48951469804E+03  0.50400001928E-02 0. -1.
    10030    2    1    2    0    0  0.00000000000E+00  0.00000000000E+00  0.27162058868E+04  0.36952352829E+04  0.25053920604E+04 0.  0.
        2    1    3    3  502    0 -0.86607857027E+03 -0.82488181460E+03  0.80875923982E+03  0.14438191043E+04  0.25500000920E-02 0. -1.
       -2    1    3    3    0  502  0.86607857027E+03  0.82488181460E+03  0.19074466470E+04  0.22514161786E+04  0.25500000920E-02 0.  1.
</event>
<event>
 5   0  0.2452457E-05  0.2513706E+04  0.7818609E-02  0.8398119E-01
        2   -1    0    0  501    0  0.00000000000E+00  0.00000000000E+00  0.25354285323E+04  0.25354285323E+04  0.25500000920E-02 0.  1.
       -2   -1    0    0    0  501  0.00000000000E+00  0.00000000000E+00 -0.62304230212E+03  0.62304230212E+03  0.25500000920E-02 0. -1.
    10030    2    1    2    0    0  0.00000000000E+00  0.00000000000E+00  0.19123862302E+04  0.31584708345E+04  0.25137058139E+04 0.  0.
        1    1    3    3  502    0 -0.41604263048E+03  0.24348165797E+03  0.24146556993E+04  0.24623031767E+04  0.50400001928E-02 0.  1.
       -1    1    3    3    0  502  0.41604263048E+03 -0.24348165797E+03 -0.50226946903E+03  0.69616765774E+03  0.50400001928E-02 0. -1.
</event>
<event>
 5   0  0.1015327E-05  0.2693733E+04  0.7818609E-02  0.8337041E-01
       -1   -1    0    0    0  501  0.00000000000E+00  0.00000000000E+00  0.60715031659E+03  0.60715031662E+03  0.50400001928E-02 0.  1.
        1   -1    0    0  501    0  0.00000000000E+00  0.00000000000E+00 -0.29878101465E+04  0.29878101465E+04  0.50400001928E-02 0. -1.
    10030    2    1    2    0    0  0.00000000000E+00  0.00000000000E+00 -0.23806598299E+04  0.35949604632E+04  0.26937333769E+04 0.  0.
        4    1    3    3  502    0  0.32605215485E+02  0.11673319959E+04 -0.20859023035E+04  0.23905474522E+04  0.12699999809E+01 0. -1.
       -4    1    3    3    0  502 -0.32605215485E+02 -0.11673319959E+04 -0.29475752647E+03  0.12044130110E+04  0.12699999809E+01 0.  1.
</event>
<event>
 5   0  0.2441340E-05  0.2362474E+04  0.7818609E-02  0.8453688E-01
        2   -1    0    0  501    0  0.00000000000E+00  0.00000000000E+00  0.84094867526E+03  0.84094867526E+03  0.25500000920E-02 0. -1.
       -2   -1    0    0    0  501  0.00000000000E+00  0.00000000000E+00 -0.16592222055E+04  0.16592222055E+04  0.25500000920E-02 0.  1.
    10030    2    1    2    0    0  0.00000000000E+00  0.00000000000E+00 -0.81827353025E+03  0.25001708808E+04  0.23624738862E+04 0.  0.
        3    1    3    3  502    0  0.95059712583E+03 -0.15843604325E+02 -0.11510201163E+04  0.14928942474E+04  0.10100000352E+00 0.  1.
       -3    1    3    3    0  502 -0.95059712583E+03  0.15843604325E+02  0.33274658609E+03  0.10072766334E+04  0.10100000352E+00 0. -1.
</event>
<event>
 5   0  0.1002753E-05  0.2380906E+04  0.7818609E-02  0.8446687E-01
       -1   -1    0    0    0  501  0.00000000000E+00  0.00000000000E+00  0.78408841121E+03  0.78408841123E+03  0.50400001928E-02 0.  1.
        1   -1    0    0  501    0  0.00000000000E+00  0.00000000000E+00 -0.18074213610E+04  0.18074213610E+04  0.50400001928E-02 0. -1.
    10030    2    1    2    0    0  0.00000000000E+00  0.00000000000E+00 -0.10233329498E+04  0.25915097722E+04  0.23809058304E+04 0.  0.
        5    1    3    3  502    0  0.14334343218E+03  0.76620154826E+03  0.46766753100E+03  0.90903639182E+03  0.46999998093E+01 0.  1.
       -5    1    3    3    0  502 -0.14334343218E+03 -0.76620154826E+03 -0.14910004808E+04  0.16824733804E+04  0.46999998093E+01 0. -1.
</event>
<event>
 5   0  0.1039688E-05  0.2499182E+04  0.7818609E-02  0.8403277E-01
        1   -1    0    0  501    0  0.00000000000E+00  0.00000000000E+00  0.14937227916E+04  0.14937227916E+04  0.50400001928E-02 0.  1.
       -1   -1    0    0    0  501  0.00000000000E+00  0.00000000000E+00 -0.10453596720E+04  0.10453596720E+04  0.50400001928E-02 0. -1.
    10030    2    1    2    0    0  0.00000000000E+00  0.00000000000E+00  0.44836311956E+03  0.25390824636E+04  0.24991819202E+04 0.  0.
        3    1    3    3  502    0  0.37133102682E+03 -0.11541179852E+04  0.53167269766E+03  0.13238394627E+04  0.10100000352E+00 0. -1.
       -3    1    3    3    0  502 -0.37133102682E+03  0.11541179852E+04 -0.83309578099E+02  0.12152430009E+04  0.10100000352E+00 0.  1.
</event>
<event>
 5   0  0.2388326E-05  0.2506656E+04  0.7818609E-02  0.8400618E-01
       -2   -1    0    0    0  501  0.00000000000E+00  0.00000000000E+00  0.95358220234E+03  0.95358220235E+03  0.25500000920E-02 0.  1.
        2   -1    0    0  501    0  0.00000000000E+00  0.00000000000E+00 -0.16472946236E+04  0.16472946236E+04  0.25500000920E-02 0. -1.
    10030    2    1    2    0    0  0.00000000000E+00  0.00000000000E+00 -0.69371242128E+03  0.26008768260E+04  0.25066558081E+04 0.  0.
        2    1    3    3  502    0 -0.86198092393E+03  0.71726288440E+03  0.23396501352E+03  0.11455203124E+04  0.25500000920E-02 0. -1.
       -2    1    3    3    0  502  0.86198092393E+03 -0.71726288440E+03 -0.92767743480E+03  0.14553565136E+04  0.25500000920E-02 0.  1.
</event>
<event>
 5   0  0.2345143E-05  0.2522364E+04  0.7818609E-02  0.8395061E-01
       -2   -1    0    0    0  501  0.00000000000E+00  0.00000000000E+00  0.10235286699E+04  0.10235286699E+04  0.25500000920E-02 0. -1.
        2   -1    0    0  501    0  0.00000000000E+00  0.00000000000E+00 -0.15540159948E+04  0.15540159948E+04  0.25500000920E-02 0.  1.
    10030    2    1    2    0    0  0.00000000000E+00  0.00000000000E+00 -0.53048732486E+03  0.25775446647E+04  0.25223639104E+04 0.  0.
        5    1    3    3  502    0 -0.11488511008E+04  0.39824770243E+03 -0.60737818883E+03  0.13591874185E+04  0.46999998093E+01 0. -1.
       -5    1    3    3    0  502  0.11488511008E+04 -0.39824770243E+03  0.76890863972E+02  0.12183572462E+04  0.46999998093E+01 0.  1.
</event>
<event>
 5   0  0.1015327E-05  0.2506565E+04  0.7818609E-02  0.8400650E-01
        1   -1    0    0  501    0  0.00000000000E+00  0.00000000000E+00  0.12309811041E+04  0.12309811041E+04  0.50400001928E-02 0.  1.
       -1   -1    0    0    0  501  0.00000000000E+00  0.00000000000E+00 -0.12759881969E+04  0.12759881969E+04  0.50400001928E-02 0. -1.
    10030    2    1    2    0    0  0.00000000000E+00  0.00000000000E+00 -0.45007092793E+02  0.25069693011E+04  0.25065652671E+04 0.  0.
        4    1    3    3  502    0  0.11822694123E+04 -0.38438161259E+03  0.13628463194E+03  0.12506339597E+04  0.12699999809E+01 0.  1.
       -4    1    3    3    0  502 -0.11822694123E+04  0.38438161259E+03 -0.18129172474E+03  0.12563353413E+04  0.12699999809E+01 0. -1.
</event>
<event>
 5   0  0.2432309E-05  0.2488961E+04  0.7818609E-02  0.8406929E-01
       -2   -1    0    0    0  501  0.00000000000E+00  0.00000000000E+00  0.54848411197E+03  0.54848411198E+03  0.25500000920E-02 0. -1.
        2   -1    0    0  501    0  0.00000000000E+00  0.00000000000E+00 -0.28236581721E+04  0.28236581721E+04  0.25500000920E-02 0.  1.
    10030    2    1    2    0    0  0.00000000000E+00  0.00000000000E+00 -0.22751740601E+04  0.33721422840E+04  0.24889609439E+04 0.  0.
        4    1    3    3  502    0  0.10134851292E+04 -0.52328163080E+03 -0.18119572355E+04  0.21410666521E+04  0.12699999809E+01 0.  1.
       -4    1    3    3    0  502 -0.10134851292E+04  0.52328163080E+03 -0.46321682456E+03  0.12310756320E+04  0.12699999809E+01 0. -1.
</event>
<event>
 5   0  0.1002753E-05  0.2502300E+04  0.7818609E-02  0.8402167E-01
        1   -1    0    0  501    0  0.00000000000E+00  0.00000000000E+00  0.13959033915E+04  0.13959033915E+04  0.50400001928E-02 0.  1.
       -1   -1    0    0    0  501  0.00000000000E+00  0.00000000000E+00 -0.11214071964E+04  0.11214071964E+04  0.50400001928E-02 0. -1.
    10030    2    1    2    0    0  0.00000000000E+00  0.00000000000E+00  0.27449619512E+03  0.25173105879E+04  0.25022998291E+04 0.  0.
        5    1    3    3  502    0  0.43704072820E+02  0.42532520948E+03  0.13201172112E+04  0.13876394060E+04  0.46999998093E+01 0.  1.
       -5    1    3    3    0  502 -0.43704072820E+02 -0.42532520948E+03 -0.10456210161E+04  0.11296711819E+04  0.46999998093E+01 0. -1.
</event>
<event>
 5   0  0.2388326E-05  0.2499355E+04  0.7818609E-02  0.8403215E-01
       -2   -1    0    0    0  501  0.00000000000E+00  0.00000000000E+00  0.16193140351E+04  0.16193140351E+04  0.25500000920E-02 0.  1.
        2   -1    0    0  501    0  0.00000000000E+00  0.00000000000E+00 -0.96441690186E+03  0.96441690186E+03  0.25500000920E-02 0. -1.
    10030    2    1    2    0    0  0.00000000000E+00  0.00000000000E+00  0.65489713324E+03  0.25837309370E+04  0.24993549767E+04 0.  0.
        2    1    3    3  502    0 -0.46978202380E+03  0.11234903851E+04  0.37317433500E+02  0.12183260590E+04  0.25500000920E-02 0. -1.
       -2    1    3    3    0  502  0.46978202380E+03 -0.11234903851E+04  0.61757969974E+03  0.13654048780E+04  0.25500000920E-02 0.  1.
</event>
<event>
 5   0  0.2441340E-05  0.2514679E+04  0.7818609E-02  0.8397775E-01
        2   -1    0    0  501    0  0.00000000000E+00  0.00000000000E+00  0.13628937983E+04  0.13628937983E+04  0.25500000920E-02 0.  1.
       -2   -1    0    0    0  501  0.00000000000E+00  0.00000000000E+00 -0.11599603660E+04  0.11599603660E+04  0.25500000920E-02 0. -1.
    10030    2    1    2    0    0  0.00000000000E+00  0.00000000000E+00  0.20293343221E+03  0.25228541643E+04  0.25146791359E+04 0.  0.
        3    1    3    3  502    0  0.43580423779E+03  0.93301458303E+03 -0.62230858911E+03  0.12032080186E+04  0.10100000352E+00 0. -1.
       -3    1    3    3    0  502 -0.43580423779E+03 -0.93301458303E+03  0.82524202132E+03  0.13196461457E+04  0.10100000352E+00 0.  1.
</event>
<event>
 5   0  0.1010338E-05  0.2502935E+04  0.7818609E-02  0.8401941E-01
        1   -1    0    0  501    0  0.00000000000E+00  0.00000000000E+00  0.12291225104E+04  0.12291225105E+04  0.50400001928E-02 0. -1.
       -1   -1    0    0    0  501  0.00000000000E+00  0.00000000000E+00 -0.12742192079E+04  0.12742192079E+04  0.50400001928E-02 0.  1.
    10030    2    1    2    0    0  0.00000000000E+00  0.00000000000E+00 -0.45096697474E+02  0.25033417184E+04  0.25029354860E+04 0.  0.
        2    1    3    3  502    0  0.74400606301E+03 -0.15698126730E+03  0.97158650218E+03  0.12337619184E+04  0.25500000920E-02 0. -1.
       -2    1    3    3    0  502 -0.74400606301E+03  0.15698126730E+03 -0.10166831997E+04  0.12695798000E+04  0.25500000920E-02 0.  1.
</event>
<event>
 5   0  0.1002753E-05  0.2502202E+04  0.7818609E-02  0.8402201E-01
        1   -1    0    0  501    0  0.00000000000E+00  0.00000000000E+00  0.10487503206E+04  0.10487503206E+04  0.50400001928E-02 0.  1.
       -1   -1    0    0    0  501  0.00000000000E+00  0.00000000000E+00 -0.14924946792E+04  0.14924946792E+04  0.50400001928E-02 0. -1.
    10030    2    1    2    0    0  0.00000000000E+00  0.00000000000E+00 -0.44374435863E+03  0.25412449998E+04  0.25022024484E+04 0.  0.
        5    1    3    3  502    0  0.92396836466E+03  0.46355673224E+03  0.49384341573E+03  0.11456464516E+04  0.46999998093E+01 0.  1.
       -5    1    3    3    0  502 -0.92396836466E+03 -0.46355673224E+03 -0.93758777436E+03  0.13955985481E+04  0.46999998093E+01 0. -1.
</event>
<event>
 5   0  0.2441340E-05  0.2481073E+04  0.7818609E-02  0.8409760E-01
       -2   -1    0    0    0  501  0.00000000000E+00  0.00000000000E+00  0.77099840885E+03  0.77099840886E+03  0.25500000920E-02 0. -1.
        2   -1    0    0  501    0  0.00000000000E+00  0.00000000000E+00 -0.19960226375E+04  0.19960226375E+04  0.25500000920E-02 0.  1.
    10030    2    1    2    0    0  0.00000000000E+00  0.00000000000E+00 -0.12250242287E+04  0.27670210464E+04  0.24810725726E+04 0.  0.
        3    1    3    3  502    0  0.25418302148E+03  0.10580771059E+04 -0.12768074261E+04  0.16776094253E+04  0.10100000352E+00 0.  1.
       -3    1    3    3    0  502 -0.25418302148E+03 -0.10580771059E+04  0.51783197402E+02  0.10894116211E+04  0.10100000352E+00 0. -1.
</event>
<event>
 5   0  0.2441340E-05  0.2483822E+04  0.7818609E-02  0.8408772E-01
        2   -1    0    0  501    0  0.00000000000E+00  0.00000000000E+00  0.21125245476E+04  0.21125245476E+04  0.25500000920E-02 0. -1.
       -2   -1    0    0    0  501  0.00000000000E+00  0.00000000000E+00 -0.73009439507E+03  0.73009439507E+03  0.25500000920E-02 0.  1.
    10030    2    1    2    0    0  0.00000000000E+00  0.00000000000E+00  0.13824301525E+04  0.28426189427E+04  0.24838215167E+04 0.  0.
        3    1    3    3  502    0  0.20901747139E+03 -0.65507000829E+03 -0.49236113827E+03  0.84570947718E+03  0.10100000352E+00 0.  1.
       -3    1    3    3    0  502 -0.20901747139E+03  0.65507000829E+03  0.18747912908E+04  0.19969094655E+04  0.10100000352E+00 0. -1.
</event>
<event>
 5   0  0.2388326E-05  0.2504390E+04  0.7818609E-02  0.8401423E-01
        2   -1    0    0  501    0  0.00000000000E+00  0.00000000000E+00  0.19595804784E+04  0.19595804784E+04  0.25500000920E-02 0. -1.
       -2   -1    0    0    0  501  0.00000000000E+00  0.00000000000E+00 -0.80016733838E+03  0.80016733838E+03  0.25500000920E-02 0.  1.
    10030    2    1    2    0    0  0.00000000000E+00  0.00000000000E+00  0.11594131400E+04  0.27597478168E+04  0.25043899822E+04 0.  0.
        2    1    3    3  502    0  0.52070709047E+03 -0.10548824746E+04  0.10691467858E+03  0.11812466541E+04  0.25500000920E-02 0.  1.
       -2    1    3    3    0  502 -0.52070709047E+03  0.10548824746E+04  0.10524984615E+04  0.15785011627E+04  0.25500000920E-02 0. -1.
</event>
<event>
 5   0  0.1008073E-05  0.2486498E+04  0.7818609E-02  0.8407812E-01
        1   -1    0    0  501    0  0.00000000000E+00  0.00000000000E+00  0.94776407769E+03  0.94776407770E+03  0.50400001928E-02 0. -1.
       -1   -1    0    0    0  501  0.00000000000E+00  0.00000000000E+00 -0.16308573812E+04  0.16308573812E+04  0.50400001928E-02 0.  1.
    10030    2    1    2    0    0  0.00000000000E+00  0.00000000000E+00 -0.68309330346E+03  0.25786214589E+04  0.24864979724E+04 0.  0.
        1    1    3    3  502    0 -0.78564069023E+03  0.17148189432E+03 -0.13248482520E+04  0.15497936073E+04  0.50400001928E-02 0.  1.
       -1    1    3    3    0  502  0.78564069023E+03 -0.17148189432E+03  0.64175494855E+03  0.10288278516E+04  0.50400001928E-02 0. -1.
</event>
<event>
 5   0  0.2432309E-05  0.2105015E+04  0.7818609E-02  0.8559037E-01
        2   -1    0    0  501    0  0.00000000000E+00  0.00000000000E+00  0.16491456344E+04  0.16491456344E+04  0.25500000920E-02 0. -1.
       -2   -1    0    0    0  501  0.00000000000E+00  0.00000000000E+00 -0.67172497438E+03  0.67172497439E+03  0.25500000920E-02 0.  1.
    10030    2    1    2    0    0  0.00000000000E+00  0.00000000000E+00  0.97742066006E+03  0.23208706088E+04  0.21050152580E+04 0.  0.
        4    1    3    3  502    0  0.19701419896E+03 -0.96253784743E+03  0.72542934844E+02  0.98516891578E+03  0.12699999809E+01 0.  1.
       -4    1    3    3    0  502 -0.19701419896E+03  0.96253784743E+03  0.90487772522E+03  0.13357016931E+04  0.12699999809E+01 0. -1.
</event>
<event>
 5   0  0.2441340E-05  0.2512686E+04  0.7818609E-02  0.8398480E-01
        2   -1    0    0  501    0  0.00000000000E+00  0.00000000000E+00  0.14553617743E+04  0.14553617743E+04  0.25500000920E-02 0.  1.
       -2   -1    0    0    0  501  0.00000000000E+00  0.00000000000E+00 -0.10845397995E+04  0.10845397995E+04  0.25500000920E-02 0. -1.
    10030    2    1    2    0    0  0.00000000000E+00  0.00000000000E+00  0.37082197477E+03  0.25399015738E+04  0.25126860264E+04 0.  0.
        3    1    3    3  502    0 -0.68516530916E+03  0.82967601210E+03 -0.47013780400E+03  0.11742416067E+04  0.10100000352E+00 0. -1.
       -3    1    3    3    0  502  0.68516530916E+03 -0.82967601210E+03  0.84095977877E+03  0.13656599671E+04  0.10100000352E+00 0.  1.
</event>
<event>
 5   0  0.1010338E-05  0.2554051E+04  0.7818609E-02  0.8383979E-01
       -1   -1    0    0    0  501  0.00000000000E+00  0.00000000000E+00  0.87491433211E+03  0.87491433213E+03  0.50400001928E-02 0. -1.
        1   -1    0    0  501    0  0.00000000000E+00  0.00000000000E+00 -0.18639475485E+04  0.18639475485E+04  0.50400001928E-02 0.  1.
    10030    2    1    2    0    0  0.00000000000E+00  0.00000000000E+00 -0.98903321635E+03  0.27388618806E+04  0.25540512324E+04 0.  0.
        2    1    3    3  502    0 -0.12146959571E+04 -0.12406085002E+03 -0.89563803847E+03  0.15142803105E+04  0.25500000920E-02 0.  1.
       -2    1    3    3    0  502  0.12146959571E+04  0.12406085002E+03 -0.93395177884E+02  0.12245815701E+04  0.25500000920E-02 0. -1.
</event>
<event>
 5   0  0.1008073E-05  0.2512139E+04  0.7818609E-02  0.8398674E-01
       -1   -1    0    0    0  501  0.00000000000E+00  0.00000000000E+00  0.15791917145E+04  0.15791917145E+04  0.50400001928E-02 0.  1.
        1   -1    0    0  501    0  0.00000000000E+00  0.00000000000E+00 -0.99906208109E+03  0.99906208110E+03  0.50400001928E-02 0. -1.
    10030    2    1    2    0    0  0.00000000000E+00  0.00000000000E+00  0.58012963339E+03  0.25782537956E+04  0.25121389776E+04 0.  0.
        1    1    3    3  502    0 -0.91837357087E+03 -0.79925069773E+03 -0.27097158516E+02  0.12177626819E+04  0.50400001928E-02 0. -1.
       -1    1    3    3    0  502  0.91837357087E+03  0.79925069773E+03  0.60722679191E+03  0.13604911137E+04  0.50400001928E-02 0.  1.
</event>
<event>
 5   0  0.2452457E-05  0.2510768E+04  0.7818609E-02  0.8399159E-01
        2   -1    0    0  501    0  0.00000000000E+00  0.00000000000E+00  0.25309115846E+04  0.25309115846E+04  0.25500000920E-02 0. -1.
       -2   -1    0    0    0  501  0.00000000000E+00  0.00000000000E+00 -0.62269633594E+03  0.62269633595E+03  0.25500000920E-02 0.  1.
    10030    2    1    2    0    0  0.00000000000E+00  0.00000000000E+00  0.19082152486E+04  0.31536079205E+04  0.25107683050E+04 0.  0.
        1    1    3    3  502    0  0.98278808384E+03  0.63650552783E+03  0.15227697858E+04  0.19208955008E+04  0.50400001928E-02 0. -1.
       -1    1    3    3    0  502 -0.98278808384E+03 -0.63650552783E+03  0.38544546284E+03  0.12327124196E+04  0.50400001928E-02 0.  1.
</event>
<event>
 5   0  0.1002753E-05  0.2492855E+04  0.7818609E-02  0.8405535E-01
        1   -1    0    0  501    0  0.00000000000E+00  0.00000000000E+00  0.13162602918E+04  0.13162602918E+04  0.50400001928E-02 0. -1.
       -1   -1    0    0    0  501  0.00000000000E+00  0.00000000000E+00 -0.11803000711E+04  0.11803000711E+04  0.50400001928E-02 0.  1.
    10030    2    1    2    0    0  0.00000000000E+00  0.00000000000E+00  0.13596022071E+03  0.24965603629E+04  0.24928554840E+04 0.  0.
        5    1    3    3  502    0  0.10397715127E+03  0.10369347814E+04  0.75274701252E+03  0.12855719131E+04  0.46999998093E+01 0. -1.
       -5    1    3    3    0  502 -0.10397715127E+03 -0.10369347814E+04 -0.61678679181E+03  0.12109884498E+04  0.46999998093E+01 0.  1.
</event>
<event>
 5   0  0.1008073E-05  0.2501325E+04  0.7818609E-02  0.8402514E-01
        1   -1    0    0  501    0  0.00000000000E+00  0.00000000000E+00  0.94841728328E+03  0.94841728329E+03  0.50400001928E-02 0. -1.
       -1   -1    0    0    0  501  0.00000000000E+00  0.00000000000E+00 -0.16492280959E+04  0.16492280959E+04  0.50400001928E-02 0.  1.
    10030    2    1    2    0    0  0.00000000000E+00  0.00000000000E+00 -0.70081081262E+03  0.25976453792E+04  0.25013247932E+04 0.  0.
        1    1    3    3  502    0 -0.57362761479E+03 -0.58387736240E+03 -0.13324379880E+04  0.15637622603E+04  0.50400001928E-02 0.  1.
       -1    1    3    3    0  502  0.57362761479E+03  0.58387736240E+03  0.63162717542E+03  0.10338831189E+04  0.50400001928E-02 0. -1.
</event>
<event>
 5   0  0.2441340E-05  0.2515774E+04  0.7818609E-02  0.8397387E-01
       -2   -1    0    0    0  501  0.00000000000E+00  0.00000000000E+00  0.11960237882E+04  0.11960237882E+04  0.25500000920E-02 0.  1.
        2   -1    0    0  501    0  0.00000000000E+00  0.00000000000E+00 -0.13229501976E+04  0.13229501976E+04  0.25500000920E-02 0. -1.
    10030    2    1    2    0    0  0.00000000000E+00  0.00000000000E+00 -0.12692640932E+03  0.25189739858E+04  0.25157741607E+04 0.  0.
        3    1    3    3  502    0 -0.67764500666E+01 -0.11280660129E+04 -0.62067893350E+03  0.12875640561E+04  0.10100000352E+00 0.  1.
       -3    1    3    3    0  502  0.67764500666E+01  0.11280660129E+04  0.49375252418E+03  0.12314099298E+04  0.10100000352E+00 0. -1.
</event>
<event>
 5   0  0.1008073E-05  0.2505450E+04  0.7818609E-02  0.8401047E-01
        1   -1    0    0  501    0  0.00000000000E+00  0.00000000000E+00  0.77452181096E+03  0.77452181098E+03  0.50400001928E-02 0. -1.
       -1   -1    0    0    0  501  0.00000000000E+00  0.00000000000E+00 -0.20261790306E+04  0.20261790306E+04  0.50400001928E-02 0.  1.
    10030    2    1    2    0    0  0.00000000000E+00  0.00000000000E+00 -0.12516572197E+04  0.28007008416E+04  0.25054499414E+04 0.  0.
        1    1    3    3  502    0 -0.50996182226E+03 -0.51498057983E+03  0.51637211105E+03  0.88989112528E+03  0.50400001928E-02 0. -1.
       -1    1    3    3    0  502  0.50996182226E+03  0.51498057983E+03 -0.17680293307E+04  0.19108097163E+04  0.50400001928E-02 0.  1.
</event>
<event>
 5   0  0.1008073E-05  0.2510942E+04  0.7818609E-02  0.8399098E-01
       -1   -1    0    0    0  501  0.00000000000E+00  0.00000000000E+00  0.14648413176E+04  0.14648413176E+04  0.50400001928E-02 0.  1.
        1   -1    0    0  501    0  0.00000000000E+00  0.00000000000E+00 -0.10760257599E+04  0.10760257599E+04  0.50400001928E-02 0. -1.
    10030    2    1    2    0    0  0.00000000000E+00  0.00000000000E+00  0.38881555776E+03  0.25408670775E+04  0.25109416496E+04 0.  0.
        1    1    3    3  502    0 -0.28481085237E+03 -0.95116486775E+03  0.97192383353E+03  0.13894127412E+04  0.50400001928E-02 0.  1.
       -1    1    3    3    0  502  0.28481085237E+03  0.95116486775E+03 -0.58310827578E+03  0.11514543363E+04  0.50400001928E-02 0. -1.
</event>
<event>
 5   0  0.1010338E-05  0.2492062E+04  0.7818609E-02  0.8405819E-01
       -1   -1    0    0    0  501  0.00000000000E+00  0.00000000000E+00  0.12307530301E+04  0.12307530301E+04  0.50400001928E-02 0.  1.
        1   -1    0    0  501    0  0.00000000000E+00  0.00000000000E+00 -0.12614990474E+04  0.12614990474E+04  0.50400001928E-02 0. -1.
    10030    2    1    2    0    0  0.00000000000E+00  0.00000000000E+00 -0.30746017296E+02  0.24922520775E+04  0.24920624190E+04 0.  0.
        2    1    3    3  502    0 -0.11795492228E+04  0.11322825302E+03 -0.40067725602E+03  0.12508793986E+04  0.25500000920E-02 0. -1.
       -2    1    3    3    0  502  0.11795492228E+04 -0.11322825302E+03  0.36993123873E+03  0.12413726788E+04  0.25500000920E-02 0.  1.
</event>
<event>
 5   0  0.2452457E-05  0.2503584E+04  0.7818609E-02  0.8401710E-01
        2   -1    0    0  501    0  0.00000000000E+00  0.00000000000E+00  0.93063753653E+03  0.93063753653E+03  0.25500000920E-02 0. -1.
       -2   -1    0    0    0  501  0.00000000000E+00  0.00000000000E+00 -0.16837739732E+04  0.16837739732E+04  0.25500000920E-02 0.  1.
    10030    2    1    2    0    0  0.00000000000E+00  0.00000000000E+00 -0.75313643670E+03  0.26144115098E+04  0.25035840409E+04 0.  0.
        1    1    3    3  502    0 -0.16589714927E+03  0.51854890022E+03  0.80052485340E+03  0.96811924214E+03  0.50400001928E-02 0. -1.
       -1    1    3    3    0  502  0.16589714927E+03 -0.51854890022E+03 -0.15536612901E+04  0.16462922676E+04  0.50400001928E-02 0.  1.
</event>
<event>
 5   0  0.2441340E-05  0.2505137E+04  0.7818609E-02  0.8401158E-01
        2   -1    0    0  501    0  0.00000000000E+00  0.00000000000E+00  0.78429068263E+03  0.78429068263E+03  0.25500000920E-02 0.  1.
       -2   -1    0    0    0  501  0.00000000000E+00  0.00000000000E+00 -0.20004420084E+04  0.20004420084E+04  0.25500000920E-02 0. -1.
    10030    2    1    2    0    0  0.00000000000E+00  0.00000000000E+00 -0.12161513258E+04  0.27847326911E+04  0.25051371446E+04 0.  0.
        3    1    3    3  502    0 -0.65386123679E+03  0.32541147357E+02 -0.17951233138E+04  0.19107750169E+04  0.10100000352E+00 0. -1.
       -3    1    3    3    0  502  0.65386123679E+03 -0.32541147357E+02  0.57897198797E+03  0.87395767420E+03  0.10100000352E+00 0.  1.
</event>
<event>
 5   0  0.2388326E-05  0.2433646E+04  0.7818609E-02  0.8427013E-01
       -2   -1    0    0    0  501  0.00000000000E+00  0.00000000000E+00  0.76431070414E+03  0.76431070415E+03  0.25500000920E-02 0.  1.
        2   -1    0    0  501    0  0.00000000000E+00  0.00000000000E+00 -0.19372470165E+04  0.19372470165E+04  0.25500000920E-02 0. -1.
    10030    2    1    2    0    0  0.00000000000E+00  0.00000000000E+00 -0.11729363123E+04  0.27015577206E+04  0.24336463435E+04 0.  0.
        2    1    3    3  502    0 -0.36555750008E+03 -0.51357040607E+02  0.70065240147E+03  0.79194925291E+03  0.25500000920E-02 0.  1.
       -2    1    3    3    0  502  0.36555750008E+03  0.51357040607E+02 -0.18735887138E+04  0.19096084677E+04  0.25500000920E-02 0. -1.
</event>
<event>
 5   0  0.2452457E-05  0.2496210E+04  0.7818609E-02  0.8404337E-01
        2   -1    0    0  501    0  0.00000000000E+00  0.00000000000E+00  0.18113903853E+04  0.18113903853E+04  0.25500000920E-02 0. -1.
       -2   -1    0    0    0  501  0.00000000000E+00  0.00000000000E+00 -0.85998365754E+03  0.85998365754E+03  0.25500000920E-02 0.  1.
    10030    2    1    2    0    0  0.00000000000E+00  0.00000000000E+00  0.95140672773E+03  0.26713740428E+04  0.24962100302E+04 0.  0.
        1    1    3    3  502    0 -0.71890789283E+03  0.73123975300E+03  0.12371260263E+04  0.16068668083E+04  0.50400001928E-02 0. -1.
       -1    1    3    3    0  502  0.71890789283E+03 -0.73123975300E+03 -0.28571929854E+03  0.10645072345E+04  0.50400001928E-02 0.  1.
</event>
<event>
 5   0  0.2441340E-05  0.2490741E+04  0.7818609E-02  0.8406292E-01
       -2   -1    0    0    0  501  0.00000000000E+00  0.00000000000E+00  0.14781092037E+04  0.14781092037E+04  0.25500000920E-02 0. -1.
        2   -1    0    0  501    0  0.00000000000E+00  0.00000000000E+00 -0.10492781486E+04  0.10492781486E+04  0.25500000920E-02 0.  1.
    10030    2    1    2    0    0  0.00000000000E+00  0.00000000000E+00  0.42883105512E+03  0.25273873523E+04  0.24907410052E+04 0.  0.
        3    1    3    3  502    0  0.37876027972E+03 -0.30782711965E+01  0.14182427959E+04  0.14679514514E+04  0.10100000352E+00 0. -1.
       -3    1    3    3    0  502 -0.37876027972E+03  0.30782711965E+01 -0.98941174078E+03  0.10594359010E+04  0.10100000352E+00 0.  1.
</event>
<event>
 5   0  0.1039688E-05  0.2542922E+04  0.7818609E-02  0.8387852E-01
        1   -1    0    0  501    0  0.00000000000E+00  0.00000000000E+00  0.76056418088E+03  0.76056418090E+03  0.50400001928E-02 0. -1.
       -1   -1    0    0    0  501  0.00000000000E+00  0.00000000000E+00 -0.21255451977E+04  0.21255451977E+04  0.50400001928E-02 0.  1.
    10030    2    1    2    0    0  0.00000000000E+00  0.00000000000E+00 -0.13649810168E+04  0.28861093786E+04  0.25429223679E+04 0.  0.
        3    1    3    3  502    0  0.11863608866E+03  0.25610064743E+03  0.72456023941E+03  0.77759218996E+03  0.10100000352E+00 0. -1.
       -3    1    3    3    0  502 -0.11863608866E+03 -0.25610064743E+03 -0.20895412562E+04  0.21085171887E+04  0.10100000352E+00 0.  1.
</event>
<event>
 5   0  0.8166500E-06  0.2504296E+04  0.7818609E-02  0.8401457E-01
        3   -1    0    0  501    0  0.00000000000E+00  0.00000000000E+00  0.78590673953E+03  0.78590674602E+03  0.10100000352E+00 0. -1.
       -3   -1    0    0    0  501  0.00000000000E+00  0.00000000000E+00 -0.19949875143E+04  0.19949875169E+04  0.10100000352E+00 0.  1.
    10030    2    1    2    0    0  0.00000000000E+00  0.00000000000E+00 -0.12090807748E+04  0.27808942629E+04  0.25042956258E+04 0.  0.
        5    1    3    3  502    0 -0.11020556051E+04 -0.32874600541E+03 -0.11544670452E+04  0.16295449492E+04  0.46999998093E+01 0.  1.
       -5    1    3    3    0  502  0.11020556051E+04  0.32874600541E+03 -0.54613729519E+02  0.11513493137E+04  0.46999998093E+01 0. -1.
</event>
<event>
 5   0  0.2432309E-05  0.2570295E+04  0.7818609E-02  0.8378362E-01
        2   -1    0    0  501    0  0.00000000000E+00  0.00000000000E+00  0.19911000730E+04  0.19911000730E+04  0.25500000920E-02 0.  1.
       -2   -1    0    0    0  501  0.00000000000E+00  0.00000000000E+00 -0.82949351538E+03  0.82949351538E+03  0.25500000920E-02 0. -1.
    10030    2    1    2    0    0  0.00000000000E+00  0.00000000000E+00  0.11616065576E+04  0.28205935884E+04  0.25702953908E+04 0.  0.
        4    1    3    3  502    0  0.20038017115E+03 -0.12606120156E+04  0.41689950378E+03  0.13427962153E+04  0.12699999809E+01 0. -1.
       -4    1    3    3    0  502 -0.20038017115E+03  0.12606120156E+04  0.74470705382E+03  0.14777973730E+04  0.12699999809E+01 0.  1.
</event>
<event>
 5   0  0.2388326E-05  0.2574345E+04  0.7818609E-02  0.8376968E-01
        2   -1    0    0  501    0  0.00000000000E+00  0.00000000000E+00  0.10099655306E+04  0.10099655306E+04  0.25500000920E-02 0.  1.
       -2   -1    0    0    0  501  0.00000000000E+00  0.00000000000E+00 -0.16404647789E+04  0.16404647789E+04  0.25500000920E-02 0. -1.
    10030    2    1    2    0    0  0.00000000000E+00  0.00000000000E+00 -0.63049924830E+03  0.26504303094E+04  0.25743448726E+04 0.  0.
        2    1    3    3  502    0  0.11248604858E+04 -0.22945465284E+03  0.28406503554E+03  0.11826468174E+04  0.25500000920E-02 0.  1.
       -2    1    3    3    0  502 -0.11248604858E+04  0.22945465284E+03 -0.91456428384E+03  0.14677834920E+04  0.25500000920E-02 0. -1.
</event>
<event>
 5   0  0.1010338E-05  0.2505429E+04  0.7818609E-02  0.8401054E-01
       -1   -1    0    0    0  501  0.00000000000E+00  0.00000000000E+00  0.19725911119E+04  0.19725911120E+04  0.50400001928E-02 0.  1.
        1   -1    0    0  501    0  0.00000000000E+00  0.00000000000E+00 -0.79554957402E+03  0.79554957404E+03  0.50400001928E-02 0. -1.
    10030    2    1    2    0    0  0.00000000000E+00  0.00000000000E+00  0.11770415379E+04  0.27681406860E+04  0.25054293196E+04 0.  0.
        2    1    3    3  502    0 -0.50896593594E+02 -0.12502094123E+04  0.52149700726E+03  0.13555711587E+04  0.25500000920E-02 0.  1.
       -2    1    3    3    0  502  0.50896593594E+02  0.12502094123E+04  0.65554453066E+03  0.14125695273E+04  0.25500000920E-02 0. -1.
</event>
<event>
 5   0  0.1010338E-05  0.2499166E+04  0.7818609E-02  0.8403283E-01
       -1   -1    0    0    0  501  0.00000000000E+00  0.00000000000E+00  0.85110420224E+03  0.85110420226E+03  0.50400001928E-02 0. -1.
        1   -1    0    0  501    0  0.00000000000E+00  0.00000000000E+00 -0.18346255010E+04  0.18346255010E+04  0.50400001928E-02 0.  1.
    10030    2    1    2    0    0  0.00000000000E+00  0.00000000000E+00 -0.98352129877E+03  0.26857297033E+04  0.24991658396E+04 0.  0.
        2    1    3    3  502    0 -0.22883863957E+03  0.10155891251E+04 -0.12344903500E+04  0.16148544264E+04  0.25500000920E-02 0.  1.
       -2    1    3    3    0  502  0.22883863957E+03 -0.10155891251E+04  0.25096905124E+03  0.10708752769E+04  0.25500000920E-02 0. -1.
</event>
<event>
 5   0  0.2452457E-05  0.2537520E+04  0.7818609E-02  0.8389740E-01
        2   -1    0    0  501    0  0.00000000000E+00  0.00000000000E+00  0.18617420777E+04  0.18617420777E+04  0.25500000920E-02 0.  1.
       -2   -1    0    0    0  501  0.00000000000E+00  0.00000000000E+00 -0.86464794911E+03  0.86464794911E+03  0.25500000920E-02 0. -1.
    10030    2    1    2    0    0  0.00000000000E+00  0.00000000000E+00  0.99709412862E+03  0.27263900268E+04  0.25375196309E+04 0.  0.
        1    1    3    3  502    0  0.12662176352E+02  0.10577914244E+04 -0.25406753158E+03  0.10879491435E+04  0.50400001928E-02 0. -1.
       -1    1    3    3    0  502 -0.12662176352E+02 -0.10577914244E+04  0.12511616602E+04  0.16384408833E+04  0.50400001928E-02 0.  1.
</event>
<event>
 5   0  0.1008073E-05  0.2481376E+04  0.7818609E-02  0.8409650E-01
       -1   -1    0    0    0  501  0.00000000000E+00  0.00000000000E+00  0.90932882018E+03  0.90932882020E+03  0.50400001928E-02 0.  1.
        1   -1    0    0  501    0  0.00000000000E+00  0.00000000000E+00 -0.16927948569E+04  0.16927948569E+04  0.50400001928E-02 0. -1.
    10030    2    1    2    0    0  0.00000000000E+00  0.00000000000E+00 -0.78346603670E+03  0.26021236771E+04  0.24813763520E+04 0.  0.
        1    1    3    3  502    0 -0.41469864587E+03 -0.11577954058E+04 -0.21992533556E+03  0.12493327507E+04  0.50400001928E-02 0. -1.
       -1    1    3    3    0  502  0.41469864587E+03  0.11577954058E+04 -0.56354070115E+03  0.13527909264E+04  0.50400001928E-02 0.  1.
</event>
<event>
 5   0  0.1002753E-05  0.2482792E+04  0.7818609E-02  0.8409142E-01
        1   -1    0    0  501    0  0.00000000000E+00  0.00000000000E+00  0.88446548755E+03  0.88446548756E+03  0.50400001928E-02 0. -1.
       -1   -1    0    0    0  501  0.00000000000E+00  0.00000000000E+00 -0.17423672446E+04  0.17423672446E+04  0.50400001928E-02 0.  1.
    10030    2    1    2    0    0  0.00000000000E+00  0.00000000000E+00 -0.85790175707E+03  0.26268327322E+04  0.24827917307E+04 0.  0.
        5    1    3    3  502    0 -0.92145199304E+03  0.81124416208E+03 -0.62361064734E+03  0.13769906301E+04  0.46999998093E+01 0.  1.
       -5    1    3    3    0  502  0.92145199304E+03 -0.81124416208E+03 -0.23429110973E+03  0.12498421021E+04  0.46999998093E+01 0. -1.
</event>
<event>
 5   0  0.1008073E-05  0.2516041E+04  0.7818609E-02  0.8397293E-01
       -1   -1    0    0    0  501  0.00000000000E+00  0.00000000000E+00  0.19725365625E+04  0.19725365625E+04  0.50400001928E-02 0. -1.
        1   -1    0    0  501    0  0.00000000000E+00  0.00000000000E+00 -0.80232497760E+03  0.80232497762E+03  0.50400001928E-02 0.  1.
    10030    2    1    2    0    0  0.00000000000E+00  0.00000000000E+00  0.11702115849E+04  0.27748615401E+04  0.25160408211E+04 0.  0.
        1    1    3    3  502    0 -0.94567064751E+02  0.51338233868E+03 -0.67723809325E+03  0.85507648218E+03  0.50400001928E-02 0.  1.
       -1    1    3    3    0  502  0.94567064751E+02 -0.51338233868E+03  0.18474496782E+04  0.19197850580E+04  0.50400001928E-02 0. -1.
</event>
<event>
 5   0  0.1039688E-05  0.2524489E+04  0.7818609E-02  0.8394313E-01
        1   -1    0    0  501    0  0.00000000000E+00  0.00000000000E+00  0.71646384482E+03  0.71646384484E+03  0.50400001928E-02 0. -1.
       -1   -1    0    0    0  501  0.00000000000E+00  0.00000000000E+00 -0.22237846635E+04  0.22237846635E+04  0.50400001928E-02 0.  1.
    10030    2    1    2    0    0  0.00000000000E+00  0.00000000000E+00 -0.15073208187E+04  0.29402485084E+04  0.25244891049E+04 0.  0.
        3    1    3    3  502    0  0.49107970085E+03  0.10024371864E+04 -0.67360445055E+02  0.11182920124E+04  0.10100000352E+00 0. -1.
       -3    1    3    3    0  502 -0.49107970085E+03 -0.10024371864E+04 -0.14399603737E+04  0.18219564960E+04  0.10100000352E+00 0.  1.
</event>
<event>
 5   0  0.2441340E-05  0.2516437E+04  0.7818609E-02  0.8397153E-01
       -2   -1    0    0    0  501  0.00000000000E+00  0.00000000000E+00  0.21063648913E+04  0.21063648913E+04  0.25500000920E-02 0. -1.
        2   -1    0    0  501    0  0.00000000000E+00  0.00000000000E+00 -0.75158582740E+03  0.75158582741E+03  0.25500000920E-02 0.  1.
    10030    2    1    2    0    0  0.00000000000E+00  0.00000000000E+00  0.13547790639E+04  0.28579507187E+04  0.25164371637E+04 0.  0.
        3    1    3    3  502    0  0.81333302674E+03  0.79337648953E+03  0.63518860430E+02  0.11379769428E+04  0.10100000352E+00 0.  1.
       -3    1    3    3    0  502 -0.81333302674E+03 -0.79337648953E+03  0.12912602035E+04  0.17199737759E+04  0.10100000352E+00 0. -1.
</event>
<event>
 5   0  0.2452457E-05  0.2508400E+04  0.7818609E-02  0.8399999E-01
        2   -1    0    0  501    0  0.00000000000E+00  0.00000000000E+00  0.12973815019E+04  0.12973815020E+04  0.25500000920E-02 0. -1.
       -2   -1    0    0    0  501  0.00000000000E+00  0.00000000000E+00 -0.12124559866E+04  0.12124559866E+04  0.25500000920E-02 0.  1.
    10030    2    1    2    0    0  0.00000000000E+00  0.00000000000E+00  0.84925515382E+02  0.25098374885E+04  0.25084002622E+04 0.  0.
        1    1    3    3  502    0  0.31499590944E+03 -0.10405217339E+04 -0.58328350119E+03  0.12337453321E+04  0.50400001928E-02 0.  1.
       -1    1    3    3    0  502 -0.31499590944E+03  0.10405217339E+04  0.66820901657E+03  0.12760921564E+04  0.50400001928E-02 0. -1.
</event>
<event>
 5   0  0.2432309E-05  0.2477095E+04  0.7818609E-02  0.8411191E-01
       -2   -1    0    0    0  501  0.00000000000E+00  0.00000000000E+00  0.13679255923E+04  0.13679255923E+04  0.25500000920E-02 0.  1.
        2   -1    0    0  501    0  0.00000000000E+00  0.00000000000E+00 -0.11214059319E+04  0.11214059319E+04  0.25500000920E-02 0. -1.
    10030    2    1    2    0    0  0.00000000000E+00  0.00000000000E+00  0.24651966038E+03  0.24893315242E+04  0.24770949708E+04 0.  0.
        4    1    3    3  502    0  0.28175319890E+03  0.80771184192E+03 -0.77682919007E+03  0.11555295271E+04  0.12699999809E+01 0. -1.
       -4    1    3    3    0  502 -0.28175319890E+03 -0.80771184192E+03  0.10233488504E+04  0.13338019970E+04  0.12699999809E+01 0.  1.
</event>
<event>
 5   0  0.1010338E-05  0.2514350E+04  0.7818609E-02  0.8397891E-01
        1   -1    0    0  501    0  0.00000000000E+00  0.00000000000E+00  0.12964332376E+04  0.12964332376E+04  0.50400001928E-02 0.  1.
       -1   -1    0    0    0  501  0.00000000000E+00  0.00000000000E+00 -0.12191051118E+04  0.12191051118E+04  0.50400001928E-02 0. -1.
    10030    2    1    2    0    0  0.00000000000E+00  0.00000000000E+00  0.77328125836E+02  0.25155383494E+04  0.25143495278E+04 0.  0.
        2    1    3    3  502    0 -0.11472168490E+04 -0.27016188577E+03  0.47635742014E+03  0.12712239515E+04  0.25500000920E-02 0.  1.
       -2    1    3    3    0  502  0.11472168490E+04  0.27016188577E+03 -0.39902929430E+03  0.12443143979E+04  0.25500000920E-02 0. -1.
</event>
<event>
 5   0  0.2345143E-05  0.2486200E+04  0.7818609E-02  0.8407918E-01
       -2   -1    0    0    0  501  0.00000000000E+00  0.00000000000E+00  0.14573004495E+04  0.14573004495E+04  0.25500000920E-02 0. -1.
        2   -1    0    0  501    0  0.00000000000E+00  0.00000000000E+00 -0.10603838291E+04  0.10603838291E+04  0.25500000920E-02 0.  1.
    10030    2    1    2    0    0  0.00000000000E+00  0.00000000000E+00  0.39691662040E+03  0.25176842786E+04  0.24862001776E+04 0.  0.
        5    1    3    3  502    0 -0.42221111398E+03  0.98615700473E+03 -0.43759426450E+03  0.11585675177E+04  0.46999998093E+01 0.  1.
       -5    1    3    3    0  502  0.42221111398E+03 -0.98615700473E+03  0.83451088489E+03  0.13591167609E+04  0.46999998093E+01 0. -1.
</event>
<event>
 5   0  0.2345143E-05  0.2510954E+04  0.7818609E-02  0.8399093E-01
        2   -1    0    0  501    0  0.00000000000E+00  0.00000000000E+00  0.15317378102E+04  0.15317378102E+04  0.25500000920E-02 0. -1.
       -2   -1    0    0    0  501  0.00000000000E+00  0.00000000000E+00 -0.10290422900E+04  0.10290422900E+04  0.25500000920E-02 0.  1.
    10030    2    1    2    0    0  0.00000000000E+00  0.00000000000E+00  0.50269552016E+03  0.25607801002E+04  0.25109543874E+04 0.  0.
        5    1    3    3  502    0 -0.11559151749E+04 -0.37959129327E+03 -0.64592154628E+02  0.12183692699E+04  0.46999998093E+01 0.  1.
       -5    1    3    3    0  502  0.11559151749E+04  0.37959129327E+03  0.56728767479E+03  0.13424108303E+04  0.46999998093E+01 0. -1.
</event>
<event>
 5   0  0.2441340E-05  0.2530183E+04  0.7818609E-02  0.8392311E-01
       -2   -1    0    0    0  501  0.00000000000E+00  0.00000000000E+00  0.77579062815E+03  0.77579062816E+03  0.25500000920E-02 0.  1.
        2   -1    0    0  501    0  0.00000000000E+00  0.00000000000E+00 -0.20630003068E+04  0.20630003068E+04  0.25500000920E-02 0. -1.
    10030    2    1    2    0    0  0.00000000000E+00  0.00000000000E+00 -0.12872096787E+04  0.28387909350E+04  0.25301828423E+04 0.  0.
        3    1    3    3  502    0 -0.27595936367E+03  0.29499728621E+03 -0.19886971576E+04  0.20293085926E+04  0.10100000352E+00 0. -1.
       -3    1    3    3    0  502  0.27595936367E+03 -0.29499728621E+03  0.70148747894E+03  0.80948234235E+03  0.10100000352E+00 0.  1.
</event>
<event>
 5   0  0.2345143E-05  0.2526093E+04  0.7818609E-02  0.8393748E-01
       -2   -1    0    0    0  501  0.00000000000E+00  0.00000000000E+00  0.15427765786E+04  0.15427765786E+04  0.25500000920E-02 0. -1.
        2   -1    0    0  501    0  0.00000000000E+00  0.00000000000E+00 -0.10340363033E+04  0.10340363033E+04  0.25500000920E-02 0.  1.
    10030    2    1    2    0    0  0.00000000000E+00  0.00000000000E+00  0.50874027533E+03  0.25768128819E+04  0.25260934188E+04 0.  0.
        5    1    3    3  502    0 -0.63238312643E+03  0.10915379246E+04  0.31808576679E+03  0.13009858203E+04  0.46999998093E+01 0. -1.
       -5    1    3    3    0  502  0.63238312643E+03 -0.10915379246E+04  0.19065450855E+03  0.12758270616E+04  0.46999998093E+01 0.  1.
</event>
<event>
 5   0  0.2388326E-05  0.2546912E+04  0.7818609E-02  0.8386461E-01
        2   -1    0    0  501    0  0.00000000000E+00  0.00000000000E+00  0.22909526605E+04  0.22909526605E+04  0.25500000920E-02 0.  1.
       -2   -1    0    0    0  501  0.00000000000E+00  0.00000000000E+00 -0.70786738558E+03  0.70786738559E+03  0.25500000920E-02 0. -1.
    10030    2    1    2    0    0  0.00000000000E+00  0.00000000000E+00  0.15830852749E+04  0.29988200461E+04  0.25469123819E+04 0.  0.
        2    1    3    3  502    0 -0.43402841141E+03  0.33039340689E+03 -0.56335044858E+03  0.78415827048E+03  0.25500000920E-02 0. -1.
       -2    1    3    3    0  502  0.43402841141E+03 -0.33039340689E+03  0.21464357235E+04  0.22146617756E+04  0.25500000920E-02 0.  1.
</event>
<event>
 5   0  0.2345143E-05  0.2492336E+04  0.7818609E-02  0.8405721E-01
       -2   -1    0    0    0  501  0.00000000000E+00  0.00000000000E+00  0.46619441461E+03  0.46619441462E+03  0.25500000920E-02 0. -1.
        2   -1    0    0  501    0  0.00000000000E+00  0.00000000000E+00 -0.33310883092E+04  0.33310883092E+04  0.25500000920E-02 0.  1.
    10030    2    1    2    0    0  0.00000000000E+00  0.00000000000E+00 -0.28648938946E+04  0.37972827238E+04  0.24923360643E+04 0.  0.
        5    1    3    3  502    0 -0.32191142652E+02  0.95678180703E+03 -0.21696989567E+03  0.98161383525E+03  0.46999998093E+01 0.  1.
       -5    1    3    3    0  502  0.32191142652E+02 -0.95678180703E+03 -0.26479239989E+04  0.28156688885E+04  0.46999998093E+01 0. -1.
</event>
<event>
 5   0  0.2388326E-05  0.2510524E+04  0.7818609E-02  0.8399246E-01
        2   -1    0    0  501    0  0.00000000000E+00  0.00000000000E+00  0.16557280693E+04  0.16557280693E+04  0.25500000920E-02 0.  1.
       -2   -1    0    0    0  501  0.00000000000E+00  0.00000000000E+00 -0.95165520395E+03  0.95165520395E+03  0.25500000920E-02 0. -1.
    10030    2    1    2    0    0  0.00000000000E+00  0.00000000000E+00  0.70407286532E+03  0.26073832732E+04  0.25105236374E+04 0.  0.
        2    1    3    3  502    0  0.28520151483E+02 -0.11551477028E+04  0.86136784971E+03  0.14412266258E+04  0.25500000920E-02 0. -1.
       -2    1    3    3    0  502 -0.28520151483E+02  0.11551477028E+04 -0.15729498439E+03  0.11661566475E+04  0.25500000920E-02 0.  1.
</event>
<event>
 5   0  0.2432309E-05  0.2456403E+04  0.7818609E-02  0.8418684E-01
        2   -1    0    0  501    0  0.00000000000E+00  0.00000000000E+00  0.24605729933E+04  0.24605729933E+04  0.25500000920E-02 0.  1.
       -2   -1    0    0    0  501  0.00000000000E+00  0.00000000000E+00 -0.61305994825E+03  0.61305994825E+03  0.25500000920E-02 0. -1.
    10030    2    1    2    0    0  0.00000000000E+00  0.00000000000E+00  0.18475130451E+04  0.30736329416E+04  0.24564028594E+04 0.  0.
        4    1    3    3  502    0  0.65165996573E+03  0.18125165244E+03  0.22065193990E+04  0.23078653218E+04  0.12699999809E+01 0.  1.
       -4    1    3    3    0  502 -0.65165996573E+03 -0.18125165244E+03 -0.35900635393E+03  0.76576761979E+03  0.12699999809E+01 0. -1.
</event>
<event>
 5   0  0.2452457E-05  0.2477712E+04  0.7818609E-02  0.8410969E-01
       -2   -1    0    0    0  501  0.00000000000E+00  0.00000000000E+00  0.10550543206E+04  0.10550543206E+04  0.25500000920E-02 0. -1.
        2   -1    0    0  501    0  0.00000000000E+00  0.00000000000E+00 -0.14546780299E+04  0.14546780299E+04  0.25500000920E-02 0.  1.
    10030    2    1    2    0    0  0.00000000000E+00  0.00000000000E+00 -0.39962370926E+03  0.25097323505E+04  0.24777121225E+04 0.  0.
        1    1    3    3  502    0  0.63361398091E+03 -0.85896122854E+03  0.43718989053E+03  0.11534366343E+04  0.50400001928E-02 0. -1.
       -1    1    3    3    0  502 -0.63361398091E+03  0.85896122854E+03 -0.83681359979E+03  0.13562957162E+04  0.50400001928E-02 0.  1.
</event>
<event>
 5   0  0.1008073E-05  0.2507267E+04  0.7818609E-02  0.8400401E-01
        1   -1    0    0  501    0  0.00000000000E+00  0.00000000000E+00  0.11094186883E+04  0.11094186883E+04  0.50400001928E-02 0. -1.
       -1   -1    0    0    0  501  0.00000000000E+00  0.00000000000E+00 -0.14165951593E+04  0.14165951593E+04  0.50400001928E-02 0.  1.
    10030    2    1    2    0    0  0.00000000000E+00  0.00000000000E+00 -0.30717647107E+03  0.25260138476E+04  0.25072671525E+04 0.  0.
        1    1    3    3  502    0  0.44933820833E+02 -0.18513229403E+03 -0.14019266209E+04  0.14148113885E+04  0.50400001928E-02 0.  1.
       -1    1    3    3    0  502 -0.44933820833E+02  0.18513229403E+03  0.10947501498E+04  0.11112024591E+04  0.50400001928E-02 0. -1.
</event>
<event>
 5   0  0.1002753E-05  0.2485523E+04  0.7818609E-02  0.8408161E-01
       -1   -1    0    0    0  501  0.00000000000E+00  0.00000000000E+00  0.13620054196E+04  0.13620054196E+04  0.50400001928E-02 0.  1.
        1   -1    0    0  501    0  0.00000000000E+00  0.00000000000E+00 -0.11339577763E+04  0.11339577763E+04  0.50400001928E-02 0. -1.
    10030    2    1    2    0    0  0.00000000000E+00  0.00000000000E+00  0.22804764332E+03  0.24959631959E+04  0.24855233951E+04 0.  0.
        5    1    3    3  502    0  0.13398119443E+03 -0.87394705932E+03  0.99101904988E+03  0.13281096604E+04  0.46999998093E+01 0.  1.
       -5    1    3    3    0  502 -0.13398119443E+03  0.87394705932E+03 -0.76297140656E+03  0.11678535354E+04  0.46999998093E+01 0. -1.
</event>
<event>
 5   0  0.1010338E-05  0.2573163E+04  0.7818609E-02  0.8377375E-01
        1   -1    0    0  501    0  0.00000000000E+00  0.00000000000E+00  0.16832691615E+04  0.16832691615E+04  0.50400001928E-02 0.  1.
       -1   -1    0    0    0  501  0.00000000000E+00  0.00000000000E+00 -0.98337934304E+03  0.98337934306E+03  0.50400001928E-02 0. -1.
    10030    2    1    2    0    0  0.00000000000E+00  0.00000000000E+00  0.69988981841E+03  0.26666485045E+04  0.25731631291E+04 0.  0.
        2    1    3    3  502    0 -0.42544597710E+02  0.12391363816E+04 -0.60813052290E+01  0.12398814449E+04  0.25500000920E-02 0.  1.
       -2    1    3    3    0  502  0.42544597710E+02 -0.12391363816E+04  0.70597112364E+03  0.14267670596E+04  0.25500000920E-02 0. -1.
</event>
<event>
 5   0  0.8166500E-06  0.2402226E+04  0.7818609E-02  0.8438671E-01
        3   -1    0    0  501    0  0.00000000000E+00  0.00000000000E+00  0.10846034255E+04  0.10846034302E+04  0.10100000352E+00 0. -1.
       -3   -1    0    0    0  501  0.00000000000E+00  0.00000000000E+00 -0.13301378897E+04  0.13301378935E+04  0.10100000352E+00 0.  1.
    10030    2    1    2    0    0  0.00000000000E+00  0.00000000000E+00 -0.24553446420E+03  0.24147413238E+04  0.24022257362E+04 0.  0.
        2    1    3    3  502    0 -0.11646454103E+04 -0.82123332956E+01 -0.41790508307E+03  0.12373807145E+04  0.25500000920E-02 0. -1.
       -2    1    3    3    0  502  0.11646454103E+04  0.82123332956E+01  0.17237061887E+03  0.11773606093E+04  0.25500000920E-02 0.  1.
</event>
<event>
 5   0  0.2452457E-05  0.2490201E+04  0.7818609E-02  0.8406485E-01
        2   -1    0    0  501    0  0.00000000000E+00  0.00000000000E+00  0.14886001971E+04  0.14886001971E+04  0.25500000920E-02 0. -1.
       -2   -1    0    0    0  501  0.00000000000E+00  0.00000000000E+00 -0.10414314681E+04  0.10414314681E+04  0.25500000920E-02 0.  1.
    10030    2    1    2    0    0  0.00000000000E+00  0.00000000000E+00  0.44716872905E+03  0.25300316652E+04  0.24902008664E+04 0.  0.
        1    1    3    3  502    0  0.98080278595E+03 -0.75692831250E+03  0.34950428592E+03  0.12872714636E+04  0.50400001928E-02 0. -1.
       -1    1    3    3    0  502 -0.98080278595E+03  0.75692831250E+03  0.97664443135E+02  0.12427602016E+04  0.50400001928E-02 0.  1.
</event>
<event>
 5   0  0.2432309E-05  0.2495113E+04  0.7818609E-02  0.8404729E-01
       -2   -1    0    0    0  501  0.00000000000E+00  0.00000000000E+00  0.88438442123E+03  0.88438442124E+03  0.25500000920E-02 0. -1.
        2   -1    0    0  501    0  0.00000000000E+00  0.00000000000E+00 -0.17598653715E+04  0.17598653715E+04  0.25500000920E-02 0.  1.
    10030    2    1    2    0    0  0.00000000000E+00  0.00000000000E+00 -0.87548095024E+03  0.26442497927E+04  0.24951132383E+04 0.  0.
        4    1    3    3  502    0  0.43680976601E+03  0.30038350530E+03 -0.16345612117E+04  0.17183785932E+04  0.12699999809E+01 0.  1.
       -4    1    3    3    0  502 -0.43680976601E+03 -0.30038350530E+03  0.75908026142E+03  0.92587119953E+03  0.12699999809E+01 0. -1.
</event>
<event>
 5   0  0.1015327E-05  0.2527820E+04  0.7818609E-02  0.8393141E-01
       -1   -1    0    0    0  501  0.00000000000E+00  0.00000000000E+00  0.22652329716E+04  0.22652329716E+04  0.50400001928E-02 0. -1.
        1   -1    0    0  501    0  0.00000000000E+00  0.00000000000E+00 -0.70521151883E+03  0.70521151885E+03  0.50400001928E-02 0.  1.
    10030    2    1    2    0    0  0.00000000000E+00  0.00000000000E+00  0.15600214528E+04  0.29704444905E+04  0.25278199180E+04 0.  0.
        4    1    3    3  502    0 -0.31221743231E+03 -0.84743985350E+03  0.18190506530E+04  0.20309064285E+04  0.12699999809E+01 0. -1.
       -4    1    3    3    0  502  0.31221743231E+03  0.84743985350E+03 -0.25902920024E+03  0.93953806193E+03  0.12699999809E+01 0.  1.
</event>
<event>
 5   0  0.1010338E-05  0.2507968E+04  0.7818609E-02  0.8400152E-01
       -1   -1    0    0    0  501  0.00000000000E+00  0.00000000000E+00  0.19153167512E+04  0.19153167512E+04  0.50400001928E-02 0.  1.
        1   -1    0    0  501    0  0.00000000000E+00  0.00000000000E+00 -0.82100059364E+03  0.82100059366E+03  0.50400001928E-02 0. -1.
    10030    2    1    2    0    0  0.00000000000E+00  0.00000000000E+00  0.10943161576E+04  0.27363173449E+04  0.25079682532E+04 0.  0.
        2    1    3    3  502    0  0.49332027548E+03 -0.10215263922E+04 -0.35910749462E+02  0.11349760553E+04  0.25500000920E-02 0. -1.
       -2    1    3    3    0  502 -0.49332027548E+03  0.10215263922E+04  0.11302269070E+04  0.16013412896E+04  0.25500000920E-02 0.  1.
</event>
<event>
 5   0  0.1010338E-05  0.2376255E+04  0.7818609E-02  0.8448447E-01
        1   -1    0    0  501    0  0.00000000000E+00  0.00000000000E+00  0.12161567271E+04  0.12161567271E+04  0.50400001928E-02 0.  1.
       -1   -1    0    0    0  501  0.00000000000E+00  0.00000000000E+00 -0.11607440769E+04  0.11607440769E+04  0.50400001928E-02 0. -1.
    10030    2    1    2    0    0  0.00000000000E+00  0.00000000000E+00  0.55412650242E+02  0.23769008040E+04  0.23762547991E+04 0.  0.
        2    1    3    3  502    0  0.31735452399E+02  0.60526012426E+03 -0.99448134901E+03  0.11646201572E+04  0.25500000920E-02 0. -1.
       -2    1    3    3    0  502 -0.31735452399E+02 -0.60526012426E+03  0.10498939993E+04  0.12122806468E+04  0.25500000920E-02 0.  1.
</event>
<event>
 5   0  0.2388326E-05  0.2511945E+04  0.7818609E-02  0.8398742E-01
       -2   -1    0    0    0  501  0.00000000000E+00  0.00000000000E+00  0.15820481667E+04  0.15820481667E+04  0.25500000920E-02 0.  1.
        2   -1    0    0  501    0  0.00000000000E+00  0.00000000000E+00 -0.99710454741E+03  0.99710454741E+03  0.25500000920E-02 0. -1.
    10030    2    1    2    0    0  0.00000000000E+00  0.00000000000E+00  0.58494361928E+03  0.25791527141E+04  0.25119453985E+04 0.  0.
        2    1    3    3  502    0 -0.99060516479E+03 -0.44898373116E+03 -0.35249258309E+03  0.11433004874E+04  0.25500000920E-02 0. -1.
       -2    1    3    3    0  502  0.99060516479E+03  0.44898373116E+03  0.93743620237E+03  0.14358522267E+04  0.25500000920E-02 0.  1.
</event>
<event>
 5   0  0.1008073E-05  0.2465629E+04  0.7818609E-02  0.8415334E-01
        1   -1    0    0  501    0  0.00000000000E+00  0.00000000000E+00  0.69178313367E+03  0.69178313368E+03  0.50400001928E-02 0. -1.
       -1   -1    0    0    0  501  0.00000000000E+00  0.00000000000E+00 -0.21969763887E+04  0.21969763887E+04  0.50400001928E-02 0.  1.
    10030    2    1    2    0    0  0.00000000000E+00  0.00000000000E+00 -0.15051932551E+04  0.28887595224E+04  0.24656286913E+04 0.  0.
        1    1    3    3  502    0  0.37383078984E+03  0.11736669800E+04 -0.69299887379E+03  0.14133262463E+04  0.50400001928E-02 0. -1.
       -1    1    3    3    0  502 -0.37383078984E+03 -0.11736669800E+04 -0.81219438126E+03  0.14754332761E+04  0.50400001928E-02 0.  1.
</event>
<event>
 5   0  0.1015327E-05  0.2490026E+04  0.7818609E-02  0.8406548E-01
       -1   -1    0    0    0  501  0.00000000000E+00  0.00000000000E+00  0.13400664258E+04  0.13400664258E+04  0.50400001928E-02 0.  1.
        1   -1    0    0  501    0  0.00000000000E+00  0.00000000000E+00 -0.11567014301E+04  0.11567014301E+04  0.50400001928E-02 0. -1.
    10030    2    1    2    0    0  0.00000000000E+00  0.00000000000E+00  0.18336499572E+03  0.24967678559E+04  0.24900255028E+04 0.  0.
        4    1    3    3  502    0  0.91657835825E+02 -0.52148814172E+03  0.12215450893E+04  0.13313621066E+04  0.12699999809E+01 0.  1.
       -4    1    3    3    0  502 -0.91657835825E+02  0.52148814172E+03 -0.10381800936E+04  0.11654057493E+04  0.12699999809E+01 0. -1.
</event>
<event>
 5   0  0.1039688E-05  0.2494212E+04  0.7818609E-02  0.8405050E-01
        1   -1    0    0  501    0  0.00000000000E+00  0.00000000000E+00  0.18484799304E+04  0.18484799304E+04  0.50400001928E-02 0.  1.
       -1   -1    0    0    0  501  0.00000000000E+00  0.00000000000E+00 -0.84137957534E+03  0.84137957536E+03  0.50400001928E-02 0. -1.
    10030    2    1    2    0    0  0.00000000000E+00  0.00000000000E+00  0.10071003550E+04  0.26898595057E+04  0.24942119067E+04 0.  0.
        3    1    3    3  502    0 -0.60710694401E+03  0.62079982952E+03  0.14689214178E+04  0.17063708306E+04  0.10100000352E+00 0.  1.
       -3    1    3    3    0  502  0.60710694401E+03 -0.62079982952E+03 -0.46182106278E+03  0.98348867509E+03  0.10100000352E+00 0. -1.
</event>
<event>
 5   0  0.1015327E-05  0.2556173E+04  0.7818609E-02  0.8383242E-01
       -1   -1    0    0    0  501  0.00000000000E+00  0.00000000000E+00  0.83993394194E+03  0.83993394195E+03  0.50400001928E-02 0.  1.
        1   -1    0    0  501    0  0.00000000000E+00  0.00000000000E+00 -0.19448021844E+04  0.19448021844E+04  0.50400001928E-02 0. -1.
    10030    2    1    2    0    0  0.00000000000E+00  0.00000000000E+00 -0.11048682425E+04  0.27847361264E+04  0.25561732063E+04 0.  0.
        4    1    3    3  502    0 -0.10209286995E+03  0.18826826836E+03  0.82024560743E+03  0.84774545966E+03  0.12699999809E+01 0.  1.
       -4    1    3    3    0  502  0.10209286995E+03 -0.18826826836E+03 -0.19251138499E+04  0.19369906667E+04  0.12699999809E+01 0. -1.
</event>
<event>
 5   0  0.2432309E-05  0.2496094E+04  0.7818609E-02  0.8404378E-01
       -2   -1    0    0    0  501  0.00000000000E+00  0.00000000000E+00  0.83831069370E+03  0.83831069370E+03  0.25500000920E-02 0.  1.
        2   -1    0    0  501    0  0.00000000000E+00  0.00000000000E+00 -0.18580483465E+04  0.18580483465E+04  0.25500000920E-02 0. -1.
    10030    2    1    2    0    0  0.00000000000E+00  0.00000000000E+00 -0.10197376528E+04  0.26963590402E+04  0.24960943879E+04 0.  0.
        4    1    3    3  502    0 -0.63358037665E+03 -0.29532592489E+03 -0.16267352662E+04  0.17705679131E+04  0.12699999809E+01 0. -1.
       -4    1    3    3    0  502  0.63358037665E+03  0.29532592489E+03  0.60699761337E+03  0.92579112716E+03  0.12699999809E+01 0.  1.
</event>
<event>
 5   0  0.2388326E-05  0.2522577E+04  0.7818609E-02  0.8394986E-01
        2   -1    0    0  501    0  0.00000000000E+00  0.00000000000E+00  0.15928211785E+04  0.15928211785E+04  0.25500000920E-02 0. -1.
       -2   -1    0    0    0  501  0.00000000000E+00  0.00000000000E+00 -0.99876189168E+03  0.99876189169E+03  0.25500000920E-02 0.  1.
    10030    2    1    2    0    0  0.00000000000E+00  0.00000000000E+00  0.59405928683E+03  0.25915830702E+04  0.25225773276E+04 0.  0.
        2    1    3    3  502    0  0.69209672498E+02  0.30040593682E+03 -0.95946211536E+03  0.10077704384E+04  0.25500000920E-02 0.  1.
       -2    1    3    3    0  502 -0.69209672498E+02 -0.30040593682E+03  0.15535214022E+04  0.15838126318E+04  0.25500000920E-02 0. -1.
</event>
<event>
 5   0  0.2345143E-05  0.2458128E+04  0.7818609E-02  0.8418056E-01
       -2   -1    0    0    0  501  0.00000000000E+00  0.00000000000E+00  0.10029441064E+04  0.10029441064E+04  0.25500000920E-02 0. -1.
        2   -1    0    0  501    0  0.00000000000E+00  0.00000000000E+00 -0.15061646125E+04  0.15061646125E+04  0.25500000920E-02 0.  1.
    10030    2    1    2    0    0  0.00000000000E+00  0.00000000000E+00 -0.50322050612E+03  0.25091087188E+04  0.24581284924E+04 0.  0.
        5    1    3    3  502    0 -0.10572587723E+03 -0.77839053868E+03  0.71324882644E+03  0.10610446599E+04  0.46999998093E+01 0. -1.
       -5    1    3    3    0  502  0.10572587723E+03  0.77839053868E+03 -0.12164693326E+04  0.14480640590E+04  0.46999998093E+01 0.  1.
</event>
<event>
 5   0  0.2441340E-05  0.2527990E+04  0.7818609E-02  0.8393081E-01
       -2   -1    0    0    0  501  0.00000000000E+00  0.00000000000E+00  0.60940949677E+03  0.60940949677E+03  0.25500000920E-02 0.  1.
        2   -1    0    0  501    0  0.00000000000E+00  0.00000000000E+00 -0.26216902650E+04  0.26216902650E+04  0.25500000920E-02 0. -1.
    10030    2    1    2    0    0  0.00000000000E+00  0.00000000000E+00 -0.20122807683E+04  0.32310997618E+04  0.25279896717E+04 0.  0.
        3    1    3    3  502    0 -0.31603195838E+03 -0.11977103718E+04 -0.13277027890E+04  0.18158141534E+04  0.10100000352E+00 0. -1.
       -3    1    3    3    0  502  0.31603195838E+03  0.11977103718E+04 -0.68457797922E+03  0.14152856084E+04  0.10100000352E+00 0.  1.
</event>
<event>
 5   0  0.2452457E-05  0.2502414E+04  0.7818609E-02  0.8402126E-01
        2   -1    0    0  501    0  0.00000000000E+00  0.00000000000E+00  0.19787586225E+04  0.19787586225E+04  0.25500000920E-02 0. -1.
       -2   -1    0    0    0  501  0.00000000000E+00  0.00000000000E+00 -0.79116188929E+03  0.79116188929E+03  0.25500000920E-02 0.  1.
    10030    2    1    2    0    0  0.00000000000E+00  0.00000000000E+00  0.11875967332E+04  0.27699205118E+04  0.25024135631E+04 0.  0.
        1    1    3    3  502    0  0.25680641430E+02 -0.53516646092E+02  0.19771991731E+04  0.19780900124E+04  0.50400001928E-02 0. -1.
       -1    1    3    3    0  502 -0.25680641430E+02  0.53516646092E+02 -0.78960243989E+03  0.79183049945E+03  0.50400001928E-02 0.  1.
</event>
<event>
 5   0  0.1039688E-05  0.2519918E+04  0.7818609E-02  0.8395924E-01
       -1   -1    0    0    0  501  0.00000000000E+00  0.00000000000E+00  0.11466272210E+04  0.11466272210E+04  0.50400001928E-02 0. -1.
        1   -1    0    0  501    0  0.00000000000E+00  0.00000000000E+00 -0.13844924063E+04  0.13844924064E+04  0.50400001928E-02 0.  1.
    10030    2    1    2    0    0  0.00000000000E+00  0.00000000000E+00 -0.23786518537E+03  0.25311196273E+04  0.25199179990E+04 0.  0.
        3    1    3    3  502    0 -0.39497828271E+03 -0.11581879090E+04  0.18255092753E+03  0.12372275165E+04  0.10100000352E+00 0.  1.
       -3    1    3    3    0  502  0.39497828271E+03  0.11581879090E+04 -0.42041611290E+03  0.12938921108E+04  0.10100000352E+00 0. -1.
</event>
<event>
 5   0  0.1039688E-05  0.2554497E+04  0.7818609E-02  0.8383824E-01
        1   -1    0    0  501    0  0.00000000000E+00  0.00000000000E+00  0.18779955798E+04  0.18779955798E+04  0.50400001928E-02 0.  1.
       -1   -1    0    0    0  501  0.00000000000E+00  0.00000000000E+00 -0.86867304887E+03  0.86867304888E+03  0.50400001928E-02 0. -1.
    10030    2    1    2    0    0  0.00000000000E+00  0.00000000000E+00  0.10093225309E+04  0.27466686287E+04  0.25544973252E+04 0.  0.
        3    1    3    3  502    0 -0.94608938692E+03  0.37239093808E+03 -0.32654261441E+03  0.10678905506E+04  0.10100000352E+00 0. -1.
       -3    1    3    3    0  502  0.94608938692E+03 -0.37239093808E+03  0.13358651453E+04  0.16787780781E+04  0.10100000352E+00 0.  1.
</event>
<event>
 5   0  0.2345143E-05  0.2489842E+04  0.7818609E-02  0.8406613E-01
        2   -1    0    0  501    0  0.00000000000E+00  0.00000000000E+00  0.24880180676E+04  0.24880180676E+04  0.25500000920E-02 0. -1.
       -2   -1    0    0    0  501  0.00000000000E+00  0.00000000000E+00 -0.62291662718E+03  0.62291662719E+03  0.25500000920E-02 0.  1.
    10030    2    1    2    0    0  0.00000000000E+00  0.00000000000E+00  0.18651014405E+04  0.31109346948E+04  0.24898416199E+04 0.  0.
        5    1    3    3  502    0 -0.10280587637E+01 -0.13682110696E+03 -0.61348233405E+03  0.62857277733E+03  0.46999998093E+01 0.  1.
       -5    1    3    3    0  502  0.10280587637E+01  0.13682110696E+03  0.24785837745E+04  0.24823619175E+04  0.46999998093E+01 0. -1.
</event>
<event>
 5   0  0.1015327E-05  0.2491828E+04  0.7818609E-02  0.8405903E-01
       -1   -1    0    0    0  501  0.00000000000E+00  0.00000000000E+00  0.12888798785E+04  0.12888798785E+04  0.50400001928E-02 0.  1.
        1   -1    0    0  501    0  0.00000000000E+00  0.00000000000E+00 -0.12043806517E+04  0.12043806517E+04  0.50400001928E-02 0. -1.
    10030    2    1    2    0    0  0.00000000000E+00  0.00000000000E+00  0.84499226748E+02  0.24932605302E+04  0.24918282349E+04 0.  0.
        4    1    3    3  502    0 -0.18756117497E+03  0.30911516888E+03 -0.11507313965E+04  0.12061988815E+04  0.12699999809E+01 0. -1.
       -4    1    3    3    0  502  0.18756117497E+03 -0.30911516888E+03  0.12352306233E+04  0.12870616487E+04  0.12699999809E+01 0.  1.
</event>
<event>
 5   0  0.2452457E-05  0.2491427E+04  0.7818609E-02  0.8406046E-01
       -2   -1    0    0    0  501  0.00000000000E+00  0.00000000000E+00  0.14256017578E+04  0.14256017578E+04  0.25500000920E-02 0.  1.
        2   -1    0    0  501    0  0.00000000000E+00  0.00000000000E+00 -0.10885242177E+04  0.10885242177E+04  0.25500000920E-02 0. -1.
    10030    2    1    2    0    0  0.00000000000E+00  0.00000000000E+00  0.33707754011E+03  0.25141259755E+04  0.24914269311E+04 0.  0.
        1    1    3    3  502    0  0.72539906303E+03  0.78618479596E+03  0.81272127196E+03  0.13434307574E+04  0.50400001928E-02 0. -1.
       -1    1    3    3    0  502 -0.72539906303E+03 -0.78618479596E+03 -0.47564373185E+03  0.11706952181E+04  0.50400001928E-02 0.  1.
</event>
<event>
 5   0  0.2441340E-05  0.2481167E+04  0.7818609E-02  0.8409726E-01
        2   -1    0    0  501    0  0.00000000000E+00  0.00000000000E+00  0.15358917828E+04  0.15358917828E+04  0.25500000920E-02 0. -1.
       -2   -1    0    0    0  501  0.00000000000E+00  0.00000000000E+00 -0.10020547786E+04  0.10020547786E+04  0.25500000920E-02 0.  1.
    10030    2    1    2    0    0  0.00000000000E+00  0.00000000000E+00  0.53383700423E+03  0.25379465614E+04  0.24811672256E+04 0.  0.
        3    1    3    3  502    0 -0.25704231406E+03 -0.17404654922E+03  0.14955231566E+04  0.15274005613E+04  0.10100000352E+00 0. -1.
       -3    1    3    3    0  502  0.25704231406E+03  0.17404654922E+03 -0.96168615236E+03  0.10105460001E+04  0.10100000352E+00 0.  1.
</event>
<event>
 5   0  0.1039688E-05  0.2504538E+04  0.7818609E-02  0.8401371E-01
        1   -1    0    0  501    0  0.00000000000E+00  0.00000000000E+00  0.13729106151E+04  0.13729106152E+04  0.50400001928E-02 0.  1.
       -1   -1    0    0    0  501  0.00000000000E+00  0.00000000000E+00 -0.11422284374E+04  0.11422284374E+04  0.50400001928E-02 0. -1.
    10030    2    1    2    0    0  0.00000000000E+00  0.00000000000E+00  0.23068217775E+03  0.25151390526E+04  0.25045379188E+04 0.  0.
        3    1    3    3  502    0  0.31918940474E+03 -0.60027925225E+03  0.11714390236E+04  0.13544321515E+04  0.10100000352E+00 0.  1.
       -3    1    3    3    0  502 -0.31918940474E+03  0.60027925225E+03 -0.94075684589E+03  0.11607069010E+04  0.10100000352E+00 0. -1.
</event>
<event>
 5   0  0.2441340E-05  0.2513244E+04  0.7818609E-02  0.8398282E-01
       -2   -1    0    0    0  501  0.00000000000E+00  0.00000000000E+00  0.90461788672E+03  0.90461788672E+03  0.25500000920E-02 0. -1.
        2   -1    0    0  501    0  0.00000000000E+00  0.00000000000E+00 -0.17455982445E+04  0.17455982445E+04  0.25500000920E-02 0.  1.
    10030    2    1    2    0    0  0.00000000000E+00  0.00000000000E+00 -0.84098035782E+03  0.26502161313E+04  0.25132444330E+04 0.  0.
        3    1    3    3  502    0  0.42553594158E+03 -0.99853473186E+02 -0.16628539542E+04  0.17193413962E+04  0.10100000352E+00 0.  1.
       -3    1    3    3    0  502 -0.42553594158E+03  0.99853473186E+02  0.82187359637E+03  0.93087473502E+03  0.10100000352E+00 0. -1.
</event>
<event>
 5   0  0.2452457E-05  0.2486262E+04  0.7818609E-02  0.8407896E-01
       -2   -1    0    0    0  501  0.00000000000E+00  0.00000000000E+00  0.15453689091E+04  0.15453689091E+04  0.25500000920E-02 0. -1.
        2   -1    0    0  501    0  0.00000000000E+00  0.00000000000E+00 -0.10000037095E+04  0.10000037096E+04  0.25500000920E-02 0.  1.
    10030    2    1    2    0    0  0.00000000000E+00  0.00000000000E+00  0.54536519951E+03  0.25453726186E+04  0.24862619666E+04 0.  0.
        1    1    3    3  502    0  0.65750930520E+03 -0.53216061509E+03  0.12053079595E+04  0.14725082967E+04  0.50400001928E-02 0. -1.
       -1    1    3    3    0  502 -0.65750930520E+03  0.53216061509E+03 -0.65994275999E+03  0.10728643219E+04  0.50400001928E-02 0.  1.
</event>
<event>
 5   0  0.1010338E-05  0.2458430E+04  0.7818609E-02  0.8417946E-01
       -1   -1    0    0    0  501  0.00000000000E+00  0.00000000000E+00  0.15096359980E+04  0.15096359980E+04  0.50400001928E-02 0.  1.
        1   -1    0    0  501    0  0.00000000000E+00  0.00000000000E+00 -0.10008837096E+04  0.10008837096E+04  0.50400001928E-02 0. -1.
    10030    2    1    2    0    0  0.00000000000E+00  0.00000000000E+00  0.50875228837E+03  0.25105197076E+04  0.24584304569E+04 0.  0.
        2    1    3    3  502    0  0.74522015150E+03  0.21276732463E+03  0.12287131699E+04  0.14527074938E+04  0.25500000920E-02 0.  1.
       -2    1    3    3    0  502 -0.74522015150E+03 -0.21276732463E+03 -0.71996088157E+03  0.10578122138E+04  0.25500000920E-02 0. -1.
</event>
<event>
 5   0  0.2432309E-05  0.2462704E+04  0.7818609E-02  0.8416394E-01
       -2   -1    0    0    0  501  0.00000000000E+00  0.00000000000E+00  0.64396401325E+03  0.64396401326E+03  0.25500000920E-02 0.  1.
        2   -1    0    0  501    0  0.00000000000E+00  0.00000000000E+00 -0.23545227260E+04  0.23545227260E+04  0.25500000920E-02 0. -1.
    10030    2    1    2    0    0  0.00000000000E+00  0.00000000000E+00 -0.17105587127E+04  0.29984867392E+04  0.24627041267E+04 0.  0.
        4    1    3    3  502    0  0.85927733600E+03 -0.86711041026E+03 -0.10515605651E+04  0.16112166952E+04  0.12699999809E+01 0. -1.
       -4    1    3    3    0  502 -0.85927733600E+03  0.86711041026E+03 -0.65899814759E+03  0.13872700441E+04  0.12699999809E+01 0.  1.
</event>
<event>
 5   0  0.2388326E-05  0.2455799E+04  0.7818609E-02  0.8418904E-01
        2   -1    0    0  501    0  0.00000000000E+00  0.00000000000E+00  0.22760979080E+04  0.22760979080E+04  0.25500000920E-02 0. -1.
       -2   -1    0    0    0  501  0.00000000000E+00  0.00000000000E+00 -0.66242169202E+03  0.66242169202E+03  0.25500000920E-02 0.  1.
    10030    2    1    2    0    0  0.00000000000E+00  0.00000000000E+00  0.16136762159E+04  0.29385196000E+04  0.24557985483E+04 0.  0.
        2    1    3    3  502    0  0.30203628444E+03  0.42991615970E+03  0.21347990229E+04  0.21985041937E+04  0.25500000920E-02 0. -1.
       -2    1    3    3    0  502 -0.30203628444E+03 -0.42991615970E+03 -0.52112280701E+03  0.74001540625E+03  0.25500000920E-02 0.  1.
</event>
<event>
 5   0  0.1039688E-05  0.2485107E+04  0.7818609E-02  0.8408311E-01
        1   -1    0    0  501    0  0.00000000000E+00  0.00000000000E+00  0.13543005216E+04  0.13543005216E+04  0.50400001928E-02 0. -1.
       -1   -1    0    0    0  501  0.00000000000E+00  0.00000000000E+00 -0.11400266468E+04  0.11400266468E+04  0.50400001928E-02 0.  1.
    10030    2    1    2    0    0  0.00000000000E+00  0.00000000000E+00  0.21427387480E+03  0.24943271684E+04  0.24851065831E+04 0.  0.
        3    1    3    3  502    0 -0.94313185630E+03 -0.39811750725E+03 -0.59970851041E+03  0.11864423946E+04  0.10100000352E+00 0.  1.
       -3    1    3    3    0  502  0.94313185630E+03  0.39811750725E+03  0.81398238521E+03  0.13078847738E+04  0.10100000352E+00 0. -1.
</event>
<event>
 5   0  0.1015327E-05  0.2506624E+04  0.7818609E-02  0.8400629E-01
        1   -1    0    0  501    0  0.00000000000E+00  0.00000000000E+00  0.18332421332E+04  0.18332421332E+04  0.50400001928E-02 0.  1.
       -1   -1    0    0    0  501  0.00000000000E+00  0.00000000000E+00 -0.85683795520E+03  0.85683795521E+03  0.50400001928E-02 0. -1.
    10030    2    1    2    0    0  0.00000000000E+00  0.00000000000E+00  0.97640417803E+03  0.26900800885E+04  0.25066243762E+04 0.  0.
        4    1    3    3  502    0 -0.13847539083E+03 -0.12059091178E+04  0.82312901606E+03  0.14666067040E+04  0.12699999809E+01 0.  1.
       -4    1    3    3    0  502  0.13847539083E+03  0.12059091178E+04  0.15327516197E+03  0.12234733844E+04  0.12699999809E+01 0. -1.
</event>
<event>
 5   0  0.1002753E-05  0.2472327E+04  0.7818609E-02  0.8412911E-01
       -1   -1    0    0    0  501  0.00000000000E+00  0.00000000000E+00  0.10120925026E+04  0.10120925026E+04  0.50400001928E-02 0.  1.
        1   -1    0    0  501    0  0.00000000000E+00  0.00000000000E+00 -0.15098420857E+04  0.15098420857E+04  0.50400001928E-02 0. -1.
    10030    2    1    2    0    0  0.00000000000E+00  0.00000000000E+00 -0.49774958305E+03  0.25219345883E+04  0.24723267220E+04 0.  0.
        5    1    3    3  502    0  0.32514740541E+03  0.11704909481E+04 -0.48217303774E+03  0.13070129392E+04  0.46999998093E+01 0.  1.
       -5    1    3    3    0  502 -0.32514740541E+03 -0.11704909481E+04 -0.15576545311E+02  0.12149216491E+04  0.46999998093E+01 0. -1.
</event>
<event>
 5   0  0.1015327E-05  0.2493088E+04  0.7818609E-02  0.8405452E-01
        1   -1    0    0  501    0  0.00000000000E+00  0.00000000000E+00  0.19408123677E+04  0.19408123677E+04  0.50400001928E-02 0. -1.
       -1   -1    0    0    0  501  0.00000000000E+00  0.00000000000E+00 -0.80062970663E+03  0.80062970664E+03  0.50400001928E-02 0.  1.
    10030    2    1    2    0    0  0.00000000000E+00  0.00000000000E+00  0.11401826611E+04  0.27414420743E+04  0.24930880743E+04 0.  0.
        4    1    3    3  502    0  0.10919615468E+04  0.56618109513E+02 -0.88105278724E+02  0.10969730093E+04  0.12699999809E+01 0.  1.
       -4    1    3    3    0  502 -0.10919615468E+04 -0.56618109513E+02  0.12282879398E+04  0.16444690651E+04  0.12699999809E+01 0. -1.
</event>
<event>
 5   0  0.1008073E-05  0.2420253E+04  0.7818609E-02  0.8431960E-01
        1   -1    0    0  501    0  0.00000000000E+00  0.00000000000E+00  0.21022754133E+04  0.21022754133E+04  0.50400001928E-02 0. -1.
       -1   -1    0    0    0  501  0.00000000000E+00  0.00000000000E+00 -0.69658130061E+03  0.69658130063E+03  0.50400001928E-02 0.  1.
    10030    2    1    2    0    0  0.00000000000E+00  0.00000000000E+00  0.14056941127E+04  0.27988567140E+04  0.24202526659E+04 0.  0.
        1    1    3    3  502    0  0.64054907866E+03  0.84343749701E+03  0.25849615541E+02  0.10594140532E+04  0.50400001928E-02 0.  1.
       -1    1    3    3    0  502 -0.64054907866E+03 -0.84343749701E+03  0.13798444972E+04  0.17394426607E+04  0.50400001928E-02 0. -1.
</event>
<event>
 5   0  0.2345143E-05  0.2484592E+04  0.7818609E-02  0.8408495E-01
       -2   -1    0    0    0  501  0.00000000000E+00  0.00000000000E+00  0.12490245021E+04  0.12490245021E+04  0.25500000920E-02 0.  1.
        2   -1    0    0  501    0  0.00000000000E+00  0.00000000000E+00 -0.12356035008E+04  0.12356035008E+04  0.25500000920E-02 0. -1.
    10030    2    1    2    0    0  0.00000000000E+00  0.00000000000E+00  0.13421001299E+02  0.24846280029E+04  0.24845917551E+04 0.  0.
        5    1    3    3  502    0  0.33973721746E+03  0.11346000334E+04  0.38160041144E+03  0.12443390120E+04  0.46999998093E+01 0.  1.
       -5    1    3    3    0  502 -0.33973721746E+03 -0.11346000334E+04 -0.36817941014E+03  0.12402889909E+04  0.46999998093E+01 0. -1.
</event>
<event>
 5   0  0.1015327E-05  0.2485163E+04  0.7818609E-02  0.8408290E-01
       -1   -1    0    0    0  501  0.00000000000E+00  0.00000000000E+00  0.10565170255E+04  0.10565170255E+04  0.50400001928E-02 0. -1.
        1   -1    0    0  501    0  0.00000000000E+00  0.00000000000E+00 -0.14614142060E+04  0.14614142060E+04  0.50400001928E-02 0.  1.
    10030    2    1    2    0    0  0.00000000000E+00  0.00000000000E+00 -0.40489718045E+03  0.25179312315E+04  0.24851631657E+04 0.  0.
        4    1    3    3  502    0  0.99962388688E+03  0.61459927161E+03 -0.61652696824E+03  0.13255516947E+04  0.12699999809E+01 0.  1.
       -4    1    3    3    0  502 -0.99962388688E+03 -0.61459927161E+03  0.21162978779E+03  0.11923795368E+04  0.12699999809E+01 0. -1.
</event>
<event>
 5   0  0.1010338E-05  0.2458888E+04  0.7818609E-02  0.8417780E-01
        1   -1    0    0  501    0  0.00000000000E+00  0.00000000000E+00  0.12216689818E+04  0.12216689818E+04  0.50400001928E-02 0. -1.
       -1   -1    0    0    0  501  0.00000000000E+00  0.00000000000E+00 -0.12372684130E+04  0.12372684130E+04  0.50400001928E-02 0.  1.
    10030    2    1    2    0    0  0.00000000000E+00  0.00000000000E+00 -0.15599431235E+02  0.24589373948E+04  0.24588879131E+04 0.  0.
        2    1    3    3  502    0 -0.10798426059E+04  0.57204615377E+03 -0.14284163764E+03  0.12303253997E+04  0.25500000920E-02 0. -1.
       -2    1    3    3    0  502  0.10798426059E+04 -0.57204615377E+03  0.12724220640E+03  0.12286119952E+04  0.25500000920E-02 0.  1.
</event>
<event>
 5   0  0.2441340E-05  0.2254737E+04  0.7818609E-02  0.8495985E-01
       -2   -1    0    0    0  501  0.00000000000E+00  0.00000000000E+00  0.11586736017E+04  0.11586736017E+04  0.25500000920E-02 0.  1.
        2   -1    0    0  501    0  0.00000000000E+00  0.00000000000E+00 -0.10969088096E+04  0.10969088096E+04  0.25500000920E-02 0. -1.
    10030    2    1    2    0    0  0.00000000000E+00  0.00000000000E+00  0.61764792099E+02  0.22555824113E+04  0.22547365976E+04 0.  0.
        3    1    3    3  502    0 -0.67071736085E+03  0.30251543181E+03  0.88535848199E+03  0.11511893921E+04  0.10100000352E+00 0.  1.
       -3    1    3    3    0  502  0.67071736085E+03 -0.30251543181E+03 -0.82359368989E+03  0.11043930192E+04  0.10100000352E+00 0. -1.
</event>
<event>
 5   0  0.2441340E-05  0.2513056E+04  0.7818609E-02  0.8398349E-01
        2   -1    0    0  501    0  0.00000000000E+00  0.00000000000E+00  0.17923847515E+04  0.17923847515E+04  0.25500000920E-02 0. -1.
       -2   -1    0    0    0  501  0.00000000000E+00  0.00000000000E+00 -0.88087234227E+03  0.88087234228E+03  0.25500000920E-02 0.  1.
    10030    2    1    2    0    0  0.00000000000E+00  0.00000000000E+00  0.91151240925E+03  0.26732570938E+04  0.25130556336E+04 0.  0.
        3    1    3    3  502    0  0.32985928824E+03 -0.92374058699E+03  0.12911594038E+04  0.16214797064E+04  0.10100000352E+00 0. -1.
       -3    1    3    3    0  502 -0.32985928824E+03  0.92374058699E+03 -0.37964699450E+03  0.10517773874E+04  0.10100000352E+00 0.  1.
</event>
<event>
 5   0  0.1002753E-05  0.2501144E+04  0.7818609E-02  0.8402578E-01
       -1   -1    0    0    0  501  0.00000000000E+00  0.00000000000E+00  0.10805072744E+04  0.10805072745E+04  0.50400001928E-02 0.  1.
        1   -1    0    0  501    0  0.00000000000E+00  0.00000000000E+00 -0.14474033175E+04  0.14474033175E+04  0.50400001928E-02 0. -1.
    10030    2    1    2    0    0  0.00000000000E+00  0.00000000000E+00 -0.36689604303E+03  0.25279105920E+04  0.25011435893E+04 0.  0.
        5    1    3    3  502    0 -0.24345039991E+03 -0.37865453850E+03  0.99576885125E+03  0.10928060449E+04  0.46999998093E+01 0.  1.
       -5    1    3    3    0  502  0.24345039991E+03  0.37865453850E+03 -0.13626648943E+04  0.14351045470E+04  0.46999998093E+01 0. -1.
</event>
<event>
 5   0  0.2345143E-05  0.2578310E+04  0.7818609E-02  0.8375606E-01
       -2   -1    0    0    0  501  0.00000000000E+00  0.00000000000E+00  0.10327943686E+04  0.10327943686E+04  0.25500000920E-02 0. -1.
        2   -1    0    0  501    0  0.00000000000E+00  0.00000000000E+00 -0.16091500478E+04  0.16091500478E+04  0.25500000920E-02 0.  1.
    10030    2    1    2    0    0  0.00000000000E+00  0.00000000000E+00 -0.57635567919E+03  0.26419444164E+04  0.25783103829E+04 0.  0.
        5    1    3    3  502    0 -0.53974098560E+02 -0.12782781176E+04 -0.45016446300E+03  0.13563105407E+04  0.46999998093E+01 0.  1.
       -5    1    3    3    0  502  0.53974098560E+02  0.12782781176E+04 -0.12619121618E+03  0.12856338757E+04  0.46999998093E+01 0. -1.
</event>
<event>
 5   0  0.2441340E-05  0.2778997E+04  0.7818609E-02  0.8309819E-01
       -2   -1    0    0    0  501  0.00000000000E+00  0.00000000000E+00  0.11086536890E+04  0.11086536890E+04  0.25500000920E-02 0. -1.
        2   -1    0    0  501    0  0.00000000000E+00  0.00000000000E+00 -0.17414866986E+04  0.17414866986E+04  0.25500000920E-02 0.  1.
    10030    2    1    2    0    0  0.00000000000E+00  0.00000000000E+00 -0.63283300961E+03  0.28501403877E+04  0.27789966915E+04 0.  0.
        3    1    3    3  502    0 -0.25608392793E+03  0.40647963185E+03  0.10207639927E+04  0.11281683422E+04  0.10100000352E+00 0. -1.
       -3    1    3    3    0  502  0.25608392793E+03 -0.40647963185E+03 -0.16535970023E+04  0.17219720455E+04  0.10100000352E+00 0.  1.
</event>
<event>
 5   0  0.1039688E-05  0.2492980E+04  0.7818609E-02  0.8405491E-01
       -1   -1    0    0    0  501  0.00000000000E+00  0.00000000000E+00  0.10873981633E+04  0.10873981633E+04  0.50400001928E-02 0. -1.
        1   -1    0    0  501    0  0.00000000000E+00  0.00000000000E+00 -0.14288573914E+04  0.14288573914E+04  0.50400001928E-02 0.  1.
    10030    2    1    2    0    0  0.00000000000E+00  0.00000000000E+00 -0.34145922809E+03  0.25162555547E+04  0.24929796654E+04 0.  0.
        3    1    3    3  502    0  0.60592013623E+03  0.98678181573E+03  0.29494477710E+03  0.11949351426E+04  0.10100000352E+00 0.  1.
       -3    1    3    3    0  502 -0.60592013623E+03 -0.98678181573E+03 -0.63640400519E+03  0.13213204121E+04  0.10100000352E+00 0. -1.
</event>
<event>
 5   0  0.1039688E-05  0.2510755E+04  0.7818609E-02  0.8399164E-01
       -1   -1    0    0    0  501  0.00000000000E+00  0.00000000000E+00  0.65717476705E+03  0.65717476707E+03  0.50400001928E-02 0. -1.
        1   -1    0    0  501    0  0.00000000000E+00  0.00000000000E+00 -0.23981030731E+04  0.23981030731E+04  0.50400001928E-02 0.  1.
    10030    2    1    2    0    0  0.00000000000E+00  0.00000000000E+00 -0.17409283060E+04  0.30552778402E+04  0.25107551282E+04 0.  0.
        3    1    3    3  502    0 -0.90600047819E+03  0.35415248013E+02  0.18610506975E+03  0.92559505911E+03  0.10100000352E+00 0. -1.
       -3    1    3    3    0  502  0.90600047819E+03 -0.35415248013E+02 -0.19270333758E+04  0.21296827810E+04  0.10100000352E+00 0.  1.
</event>
<event>
 5   0  0.1015327E-05  0.2493645E+04  0.7818609E-02  0.8405253E-01
       -1   -1    0    0    0  501  0.00000000000E+00  0.00000000000E+00  0.14417051986E+04  0.14417051986E+04  0.50400001928E-02 0.  1.
        1   -1    0    0  501    0  0.00000000000E+00  0.00000000000E+00 -0.10782829400E+04  0.10782829400E+04  0.50400001928E-02 0. -1.
    10030    2    1    2    0    0  0.00000000000E+00  0.00000000000E+00  0.36342225864E+03  0.25199881386E+04  0.24936448185E+04 0.  0.
        4    1    3    3  502    0  0.10695954283E+04  0.62693444260E+03  0.48089734282E+02  0.12407237448E+04  0.12699999809E+01 0. -1.
       -4    1    3    3    0  502 -0.10695954283E+04 -0.62693444260E+03  0.31533252436E+03  0.12792643938E+04  0.12699999809E+01 0.  1.
</event>
<event>
 5   0  0.2452457E-05  0.2518363E+04  0.7818609E-02  0.8396473E-01
       -2   -1    0    0    0  501  0.00000000000E+00  0.00000000000E+00  0.74207429229E+03  0.74207429229E+03  0.25500000920E-02 0. -1.
        2   -1    0    0  501    0  0.00000000000E+00  0.00000000000E+00 -0.21366298155E+04  0.21366298155E+04  0.25500000920E-02 0.  1.
    10030    2    1    2    0    0  0.00000000000E+00  0.00000000000E+00 -0.13945555232E+04  0.28787041078E+04  0.25183630066E+04 0.  0.
        1    1    3    3  502    0 -0.44877637562E+03  0.37881943588E+03  0.57593351360E+03  0.82255930633E+03  0.50400001928E-02 0. -1.
       -1    1    3    3    0  502  0.44877637562E+03 -0.37881943588E+03 -0.19704890368E+04  0.20561448015E+04  0.50400001928E-02 0.  1.
</event>
<event>
 5   0  0.8166500E-06  0.2494421E+04  0.7818609E-02  0.8404976E-01
       -4   -1    0    0    0  501  0.00000000000E+00  0.00000000000E+00  0.22384327474E+04  0.22384331076E+04  0.12699999809E+01 0. -1.
        4   -1    0    0  501    0  0.00000000000E+00  0.00000000000E+00 -0.69492013567E+03  0.69492129616E+03  0.12699999809E+01 0.  1.
    10030    2    1    2    0    0  0.00000000000E+00  0.00000000000E+00  0.15435126117E+04  0.29333544038E+04  0.24944211505E+04 0.  0.
        3    1    3    3  502    0  0.86768970801E+03  0.73036239124E+02 -0.27829273930E+03  0.91414800802E+03  0.10100000352E+00 0.  1.
       -3    1    3    3    0  502 -0.86768970801E+03 -0.73036239124E+02  0.18218053510E+04  0.20192063958E+04  0.10100000352E+00 0. -1.
</event>
<event>
 5   0  0.2388326E-05  0.2516280E+04  0.7818609E-02  0.8397209E-01
        2   -1    0    0  501    0  0.00000000000E+00  0.00000000000E+00  0.80846245964E+03  0.80846245964E+03  0.25500000920E-02 0.  1.
       -2   -1    0    0    0  501  0.00000000000E+00  0.00000000000E+00 -0.19579344026E+04  0.19579344026E+04  0.25500000920E-02 0. -1.
    10030    2    1    2    0    0  0.00000000000E+00  0.00000000000E+00 -0.11494719430E+04  0.27663968623E+04  0.25162801616E+04 0.  0.
        2    1    3    3  502    0  0.25272020914E+03 -0.74257067399E+03  0.50672759201E+03  0.93383701067E+03  0.25500000920E-02 0.  1.
       -2    1    3    3    0  502 -0.25272020914E+03  0.74257067399E+03 -0.16561995350E+04  0.18325598516E+04  0.25500000920E-02 0. -1.
</event>
<event>
 5   0  0.2441340E-05  0.2020737E+04  0.7818609E-02  0.8596986E-01
        2   -1    0    0  501    0  0.00000000000E+00  0.00000000000E+00  0.20116467218E+04  0.20116467219E+04  0.25500000920E-02 0. -1.
       -2   -1    0    0    0  501  0.00000000000E+00  0.00000000000E+00 -0.50746698333E+03  0.50746698333E+03  0.25500000920E-02 0.  1.
    10030    2    1    2    0    0  0.00000000000E+00  0.00000000000E+00  0.15041797385E+04  0.25191137052E+04  0.20207367899E+04 0.  0.
        3    1    3    3  502    0 -0.85318129655E+03  0.49436037121E+03  0.10267275287E+04  0.14235448464E+04  0.10100000352E+00 0. -1.
       -3    1    3    3    0  502  0.85318129655E+03 -0.49436037121E+03  0.47745220982E+03  0.10955688588E+04  0.10100000352E+00 0.  1.
</event>
<event>
 5   0  0.1015327E-05  0.2490314E+04  0.7818609E-02  0.8406444E-01
        1   -1    0    0  501    0  0.00000000000E+00  0.00000000000E+00  0.11563072831E+04  0.11563072831E+04  0.50400001928E-02 0.  1.
       -1   -1    0    0    0  501  0.00000000000E+00  0.00000000000E+00 -0.13408343112E+04  0.13408343112E+04  0.50400001928E-02 0. -1.
    10030    2    1    2    0    0  0.00000000000E+00  0.00000000000E+00 -0.18452702810E+03  0.24971415943E+04  0.24903144215E+04 0.  0.
        4    1    3    3  502    0  0.29392413976E+02  0.11650672636E+04 -0.53183640696E+03  0.12810531681E+04  0.12699999809E+01 0.  1.
       -4    1    3    3    0  502 -0.29392413976E+02 -0.11650672636E+04  0.34730937885E+03  0.12160884262E+04  0.12699999809E+01 0. -1.
</event>
<event>
 5   0  0.1008073E-05  0.2580906E+04  0.7818609E-02  0.8374716E-01
       -1   -1    0    0    0  501  0.00000000000E+00  0.00000000000E+00  0.10803628779E+04  0.10803628779E+04  0.50400001928E-02 0. -1.
        1   -1    0    0  501    0  0.00000000000E+00  0.00000000000E+00 -0.15413982938E+04  0.15413982938E+04  0.50400001928E-02 0.  1.
    10030    2    1    2    0    0  0.00000000000E+00  0.00000000000E+00 -0.46103541590E+03  0.26217611717E+04  0.25809064273E+04 0.  0.
        1    1    3    3  502    0  0.20315798595E+03  0.26008188071E+02  0.10637464514E+04  0.10832848683E+04  0.50400001928E-02 0. -1.
       -1    1    3    3    0  502 -0.20315798595E+03 -0.26008188071E+02 -0.15247818673E+04  0.15384763034E+04  0.50400001928E-02 0.  1.
</event>
<event>
 5   0  0.2441340E-05  0.2526238E+04  0.7818609E-02  0.8393697E-01
       -2   -1    0    0    0  501  0.00000000000E+00  0.00000000000E+00  0.12011035584E+04  0.12011035584E+04  0.25500000920E-02 0. -1.
        2   -1    0    0  501    0  0.00000000000E+00  0.00000000000E+00 -0.13283365064E+04  0.13283365064E+04  0.25500000920E-02 0.  1.
    10030    2    1    2    0    0  0.00000000000E+00  0.00000000000E+00 -0.12723294801E+03  0.25294400648E+04  0.25262380763E+04 0.  0.
        3    1    3    3  502    0  0.46308177864E+03  0.11365899968E+04  0.23540588943E+03  0.12496789577E+04  0.10100000352E+00 0. -1.
       -3    1    3    3    0  502 -0.46308177864E+03 -0.11365899968E+04 -0.36263883744E+03  0.12797611070E+04  0.10100000352E+00 0.  1.
</event>
<event>
 5   0  0.2345143E-05  0.2494754E+04  0.7818609E-02  0.8404857E-01
        2   -1    0    0  501    0  0.00000000000E+00  0.00000000000E+00  0.15953992448E+04  0.15953992448E+04  0.25500000920E-02 0. -1.
       -2   -1    0    0    0  501  0.00000000000E+00  0.00000000000E+00 -0.97527264567E+03  0.97527264567E+03  0.25500000920E-02 0.  1.
    10030    2    1    2    0    0  0.00000000000E+00  0.00000000000E+00  0.62012659912E+03  0.25706718905E+04  0.24947538896E+04 0.  0.
        5    1    3    3  502    0  0.78735086132E+03 -0.78862294307E+03 -0.26741919480E+03  0.11460290751E+04  0.46999998093E+01 0.  1.
       -5    1    3    3    0  502 -0.78735086132E+03  0.78862294307E+03  0.88754579392E+03  0.14246428154E+04  0.46999998093E+01 0. -1.
</event>
<event>
 5   0  0.1039688E-05  0.2460671E+04  0.7818609E-02  0.8417132E-01
        1   -1    0    0  501    0  0.00000000000E+00  0.00000000000E+00  0.13045017495E+04  0.13045017496E+04  0.50400001928E-02 0. -1.
       -1   -1    0    0    0  501  0.00000000000E+00  0.00000000000E+00 -0.11603858119E+04  0.11603858119E+04  0.50400001928E-02 0.  1.
    10030    2    1    2    0    0  0.00000000000E+00  0.00000000000E+00  0.14411593763E+03  0.24648875615E+04  0.24606709019E+04 0.  0.
        3    1    3    3  502    0 -0.20205842028E+03 -0.53679189485E+03  0.11623863972E+04  0.12961926130E+04  0.10100000352E+00 0. -1.
       -3    1    3    3    0  502  0.20205842028E+03  0.53679189485E+03 -0.10182704595E+04  0.11686949484E+04  0.10100000352E+00 0.  1.
</event>
<event>
 5   0  0.1015327E-05  0.2493137E+04  0.7818609E-02  0.8405435E-01
        1   -1    0    0  501    0  0.00000000000E+00  0.00000000000E+00  0.93758830440E+03  0.93758830442E+03  0.50400001928E-02 0.  1.
       -1   -1    0    0    0  501  0.00000000000E+00  0.00000000000E+00 -0.16573723303E+04  0.16573723303E+04  0.50400001928E-02 0. -1.
    10030    2    1    2    0    0  0.00000000000E+00  0.00000000000E+00 -0.71978402587E+03  0.25949606347E+04  0.24931369099E+04 0.  0.
        4    1    3    3  502    0  0.53445663082E+03  0.43983911910E+03  0.71918968160E+03  0.99816719639E+03  0.12699999809E+01 0.  1.
       -4    1    3    3    0  502 -0.53445663082E+03 -0.43983911910E+03 -0.14389737075E+04  0.15967934383E+04  0.12699999809E+01 0. -1.
</event>
<event>
 5   0  0.1010338E-05  0.2521989E+04  0.7818609E-02  0.8395193E-01
        1   -1    0    0  501    0  0.00000000000E+00  0.00000000000E+00  0.16129112333E+04  0.16129112333E+04  0.50400001928E-02 0.  1.
       -1   -1    0    0    0  501  0.00000000000E+00  0.00000000000E+00 -0.98586188607E+03  0.98586188608E+03  0.50400001928E-02 0. -1.
    10030    2    1    2    0    0  0.00000000000E+00  0.00000000000E+00  0.62704934721E+03  0.25987731194E+04  0.25219894611E+04 0.  0.
        2    1    3    3  502    0 -0.82518626459E+03  0.93883746403E+03  0.14184006945E+03  0.12579613509E+04  0.25500000920E-02 0. -1.
       -2    1    3    3    0  502  0.82518626459E+03 -0.93883746403E+03  0.48520927776E+03  0.13408117684E+04  0.25500000920E-02 0.  1.
</event>
<event>
 5   0  0.2432309E-05  0.2516837E+04  0.7818609E-02  0.8397012E-01
        2   -1    0    0  501    0  0.00000000000E+00  0.00000000000E+00  0.20436150672E+04  0.20436150672E+04  0.25500000920E-02 0.  1.
       -2   -1    0    0    0  501  0.00000000000E+00  0.00000000000E+00 -0.77490994694E+03  0.77490994694E+03  0.25500000920E-02 0. -1.
    10030    2    1    2    0    0  0.00000000000E+00  0.00000000000E+00  0.12687051203E+04  0.28185250142E+04  0.25168374149E+04 0.  0.
        4    1    3    3  502    0  0.84156191747E+03  0.62395942589E+03 -0.14640024194E+03  0.10578215680E+04  0.12699999809E+01 0. -1.
       -4    1    3    3    0  502 -0.84156191747E+03 -0.62395942589E+03  0.14151053622E+04  0.17607034461E+04  0.12699999809E+01 0.  1.
</event>
<event>
 5   0  0.1002753E-05  0.2580114E+04  0.7818609E-02  0.8374987E-01
       -1   -1    0    0    0  501  0.00000000000E+00  0.00000000000E+00  0.14187112284E+04  0.14187112284E+04  0.50400001928E-02 0. -1.
        1   -1    0    0  501    0  0.00000000000E+00  0.00000000000E+00 -0.11730699622E+04  0.11730699622E+04  0.50400001928E-02 0.  1.
    10030    2    1    2    0    0  0.00000000000E+00  0.00000000000E+00  0.24564126622E+03  0.25917811905E+04  0.25801143595E+04 0.  0.
        5    1    3    3  502    0  0.25129571156E+03 -0.35634400691E+03 -0.10967925006E+04  0.11802993117E+04  0.46999998093E+01 0.  1.
       -5    1    3    3    0  502 -0.25129571156E+03  0.35634400691E+03  0.13424337668E+04  0.14114818788E+04  0.46999998093E+01 0. -1.
</event>
<event>
 5   0  0.2345143E-05  0.2500806E+04  0.7818609E-02  0.8402698E-01
       -2   -1    0    0    0  501  0.00000000000E+00  0.00000000000E+00  0.69411943412E+03  0.69411943413E+03  0.25500000920E-02 0. -1.
        2   -1    0    0  501    0  0.00000000000E+00  0.00000000000E+00 -0.22525061249E+04  0.22525061249E+04  0.25500000920E-02 0.  1.
    10030    2    1    2    0    0  0.00000000000E+00  0.00000000000E+00 -0.15583866907E+04  0.29466255590E+04  0.25008064913E+04 0.  0.
        5    1    3    3  502    0  0.27324873076E+03 -0.65429486556E+03 -0.19927083474E+04  0.21151064483E+04  0.46999998093E+01 0.  1.
       -5    1    3    3    0  502 -0.27324873076E+03  0.65429486556E+03  0.43432165666E+03  0.83151911066E+03  0.46999998093E+01 0. -1.
</event>
<event>
 5   0  0.1010338E-05  0.2516292E+04  0.7818609E-02  0.8397204E-01
       -1   -1    0    0    0  501  0.00000000000E+00  0.00000000000E+00  0.16341351261E+04  0.16341351262E+04  0.50400001928E-02 0.  1.
        1   -1    0    0  501    0  0.00000000000E+00  0.00000000000E+00 -0.96866648202E+03  0.96866648204E+03  0.50400001928E-02 0. -1.
    10030    2    1    2    0    0  0.00000000000E+00  0.00000000000E+00  0.66546864412E+03  0.26028016082E+04  0.25162924503E+04 0.  0.
        2    1    3    3  502    0  0.10055074479E+04  0.51742604045E+02 -0.44766338229E+03  0.11018734177E+04  0.25500000920E-02 0. -1.
       -2    1    3    3    0  502 -0.10055074479E+04 -0.51742604045E+02  0.11131320264E+04  0.15009281905E+04  0.25500000920E-02 0.  1.
</event>
<event>
 5   0  0.2452457E-05  0.2499952E+04  0.7818609E-02  0.8403003E-01
        2   -1    0    0  501    0  0.00000000000E+00  0.00000000000E+00  0.67228256345E+03  0.67228256346E+03  0.25500000920E-02 0. -1.
       -2   -1    0    0    0  501  0.00000000000E+00  0.00000000000E+00 -0.23240815239E+04  0.23240815239E+04  0.25500000920E-02 0.  1.
    10030    2    1    2    0    0  0.00000000000E+00  0.00000000000E+00 -0.16517989604E+04  0.29963640874E+04  0.24999515872E+04 0.  0.
        1    1    3    3  502    0  0.39079897721E+03 -0.43701324688E+03 -0.21490755514E+04  0.22276063710E+04  0.50400001928E-02 0.  1.
       -1    1    3    3    0  502 -0.39079897721E+03  0.43701324688E+03  0.49727659094E+03  0.76875771636E+03  0.50400001928E-02 0. -1.
</event>
<event>
 5   0  0.1002753E-05  0.2442776E+04  0.7818609E-02  0.8423660E-01
       -1   -1    0    0    0  501  0.00000000000E+00  0.00000000000E+00  0.12490352433E+04  0.12490352433E+04  0.50400001928E-02 0. -1.
        1   -1    0    0  501    0  0.00000000000E+00  0.00000000000E+00 -0.11943529886E+04  0.11943529886E+04  0.50400001928E-02 0.  1.
    10030    2    1    2    0    0  0.00000000000E+00  0.00000000000E+00  0.54682254704E+02  0.24433882318E+04  0.24427762694E+04 0.  0.
        5    1    3    3  502    0  0.64219559572E+03 -0.91007737473E+03  0.52857630809E+03  0.12329116005E+04  0.46999998093E+01 0. -1.
       -5    1    3    3    0  502 -0.64219559572E+03  0.91007737473E+03 -0.47389405339E+03  0.12104766313E+04  0.46999998093E+01 0.  1.
</event>
<event>
 5   0  0.1010338E-05  0.2509086E+04  0.7818609E-02  0.8399756E-01
       -1   -1    0    0    0  501  0.00000000000E+00  0.00000000000E+00  0.12804659512E+04  0.12804659512E+04  0.50400001928E-02 0. -1.
        1   -1    0    0  501    0  0.00000000000E+00  0.00000000000E+00 -0.12291445821E+04  0.12291445821E+04  0.50400001928E-02 0.  1.
    10030    2    1    2    0    0  0.00000000000E+00  0.00000000000E+00  0.51321369072E+02  0.25096105333E+04  0.25090857191E+04 0.  0.
        2    1    3    3  502    0 -0.10395571042E+04 -0.52463396100E+03 -0.44129671043E+03  0.12452560189E+04  0.25500000920E-02 0.  1.
       -2    1    3    3    0  502  0.10395571042E+04  0.52463396100E+03  0.49261807950E+03  0.12643545144E+04  0.25500000920E-02 0. -1.
</event>
<event>
 5   0  0.2388326E-05  0.2475922E+04  0.7818609E-02  0.8411614E-01
       -2   -1    0    0    0  501  0.00000000000E+00  0.00000000000E+00  0.74334662320E+03  0.74334662320E+03  0.25500000920E-02 0. -1.
        2   -1    0    0  501    0  0.00000000000E+00  0.00000000000E+00 -0.20616858447E+04  0.20616858447E+04  0.25500000920E-02 0.  1.
    10030    2    1    2    0    0  0.00000000000E+00  0.00000000000E+00 -0.13183392215E+04  0.28050324679E+04  0.24759218169E+04 0.  0.
        2    1    3    3  502    0  0.14160197946E+03  0.87021888984E+03 -0.16437163077E+04  0.18652440423E+04  0.25500000920E-02 0. -1.
       -2    1    3    3    0  502 -0.14160197946E+03 -0.87021888984E+03  0.32537708620E+03  0.93978842569E+03  0.25500000920E-02 0.  1.
</event>
<event>
 5   0  0.2388326E-05  0.2511679E+04  0.7818609E-02  0.8398837E-01
        2   -1    0    0  501    0  0.00000000000E+00  0.00000000000E+00  0.16497548472E+04  0.16497548472E+04  0.25500000920E-02 0. -1.
       -2   -1    0    0    0  501  0.00000000000E+00  0.00000000000E+00 -0.95598008140E+03  0.95598008140E+03  0.25500000920E-02 0.  1.
    10030    2    1    2    0    0  0.00000000000E+00  0.00000000000E+00  0.69377476582E+03  0.26057349286E+04  0.25116789390E+04 0.  0.
        2    1    3    3  502    0 -0.11410971758E+04  0.99885787793E+02 -0.18722462259E+03  0.11606605854E+04  0.25500000920E-02 0.  1.
       -2    1    3    3    0  502  0.11410971758E+04 -0.99885787793E+02  0.88099938841E+03  0.14450743433E+04  0.25500000920E-02 0. -1.
</event>
<event>
 5   0  0.2432309E-05  0.2502270E+04  0.7818609E-02  0.8402177E-01
        2   -1    0    0  501    0  0.00000000000E+00  0.00000000000E+00  0.11210489383E+04  0.11210489383E+04  0.25500000920E-02 0.  1.
       -2   -1    0    0    0  501  0.00000000000E+00  0.00000000000E+00 -0.13963160134E+04  0.13963160134E+04  0.25500000920E-02 0. -1.
    10030    2    1    2    0    0  0.00000000000E+00  0.00000000000E+00 -0.27526707512E+03  0.25173649518E+04  0.25022698371E+04 0.  0.
        4    1    3    3  502    0  0.31991773931E+03  0.12086723918E+04 -0.18374299440E+03  0.12637244208E+04  0.12699999809E+01 0. -1.
       -4    1    3    3    0  502 -0.31991773931E+03 -0.12086723918E+04 -0.91524080716E+02  0.12536405310E+04  0.12699999809E+01 0.  1.
</event>
<event>
 5   0  0.2388326E-05  0.2495251E+04  0.7818609E-02  0.8404679E-01
        2   -1    0    0  501    0  0.00000000000E+00  0.00000000000E+00  0.15592261435E+04  0.15592261435E+04  0.25500000920E-02 0. -1.
       -2   -1    0    0    0  501  0.00000000000E+00  0.00000000000E+00 -0.99829589518E+03  0.99829589518E+03  0.25500000920E-02 0.  1.
    10030    2    1    2    0    0  0.00000000000E+00  0.00000000000E+00  0.56093024828E+03  0.25575220386E+04  0.24952507358E+04 0.  0.
        2    1    3    3  502    0 -0.93050195815E+03 -0.19131675585E+03  0.11094340346E+04  0.14605751854E+04  0.25500000920E-02 0. -1.
       -2    1    3    3    0  502  0.93050195815E+03  0.19131675585E+03 -0.54850378630E+03  0.10969468532E+04  0.25500000920E-02 0.  1.
</event>
<event>
 5   0  0.2388326E-05  0.2500128E+04  0.7818609E-02  0.8402940E-01
       -2   -1    0    0    0  501  0.00000000000E+00  0.00000000000E+00  0.11112327451E+04  0.11112327451E+04  0.25500000920E-02 0. -1.
        2   -1    0    0  501    0  0.00000000000E+00  0.00000000000E+00 -0.14062395497E+04  0.14062395497E+04  0.25500000920E-02 0.  1.
    10030    2    1    2    0    0  0.00000000000E+00  0.00000000000E+00 -0.29500680458E+03  0.25174722948E+04  0.25001275448E+04 0.  0.
        2    1    3    3  502    0 -0.11095914931E+04 -0.19009823287E+03 -0.69471519310E+03  0.13228604685E+04  0.25500000920E-02 0.  1.
       -2    1    3    3    0  502  0.11095914931E+04  0.19009823287E+03  0.39970838852E+03  0.11946118263E+04  0.25500000920E-02 0. -1.
</event>
<event>
 5   0  0.2441340E-05  0.2485898E+04  0.7818609E-02  0.8408027E-01
       -2   -1    0    0    0  501  0.00000000000E+00  0.00000000000E+00  0.84333500121E+03  0.84333500122E+03  0.25500000920E-02 0. -1.
        2   -1    0    0  501    0  0.00000000000E+00  0.00000000000E+00 -0.18319201805E+04  0.18319201805E+04  0.25500000920E-02 0.  1.
    10030    2    1    2    0    0  0.00000000000E+00  0.00000000000E+00 -0.98858517926E+03  0.26752551817E+04  0.24858981537E+04 0.  0.
        3    1    3    3  502    0 -0.36553005468E+03  0.18646132136E+03 -0.17569242385E+04  0.18042069824E+04  0.10100000352E+00 0.  1.
       -3    1    3    3    0  502  0.36553005468E+03 -0.18646132136E+03  0.76833905928E+03  0.87104819927E+03  0.10100000352E+00 0. -1.
</event>
<event>
 5   0  0.1015327E-05  0.2506028E+04  0.7818609E-02  0.8400841E-01
       -1   -1    0    0    0  501  0.00000000000E+00  0.00000000000E+00  0.10323826459E+04  0.10323826459E+04  0.50400001928E-02 0.  1.
        1   -1    0    0  501    0  0.00000000000E+00  0.00000000000E+00 -0.15207968836E+04  0.15207968836E+04  0.50400001928E-02 0. -1.
    10030    2    1    2    0    0  0.00000000000E+00  0.00000000000E+00 -0.48841423769E+03  0.25531795295E+04  0.25060281807E+04 0.  0.
        4    1    3    3  502    0  0.54138152656E+03 -0.55737077520E+03  0.75728692950E+03  0.10850074861E+04  0.12699999809E+01 0.  1.
       -4    1    3    3    0  502 -0.54138152656E+03  0.55737077520E+03 -0.12457011672E+04  0.14681720435E+04  0.12699999809E+01 0. -1.
</event>
<event>
 5   0  0.1008073E-05  0.2515311E+04  0.7818609E-02  0.8397551E-01
        1   -1    0    0  501    0  0.00000000000E+00  0.00000000000E+00  0.13385008666E+04  0.13385008666E+04  0.50400001928E-02 0.  1.
       -1   -1    0    0    0  501  0.00000000000E+00  0.00000000000E+00 -0.11816927568E+04  0.11816927568E+04  0.50400001928E-02 0. -1.
    10030    2    1    2    0    0  0.00000000000E+00  0.00000000000E+00  0.15680810989E+03  0.25201936234E+04  0.25153105407E+04 0.  0.
        1    1    3    3  502    0  0.65589452890E+03 -0.89358868760E+03 -0.51688605612E+03  0.12230574683E+04  0.50400001928E-02 0. -1.
       -1    1    3    3    0  502 -0.65589452890E+03  0.89358868760E+03  0.67369416600E+03  0.12971361551E+04  0.50400001928E-02 0.  1.
</event>
<event>
 5   0  0.1039688E-05  0.2427374E+04  0.7818609E-02  0.8429326E-01
        1   -1    0    0  501    0  0.00000000000E+00  0.00000000000E+00  0.15665380415E+04  0.15665380415E+04  0.50400001928E-02 0. -1.
       -1   -1    0    0    0  501  0.00000000000E+00  0.00000000000E+00 -0.94031319975E+03  0.94031319976E+03  0.50400001928E-02 0.  1.
    10030    2    1    2    0    0  0.00000000000E+00  0.00000000000E+00  0.62622484172E+03  0.25068512412E+04  0.24273742178E+04 0.  0.
        3    1    3    3  502    0 -0.75028867337E+02 -0.12096861932E+04  0.24725642252E+03  0.12369744402E+04  0.10100000352E+00 0. -1.
       -3    1    3    3    0  502  0.75028867337E+02  0.12096861932E+04  0.37896841920E+03  0.12698768011E+04  0.10100000352E+00 0.  1.
</event>
<event>
 5   0  0.1010338E-05  0.2475281E+04  0.7818609E-02  0.8411845E-01
       -1   -1    0    0    0  501  0.00000000000E+00  0.00000000000E+00  0.10183154340E+04  0.10183154340E+04  0.50400001928E-02 0.  1.
        1   -1    0    0  501    0  0.00000000000E+00  0.00000000000E+00 -0.15042037865E+04  0.15042037865E+04  0.50400001928E-02 0. -1.
    10030    2    1    2    0    0  0.00000000000E+00  0.00000000000E+00 -0.48588835251E+03  0.25225192204E+04  0.24752809389E+04 0.  0.
        2    1    3    3  502    0  0.22640339485E+03  0.12163751620E+04 -0.21191813498E+03  0.12552833655E+04  0.25500000920E-02 0. -1.
       -2    1    3    3    0  502 -0.22640339485E+03 -0.12163751620E+04 -0.27397021754E+03  0.12672358549E+04  0.25500000920E-02 0.  1.
</event>
<event>
 5   0  0.1039688E-05  0.2639533E+04  0.7818609E-02  0.8354895E-01
        1   -1    0    0  501    0  0.00000000000E+00  0.00000000000E+00  0.90617805648E+03  0.90617805649E+03  0.50400001928E-02 0.  1.
       -1   -1    0    0    0  501  0.00000000000E+00  0.00000000000E+00 -0.19221204724E+04  0.19221204724E+04  0.50400001928E-02 0. -1.
    10030    2    1    2    0    0  0.00000000000E+00  0.00000000000E+00 -0.10159424159E+04  0.28282985289E+04  0.26395328329E+04 0.  0.
        3    1    3    3  502    0  0.11115029474E+04 -0.45680362523E+03 -0.10925854374E+04  0.16241463304E+04  0.10100000352E+00 0. -1.
       -3    1    3    3    0  502 -0.11115029474E+04  0.45680362523E+03  0.76643021544E+02  0.12041521985E+04  0.10100000352E+00 0.  1.
</event>
<event>
 5   0  0.2432309E-05  0.2089492E+04  0.7818609E-02  0.8565886E-01
       -2   -1    0    0    0  501  0.00000000000E+00  0.00000000000E+00  0.12919328539E+04  0.12919328539E+04  0.25500000920E-02 0.  1.
        2   -1    0    0  501    0  0.00000000000E+00  0.00000000000E+00 -0.84485362198E+03  0.84485362198E+03  0.25500000920E-02 0. -1.
    10030    2    1    2    0    0  0.00000000000E+00  0.00000000000E+00  0.44707923192E+03  0.21367864759E+04  0.20894919487E+04 0.  0.
        4    1    3    3  502    0  0.19002857147E+03 -0.77892226146E+03 -0.46144365796E+03  0.92507438065E+03  0.12699999809E+01 0. -1.
       -4    1    3    3    0  502 -0.19002857147E+03  0.77892226146E+03  0.90852288988E+03  0.12117120952E+04  0.12699999809E+01 0.  1.
</event>
<event>
 5   0  0.2432309E-05  0.2506446E+04  0.7818609E-02  0.8400693E-01
       -2   -1    0    0    0  501  0.00000000000E+00  0.00000000000E+00  0.83339709854E+03  0.83339709855E+03  0.25500000920E-02 0.  1.
        2   -1    0    0  501    0  0.00000000000E+00  0.00000000000E+00 -0.18845372285E+04  0.18845372285E+04  0.25500000920E-02 0. -1.
    10030    2    1    2    0    0  0.00000000000E+00  0.00000000000E+00 -0.10511401300E+04  0.27179343271E+04  0.25064459766E+04 0.  0.
        4    1    3    3  502    0 -0.27190388222E+03 -0.18261370686E+03 -0.18373027243E+04  0.18662696485E+04  0.12699999809E+01 0. -1.
       -4    1    3    3    0  502  0.27190388222E+03  0.18261370686E+03  0.78616259435E+03  0.85166467859E+03  0.12699999809E+01 0.  1.
</event>
<event>
 5   0  0.2388326E-05  0.2171492E+04  0.7818609E-02  0.8530388E-01
        2   -1    0    0  501    0  0.00000000000E+00  0.00000000000E+00  0.14163996675E+04  0.14163996675E+04  0.25500000920E-02 0.  1.
       -2   -1    0    0    0  501  0.00000000000E+00  0.00000000000E+00 -0.83228211510E+03  0.83228211510E+03  0.25500000920E-02 0. -1.
    10030    2    1    2    0    0  0.00000000000E+00  0.00000000000E+00  0.58411755236E+03  0.22486817826E+04  0.21714917555E+04 0.  0.
        2    1    3    3  502    0 -0.40744619065E+03 -0.86946865508E+03  0.81688393923E+03  0.12606694692E+04  0.25500000920E-02 0.  1.
       -2    1    3    3    0  502  0.40744619065E+03  0.86946865508E+03 -0.23276638687E+03  0.98801231334E+03  0.25500000920E-02 0. -1.
</event>
<event>
 5   0  0.8166500E-06  0.2512681E+04  0.7818609E-02  0.8398482E-01
       -3   -1    0    0    0  501  0.00000000000E+00  0.00000000000E+00  0.11009333933E+04  0.11009333979E+04  0.10100000352E+00 0. -1.
        3   -1    0    0  501    0  0.00000000000E+00  0.00000000000E+00 -0.14336843454E+04  0.14336843490E+04  0.10100000352E+00 0.  1.
    10030    2    1    2    0    0  0.00000000000E+00  0.00000000000E+00 -0.33275095216E+03  0.25346177469E+04  0.25126806257E+04 0.  0.
        5    1    3    3  502    0  0.29257587504E+03  0.76207153539E+03  0.79695705034E+03  0.11408401719E+04  0.46999998093E+01 0. -1.
       -5    1    3    3    0  502 -0.29257587504E+03 -0.76207153539E+03 -0.11297080025E+04  0.13937775750E+04  0.46999998093E+01 0.  1.
</event>
<event>
 5   0  0.1015327E-05  0.2505462E+04  0.7818609E-02  0.8401042E-01
        1   -1    0    0  501    0  0.00000000000E+00  0.00000000000E+00  0.15535855172E+04  0.15535855172E+04  0.50400001928E-02 0.  1.
       -1   -1    0    0    0  501  0.00000000000E+00  0.00000000000E+00 -0.10101376034E+04  0.10101376034E+04  0.50400001928E-02 0. -1.
    10030    2    1    2    0    0  0.00000000000E+00  0.00000000000E+00  0.54344791388E+03  0.25637231206E+04  0.25054621538E+04 0.  0.
        4    1    3    3  502    0 -0.54159433609E+03  0.11247705027E+04  0.16489104238E+03  0.12592155405E+04  0.12699999809E+01 0. -1.
       -4    1    3    3    0  502  0.54159433609E+03 -0.11247705027E+04  0.37855687150E+03  0.13045075801E+04  0.12699999809E+01 0.  1.
</event>
<event>
 5   0  0.1039688E-05  0.2485207E+04  0.7818609E-02  0.8408275E-01
        1   -1    0    0  501    0  0.00000000000E+00  0.00000000000E+00  0.10430136900E+04  0.10430136900E+04  0.50400001928E-02 0. -1.
       -1   -1    0    0    0  501  0.00000000000E+00  0.00000000000E+00 -0.14803861247E+04  0.14803861247E+04  0.50400001928E-02 0.  1.
    10030    2    1    2    0    0  0.00000000000E+00  0.00000000000E+00 -0.43737243471E+03  0.25233998148E+04  0.24852066269E+04 0.  0.
        3    1    3    3  502    0  0.59294732602E+03 -0.83955934369E+03  0.49034080556E+03  0.11388066292E+04  0.10100000352E+00 0. -1.
       -3    1    3    3    0  502 -0.59294732602E+03  0.83955934369E+03 -0.92771324027E+03  0.13845931855E+04  0.10100000352E+00 0.  1.
</event>
<event>
 5   0  0.1015327E-05  0.2500699E+04  0.7818609E-02  0.8402737E-01
        1   -1    0    0  501    0  0.00000000000E+00  0.00000000000E+00  0.16562532701E+04  0.16562532701E+04  0.50400001928E-02 0. -1.
       -1   -1    0    0    0  501  0.00000000000E+00  0.00000000000E+00 -0.94392161613E+03  0.94392161614E+03  0.50400001928E-02 0.  1.
    10030    2    1    2    0    0  0.00000000000E+00  0.00000000000E+00  0.71233165396E+03  0.26001748862E+04  0.25006985132E+04 0.  0.
        4    1    3    3  502    0 -0.62966807997E+03 -0.67785335741E+03  0.12306967263E+04  0.15396698055E+04  0.12699999809E+01 0. -1.
       -4    1    3    3    0  502  0.62966807997E+03  0.67785335741E+03 -0.51836507233E+03  0.10605050807E+04  0.12699999809E+01 0.  1.
</event>
<event>
 5   0  0.1015327E-05  0.2531053E+04  0.7818609E-02  0.8392006E-01
       -1   -1    0    0    0  501  0.00000000000E+00  0.00000000000E+00  0.16125037939E+04  0.16125037939E+04  0.50400001928E-02 0.  1.
        1   -1    0    0  501    0  0.00000000000E+00  0.00000000000E+00 -0.99321144170E+03  0.99321144171E+03  0.50400001928E-02 0. -1.
    10030    2    1    2    0    0  0.00000000000E+00  0.00000000000E+00  0.61929235224E+03  0.26057152357E+04  0.25310529176E+04 0.  0.
        4    1    3    3  502    0 -0.60113634633E+03 -0.50538043530E+03 -0.71198850352E+03  0.10600488353E+04  0.12699999809E+01 0. -1.
       -4    1    3    3    0  502  0.60113634633E+03  0.50538043530E+03  0.13312808558E+04  0.15456664003E+04  0.12699999809E+01 0.  1.
</event>
<event>
 5   0  0.2452457E-05  0.2515408E+04  0.7818609E-02  0.8397517E-01
        2   -1    0    0  501    0  0.00000000000E+00  0.00000000000E+00  0.11269406754E+04  0.11269406754E+04  0.25500000920E-02 0.  1.
       -2   -1    0    0    0  501  0.00000000000E+00  0.00000000000E+00 -0.14036408157E+04  0.14036408157E+04  0.25500000920E-02 0. -1.
    10030    2    1    2    0    0  0.00000000000E+00  0.00000000000E+00 -0.27670014030E+03  0.25305814911E+04  0.25154084590E+04 0.  0.
        1    1    3    3  502    0  0.69807336467E+03  0.10460714211E+04 -0.12250423636E+03  0.12635581223E+04  0.50400001928E-02 0. -1.
       -1    1    3    3    0  502 -0.69807336467E+03 -0.10460714211E+04 -0.15419590394E+03  0.12670233689E+04  0.50400001928E-02 0.  1.
</event>
<event>
 5   0  0.2388326E-05  0.2256413E+04  0.7818609E-02  0.8495308E-01
        2   -1    0    0  501    0  0.00000000000E+00  0.00000000000E+00  0.12508925307E+04  0.12508925307E+04  0.25500000920E-02 0.  1.
       -2   -1    0    0    0  501  0.00000000000E+00  0.00000000000E+00 -0.10175535503E+04  0.10175535503E+04  0.25500000920E-02 0. -1.
    10030    2    1    2    0    0  0.00000000000E+00  0.00000000000E+00  0.23333898045E+03  0.22684460810E+04  0.22564132030E+04 0.  0.
        2    1    3    3  502    0 -0.38184954787E+03 -0.78727122817E+02  0.11810140378E+04  0.12437046251E+04  0.25500000920E-02 0.  1.
       -2    1    3    3    0  502  0.38184954787E+03  0.78727122817E+02 -0.94767505733E+03  0.10247414559E+04  0.25500000920E-02 0. -1.
</event>
<event>
 5   0  0.2441340E-05  0.2449105E+04  0.7818609E-02  0.8421345E-01
       -2   -1    0    0    0  501  0.00000000000E+00  0.00000000000E+00  0.88159613963E+03  0.88159613964E+03  0.25500000920E-02 0.  1.
        2   -1    0    0  501    0  0.00000000000E+00  0.00000000000E+00 -0.17009244305E+04  0.17009244305E+04  0.25500000920E-02 0. -1.
    10030    2    1    2    0    0  0.00000000000E+00  0.00000000000E+00 -0.81932829085E+03  0.25825205701E+04  0.24491046623E+04 0.  0.
        3    1    3    3  502    0  0.72005340266E+03  0.59480884541E+03  0.42547365626E+03  0.10263051728E+04  0.10100000352E+00 0.  1.
       -3    1    3    3    0  502 -0.72005340266E+03 -0.59480884541E+03 -0.12448019471E+04  0.15562153974E+04  0.10100000352E+00 0. -1.
</event>
<event>
 5   0  0.2345143E-05  0.2482873E+04  0.7818609E-02  0.8409113E-01
        2   -1    0    0  501    0  0.00000000000E+00  0.00000000000E+00  0.19045595372E+04  0.19045595372E+04  0.25500000920E-02 0.  1.
       -2   -1    0    0    0  501  0.00000000000E+00  0.00000000000E+00 -0.80919718000E+03  0.80919718000E+03  0.25500000920E-02 0. -1.
    10030    2    1    2    0    0  0.00000000000E+00  0.00000000000E+00  0.10953623572E+04  0.27137567172E+04  0.24828726964E+04 0.  0.
        5    1    3    3  502    0  0.11829883110E+04 -0.20102227867E+03  0.19985792453E+03  0.12164853392E+04  0.46999998093E+01 0. -1.
       -5    1    3    3    0  502 -0.11829883110E+04  0.20102227867E+03  0.89550443263E+03  0.14972713780E+04  0.46999998093E+01 0.  1.
</event>
<event>
 5   0  0.1002753E-05  0.2478098E+04  0.7818609E-02  0.8410830E-01
        1   -1    0    0  501    0  0.00000000000E+00  0.00000000000E+00  0.12696721299E+04  0.12696721300E+04  0.50400001928E-02 0. -1.
       -1   -1    0    0    0  501  0.00000000000E+00  0.00000000000E+00 -0.12091640692E+04  0.12091640692E+04  0.50400001928E-02 0.  1.
    10030    2    1    2    0    0  0.00000000000E+00  0.00000000000E+00  0.60508060732E+02  0.24788361992E+04  0.24780975923E+04 0.  0.
        5    1    3    3  502    0  0.80255408133E+03 -0.33472923861E+03 -0.85266589775E+03  0.12178661420E+04  0.46999998093E+01 0.  1.
       -5    1    3    3    0  502 -0.80255408133E+03  0.33472923861E+03  0.91317395848E+03  0.12609700572E+04  0.46999998093E+01 0. -1.
</event>
<event>
 5   0  0.1010338E-05  0.2543013E+04  0.7818609E-02  0.8387820E-01
        1   -1    0    0  501    0  0.00000000000E+00  0.00000000000E+00  0.84649996515E+03  0.84649996516E+03  0.50400001928E-02 0.  1.
       -1   -1    0    0    0  501  0.00000000000E+00  0.00000000000E+00 -0.19098989712E+04  0.19098989712E+04  0.50400001928E-02 0. -1.
    10030    2    1    2    0    0  0.00000000000E+00  0.00000000000E+00 -0.10633990061E+04  0.27563989364E+04  0.25430134979E+04 0.  0.
        2    1    3    3  502    0  0.25986332507E+03 -0.99064652731E+03  0.28506851052E+03  0.10630962071E+04  0.25500000920E-02 0.  1.
       -2    1    3    3    0  502 -0.25986332507E+03  0.99064652731E+03 -0.13484675166E+04  0.16933027293E+04  0.25500000920E-02 0. -1.
</event>
<event>
 5   0  0.1002753E-05  0.2477258E+04  0.7818609E-02  0.8411133E-01
        1   -1    0    0  501    0  0.00000000000E+00  0.00000000000E+00  0.11340017090E+04  0.11340017090E+04  0.50400001928E-02 0. -1.
       -1   -1    0    0    0  501  0.00000000000E+00  0.00000000000E+00 -0.13529091187E+04  0.13529091187E+04  0.50400001928E-02 0.  1.
    10030    2    1    2    0    0  0.00000000000E+00  0.00000000000E+00 -0.21890740969E+03  0.24869108278E+04  0.24772575585E+04 0.  0.
        5    1    3    3  502    0  0.11096705083E+04 -0.14432438497E+03  0.42363437601E+03  0.11965309606E+04  0.46999998093E+01 0. -1.
       -5    1    3    3    0  502 -0.11096705083E+04  0.14432438497E+03 -0.64254178569E+03  0.12903798672E+04  0.46999998093E+01 0.  1.
</event>
<event>
 5   0  0.2388326E-05  0.2543451E+04  0.7818609E-02  0.8387667E-01
        2   -1    0    0  501    0  0.00000000000E+00  0.00000000000E+00  0.20567427089E+04  0.20567427089E+04  0.25500000920E-02 0. -1.
       -2   -1    0    0    0  501  0.00000000000E+00  0.00000000000E+00 -0.78633346914E+03  0.78633346915E+03  0.25500000920E-02 0.  1.
    10030    2    1    2    0    0  0.00000000000E+00  0.00000000000E+00  0.12704092398E+04  0.28430761781E+04  0.25434509073E+04 0.  0.
        2    1    3    3  502    0 -0.63265083308E+02  0.76685699915E+03  0.17670114110E+04  0.19272782504E+04  0.25500000920E-02 0. -1.
       -2    1    3    3    0  502  0.63265083308E+02 -0.76685699915E+03 -0.49660217119E+03  0.91579792768E+03  0.25500000920E-02 0.  1.
</event>
<event>
 5   0  0.2452457E-05  0.2464047E+04  0.7818609E-02  0.8415907E-01
        2   -1    0    0  501    0  0.00000000000E+00  0.00000000000E+00  0.18143078417E+04  0.18143078417E+04  0.25500000920E-02 0.  1.
       -2   -1    0    0    0  501  0.00000000000E+00  0.00000000000E+00 -0.83661739490E+03  0.83661739490E+03  0.25500000920E-02 0. -1.
    10030    2    1    2    0    0  0.00000000000E+00  0.00000000000E+00  0.97769044682E+03  0.26509252366E+04  0.24640466717E+04 0.  0.
        1    1    3    3  502    0 -0.36387183914E+03  0.37592269583E+03  0.16888606426E+04  0.17680415320E+04  0.50400001928E-02 0.  1.
       -1    1    3    3    0  502  0.36387183914E+03 -0.37592269583E+03 -0.71117019579E+03  0.88288370466E+03  0.50400001928E-02 0. -1.
</event>
<event>
 5   0  0.2452457E-05  0.2516991E+04  0.7818609E-02  0.8396957E-01
        2   -1    0    0  501    0  0.00000000000E+00  0.00000000000E+00  0.12126063617E+04  0.12126063617E+04  0.25500000920E-02 0.  1.
       -2   -1    0    0    0  501  0.00000000000E+00  0.00000000000E+00 -0.13061211762E+04  0.13061211762E+04  0.25500000920E-02 0. -1.
    10030    2    1    2    0    0  0.00000000000E+00  0.00000000000E+00 -0.93514814465E+02  0.25187275379E+04  0.25169909395E+04 0.  0.
        1    1    3    3  502    0 -0.13508103013E+03 -0.12414212173E+04  0.10967486751E+03  0.12535557826E+04  0.50400001928E-02 0. -1.
       -1    1    3    3    0  502  0.13508103013E+03  0.12414212173E+04 -0.20318968197E+03  0.12651717553E+04  0.50400001928E-02 0.  1.
</event>
<event>
 5   0  0.2441340E-05  0.2495636E+04  0.7818609E-02  0.8404542E-01
       -2   -1    0    0    0  501  0.00000000000E+00  0.00000000000E+00  0.10947078474E+04  0.10947078474E+04  0.25500000920E-02 0. -1.
        2   -1    0    0  501    0  0.00000000000E+00  0.00000000000E+00 -0.14223422246E+04  0.14223422246E+04  0.25500000920E-02 0.  1.
    10030    2    1    2    0    0  0.00000000000E+00  0.00000000000E+00 -0.32763437724E+03  0.25170500720E+04  0.24956355463E+04 0.  0.
        3    1    3    3  502    0 -0.58686724390E+03 -0.32595590284E+03  0.89705868349E+03  0.11204350514E+04  0.10100000352E+00 0. -1.
       -3    1    3    3    0  502  0.58686724390E+03  0.32595590284E+03 -0.12246930607E+04  0.13966150206E+04  0.10100000352E+00 0.  1.
</event>
<event>
 5   0  0.1015327E-05  0.2487211E+04  0.7818609E-02  0.8407556E-01
       -1   -1    0    0    0  501  0.00000000000E+00  0.00000000000E+00  0.80805716760E+03  0.80805716761E+03  0.50400001928E-02 0. -1.
        1   -1    0    0  501    0  0.00000000000E+00  0.00000000000E+00 -0.19139178433E+04  0.19139178433E+04  0.50400001928E-02 0.  1.
    10030    2    1    2    0    0  0.00000000000E+00  0.00000000000E+00 -0.11058606757E+04  0.27219750109E+04  0.24872113151E+04 0.  0.
        4    1    3    3  502    0 -0.60491522587E+03 -0.10430559965E+04 -0.88607259750E+03  0.14963336871E+04  0.12699999809E+01 0.  1.
       -4    1    3    3    0  502  0.60491522587E+03  0.10430559965E+04 -0.21978807816E+03  0.12256413238E+04  0.12699999809E+01 0. -1.
</event>
<event>
 5   0  0.2441340E-05  0.2514518E+04  0.7818609E-02  0.8397832E-01
       -2   -1    0    0    0  501  0.00000000000E+00  0.00000000000E+00  0.91733153377E+03  0.91733153378E+03  0.25500000920E-02 0.  1.
        2   -1    0    0  501    0  0.00000000000E+00  0.00000000000E+00 -0.17231497442E+04  0.17231497442E+04  0.25500000920E-02 0. -1.
    10030    2    1    2    0    0  0.00000000000E+00  0.00000000000E+00 -0.80581821041E+03  0.26404812780E+04  0.25145175265E+04 0.  0.
        3    1    3    3  502    0  0.14125892352E+00 -0.66986120752E+03 -0.15201552460E+04  0.16612001804E+04  0.10100000352E+00 0. -1.
       -3    1    3    3    0  502 -0.14125892352E+00  0.66986120752E+03  0.71433703562E+03  0.97928109751E+03  0.10100000352E+00 0.  1.
</event>
<event>
 5   0  0.1010338E-05  0.2581545E+04  0.7818609E-02  0.8374497E-01
        1   -1    0    0  501    0  0.00000000000E+00  0.00000000000E+00  0.13787494703E+04  0.13787494703E+04  0.50400001928E-02 0.  1.
       -1   -1    0    0    0  501  0.00000000000E+00  0.00000000000E+00 -0.12084097173E+04  0.12084097173E+04  0.50400001928E-02 0. -1.
    10030    2    1    2    0    0  0.00000000000E+00  0.00000000000E+00  0.17033975304E+03  0.25871591876E+04  0.25815454733E+04 0.  0.
        2    1    3    3  502    0 -0.41285638094E+03  0.10355320474E+04 -0.56687329737E+03  0.12506487708E+04  0.25500000920E-02 0. -1.
       -2    1    3    3    0  502  0.41285638094E+03 -0.10355320474E+04  0.73721305041E+03  0.13365104168E+04  0.25500000920E-02 0.  1.
</event>
<event>
 5   0  0.8166500E-06  0.2489670E+04  0.7818609E-02  0.8406675E-01
       -4   -1    0    0    0  501  0.00000000000E+00  0.00000000000E+00  0.17385128613E+04  0.17385133252E+04  0.12699999809E+01 0. -1.
        4   -1    0    0  501    0  0.00000000000E+00  0.00000000000E+00 -0.89134392347E+03  0.89134482823E+03  0.12699999809E+01 0.  1.
    10030    2    1    2    0    0  0.00000000000E+00  0.00000000000E+00  0.84716893788E+03  0.26298581535E+04  0.24896703995E+04 0.  0.
        4    1    3    3  502    0 -0.82644811402E+03  0.73609756751E+03 -0.17837838715E+03  0.11210158678E+04  0.12699999809E+01 0. -1.
       -4    1    3    3    0  502  0.82644811402E+03 -0.73609756751E+03  0.10255473250E+04  0.15088422856E+04  0.12699999809E+01 0.  1.
</event>
<event>
 5   0  0.2441340E-05  0.2506030E+04  0.7818609E-02  0.8400840E-01
       -2   -1    0    0    0  501  0.00000000000E+00  0.00000000000E+00  0.77993171350E+03  0.77993171351E+03  0.25500000920E-02 0.  1.
        2   -1    0    0  501    0  0.00000000000E+00  0.00000000000E+00 -0.20130570306E+04  0.20130570306E+04  0.25500000920E-02 0. -1.
    10030    2    1    2    0    0  0.00000000000E+00  0.00000000000E+00 -0.12331253171E+04  0.27929887441E+04  0.25060303424E+04 0.  0.
        3    1    3    3  502    0  0.10353824833E+04 -0.65624503994E+03 -0.32727865623E+03  0.12687733321E+04  0.10100000352E+00 0. -1.
       -3    1    3    3    0  502 -0.10353824833E+04  0.65624503994E+03 -0.90584666084E+03  0.15242154120E+04  0.10100000352E+00 0.  1.
</event>
<event>
 5   0  0.1010338E-05  0.2414424E+04  0.7818609E-02  0.8434123E-01
       -1   -1    0    0    0  501  0.00000000000E+00  0.00000000000E+00  0.90517379621E+03  0.90517379623E+03  0.50400001928E-02 0.  1.
        1   -1    0    0  501    0  0.00000000000E+00  0.00000000000E+00 -0.16100343366E+04  0.16100343366E+04  0.50400001928E-02 0. -1.
    10030    2    1    2    0    0  0.00000000000E+00  0.00000000000E+00 -0.70486054036E+03  0.25152081328E+04  0.24144240659E+04 0.  0.
        2    1    3    3  502    0  0.27041551001E+02 -0.36495674058E+03 -0.15508581016E+04  0.15934508211E+04  0.25500000920E-02 0. -1.
       -2    1    3    3    0  502 -0.27041551001E+02  0.36495674058E+03  0.84599756126E+03  0.92175731168E+03  0.25500000920E-02 0.  1.
</event>
<event>
 5   0  0.1010338E-05  0.2497865E+04  0.7818609E-02  0.8403747E-01
       -1   -1    0    0    0  501  0.00000000000E+00  0.00000000000E+00  0.94710648531E+03  0.94710648532E+03  0.50400001928E-02 0. -1.
        1   -1    0    0  501    0  0.00000000000E+00  0.00000000000E+00 -0.16469447796E+04  0.16469447796E+04  0.50400001928E-02 0.  1.
    10030    2    1    2    0    0  0.00000000000E+00  0.00000000000E+00 -0.69983829432E+03  0.25940512650E+04  0.24978647536E+04 0.  0.
        2    1    3    3  502    0  0.19616990952E+03 -0.88421128915E+03  0.54314889960E+03  0.10560885211E+04  0.25500000920E-02 0. -1.
       -2    1    3    3    0  502 -0.19616990952E+03  0.88421128915E+03 -0.12429871939E+04  0.15379627439E+04  0.25500000920E-02 0.  1.
</event>
<event>
 5   0  0.8166500E-06  0.2508360E+04  0.7818609E-02  0.8400013E-01
       -3   -1    0    0    0  501  0.00000000000E+00  0.00000000000E+00  0.69349735324E+03  0.69349736059E+03  0.10100000352E+00 0.  1.
        3   -1    0    0  501    0  0.00000000000E+00  0.00000000000E+00 -0.22681672022E+04  0.22681672044E+04  0.10100000352E+00 0. -1.
    10030    2    1    2    0    0  0.00000000000E+00  0.00000000000E+00 -0.15746698489E+04  0.29616645650E+04  0.25083603933E+04 0.  0.
        4    1    3    3  502    0 -0.10380644816E+04  0.64138424900E+02  0.40241585204E+02  0.10408230415E+04  0.12699999809E+01 0.  1.
       -4    1    3    3    0  502  0.10380644816E+04 -0.64138424900E+02 -0.16149114341E+04  0.19208415236E+04  0.12699999809E+01 0. -1.
</event>
<event>
 5   0  0.2388326E-05  0.2497432E+04  0.7818609E-02  0.8403901E-01
       -2   -1    0    0    0  501  0.00000000000E+00  0.00000000000E+00  0.73678864103E+03  0.73678864104E+03  0.25500000920E-02 0. -1.
        2   -1    0    0  501    0  0.00000000000E+00  0.00000000000E+00 -0.21163356351E+04  0.21163356351E+04  0.25500000920E-02 0.  1.
    10030    2    1    2    0    0  0.00000000000E+00  0.00000000000E+00 -0.13795469941E+04  0.28531242761E+04  0.24974323267E+04 0.  0.
        2    1    3    3  502    0  0.11783609453E+04 -0.31050381968E+03 -0.10012695882E+04  0.15771772023E+04  0.25500000920E-02 0.  1.
       -2    1    3    3    0  502 -0.11783609453E+04  0.31050381968E+03 -0.37827740589E+03  0.12759470738E+04  0.25500000920E-02 0. -1.
</event>
<event>
 5   0  0.2388326E-05  0.2569265E+04  0.7818609E-02  0.8378717E-01
       -2   -1    0    0    0  501  0.00000000000E+00  0.00000000000E+00  0.18644668177E+04  0.18644668177E+04  0.25500000920E-02 0.  1.
        2   -1    0    0  501    0  0.00000000000E+00  0.00000000000E+00 -0.88512227974E+03  0.88512227974E+03  0.25500000920E-02 0. -1.
    10030    2    1    2    0    0  0.00000000000E+00  0.00000000000E+00  0.97934453793E+03  0.27495890974E+04  0.25692653582E+04 0.  0.
        2    1    3    3  502    0 -0.11927346535E+04 -0.47002212369E+03  0.57756025631E+03  0.14060983608E+04  0.25500000920E-02 0.  1.
       -2    1    3    3    0  502  0.11927346535E+04  0.47002212369E+03  0.40178428162E+03  0.13434907366E+04  0.25500000920E-02 0. -1.
</event>
<event>
 5   0  0.1039688E-05  0.2503981E+04  0.7818609E-02  0.8401569E-01
       -1   -1    0    0    0  501  0.00000000000E+00  0.00000000000E+00  0.15192335532E+04  0.15192335533E+04  0.50400001928E-02 0.  1.
        1   -1    0    0  501    0  0.00000000000E+00  0.00000000000E+00 -0.10317570448E+04  0.10317570448E+04  0.50400001928E-02 0. -1.
    10030    2    1    2    0    0  0.00000000000E+00  0.00000000000E+00  0.48747650847E+03  0.25509905980E+04  0.25039807677E+04 0.  0.
        3    1    3    3  502    0 -0.80966714574E+03  0.26230758920E+03 -0.69171255684E+03  0.10967371744E+04  0.10100000352E+00 0. -1.
       -3    1    3    3    0  502  0.80966714574E+03 -0.26230758920E+03  0.11791890653E+04  0.14542534236E+04  0.10100000352E+00 0.  1.
</event>
<event>
 5   0  0.2432309E-05  0.2565005E+04  0.7818609E-02  0.8380186E-01
        2   -1    0    0  501    0  0.00000000000E+00  0.00000000000E+00  0.17949555040E+04  0.17949555040E+04  0.25500000920E-02 0.  1.
       -2   -1    0    0    0  501  0.00000000000E+00  0.00000000000E+00 -0.91635317479E+03  0.91635317479E+03  0.25500000920E-02 0. -1.
    10030    2    1    2    0    0  0.00000000000E+00  0.00000000000E+00  0.87860232921E+03  0.27113086788E+04  0.25650053994E+04 0.  0.
        4    1    3    3  502    0  0.22851998457E+03 -0.35225411727E+03  0.17202409739E+04  0.17707441847E+04  0.12699999809E+01 0.  1.
       -4    1    3    3    0  502 -0.22851998457E+03  0.35225411727E+03 -0.84163864467E+03  0.94056449411E+03  0.12699999809E+01 0. -1.
</event>
<event>
 5   0  0.1008073E-05  0.2515042E+04  0.7818609E-02  0.8397646E-01
       -1   -1    0    0    0  501  0.00000000000E+00  0.00000000000E+00  0.16661384045E+04  0.16661384045E+04  0.50400001928E-02 0.  1.
        1   -1    0    0  501    0  0.00000000000E+00  0.00000000000E+00 -0.94911613586E+03  0.94911613588E+03  0.50400001928E-02 0. -1.
    10030    2    1    2    0    0  0.00000000000E+00  0.00000000000E+00  0.71702226862E+03  0.26152545404E+04  0.25150418241E+04 0.  0.
        1    1    3    3  502    0  0.11346378016E+04  0.29873129467E+03  0.82899434972E+03  0.14366192812E+04  0.50400001928E-02 0.  1.
       -1    1    3    3    0  502 -0.11346378016E+04 -0.29873129467E+03 -0.11197208110E+03  0.11786352592E+04  0.50400001928E-02 0. -1.
</event>
<event>
 5   0  0.2388326E-05  0.2470897E+04  0.7818609E-02  0.8413428E-01
       -2   -1    0    0    0  501  0.00000000000E+00  0.00000000000E+00  0.13915967995E+04  0.13915967995E+04  0.25500000920E-02 0.  1.
        2   -1    0    0  501    0  0.00000000000E+00  0.00000000000E+00 -0.10968209651E+04  0.10968209651E+04  0.25500000920E-02 0. -1.
    10030    2    1    2    0    0  0.00000000000E+00  0.00000000000E+00  0.29477583447E+03  0.24884177646E+04  0.24708966345E+04 0.  0.
        2    1    3    3  502    0 -0.98277084253E+03  0.19400214698E+03 -0.58082814586E+03  0.11579450319E+04  0.25500000920E-02 0. -1.
       -2    1    3    3    0  502  0.98277084253E+03 -0.19400214698E+03  0.87560398033E+03  0.13304727327E+04  0.25500000920E-02 0.  1.
</event>
<event>
 5   0  0.1002753E-05  0.2505319E+04  0.7818609E-02  0.8401093E-01
        1   -1    0    0  501    0  0.00000000000E+00  0.00000000000E+00  0.15487658341E+04  0.15487658341E+04  0.50400001928E-02 0.  1.
       -1   -1    0    0    0  501  0.00000000000E+00  0.00000000000E+00 -0.10131650621E+04  0.10131650621E+04  0.50400001928E-02 0. -1.
    10030    2    1    2    0    0  0.00000000000E+00  0.00000000000E+00  0.53560077193E+03  0.25619308962E+04  0.25053186883E+04 0.  0.
        5    1    3    3  502    0 -0.11227465403E+04  0.52398137274E+03  0.79195523904E+02  0.12415354581E+04  0.46999998093E+01 0. -1.
       -5    1    3    3    0  502  0.11227465403E+04 -0.52398137274E+03  0.45640524803E+03  0.13203954381E+04  0.46999998093E+01 0.  1.
</event>
<event>
 5   0  0.2452457E-05  0.2507195E+04  0.7818609E-02  0.8400427E-01
        2   -1    0    0  501    0  0.00000000000E+00  0.00000000000E+00  0.10875041256E+04  0.10875041257E+04  0.25500000920E-02 0. -1.
       -2   -1    0    0    0  501  0.00000000000E+00  0.00000000000E+00 -0.14450579809E+04  0.14450579809E+04  0.25500000920E-02 0.  1.
    10030    2    1    2    0    0  0.00000000000E+00  0.00000000000E+00 -0.35755385530E+03  0.25325621066E+04  0.25071948597E+04 0.  0.
        1    1    3    3  502    0  0.58367786562E+03  0.80218188367E+03 -0.95290610642E+03  0.13755746701E+04  0.50400001928E-02 0.  1.
       -1    1    3    3    0  502 -0.58367786562E+03 -0.80218188367E+03  0.59535225112E+03  0.11569874365E+04  0.50400001928E-02 0. -1.
</event>
<event>
 5   0  0.8166500E-06  0.2455982E+04  0.7818609E-02  0.8418837E-01
       -4   -1    0    0    0  501  0.00000000000E+00  0.00000000000E+00  0.14378279885E+04  0.14378285494E+04  0.12699999809E+01 0. -1.
        4   -1    0    0  501    0  0.00000000000E+00  0.00000000000E+00 -0.10487767762E+04  0.10487775452E+04  0.12699999809E+01 0.  1.
    10030    2    1    2    0    0  0.00000000000E+00  0.00000000000E+00  0.38905121229E+03  0.24866060945E+04  0.24559822930E+04 0.  0.
        1    1    3    3  502    0 -0.61057392659E+03  0.88842780642E+03 -0.40090414417E+03  0.11501428693E+04  0.50400001928E-02 0.  1.
       -1    1    3    3    0  502  0.61057392659E+03 -0.88842780642E+03  0.78995535645E+03  0.13364632252E+04  0.50400001928E-02 0. -1.
</event>
<event>
 5   0  0.1008073E-05  0.2501106E+04  0.7818609E-02  0.8402592E-01
       -1   -1    0    0    0  501  0.00000000000E+00  0.00000000000E+00  0.14057868249E+04  0.14057868250E+04  0.50400001928E-02 0. -1.
        1   -1    0    0  501    0  0.00000000000E+00  0.00000000000E+00 -0.11124607066E+04  0.11124607066E+04  0.50400001928E-02 0.  1.
    10030    2    1    2    0    0  0.00000000000E+00  0.00000000000E+00  0.29332611837E+03  0.25182475316E+04  0.25011058391E+04 0.  0.
        1    1    3    3  502    0  0.43158132388E+03 -0.11283047341E+04  0.47221886305E+03  0.12970445893E+04  0.50400001928E-02 0. -1.
       -1    1    3    3    0  502 -0.43158132388E+03  0.11283047341E+04 -0.17889274468E+03  0.12212029422E+04  0.50400001928E-02 0.  1.
</event>
<event>
 5   0  0.1015327E-05  0.2519682E+04  0.7818609E-02  0.8396007E-01
        1   -1    0    0  501    0  0.00000000000E+00  0.00000000000E+00  0.14879288291E+04  0.14879288291E+04  0.50400001928E-02 0.  1.
       -1   -1    0    0    0  501  0.00000000000E+00  0.00000000000E+00 -0.10667170189E+04  0.10667170189E+04  0.50400001928E-02 0. -1.
    10030    2    1    2    0    0  0.00000000000E+00  0.00000000000E+00  0.42121181025E+03  0.25546458480E+04  0.25196817298E+04 0.  0.
        4    1    3    3  502    0 -0.33322894501E+03  0.10655446011E+04  0.80246190215E+03  0.13749085585E+04  0.12699999809E+01 0.  1.
       -4    1    3    3    0  502  0.33322894501E+03 -0.10655446011E+04 -0.38125009189E+03  0.11797372895E+04  0.12699999809E+01 0. -1.
</event>
<event>
 5   0  0.1015327E-05  0.2235582E+04  0.7818609E-02  0.8503762E-01
       -1   -1    0    0    0  501  0.00000000000E+00  0.00000000000E+00  0.16144321484E+04  0.16144321484E+04  0.50400001928E-02 0.  1.
        1   -1    0    0  501    0  0.00000000000E+00  0.00000000000E+00 -0.77392958718E+03  0.77392958720E+03  0.50400001928E-02 0. -1.
    10030    2    1    2    0    0  0.00000000000E+00  0.00000000000E+00  0.84050256119E+03  0.23883617356E+04  0.22355820774E+04 0.  0.
        4    1    3    3  502    0 -0.44331789951E+03 -0.51511653980E+03 -0.52785419551E+03  0.86052743955E+03  0.12699999809E+01 0. -1.
       -4    1    3    3    0  502  0.44331789951E+03  0.51511653980E+03  0.13683567567E+04  0.15278342960E+04  0.12699999809E+01 0.  1.
</event>
<event>
 5   0  0.2388326E-05  0.2412911E+04  0.7818609E-02  0.8434686E-01
       -2   -1    0    0    0  501  0.00000000000E+00  0.00000000000E+00  0.76824632743E+03  0.76824632743E+03  0.25500000920E-02 0.  1.
        2   -1    0    0  501    0  0.00000000000E+00  0.00000000000E+00 -0.18946200828E+04  0.18946200828E+04  0.25500000920E-02 0. -1.
    10030    2    1    2    0    0  0.00000000000E+00  0.00000000000E+00 -0.11263737554E+04  0.26628664102E+04  0.24129110390E+04 0.  0.
        2    1    3    3  502    0  0.15058979452E+03  0.52071087531E+03  0.62629654676E+03  0.82829008588E+03  0.25500000920E-02 0.  1.
       -2    1    3    3    0  502 -0.15058979452E+03 -0.52071087531E+03 -0.17526703021E+04  0.18345763243E+04  0.25500000920E-02 0. -1.
</event>
<event>
 5   0  0.2388326E-05  0.2470910E+04  0.7818609E-02  0.8413423E-01
        2   -1    0    0  501    0  0.00000000000E+00  0.00000000000E+00  0.14021392636E+04  0.14021392637E+04  0.25500000920E-02 0.  1.
       -2   -1    0    0    0  501  0.00000000000E+00  0.00000000000E+00 -0.10885861532E+04  0.10885861532E+04  0.25500000920E-02 0. -1.
    10030    2    1    2    0    0  0.00000000000E+00  0.00000000000E+00  0.31355311048E+03  0.24907254168E+04  0.24709102673E+04 0.  0.
        2    1    3    3  502    0 -0.88648601960E+03 -0.14224011700E+02  0.10240772678E+04  0.13545456935E+04  0.25500000920E-02 0. -1.
       -2    1    3    3    0  502  0.88648601960E+03  0.14224011700E+02 -0.71052415731E+03  0.11361797233E+04  0.25500000920E-02 0.  1.
</event>
<event>
 5   0  0.2432309E-05  0.2422791E+04  0.7818609E-02  0.8431020E-01
       -2   -1    0    0    0  501  0.00000000000E+00  0.00000000000E+00  0.11571725689E+04  0.11571725689E+04  0.25500000920E-02 0. -1.
        2   -1    0    0  501    0  0.00000000000E+00  0.00000000000E+00 -0.12681594898E+04  0.12681594898E+04  0.25500000920E-02 0.  1.
    10030    2    1    2    0    0  0.00000000000E+00  0.00000000000E+00 -0.11098692091E+03  0.24253320586E+04  0.24227912618E+04 0.  0.
        4    1    3    3  502    0 -0.10575255829E+04 -0.46634644967E+03 -0.41869400689E+03  0.12292866443E+04  0.12699999809E+01 0.  1.
       -4    1    3    3    0  502  0.10575255829E+04  0.46634644967E+03  0.30770708598E+03  0.11960454143E+04  0.12699999809E+01 0. -1.
</event>
<event>
 5   0  0.2345143E-05  0.2502802E+04  0.7818609E-02  0.8401988E-01
       -2   -1    0    0    0  501  0.00000000000E+00  0.00000000000E+00  0.72136355420E+03  0.72136355420E+03  0.25500000920E-02 0.  1.
        2   -1    0    0  501    0  0.00000000000E+00  0.00000000000E+00 -0.21708955190E+04  0.21708955190E+04  0.25500000920E-02 0. -1.
    10030    2    1    2    0    0  0.00000000000E+00  0.00000000000E+00 -0.14495319648E+04  0.28922590733E+04  0.25028023553E+04 0.  0.
        5    1    3    3  502    0  0.47599742234E+03  0.30708731450E+03  0.56471194922E+03  0.79987364027E+03  0.46999998093E+01 0.  1.
       -5    1    3    3    0  502 -0.47599742234E+03 -0.30708731450E+03 -0.20142439141E+04  0.20923854330E+04  0.46999998093E+01 0. -1.
</event>
<event>
 5   0  0.2388326E-05  0.2550972E+04  0.7818609E-02  0.8385048E-01
       -2   -1    0    0    0  501  0.00000000000E+00  0.00000000000E+00  0.85653663824E+03  0.85653663824E+03  0.25500000920E-02 0.  1.
        2   -1    0    0  501    0  0.00000000000E+00  0.00000000000E+00 -0.18993517001E+04  0.18993517001E+04  0.25500000920E-02 0. -1.
    10030    2    1    2    0    0  0.00000000000E+00  0.00000000000E+00 -0.10428150619E+04  0.27558883384E+04  0.25509718305E+04 0.  0.
        2    1    3    3  502    0  0.16985729672E+03  0.12528521051E+04 -0.33942928970E+03  0.13090844668E+04  0.25500000920E-02 0. -1.
       -2    1    3    3    0  502 -0.16985729672E+03 -0.12528521051E+04 -0.70338577217E+03  0.14468038716E+04  0.25500000920E-02 0.  1.
</event>
<event>
 5   0  0.2452457E-05  0.2494362E+04  0.7818609E-02  0.8404997E-01
       -2   -1    0    0    0  501  0.00000000000E+00  0.00000000000E+00  0.13739523216E+04  0.13739523216E+04  0.25500000920E-02 0.  1.
        2   -1    0    0  501    0  0.00000000000E+00  0.00000000000E+00 -0.11321065721E+04  0.11321065721E+04  0.25500000920E-02 0. -1.
    10030    2    1    2    0    0  0.00000000000E+00  0.00000000000E+00  0.24184574950E+03  0.25060588938E+04  0.24943620051E+04 0.  0.
        1    1    3    3  502    0  0.22576294236E+03 -0.31718050617E+03 -0.10694911440E+04  0.11381492374E+04  0.50400001928E-02 0. -1.
       -1    1    3    3    0  502 -0.22576294236E+03  0.31718050617E+03  0.13113368935E+04  0.13679096563E+04  0.50400001928E-02 0.  1.
</event>
<event>
 5   0  0.2432309E-05  0.2357128E+04  0.7818609E-02  0.8455731E-01
       -2   -1    0    0    0  501  0.00000000000E+00  0.00000000000E+00  0.14770557265E+04  0.14770557265E+04  0.25500000920E-02 0. -1.
        2   -1    0    0  501    0  0.00000000000E+00  0.00000000000E+00 -0.94039277535E+03  0.94039277535E+03  0.25500000920E-02 0.  1.
    10030    2    1    2    0    0  0.00000000000E+00  0.00000000000E+00  0.53666295114E+03  0.24174485018E+04  0.23571275180E+04 0.  0.
        4    1    3    3  502    0  0.67444929548E+03  0.70833740020E+03  0.94272061226E+03  0.13584356777E+04  0.12699999809E+01 0. -1.
       -4    1    3    3    0  502 -0.67444929548E+03 -0.70833740020E+03 -0.40605766112E+03  0.10590128242E+04  0.12699999809E+01 0.  1.
</event>
<event>
 5   0  0.2432309E-05  0.2492093E+04  0.7818609E-02  0.8405808E-01
        2   -1    0    0  501    0  0.00000000000E+00  0.00000000000E+00  0.11077214822E+04  0.11077214822E+04  0.25500000920E-02 0.  1.
       -2   -1    0    0    0  501  0.00000000000E+00  0.00000000000E+00 -0.14016446016E+04  0.14016446016E+04  0.25500000920E-02 0. -1.
    10030    2    1    2    0    0  0.00000000000E+00  0.00000000000E+00 -0.29392311945E+03  0.25093660838E+04  0.24920929643E+04 0.  0.
        4    1    3    3  502    0 -0.26565353589E+03 -0.30310694600E+03  0.10402716095E+04  0.11156219146E+04  0.12699999809E+01 0.  1.
       -4    1    3    3    0  502  0.26565353589E+03  0.30310694600E+03 -0.13341947289E+04  0.13937441693E+04  0.12699999809E+01 0. -1.
</event>
<event>
 5   0  0.2345143E-05  0.2484717E+04  0.7818609E-02  0.8408451E-01
        2   -1    0    0  501    0  0.00000000000E+00  0.00000000000E+00  0.16783631273E+04  0.16783631273E+04  0.25500000920E-02 0.  1.
       -2   -1    0    0    0  501  0.00000000000E+00  0.00000000000E+00 -0.91961874255E+03  0.91961874255E+03  0.25500000920E-02 0. -1.
    10030    2    1    2    0    0  0.00000000000E+00  0.00000000000E+00  0.75874438474E+03  0.25979818698E+04  0.24847166347E+04 0.  0.
        5    1    3    3  502    0 -0.94792748078E+03 -0.27956165819E+03  0.11664905105E+04  0.15288699849E+04  0.46999998093E+01 0.  1.
       -5    1    3    3    0  502  0.94792748078E+03  0.27956165819E+03 -0.40774612575E+03  0.10691118850E+04  0.46999998093E+01 0. -1.
</event>
<event>
 5   0  0.1015327E-05  0.2505145E+04  0.7818609E-02  0.8401155E-01
        1   -1    0    0  501    0  0.00000000000E+00  0.00000000000E+00  0.16772571264E+04  0.16772571264E+04  0.50400001928E-02 0.  1.
       -1   -1    0    0    0  501  0.00000000000E+00  0.00000000000E+00 -0.93541870589E+03  0.93541870590E+03  0.50400001928E-02 0. -1.
    10030    2    1    2    0    0  0.00000000000E+00  0.00000000000E+00  0.74183842055E+03  0.26126758323E+04  0.25051448586E+04 0.  0.
        4    1    3    3  502    0 -0.10688245109E+04 -0.16564230957E+03 -0.28795202753E+03  0.11192592161E+04  0.12699999809E+01 0. -1.
       -4    1    3    3    0  502  0.10688245109E+04  0.16564230957E+03  0.10297904481E+04  0.14934166162E+04  0.12699999809E+01 0.  1.
</event>
<event>
 5   0  0.2345143E-05  0.2507112E+04  0.7818609E-02  0.8400456E-01
        2   -1    0    0  501    0  0.00000000000E+00  0.00000000000E+00  0.10282653961E+04  0.10282653961E+04  0.25500000920E-02 0.  1.
       -2   -1    0    0    0  501  0.00000000000E+00  0.00000000000E+00 -0.15282066936E+04  0.15282066936E+04  0.25500000920E-02 0. -1.
    10030    2    1    2    0    0  0.00000000000E+00  0.00000000000E+00 -0.49994129757E+03  0.25564720897E+04  0.25071115341E+04 0.  0.
        5    1    3    3  502    0 -0.47721770531E+03  0.22823813375E+03  0.90886837441E+03  0.10516145663E+04  0.46999998093E+01 0.  1.
       -5    1    3    3    0  502  0.47721770531E+03 -0.22823813375E+03 -0.14088096720E+04  0.15048575234E+04  0.46999998093E+01 0. -1.
</event>
<event>
 5   0  0.2441340E-05  0.2540693E+04  0.7818609E-02  0.8388630E-01
        2   -1    0    0  501    0  0.00000000000E+00  0.00000000000E+00  0.14131452976E+04  0.14131452976E+04  0.25500000920E-02 0. -1.
       -2   -1    0    0    0  501  0.00000000000E+00  0.00000000000E+00 -0.11419773514E+04  0.11419773514E+04  0.25500000920E-02 0.  1.
    10030    2    1    2    0    0  0.00000000000E+00  0.00000000000E+00  0.27116794625E+03  0.25551226490E+04  0.25406927591E+04 0.  0.
        3    1    3    3  502    0  0.21242538807E+03 -0.10030155363E+04 -0.61875289315E+03  0.11975056846E+04  0.10100000352E+00 0.  1.
       -3    1    3    3    0  502 -0.21242538807E+03  0.10030155363E+04  0.88992083940E+03  0.13576169644E+04  0.10100000352E+00 0. -1.
</event>
<event>
 5   0  0.1010338E-05  0.2506301E+04  0.7818609E-02  0.8400744E-01
       -1   -1    0    0    0  501  0.00000000000E+00  0.00000000000E+00  0.22697624691E+04  0.22697624691E+04  0.50400001928E-02 0.  1.
        1   -1    0    0  501    0  0.00000000000E+00  0.00000000000E+00 -0.69187229775E+03  0.69187229777E+03  0.50400001928E-02 0. -1.
    10030    2    1    2    0    0  0.00000000000E+00  0.00000000000E+00  0.15778901713E+04  0.29616347669E+04  0.25063006802E+04 0.  0.
        2    1    3    3  502    0 -0.37480314164E+03  0.70690747855E+02 -0.62161706860E+03  0.72930265103E+03  0.25500000920E-02 0. -1.
       -2    1    3    3    0  502  0.37480314164E+03 -0.70690747855E+02  0.21995072399E+04  0.22323321158E+04  0.25500000920E-02 0.  1.
</event>
<event>
 5   0  0.1008073E-05  0.2514066E+04  0.7818609E-02  0.8397992E-01
        1   -1    0    0  501    0  0.00000000000E+00  0.00000000000E+00  0.77976282054E+03  0.77976282056E+03  0.50400001928E-02 0.  1.
       -1   -1    0    0    0  501  0.00000000000E+00  0.00000000000E+00 -0.20264259050E+04  0.20264259050E+04  0.50400001928E-02 0. -1.
    10030    2    1    2    0    0  0.00000000000E+00  0.00000000000E+00 -0.12466630845E+04  0.28061887256E+04  0.25140656947E+04 0.  0.
        1    1    3    3  502    0  0.78756196048E+03 -0.87663760810E+03 -0.11116389823E+04  0.16200273345E+04  0.50400001928E-02 0. -1.
       -1    1    3    3    0  502 -0.78756196048E+03  0.87663760810E+03 -0.13502410219E+03  0.11861613911E+04  0.50400001928E-02 0.  1.
</event>
<event>
 5   0  0.1002753E-05  0.2537058E+04  0.7818609E-02  0.8389901E-01
       -1   -1    0    0    0  501  0.00000000000E+00  0.00000000000E+00  0.90616996061E+03  0.90616996062E+03  0.50400001928E-02 0.  1.
        1   -1    0    0  501    0  0.00000000000E+00  0.00000000000E+00 -0.17757887790E+04  0.17757887790E+04  0.50400001928E-02 0. -1.
    10030    2    1    2    0    0  0.00000000000E+00  0.00000000000E+00 -0.86961881841E+03  0.26819587396E+04  0.25370584920E+04 0.  0.
        5    1    3    3  502    0 -0.10552417480E+04 -0.17233714520E+03 -0.11563690237E+04  0.15749433791E+04  0.46999998093E+01 0. -1.
       -5    1    3    3    0  502  0.10552417480E+04  0.17233714520E+03  0.28675020527E+03  0.11070153606E+04  0.46999998093E+01 0.  1.
</event>
<event>
 5   0  0.1002753E-05  0.2457292E+04  0.7818609E-02  0.8418360E-01
       -1   -1    0    0    0  501  0.00000000000E+00  0.00000000000E+00  0.12388087016E+04  0.12388087016E+04  0.50400001928E-02 0.  1.
        1   -1    0    0  501    0  0.00000000000E+00  0.00000000000E+00 -0.12185668508E+04  0.12185668509E+04  0.50400001928E-02 0. -1.
    10030    2    1    2    0    0  0.00000000000E+00  0.00000000000E+00  0.20241850743E+02  0.24573755524E+04  0.24572921831E+04 0.  0.
        5    1    3    3  502    0  0.65331528957E+03  0.10157162486E+04 -0.21582647346E+03  0.12268266063E+04  0.46999998093E+01 0. -1.
       -5    1    3    3    0  502 -0.65331528957E+03 -0.10157162486E+04  0.23606832421E+03  0.12305489462E+04  0.46999998093E+01 0.  1.
</event>
<event>
 5   0  0.2452457E-05  0.2447645E+04  0.7818609E-02  0.8421878E-01
        2   -1    0    0  501    0  0.00000000000E+00  0.00000000000E+00  0.77402761270E+03  0.77402761271E+03  0.25500000920E-02 0.  1.
       -2   -1    0    0    0  501  0.00000000000E+00  0.00000000000E+00 -0.19349978850E+04  0.19349978850E+04  0.25500000920E-02 0. -1.
    10030    2    1    2    0    0  0.00000000000E+00  0.00000000000E+00 -0.11609702723E+04  0.27090254978E+04  0.24476452305E+04 0.  0.
        1    1    3    3  502    0 -0.11401263528E+03  0.59660446187E+03 -0.17563956754E+04  0.18584567612E+04  0.50400001928E-02 0. -1.
       -1    1    3    3    0  502  0.11401263528E+03 -0.59660446187E+03  0.59542540303E+03  0.85056873651E+03  0.50400001928E-02 0.  1.
</event>
<event>
 5   0  0.2452457E-05  0.2499200E+04  0.7818609E-02  0.8403271E-01
        2   -1    0    0  501    0  0.00000000000E+00  0.00000000000E+00  0.24643305963E+04  0.24643305963E+04  0.25500000920E-02 0.  1.
       -2   -1    0    0    0  501  0.00000000000E+00  0.00000000000E+00 -0.63364069699E+03  0.63364069699E+03  0.25500000920E-02 0. -1.
    10030    2    1    2    0    0  0.00000000000E+00  0.00000000000E+00  0.18306898993E+04  0.30979712933E+04  0.24991999973E+04 0.  0.
        1    1    3    3  502    0  0.59969963285E+03  0.10434816018E+04  0.13320496360E+04  0.17952297167E+04  0.50400001928E-02 0. -1.
       -1    1    3    3    0  502 -0.59969963285E+03 -0.10434816018E+04  0.49864026328E+03  0.13027415765E+04  0.50400001928E-02 0.  1.
</event>
<event>
 5   0  0.1008073E-05  0.2504511E+04  0.7818609E-02  0.8401380E-01
        1   -1    0    0  501    0  0.00000000000E+00  0.00000000000E+00  0.10750935874E+04  0.10750935874E+04  0.50400001928E-02 0. -1.
       -1   -1    0    0    0  501  0.00000000000E+00  0.00000000000E+00 -0.14586113868E+04  0.14586113868E+04  0.50400001928E-02 0.  1.
    10030    2    1    2    0    0  0.00000000000E+00  0.00000000000E+00 -0.38351779947E+03  0.25337049742E+04  0.25045109291E+04 0.  0.
        1    1    3    3  502    0  0.10410252190E+04  0.69059839431E+03 -0.27927800913E+03  0.12800999396E+04  0.50400001928E-02 0. -1.
       -1    1    3    3    0  502 -0.10410252190E+04 -0.69059839431E+03 -0.10423979033E+03  0.12536050346E+04  0.50400001928E-02 0.  1.
</event>
<event>
 5   0  0.2388326E-05  0.2477594E+04  0.7818609E-02  0.8411012E-01
        2   -1    0    0  501    0  0.00000000000E+00  0.00000000000E+00  0.22295024691E+04  0.22295024691E+04  0.25500000920E-02 0.  1.
       -2   -1    0    0    0  501  0.00000000000E+00  0.00000000000E+00 -0.68832284228E+03  0.68832284228E+03  0.25500000920E-02 0. -1.
    10030    2    1    2    0    0  0.00000000000E+00  0.00000000000E+00  0.15411796268E+04  0.29178253114E+04  0.24775935715E+04 0.  0.
        2    1    3    3  502    0  0.89155439497E+03 -0.50008864745E+03  0.15946830513E+04  0.18941942690E+04  0.25500000920E-02 0.  1.
       -2    1    3    3    0  502 -0.89155439497E+03  0.50008864745E+03 -0.53503424502E+02  0.10236310424E+04  0.25500000920E-02 0. -1.
</event>
<event>
 5   0  0.2345143E-05  0.2715019E+04  0.7818609E-02  0.8330148E-01
        2   -1    0    0  501    0  0.00000000000E+00  0.00000000000E+00  0.15204540870E+04  0.15204540870E+04  0.25500000920E-02 0.  1.
       -2   -1    0    0    0  501  0.00000000000E+00  0.00000000000E+00 -0.12120270917E+04  0.12120270917E+04  0.25500000920E-02 0. -1.
    10030    2    1    2    0    0  0.00000000000E+00  0.00000000000E+00  0.30842699531E+03  0.27324811787E+04  0.27150186335E+04 0.  0.
        5    1    3    3  502    0 -0.24883837403E+03  0.71632924422E+03  0.12874044944E+04  0.14941487693E+04  0.46999998093E+01 0.  1.
       -5    1    3    3    0  502  0.24883837403E+03 -0.71632924422E+03 -0.97897749907E+03  0.12383324094E+04  0.46999998093E+01 0. -1.
</event>
<event>
 5   0  0.2345143E-05  0.2506961E+04  0.7818609E-02  0.8400510E-01
        2   -1    0    0  501    0  0.00000000000E+00  0.00000000000E+00  0.73605278927E+03  0.73605278927E+03  0.25500000920E-02 0.  1.
       -2   -1    0    0    0  501  0.00000000000E+00  0.00000000000E+00 -0.21346476686E+04  0.21346476686E+04  0.25500000920E-02 0. -1.
    10030    2    1    2    0    0  0.00000000000E+00  0.00000000000E+00 -0.13985948793E+04  0.28707004578E+04  0.25069610053E+04 0.  0.
        5    1    3    3  502    0  0.53389216702E+03  0.34478603033E+03  0.53786442656E+03  0.83260944270E+03  0.46999998093E+01 0.  1.
       -5    1    3    3    0  502 -0.53389216702E+03 -0.34478603033E+03 -0.19364593059E+04  0.20380910151E+04  0.46999998093E+01 0. -1.
</event>
<event>
 5   0  0.1008073E-05  0.2178982E+04  0.7818609E-02  0.8527227E-01
        1   -1    0    0  501    0  0.00000000000E+00  0.00000000000E+00  0.17400816470E+04  0.17400816470E+04  0.50400001928E-02 0.  1.
       -1   -1    0    0    0  501  0.00000000000E+00  0.00000000000E+00 -0.68214678686E+03  0.68214678688E+03  0.50400001928E-02 0. -1.
    10030    2    1    2    0    0  0.00000000000E+00  0.00000000000E+00  0.10579348601E+04  0.24222284338E+04  0.21789824271E+04 0.  0.
        1    1    3    3  502    0 -0.46100232782E+02  0.88416933147E+03  0.12347540277E+04  0.15193742617E+04  0.50400001928E-02 0.  1.
       -1    1    3    3    0  502  0.46100232782E+02 -0.88416933147E+03 -0.17681916757E+03  0.90285417218E+03  0.50400001928E-02 0. -1.
</event>
<event>
 5   0  0.1015327E-05  0.2489417E+04  0.7818609E-02  0.8406765E-01
        1   -1    0    0  501    0  0.00000000000E+00  0.00000000000E+00  0.11891625834E+04  0.11891625834E+04  0.50400001928E-02 0. -1.
       -1   -1    0    0    0  501  0.00000000000E+00  0.00000000000E+00 -0.13028493634E+04  0.13028493634E+04  0.50400001928E-02 0.  1.
    10030    2    1    2    0    0  0.00000000000E+00  0.00000000000E+00 -0.11368678001E+03  0.24920119469E+04  0.24894173735E+04 0.  0.
        4    1    3    3  502    0  0.32246230759E+03  0.10074671192E+04 -0.71351959687E+03  0.12759638569E+04  0.12699999809E+01 0.  1.
       -4    1    3    3    0  502 -0.32246230759E+03 -0.10074671192E+04  0.59983281686E+03  0.12160480900E+04  0.12699999809E+01 0. -1.
</event>
<event>
 5   0  0.2441340E-05  0.2501438E+04  0.7818609E-02  0.8402474E-01
        2   -1    0    0  501    0  0.00000000000E+00  0.00000000000E+00  0.17001842881E+04  0.17001842881E+04  0.25500000920E-02 0. -1.
       -2   -1    0    0    0  501  0.00000000000E+00  0.00000000000E+00 -0.92007525733E+03  0.92007525733E+03  0.25500000920E-02 0.  1.
    10030    2    1    2    0    0  0.00000000000E+00  0.00000000000E+00  0.78010903074E+03  0.26202595454E+04  0.25014375838E+04 0.  0.
        3    1    3    3  502    0 -0.41241494663E+03  0.11791259407E+04  0.45524760893E+03  0.13295391938E+04  0.10100000352E+00 0.  1.
       -3    1    3    3    0  502  0.41241494663E+03 -0.11791259407E+04  0.32486142180E+03  0.12907203516E+04  0.10100000352E+00 0. -1.
</event>
<event>
 5   0  0.2452457E-05  0.2498837E+04  0.7818609E-02  0.8403400E-01
       -2   -1    0    0    0  501  0.00000000000E+00  0.00000000000E+00  0.12349546252E+04  0.12349546252E+04  0.25500000920E-02 0. -1.
        2   -1    0    0  501    0  0.00000000000E+00  0.00000000000E+00 -0.12640517070E+04  0.12640517070E+04  0.25500000920E-02 0.  1.
    10030    2    1    2    0    0  0.00000000000E+00  0.00000000000E+00 -0.29097081833E+02  0.24990063322E+04  0.24988369311E+04 0.  0.
        1    1    3    3  502    0  0.41852454728E+02  0.11749115274E+04  0.40841957925E+03  0.12445783534E+04  0.50400001928E-02 0. -1.
       -1    1    3    3    0  502 -0.41852454728E+02 -0.11749115274E+04 -0.43751666108E+03  0.12544279788E+04  0.50400001928E-02 0.  1.
</event>
<event>
 5   0  0.2345143E-05  0.2469690E+04  0.7818609E-02  0.8413864E-01
       -2   -1    0    0    0  501  0.00000000000E+00  0.00000000000E+00  0.10496840466E+04  0.10496840466E+04  0.25500000920E-02 0. -1.
        2   -1    0    0  501    0  0.00000000000E+00  0.00000000000E+00 -0.14526674341E+04  0.14526674341E+04  0.25500000920E-02 0.  1.
    10030    2    1    2    0    0  0.00000000000E+00  0.00000000000E+00 -0.40298338748E+03  0.25023514806E+04  0.24696897218E+04 0.  0.
        5    1    3    3  502    0  0.26370650800E+03 -0.10072617851E+04  0.47114194383E+03  0.11428535546E+04  0.46999998093E+01 0. -1.
       -5    1    3    3    0  502 -0.26370650800E+03  0.10072617851E+04 -0.87412533131E+03  0.13594979260E+04  0.46999998093E+01 0.  1.
</event>
<event>
 5   0  0.1010338E-05  0.2212123E+04  0.7818609E-02  0.8513399E-01
        1   -1    0    0  501    0  0.00000000000E+00  0.00000000000E+00  0.12081793407E+04  0.12081793407E+04  0.50400001928E-02 0.  1.
       -1   -1    0    0    0  501  0.00000000000E+00  0.00000000000E+00 -0.10125750194E+04  0.10125750194E+04  0.50400001928E-02 0. -1.
    10030    2    1    2    0    0  0.00000000000E+00  0.00000000000E+00  0.19560432129E+03  0.22207543602E+04  0.22121231606E+04 0.  0.
        2    1    3    3  502    0  0.83313066218E+03  0.10836690620E+03 -0.62439484703E+03  0.10467659775E+04  0.25500000920E-02 0. -1.
       -2    1    3    3    0  502 -0.83313066218E+03 -0.10836690620E+03  0.81999916832E+03  0.11739883827E+04  0.25500000920E-02 0.  1.
</event>
<event>
 5   0  0.2441340E-05  0.2429549E+04  0.7818609E-02  0.8428523E-01
        2   -1    0    0  501    0  0.00000000000E+00  0.00000000000E+00  0.82803967331E+03  0.82803967331E+03  0.25500000920E-02 0. -1.
       -2   -1    0    0    0  501  0.00000000000E+00  0.00000000000E+00 -0.17821339287E+04  0.17821339287E+04  0.25500000920E-02 0.  1.
    10030    2    1    2    0    0  0.00000000000E+00  0.00000000000E+00 -0.95409425537E+03  0.26101736020E+04  0.24295494200E+04 0.  0.
        3    1    3    3  502    0 -0.58063621630E+03 -0.98462344072E+02  0.66441283993E+03  0.88785003291E+03  0.10100000352E+00 0. -1.
       -3    1    3    3    0  502  0.58063621630E+03  0.98462344072E+02 -0.16185070953E+04  0.17223235691E+04  0.10100000352E+00 0.  1.
</event>
<event>
 5   0  0.2432309E-05  0.2427081E+04  0.7818609E-02  0.8429434E-01
        2   -1    0    0  501    0  0.00000000000E+00  0.00000000000E+00  0.10039430286E+04  0.10039430286E+04  0.25500000920E-02 0. -1.
       -2   -1    0    0    0  501  0.00000000000E+00  0.00000000000E+00 -0.14668960256E+04  0.14668960256E+04  0.25500000920E-02 0.  1.
    10030    2    1    2    0    0  0.00000000000E+00  0.00000000000E+00 -0.46295299700E+03  0.24708390542E+04  0.24270805826E+04 0.  0.
        4    1    3    3  502    0  0.66442420581E+03 -0.72502513483E+03 -0.95532140143E+03  0.13710439688E+04  0.12699999809E+01 0.  1.
       -4    1    3    3    0  502 -0.66442420581E+03  0.72502513483E+03  0.49236840443E+03  0.10997950855E+04  0.12699999809E+01 0. -1.
</event>
<event>
 5   0  0.8166500E-06  0.2471211E+04  0.7818609E-02  0.8413314E-01
       -3   -1    0    0    0  501  0.00000000000E+00  0.00000000000E+00  0.16941488625E+04  0.16941488655E+04  0.10100000352E+00 0. -1.
        3   -1    0    0  501    0  0.00000000000E+00  0.00000000000E+00 -0.90117313832E+03  0.90117314398E+03  0.10100000352E+00 0.  1.
    10030    2    1    2    0    0  0.00000000000E+00  0.00000000000E+00  0.79297572419E+03  0.25953220095E+04  0.24712114102E+04 0.  0.
        5    1    3    3  502    0 -0.62360295295E+03  0.98890441210E+03  0.81642824503E+03  0.14259697572E+04  0.46999998093E+01 0.  1.
       -5    1    3    3    0  502  0.62360295295E+03 -0.98890441210E+03 -0.23452520843E+02  0.11693522523E+04  0.46999998093E+01 0. -1.
</event>
<event>
 5   0  0.2441340E-05  0.2494455E+04  0.7818609E-02  0.8404964E-01
        2   -1    0    0  501    0  0.00000000000E+00  0.00000000000E+00  0.18268251663E+04  0.18268251663E+04  0.25500000920E-02 0. -1.
       -2   -1    0    0    0  501  0.00000000000E+00  0.00000000000E+00 -0.85151907366E+03  0.85151907366E+03  0.25500000920E-02 0.  1.
    10030    2    1    2    0    0  0.00000000000E+00  0.00000000000E+00  0.97530609268E+03  0.26783442400E+04  0.24944550294E+04 0.  0.
        3    1    3    3  502    0 -0.52626160730E+03 -0.85778395547E+03 -0.30343238151E+03  0.10511021900E+04  0.10100000352E+00 0.  1.
       -3    1    3    3    0  502  0.52626160730E+03  0.85778395547E+03  0.12787384742E+04  0.16272420500E+04  0.10100000352E+00 0. -1.
</event>
<event>
 5   0  0.2432309E-05  0.2480592E+04  0.7818609E-02  0.8409932E-01
        2   -1    0    0  501    0  0.00000000000E+00  0.00000000000E+00  0.25144023685E+04  0.25144023685E+04  0.25500000920E-02 0.  1.
       -2   -1    0    0    0  501  0.00000000000E+00  0.00000000000E+00 -0.61180910113E+03  0.61180910114E+03  0.25500000920E-02 0. -1.
    10030    2    1    2    0    0  0.00000000000E+00  0.00000000000E+00  0.19025932674E+04  0.31262114697E+04  0.24805920688E+04 0.  0.
        4    1    3    3  502    0  0.42933808440E+03 -0.92085880779E+03  0.18477899568E+04  0.21087061133E+04  0.12699999809E+01 0.  1.
       -4    1    3    3    0  502 -0.42933808440E+03  0.92085880779E+03  0.54803310571E+02  0.10175053564E+04  0.12699999809E+01 0. -1.
</event>
<event>
 5   0  0.2452457E-05  0.2508725E+04  0.7818609E-02  0.8399884E-01
        2   -1    0    0  501    0  0.00000000000E+00  0.00000000000E+00  0.19387566493E+04  0.19387566493E+04  0.25500000920E-02 0.  1.
       -2   -1    0    0    0  501  0.00000000000E+00  0.00000000000E+00 -0.81156434246E+03  0.81156434247E+03  0.25500000920E-02 0. -1.
    10030    2    1    2    0    0  0.00000000000E+00  0.00000000000E+00  0.11271923069E+04  0.27503209918E+04  0.25087253858E+04 0.  0.
        1    1    3    3  502    0 -0.29138152150E+02 -0.17420735681E+03 -0.79786302976E+03  0.81717969221E+03  0.50400001928E-02 0. -1.
       -1    1    3    3    0  502  0.29138152150E+02  0.17420735681E+03  0.19250553366E+04  0.19331412996E+04  0.50400001928E-02 0.  1.
</event>
<event>
 5   0  0.1015327E-05  0.2462377E+04  0.7818609E-02  0.8416513E-01
       -1   -1    0    0    0  501  0.00000000000E+00  0.00000000000E+00  0.83465743760E+03  0.83465743761E+03  0.50400001928E-02 0.  1.
        1   -1    0    0  501    0  0.00000000000E+00  0.00000000000E+00 -0.18161039541E+04  0.18161039541E+04  0.50400001928E-02 0. -1.
    10030    2    1    2    0    0  0.00000000000E+00  0.00000000000E+00 -0.98144651654E+03  0.26507613918E+04  0.24623766347E+04 0.  0.
        4    1    3    3  502    0  0.70106803090E+03 -0.10006505680E+04 -0.32737403451E+03  0.12649005157E+04  0.12699999809E+01 0.  1.
       -4    1    3    3    0  502 -0.70106803090E+03  0.10006505680E+04 -0.65407248203E+03  0.13858608761E+04  0.12699999809E+01 0. -1.
</event>
<event>
 5   0  0.2441340E-05  0.2502185E+04  0.7818609E-02  0.8402207E-01
       -2   -1    0    0    0  501  0.00000000000E+00  0.00000000000E+00  0.13812411008E+04  0.13812411008E+04  0.25500000920E-02 0.  1.
        2   -1    0    0  501    0  0.00000000000E+00  0.00000000000E+00 -0.11332074447E+04  0.11332074447E+04  0.25500000920E-02 0. -1.
    10030    2    1    2    0    0  0.00000000000E+00  0.00000000000E+00  0.24803365604E+03  0.25144485455E+04  0.25021852037E+04 0.  0.
        3    1    3    3  502    0  0.95761033665E+03  0.78872215122E+03 -0.38430950417E+02  0.12411998779E+04  0.10100000352E+00 0.  1.
       -3    1    3    3    0  502 -0.95761033665E+03 -0.78872215122E+03  0.28646460646E+03  0.12732486676E+04  0.10100000352E+00 0. -1.
</event>
<event>
 5   0  0.2345143E-05  0.2482691E+04  0.7818609E-02  0.8409178E-01
        2   -1    0    0  501    0  0.00000000000E+00  0.00000000000E+00  0.16969882909E+04  0.16969882909E+04  0.25500000920E-02 0.  1.
       -2   -1    0    0    0  501  0.00000000000E+00  0.00000000000E+00 -0.90804352798E+03  0.90804352798E+03  0.25500000920E-02 0. -1.
    10030    2    1    2    0    0  0.00000000000E+00  0.00000000000E+00  0.78894476290E+03  0.26050318189E+04  0.24826914706E+04 0.  0.
        5    1    3    3  502    0 -0.53913722893E+02 -0.98587465833E+03 -0.39497308024E+03  0.10634290553E+04  0.46999998093E+01 0. -1.
       -5    1    3    3    0  502  0.53913722893E+02  0.98587465833E+03  0.11839178431E+04  0.15416027636E+04  0.46999998093E+01 0.  1.
</event>
<event>
 5   0  0.1039688E-05  0.2487181E+04  0.7818609E-02  0.8407567E-01
       -1   -1    0    0    0  501  0.00000000000E+00  0.00000000000E+00  0.79639473801E+03  0.79639473803E+03  0.50400001928E-02 0.  1.
        1   -1    0    0  501    0  0.00000000000E+00  0.00000000000E+00 -0.19418982261E+04  0.19418982261E+04  0.50400001928E-02 0. -1.
    10030    2    1    2    0    0  0.00000000000E+00  0.00000000000E+00 -0.11455034881E+04  0.27382929641E+04  0.24871811587E+04 0.  0.
        3    1    3    3  502    0  0.27919552406E+03 -0.96213906445E+03 -0.13839270702E+04  0.17084834989E+04  0.10100000352E+00 0. -1.
       -3    1    3    3    0  502 -0.27919552406E+03  0.96213906445E+03  0.23842358214E+03  0.10298094653E+04  0.10100000352E+00 0.  1.
</event>
<event>
 5   0  0.1015327E-05  0.2481614E+04  0.7818609E-02  0.8409565E-01
       -1   -1    0    0    0  501  0.00000000000E+00  0.00000000000E+00  0.14965262229E+04  0.14965262229E+04  0.50400001928E-02 0. -1.
        1   -1    0    0  501    0  0.00000000000E+00  0.00000000000E+00 -0.10287835093E+04  0.10287835093E+04  0.50400001928E-02 0.  1.
    10030    2    1    2    0    0  0.00000000000E+00  0.00000000000E+00  0.46774271367E+03  0.25253097322E+04  0.24816135874E+04 0.  0.
        4    1    3    3  502    0 -0.41506108205E+03  0.23609505465E+03  0.13992805372E+04  0.14785141904E+04  0.12699999809E+01 0. -1.
       -4    1    3    3    0  502  0.41506108205E+03 -0.23609505465E+03 -0.93153782353E+03  0.10467955417E+04  0.12699999809E+01 0.  1.
</event>
<event>
 5   0  0.2432309E-05  0.2495749E+04  0.7818609E-02  0.8404502E-01
       -2   -1    0    0    0  501  0.00000000000E+00  0.00000000000E+00  0.70853584439E+03  0.70853584440E+03  0.25500000920E-02 0.  1.
        2   -1    0    0  501    0  0.00000000000E+00  0.00000000000E+00 -0.21977586324E+04  0.21977586324E+04  0.25500000920E-02 0. -1.
    10030    2    1    2    0    0  0.00000000000E+00  0.00000000000E+00 -0.14892227880E+04  0.29062944768E+04  0.24957490005E+04 0.  0.
        4    1    3    3  502    0  0.79358055405E+03  0.57216010348E+03 -0.16466665839E+04  0.19153719564E+04  0.12699999809E+01 0. -1.
       -4    1    3    3    0  502 -0.79358055405E+03 -0.57216010348E+03  0.15744379588E+03  0.99092252045E+03  0.12699999809E+01 0.  1.
</event>
<event>
 5   0  0.1039688E-05  0.2490108E+04  0.7818609E-02  0.8406518E-01
        1   -1    0    0  501    0  0.00000000000E+00  0.00000000000E+00  0.13619917488E+04  0.13619917488E+04  0.50400001928E-02 0. -1.
       -1   -1    0    0    0  501  0.00000000000E+00  0.00000000000E+00 -0.11381560107E+04  0.11381560107E+04  0.50400001928E-02 0.  1.
    10030    2    1    2    0    0  0.00000000000E+00  0.00000000000E+00  0.22383573813E+03  0.25001477595E+04  0.24901077049E+04 0.  0.
        3    1    3    3  502    0 -0.25209458875E+03  0.40579687524E+03  0.12663085400E+04  0.13534253265E+04  0.10100000352E+00 0. -1.
       -3    1    3    3    0  502  0.25209458875E+03 -0.40579687524E+03 -0.10424728019E+04  0.11467224331E+04  0.10100000352E+00 0.  1.
</event>
<event>
 5   0  0.2345143E-05  0.2503774E+04  0.7818609E-02  0.8401642E-01
        2   -1    0    0  501    0  0.00000000000E+00  0.00000000000E+00  0.26631281309E+04  0.26631281309E+04  0.25500000920E-02 0.  1.
       -2   -1    0    0    0  501  0.00000000000E+00  0.00000000000E+00 -0.58848889555E+03  0.58848889556E+03  0.25500000920E-02 0. -1.
    10030    2    1    2    0    0  0.00000000000E+00  0.00000000000E+00  0.20746392353E+04  0.32516170264E+04  0.25037742170E+04 0.  0.
        5    1    3    3  502    0  0.47599532751E+03  0.34307404556E+03  0.24734856504E+04  0.25421299544E+04  0.46999998093E+01 0.  1.
       -5    1    3    3    0  502 -0.47599532751E+03 -0.34307404556E+03 -0.39884641505E+03  0.70948707201E+03  0.46999998093E+01 0. -1.
</event>
<event>
 5   0  0.2388326E-05  0.2521300E+04  0.7818609E-02  0.8395436E-01
        2   -1    0    0  501    0  0.00000000000E+00  0.00000000000E+00  0.31675888033E+04  0.31675888033E+04  0.25500000920E-02 0. -1.
       -2   -1    0    0    0  501  0.00000000000E+00  0.00000000000E+00 -0.50171859118E+03  0.50171859119E+03  0.25500000920E-02 0.  1.
    10030    2    1    2    0    0  0.00000000000E+00  0.00000000000E+00  0.26658702121E+04  0.36693073945E+04  0.25212998170E+04 0.  0.
        2    1    3    3  502    0  0.58053272738E+03  0.90658807498E+03  0.22876074981E+04  0.25282539925E+04  0.25500000920E-02 0. -1.
       -2    1    3    3    0  502 -0.58053272738E+03 -0.90658807498E+03  0.37826271396E+03  0.11410534019E+04  0.25500000920E-02 0.  1.
</event>
<event>
 5   0  0.2345143E-05  0.2492886E+04  0.7818609E-02  0.8405524E-01
       -2   -1    0    0    0  501  0.00000000000E+00  0.00000000000E+00  0.53171001423E+03  0.53171001423E+03  0.25500000920E-02 0. -1.
        2   -1    0    0  501    0  0.00000000000E+00  0.00000000000E+00 -0.29219318010E+04  0.29219318010E+04  0.25500000920E-02 0.  1.
    10030    2    1    2    0    0  0.00000000000E+00  0.00000000000E+00 -0.23902217868E+04  0.34536418152E+04  0.24928861984E+04 0.  0.
        5    1    3    3  502    0  0.11679134575E+04  0.27796890631E+03 -0.16593947420E+04  0.20481458827E+04  0.46999998093E+01 0.  1.
       -5    1    3    3    0  502 -0.11679134575E+04 -0.27796890631E+03 -0.73082704477E+03  0.14054959325E+04  0.46999998093E+01 0. -1.
</event>
<event>
 5   0  0.1002753E-05  0.2550662E+04  0.7818609E-02  0.8385156E-01
       -1   -1    0    0    0  501  0.00000000000E+00  0.00000000000E+00  0.22335537820E+04  0.22335537820E+04  0.50400001928E-02 0. -1.
        1   -1    0    0  501    0  0.00000000000E+00  0.00000000000E+00 -0.72819765555E+03  0.72819765557E+03  0.50400001928E-02 0.  1.
    10030    2    1    2    0    0  0.00000000000E+00  0.00000000000E+00  0.15053561265E+04  0.29617514376E+04  0.25506615829E+04 0.  0.
        5    1    3    3  502    0  0.10578313051E+04 -0.68982050087E+03  0.54630597975E+03  0.13759839050E+04  0.46999998093E+01 0.  1.
       -5    1    3    3    0  502 -0.10578313051E+04  0.68982050087E+03  0.95905014674E+03  0.15857675326E+04  0.46999998093E+01 0. -1.
</event>
<event>
 5   0  0.1015327E-05  0.2475169E+04  0.7818609E-02  0.8411886E-01
       -1   -1    0    0    0  501  0.00000000000E+00  0.00000000000E+00  0.85823397839E+03  0.85823397841E+03  0.50400001928E-02 0.  1.
        1   -1    0    0  501    0  0.00000000000E+00  0.00000000000E+00 -0.17846124589E+04  0.17846124589E+04  0.50400001928E-02 0. -1.
    10030    2    1    2    0    0  0.00000000000E+00  0.00000000000E+00 -0.92637848053E+03  0.26428464373E+04  0.24751687220E+04 0.  0.
        4    1    3    3  502    0  0.87038019347E+03 -0.39095439686E+02  0.47528620759E+03  0.99246598259E+03  0.12699999809E+01 0.  1.
       -4    1    3    3    0  502 -0.87038019347E+03  0.39095439686E+02 -0.14016646881E+04  0.16503804547E+04  0.12699999809E+01 0. -1.
</event>
<event>
 5   0  0.2441340E-05  0.2577146E+04  0.7818609E-02  0.8376006E-01
        2   -1    0    0  501    0  0.00000000000E+00  0.00000000000E+00  0.14506465670E+04  0.14506465670E+04  0.25500000920E-02 0.  1.
       -2   -1    0    0    0  501  0.00000000000E+00  0.00000000000E+00 -0.11446071220E+04  0.11446071220E+04  0.25500000920E-02 0. -1.
    10030    2    1    2    0    0  0.00000000000E+00  0.00000000000E+00  0.30603944503E+03  0.25952536890E+04  0.25771460122E+04 0.  0.
        3    1    3    3  502    0  0.51339872060E+02 -0.99234645617E+03 -0.67313046783E+03  0.12002049444E+04  0.10100000352E+00 0. -1.
       -3    1    3    3    0  502 -0.51339872060E+02  0.99234645617E+03  0.97916991285E+03  0.13950487447E+04  0.10100000352E+00 0.  1.
</event>
<event>
 5   0  0.1010338E-05  0.2517213E+04  0.7818609E-02  0.8396879E-01
        1   -1    0    0  501    0  0.00000000000E+00  0.00000000000E+00  0.19257121092E+04  0.19257121092E+04  0.50400001928E-02 0.  1.
       -1   -1    0    0    0  501  0.00000000000E+00  0.00000000000E+00 -0.82260007316E+03  0.82260007318E+03  0.50400001928E-02 0. -1.
    10030    2    1    2    0    0  0.00000000000E+00  0.00000000000E+00  0.11031120360E+04  0.27483121823E+04  0.25172134768E+04 0.  0.
        2    1    3    3  502    0  0.57504431771E+03  0.67565000382E+03  0.15262116694E+04  0.17653614233E+04  0.25500000920E-02 0.  1.
       -2    1    3    3    0  502 -0.57504431771E+03 -0.67565000382E+03 -0.42309963338E+03  0.98295075908E+03  0.25500000920E-02 0. -1.
</event>
<event>
 5   0  0.2432309E-05  0.2468119E+04  0.7818609E-02  0.8414432E-01
       -2   -1    0    0    0  501  0.00000000000E+00  0.00000000000E+00  0.60869432918E+03  0.60869432918E+03  0.25500000920E-02 0. -1.
        2   -1    0    0  501    0  0.00000000000E+00  0.00000000000E+00 -0.25019177511E+04  0.25019177511E+04  0.25500000920E-02 0.  1.
    10030    2    1    2    0    0  0.00000000000E+00  0.00000000000E+00 -0.18932234219E+04  0.31106120803E+04  0.24681192412E+04 0.  0.
        4    1    3    3  502    0  0.11689456502E+04  0.18668918587E+03 -0.13861258398E+04  0.18228091622E+04  0.12699999809E+01 0.  1.
       -4    1    3    3    0  502 -0.11689456502E+04 -0.18668918587E+03 -0.50709758214E+03  0.12878029181E+04  0.12699999809E+01 0. -1.
</event>
<event>
 5   0  0.1015327E-05  0.2508776E+04  0.7818609E-02  0.8399866E-01
        1   -1    0    0  501    0  0.00000000000E+00  0.00000000000E+00  0.12585361164E+04  0.12585361165E+04  0.50400001928E-02 0. -1.
       -1   -1    0    0    0  501  0.00000000000E+00  0.00000000000E+00 -0.12502538021E+04  0.12502538021E+04  0.50400001928E-02 0.  1.
    10030    2    1    2    0    0  0.00000000000E+00  0.00000000000E+00  0.82823143543E+01  0.25087899186E+04  0.25087762472E+04 0.  0.
        4    1    3    3  502    0  0.58816625671E+03 -0.10898013312E+03 -0.10984398994E+04  0.12507549881E+04  0.12699999809E+01 0.  1.
       -4    1    3    3    0  502 -0.58816625671E+03  0.10898013312E+03  0.11067222137E+04  0.12580349304E+04  0.12699999809E+01 0. -1.
</event>
<event>
 5   0  0.1008073E-05  0.2495285E+04  0.7818609E-02  0.8404667E-01
        1   -1    0    0  501    0  0.00000000000E+00  0.00000000000E+00  0.10946129260E+04  0.10946129260E+04  0.50400001928E-02 0.  1.
       -1   -1    0    0    0  501  0.00000000000E+00  0.00000000000E+00 -0.14220655279E+04  0.14220655279E+04  0.50400001928E-02 0. -1.
    10030    2    1    2    0    0  0.00000000000E+00  0.00000000000E+00 -0.32745260186E+03  0.25166784539E+04  0.24952845998E+04 0.  0.
        1    1    3    3  502    0  0.11191910202E+04  0.21352891333E+03  0.34899052794E+03  0.11916280985E+04  0.50400001928E-02 0.  1.
       -1    1    3    3    0  502 -0.11191910202E+04 -0.21352891333E+03 -0.67644312979E+03  0.13250503554E+04  0.50400001928E-02 0. -1.
</event>
<event>
 5   0  0.1002753E-05  0.2491960E+04  0.7818609E-02  0.8405855E-01
       -1   -1    0    0    0  501  0.00000000000E+00  0.00000000000E+00  0.91164085195E+03  0.91164085197E+03  0.50400001928E-02 0. -1.
        1   -1    0    0  501    0  0.00000000000E+00  0.00000000000E+00 -0.17029358501E+04  0.17029358501E+04  0.50400001928E-02 0.  1.
    10030    2    1    2    0    0  0.00000000000E+00  0.00000000000E+00 -0.79129499819E+03  0.26145767021E+04  0.24919597824E+04 0.  0.
        5    1    3    3  502    0 -0.23759766476E+03  0.90995748710E+03 -0.12531558457E+04  0.15668110742E+04  0.46999998093E+01 0.  1.
       -5    1    3    3    0  502  0.23759766476E+03 -0.90995748710E+03  0.46186084750E+03  0.10477656279E+04  0.46999998093E+01 0. -1.
</event>
<event>
 5   0  0.1039688E-05  0.2555475E+04  0.7818609E-02  0.8383484E-01
        1   -1    0    0  501    0  0.00000000000E+00  0.00000000000E+00  0.18464808096E+04  0.18464808096E+04  0.50400001928E-02 0. -1.
       -1   -1    0    0    0  501  0.00000000000E+00  0.00000000000E+00 -0.88417582362E+03  0.88417582363E+03  0.50400001928E-02 0.  1.
    10030    2    1    2    0    0  0.00000000000E+00  0.00000000000E+00  0.96230498596E+03  0.27306566332E+04  0.25554754475E+04 0.  0.
        3    1    3    3  502    0  0.69054785545E+03  0.16117978528E+03 -0.65462175457E+03  0.96507249241E+03  0.10100000352E+00 0.  1.
       -3    1    3    3    0  502 -0.69054785545E+03 -0.16117978528E+03  0.16169267405E+04  0.17655841408E+04  0.10100000352E+00 0. -1.
</event>
<event>
 5   0  0.2388326E-05  0.2497876E+04  0.7818609E-02  0.8403743E-01
       -2   -1    0    0    0  501  0.00000000000E+00  0.00000000000E+00  0.81710930885E+03  0.81710930886E+03  0.25500000920E-02 0. -1.
        2   -1    0    0  501    0  0.00000000000E+00  0.00000000000E+00 -0.19089806243E+04  0.19089806243E+04  0.25500000920E-02 0.  1.
    10030    2    1    2    0    0  0.00000000000E+00  0.00000000000E+00 -0.10918713154E+04  0.27260899331E+04  0.24978757683E+04 0.  0.
        2    1    3    3  502    0  0.77081455951E+03 -0.14204514041E+03 -0.16071504871E+04  0.17880896496E+04  0.25500000920E-02 0.  1.
       -2    1    3    3    0  502 -0.77081455951E+03  0.14204514041E+03  0.51527917165E+03  0.93800028348E+03  0.25500000920E-02 0. -1.
</event>
<event>
 5   0  0.1015327E-05  0.2522862E+04  0.7818609E-02  0.8394886E-01
        1   -1    0    0  501    0  0.00000000000E+00  0.00000000000E+00  0.20794170338E+04  0.20794170338E+04  0.50400001928E-02 0.  1.
       -1   -1    0    0    0  501  0.00000000000E+00  0.00000000000E+00 -0.76521862968E+03  0.76521862969E+03  0.50400001928E-02 0. -1.
    10030    2    1    2    0    0  0.00000000000E+00  0.00000000000E+00  0.13141984041E+04  0.28446356635E+04  0.25228623848E+04 0.  0.
        4    1    3    3  502    0 -0.85468866583E+03  0.58879879218E+03 -0.15130293282E+03  0.10488426591E+04  0.12699999809E+01 0. -1.
       -4    1    3    3    0  502  0.85468866583E+03 -0.58879879218E+03  0.14655013369E+04  0.17957930044E+04  0.12699999809E+01 0.  1.
</event>
<event>
 5   0  0.2345143E-05  0.2515767E+04  0.7818609E-02  0.8397390E-01
       -2   -1    0    0    0  501  0.00000000000E+00  0.00000000000E+00  0.16321371972E+04  0.16321371972E+04  0.25500000920E-02 0.  1.
        2   -1    0    0  501    0  0.00000000000E+00  0.00000000000E+00 -0.96944712338E+03  0.96944712339E+03  0.25500000920E-02 0. -1.
    10030    2    1    2    0    0  0.00000000000E+00  0.00000000000E+00  0.66269007379E+03  0.26015843206E+04  0.25157668499E+04 0.  0.
        5    1    3    3  502    0  0.88647871469E+03 -0.21133828608E+03  0.12279505705E+04  0.15291805245E+04  0.46999998093E+01 0.  1.
       -5    1    3    3    0  502 -0.88647871469E+03  0.21133828608E+03 -0.56526049672E+03  0.10724037961E+04  0.46999998093E+01 0. -1.
</event>
<event>
 5   0  0.2432309E-05  0.2485314E+04  0.7818609E-02  0.8408236E-01
        2   -1    0    0  501    0  0.00000000000E+00  0.00000000000E+00  0.12395005951E+04  0.12395005951E+04  0.25500000920E-02 0. -1.
       -2   -1    0    0    0  501  0.00000000000E+00  0.00000000000E+00 -0.12458213144E+04  0.12458213144E+04  0.25500000920E-02 0.  1.
    10030    2    1    2    0    0  0.00000000000E+00  0.00000000000E+00 -0.63207193182E+01  0.24853219095E+04  0.24853138720E+04 0.  0.
        4    1    3    3  502    0  0.54038003017E+03  0.33558262879E+03  0.10643487694E+04  0.12399460447E+04  0.12699999809E+01 0. -1.
       -4    1    3    3    0  502 -0.54038003017E+03 -0.33558262879E+03 -0.10706694888E+04  0.12453758649E+04  0.12699999809E+01 0.  1.
</event>
<event>
 5   0  0.1008073E-05  0.2210960E+04  0.7818609E-02  0.8513880E-01
       -1   -1    0    0    0  501  0.00000000000E+00  0.00000000000E+00  0.96063895790E+03  0.96063895792E+03  0.50400001928E-02 0.  1.
        1   -1    0    0  501    0  0.00000000000E+00  0.00000000000E+00 -0.12721598160E+04  0.12721598160E+04  0.50400001928E-02 0. -1.
    10030    2    1    2    0    0  0.00000000000E+00  0.00000000000E+00 -0.31152085811E+03  0.22327987739E+04  0.22109602257E+04 0.  0.
        1    1    3    3  502    0 -0.31464807783E+03  0.90878030790E+03  0.39478599781E+03  0.10395869588E+04  0.50400001928E-02 0.  1.
       -1    1    3    3    0  502  0.31464807783E+03 -0.90878030790E+03 -0.70630685592E+03  0.11932118151E+04  0.50400001928E-02 0. -1.
</event>
<event>
 5   0  0.2345143E-05  0.2336733E+04  0.7818609E-02  0.8463577E-01
       -2   -1    0    0    0  501  0.00000000000E+00  0.00000000000E+00  0.15210258509E+04  0.15210258509E+04  0.25500000920E-02 0. -1.
        2   -1    0    0  501    0  0.00000000000E+00  0.00000000000E+00 -0.89747370173E+03  0.89747370173E+03  0.25500000920E-02 0.  1.
    10030    2    1    2    0    0  0.00000000000E+00  0.00000000000E+00  0.62355214918E+03  0.24184995526E+04  0.23367333616E+04 0.  0.
        5    1    3    3  502    0  0.15179077356E+03 -0.41309890701E+03  0.14319447684E+04  0.14980584287E+04  0.46999998093E+01 0. -1.
       -5    1    3    3    0  502 -0.15179077356E+03  0.41309890701E+03 -0.80839261922E+03  0.92044112398E+03  0.46999998093E+01 0.  1.
</event>
<event>
 5   0  0.2452457E-05  0.2461327E+04  0.7818609E-02  0.8416894E-01
        2   -1    0    0  501    0  0.00000000000E+00  0.00000000000E+00  0.19037366046E+04  0.19037366046E+04  0.25500000920E-02 0.  1.
       -2   -1    0    0    0  501  0.00000000000E+00  0.00000000000E+00 -0.79555794738E+03  0.79555794739E+03  0.25500000920E-02 0. -1.
    10030    2    1    2    0    0  0.00000000000E+00  0.00000000000E+00  0.11081786573E+04  0.26992945520E+04  0.24613271100E+04 0.  0.
        1    1    3    3  502    0  0.27786018520E+03 -0.11808293975E+04  0.32675986800E+03  0.12563185742E+04  0.50400001928E-02 0. -1.
       -1    1    3    3    0  502 -0.27786018520E+03  0.11808293975E+04  0.78141878925E+03  0.14429759779E+04  0.50400001928E-02 0.  1.
</event>
<event>
 5   0  0.2441340E-05  0.2471201E+04  0.7818609E-02  0.8413318E-01
        2   -1    0    0  501    0  0.00000000000E+00  0.00000000000E+00  0.16286365297E+04  0.16286365297E+04  0.25500000920E-02 0. -1.
       -2   -1    0    0    0  501  0.00000000000E+00  0.00000000000E+00 -0.93741507272E+03  0.93741507273E+03  0.25500000920E-02 0.  1.
    10030    2    1    2    0    0  0.00000000000E+00  0.00000000000E+00  0.69122145700E+03  0.25660516025E+04  0.24712008667E+04 0.  0.
        3    1    3    3  502    0  0.63472738305E+03  0.41626255319E+02 -0.75433815889E+03  0.98673079615E+03  0.10100000352E+00 0. -1.
       -3    1    3    3    0  502 -0.63472738305E+03 -0.41626255319E+02  0.14455596159E+04  0.15793208063E+04  0.10100000352E+00 0.  1.
</event>
<event>
 5   0  0.1008073E-05  0.2488713E+04  0.7818609E-02  0.8407018E-01
       -1   -1    0    0    0  501  0.00000000000E+00  0.00000000000E+00  0.15337248710E+04  0.15337248710E+04  0.50400001928E-02 0.  1.
        1   -1    0    0  501    0  0.00000000000E+00  0.00000000000E+00 -0.10095835171E+04  0.10095835171E+04  0.50400001928E-02 0. -1.
    10030    2    1    2    0    0  0.00000000000E+00  0.00000000000E+00  0.52414135387E+03  0.25433083881E+04  0.24887132013E+04 0.  0.
        1    1    3    3  502    0  0.62826085959E+03  0.11546149133E+03 -0.82924155390E+03  0.10467495490E+04  0.50400001928E-02 0. -1.
       -1    1    3    3    0  502 -0.62826085959E+03 -0.11546149133E+03  0.13533829078E+04  0.14965588391E+04  0.50400001928E-02 0.  1.
</event>
<event>
 5   0  0.1010338E-05  0.2520239E+04  0.7818609E-02  0.8395811E-01
       -1   -1    0    0    0  501  0.00000000000E+00  0.00000000000E+00  0.92293595238E+03  0.92293595239E+03  0.50400001928E-02 0.  1.
        1   -1    0    0  501    0  0.00000000000E+00  0.00000000000E+00 -0.17204889081E+04  0.17204889082E+04  0.50400001928E-02 0. -1.
    10030    2    1    2    0    0  0.00000000000E+00  0.00000000000E+00 -0.79755295577E+03  0.26434248605E+04  0.25202389323E+04 0.  0.
        2    1    3    3  502    0  0.10511773632E+04  0.58227814478E+03 -0.92173832588E+00  0.12016748880E+04  0.25500000920E-02 0.  1.
       -2    1    3    3    0  502 -0.10511773632E+04 -0.58227814478E+03 -0.79663121744E+03  0.14417499726E+04  0.25500000920E-02 0. -1.
</event>
<event>
 5   0  0.2452457E-05  0.2524630E+04  0.7818609E-02  0.8394263E-01
        2   -1    0    0  501    0  0.00000000000E+00  0.00000000000E+00  0.18036339353E+04  0.18036339353E+04  0.25500000920E-02 0.  1.
       -2   -1    0    0    0  501  0.00000000000E+00  0.00000000000E+00 -0.88346024274E+03  0.88346024274E+03  0.25500000920E-02 0. -1.
    10030    2    1    2    0    0  0.00000000000E+00  0.00000000000E+00  0.92017369259E+03  0.26870941781E+04  0.25246297743E+04 0.  0.
        1    1    3    3  502    0  0.84358602433E+02  0.38813217732E+02  0.17999937245E+04  0.18023873745E+04  0.50400001928E-02 0.  1.
       -1    1    3    3    0  502 -0.84358602433E+02 -0.38813217732E+02 -0.87982003189E+03  0.88470680353E+03  0.50400001928E-02 0. -1.
</event>
<event>
 5   0  0.2441340E-05  0.2507899E+04  0.7818609E-02  0.8400177E-01
       -2   -1    0    0    0  501  0.00000000000E+00  0.00000000000E+00  0.18599842643E+04  0.18599842643E+04  0.25500000920E-02 0. -1.
        2   -1    0    0  501    0  0.00000000000E+00  0.00000000000E+00 -0.84537794590E+03  0.84537794591E+03  0.25500000920E-02 0.  1.
    10030    2    1    2    0    0  0.00000000000E+00  0.00000000000E+00  0.10146063184E+04  0.27053622102E+04  0.25078992618E+04 0.  0.
        3    1    3    3  502    0 -0.45502725228E+03  0.25409286851E+03  0.17376192471E+04  0.18140930638E+04  0.10100000352E+00 0. -1.
       -3    1    3    3    0  502  0.45502725228E+03 -0.25409286851E+03 -0.72301292866E+03  0.89126914642E+03  0.10100000352E+00 0.  1.
</event>
<event>
 5   0  0.1002753E-05  0.2541597E+04  0.7818609E-02  0.8388314E-01
        1   -1    0    0  501    0  0.00000000000E+00  0.00000000000E+00  0.99180970647E+03  0.99180970648E+03  0.50400001928E-02 0. -1.
       -1   -1    0    0    0  501  0.00000000000E+00  0.00000000000E+00 -0.16282647964E+04  0.16282647964E+04  0.50400001928E-02 0.  1.
    10030    2    1    2    0    0  0.00000000000E+00  0.00000000000E+00 -0.63645508994E+03  0.26200745029E+04  0.25415970017E+04 0.  0.
        5    1    3    3  502    0  0.92793373332E+03  0.34237640772E+03 -0.11407513888E+04  0.15098405343E+04  0.46999998093E+01 0.  1.
       -5    1    3    3    0  502 -0.92793373332E+03 -0.34237640772E+03  0.50429629885E+03  0.11102339686E+04  0.46999998093E+01 0. -1.
</event>
<event>
 5   0  0.2441340E-05  0.2551822E+04  0.7818609E-02  0.8384753E-01
        2   -1    0    0  501    0  0.00000000000E+00  0.00000000000E+00  0.19064604914E+04  0.19064604914E+04  0.25500000920E-02 0.  1.
       -2   -1    0    0    0  501  0.00000000000E+00  0.00000000000E+00 -0.85391166617E+03  0.85391166617E+03  0.25500000920E-02 0. -1.
    10030    2    1    2    0    0  0.00000000000E+00  0.00000000000E+00  0.10525488252E+04  0.27603721576E+04  0.25518219802E+04 0.  0.
        3    1    3    3  502    0 -0.13436195901E+03 -0.52342733309E+03  0.17765547885E+04  0.18569265564E+04  0.10100000352E+00 0.  1.
       -3    1    3    3    0  502  0.13436195901E+03  0.52342733309E+03 -0.72400596333E+03  0.90344560113E+03  0.10100000352E+00 0. -1.
</event>
<event>
 5   0  0.1015327E-05  0.2491182E+04  0.7818609E-02  0.8406134E-01
        1   -1    0    0  501    0  0.00000000000E+00  0.00000000000E+00  0.23222652819E+04  0.23222652819E+04  0.50400001928E-02 0. -1.
       -1   -1    0    0    0  501  0.00000000000E+00  0.00000000000E+00 -0.66809641553E+03  0.66809641555E+03  0.50400001928E-02 0.  1.
    10030    2    1    2    0    0  0.00000000000E+00  0.00000000000E+00  0.16541688663E+04  0.29903616974E+04  0.24911821377E+04 0.  0.
        4    1    3    3  502    0  0.95669586138E+03 -0.62611432186E+03  0.14202820710E+04  0.18233180988E+04  0.12699999809E+01 0.  1.
       -4    1    3    3    0  502 -0.95669586138E+03  0.62611432186E+03  0.23388679534E+03  0.11670435987E+04  0.12699999809E+01 0. -1.
</event>
<event>
 5   0  0.1015327E-05  0.2486291E+04  0.7818609E-02  0.8407886E-01
        1   -1    0    0  501    0  0.00000000000E+00  0.00000000000E+00  0.18855679914E+04  0.18855679914E+04  0.50400001928E-02 0. -1.
       -1   -1    0    0    0  501  0.00000000000E+00  0.00000000000E+00 -0.81959988060E+03  0.81959988062E+03  0.50400001928E-02 0.  1.
    10030    2    1    2    0    0  0.00000000000E+00  0.00000000000E+00  0.10659681108E+04  0.27051678720E+04  0.24862914557E+04 0.  0.
        4    1    3    3  502    0  0.83674153837E+03 -0.61708713334E+03  0.12745062864E+04  0.16447798695E+04  0.12699999809E+01 0. -1.
       -4    1    3    3    0  502 -0.83674153837E+03  0.61708713334E+03 -0.20853817567E+03  0.10603880025E+04  0.12699999809E+01 0.  1.
</event>
<event>
 5   0  0.2441340E-05  0.2502250E+04  0.7818609E-02  0.8402184E-01
       -2   -1    0    0    0  501  0.00000000000E+00  0.00000000000E+00  0.91569055353E+03  0.91569055354E+03  0.25500000920E-02 0. -1.
        2   -1    0    0  501    0  0.00000000000E+00  0.00000000000E+00 -0.17094351115E+04  0.17094351115E+04  0.25500000920E-02 0.  1.
    10030    2    1    2    0    0  0.00000000000E+00  0.00000000000E+00 -0.79374455795E+03  0.26251256650E+04  0.25022498544E+04 0.  0.
        3    1    3    3  502    0  0.13452758047E+03  0.12434086830E+04 -0.36128375271E+03  0.13018021290E+04  0.10100000352E+00 0.  1.
       -3    1    3    3    0  502 -0.13452758047E+03 -0.12434086830E+04 -0.43246080524E+03  0.13233235361E+04  0.10100000352E+00 0. -1.
</event>
<event>
 5   0  0.1002753E-05  0.2507434E+04  0.7818609E-02  0.8400342E-01
       -1   -1    0    0    0  501  0.00000000000E+00  0.00000000000E+00  0.15802347809E+04  0.15802347809E+04  0.50400001928E-02 0.  1.
        1   -1    0    0  501    0  0.00000000000E+00  0.00000000000E+00 -0.99466601473E+03  0.99466601475E+03  0.50400001928E-02 0. -1.
    10030    2    1    2    0    0  0.00000000000E+00  0.00000000000E+00  0.58556876615E+03  0.25749007956E+04  0.25074336138E+04 0.  0.
        5    1    3    3  502    0  0.36110773851E+03 -0.87473818900E+03 -0.55166658009E+03  0.10954103358E+04  0.46999998093E+01 0. -1.
       -5    1    3    3    0  502 -0.36110773851E+03  0.87473818900E+03  0.11372353462E+04  0.14794904599E+04  0.46999998093E+01 0.  1.
</event>
<event>
 5   0  0.1008073E-05  0.2533212E+04  0.7818609E-02  0.8391248E-01
       -1   -1    0    0    0  501  0.00000000000E+00  0.00000000000E+00  0.13971871753E+04  0.13971871753E+04  0.50400001928E-02 0.  1.
        1   -1    0    0  501    0  0.00000000000E+00  0.00000000000E+00 -0.11482286490E+04  0.11482286490E+04  0.50400001928E-02 0. -1.
    10030    2    1    2    0    0  0.00000000000E+00  0.00000000000E+00  0.24895852625E+03  0.25454158243E+04  0.25332116711E+04 0.  0.
        1    1    3    3  502    0  0.56319062414E+03 -0.35057033814E+03  0.12086617345E+04  0.13787481385E+04  0.50400001928E-02 0.  1.
       -1    1    3    3    0  502 -0.56319062414E+03  0.35057033814E+03 -0.95970320821E+03  0.11666676858E+04  0.50400001928E-02 0. -1.
</event>
<event>
 5   0  0.1015327E-05  0.2595227E+04  0.7818609E-02  0.8369824E-01
        1   -1    0    0  501    0  0.00000000000E+00  0.00000000000E+00  0.18799331253E+04  0.18799331253E+04  0.50400001928E-02 0.  1.
       -1   -1    0    0    0  501  0.00000000000E+00  0.00000000000E+00 -0.89567078969E+03  0.89567078971E+03  0.50400001928E-02 0. -1.
    10030    2    1    2    0    0  0.00000000000E+00  0.00000000000E+00  0.98426233559E+03  0.27756039150E+04  0.25952273017E+04 0.  0.
        4    1    3    3  502    0  0.32470537638E+03  0.11026856237E+04  0.11360133192E+04  0.16161302672E+04  0.12699999809E+01 0.  1.
       -4    1    3    3    0  502 -0.32470537638E+03 -0.11026856237E+04 -0.15175098363E+03  0.11594736478E+04  0.12699999809E+01 0. -1.
</event>
<event>
 5   0  0.2388326E-05  0.2497776E+04  0.7818609E-02  0.8403778E-01
        2   -1    0    0  501    0  0.00000000000E+00  0.00000000000E+00  0.10700298542E+04  0.10700298542E+04  0.25500000920E-02 0.  1.
       -2   -1    0    0    0  501  0.00000000000E+00  0.00000000000E+00 -0.14576429212E+04  0.14576429212E+04  0.25500000920E-02 0. -1.
    10030    2    1    2    0    0  0.00000000000E+00  0.00000000000E+00 -0.38761306698E+03  0.25276727755E+04  0.24977761650E+04 0.  0.
        2    1    3    3  502    0  0.89483199401E+03  0.47187842525E+02  0.68653140302E+03  0.11288384992E+04  0.25500000920E-02 0.  1.
       -2    1    3    3    0  502 -0.89483199401E+03 -0.47187842525E+02 -0.10741444700E+04  0.13988342763E+04  0.25500000920E-02 0. -1.
</event>
<event>
 5   0  0.2388326E-05  0.2511718E+04  0.7818609E-02  0.8398823E-01
       -2   -1    0    0    0  501  0.00000000000E+00  0.00000000000E+00  0.29013859627E+04  0.29013859627E+04  0.25500000920E-02 0.  1.
        2   -1    0    0  501    0  0.00000000000E+00  0.00000000000E+00 -0.54359608333E+03  0.54359608333E+03  0.25500000920E-02 0. -1.
    10030    2    1    2    0    0  0.00000000000E+00  0.00000000000E+00  0.23577898794E+04  0.34449820461E+04  0.25117181733E+04 0.  0.
        2    1    3    3  502    0 -0.66665850968E+03  0.69435496243E+02 -0.27775967066E+03  0.72553793237E+03  0.25500000920E-02 0. -1.
       -2    1    3    3    0  502  0.66665850968E+03 -0.69435496243E+02  0.26355495501E+04  0.27194441137E+04  0.25500000920E-02 0.  1.
</event>
<event>
 5   0  0.2388326E-05  0.2505416E+04  0.7818609E-02  0.8401059E-01
       -2   -1    0    0    0  501  0.00000000000E+00  0.00000000000E+00  0.10277695499E+04  0.10277695499E+04  0.25500000920E-02 0. -1.
        2   -1    0    0  501    0  0.00000000000E+00  0.00000000000E+00 -0.15268765980E+04  0.15268765980E+04  0.25500000920E-02 0.  1.
    10030    2    1    2    0    0  0.00000000000E+00  0.00000000000E+00 -0.49910704816E+03  0.25546461479E+04  0.25054159526E+04 0.  0.
        2    1    3    3  502    0  0.11934403274E+04 -0.76810907273E+02  0.13070540453E+03  0.12030310192E+04  0.25500000920E-02 0. -1.
       -2    1    3    3    0  502 -0.11934403274E+04  0.76810907273E+02 -0.62981245269E+03  0.13516151287E+04  0.25500000920E-02 0.  1.
</event>
<event>
 5   0  0.1010338E-05  0.2490320E+04  0.7818609E-02  0.8406442E-01
       -1   -1    0    0    0  501  0.00000000000E+00  0.00000000000E+00  0.12677302423E+04  0.12677302423E+04  0.50400001928E-02 0.  1.
        1   -1    0    0  501    0  0.00000000000E+00  0.00000000000E+00 -0.12229914251E+04  0.12229914251E+04  0.50400001928E-02 0. -1.
    10030    2    1    2    0    0  0.00000000000E+00  0.00000000000E+00  0.44738817236E+02  0.24907216675E+04  0.24903198315E+04 0.  0.
        2    1    3    3  502    0 -0.21783820208E+03 -0.24600723702E+03  0.12235836757E+04  0.12669372733E+04  0.25500000920E-02 0.  1.
       -2    1    3    3    0  502  0.21783820208E+03  0.24600723702E+03 -0.11788448585E+04  0.12237843942E+04  0.25500000920E-02 0. -1.
</event>
<event>
 5   0  0.1015327E-05  0.2533317E+04  0.7818609E-02  0.8391211E-01
       -1   -1    0    0    0  501  0.00000000000E+00  0.00000000000E+00  0.98965176293E+03  0.98965176294E+03  0.50400001928E-02 0.  1.
        1   -1    0    0  501    0  0.00000000000E+00  0.00000000000E+00 -0.16212004631E+04  0.16212004631E+04  0.50400001928E-02 0. -1.
    10030    2    1    2    0    0  0.00000000000E+00  0.00000000000E+00 -0.63154870018E+03  0.26108522261E+04  0.25333171111E+04 0.  0.
        4    1    3    3  502    0 -0.29051147659E+03  0.24795501091E+03  0.92889058453E+03  0.10043495091E+04  0.12699999809E+01 0.  1.
       -4    1    3    3    0  502  0.29051147659E+03 -0.24795501091E+03 -0.15604392847E+04  0.16065027170E+04  0.12699999809E+01 0. -1.
</event>
<event>
 5   0  0.1039688E-05  0.2504217E+04  0.7818609E-02  0.8401485E-01
        1   -1    0    0  501    0  0.00000000000E+00  0.00000000000E+00  0.13166249849E+04  0.13166249849E+04  0.50400001928E-02 0.  1.
       -1   -1    0    0    0  501  0.00000000000E+00  0.00000000000E+00 -0.11907530627E+04  0.11907530627E+04  0.50400001928E-02 0. -1.
    10030    2    1    2    0    0  0.00000000000E+00  0.00000000000E+00  0.12587192217E+03  0.25073780477E+04  0.25042166306E+04 0.  0.
        3    1    3    3  502    0  0.95963681505E+03  0.14875906609E+03 -0.72846882826E+03  0.12139600160E+04  0.10100000352E+00 0. -1.
       -3    1    3    3    0  502 -0.95963681505E+03 -0.14875906609E+03  0.85434075043E+03  0.12934180316E+04  0.10100000352E+00 0.  1.
</event>
<event>
 5   0  0.2345143E-05  0.2516124E+04  0.7818609E-02  0.8397264E-01
       -2   -1    0    0    0  501  0.00000000000E+00  0.00000000000E+00  0.91575058026E+03  0.91575058026E+03  0.25500000920E-02 0. -1.
        2   -1    0    0  501    0  0.00000000000E+00  0.00000000000E+00 -0.17283304460E+04  0.17283304460E+04  0.25500000920E-02 0.  1.
    10030    2    1    2    0    0  0.00000000000E+00  0.00000000000E+00 -0.81257986573E+03  0.26440810263E+04  0.25161236924E+04 0.  0.
        5    1    3    3  502    0 -0.11740672595E+04 -0.41413900047E+03 -0.59646993544E+03  0.13804866952E+04  0.46999998093E+01 0.  1.
       -5    1    3    3    0  502  0.11740672595E+04  0.41413900047E+03 -0.21610993029E+03  0.12635943311E+04  0.46999998093E+01 0. -1.
</event>
<event>
 5   0  0.1015327E-05  0.2540431E+04  0.7818609E-02  0.8388722E-01
        1   -1    0    0  501    0  0.00000000000E+00  0.00000000000E+00  0.18819033116E+04  0.18819033116E+04  0.50400001928E-02 0.  1.
       -1   -1    0    0    0  501  0.00000000000E+00  0.00000000000E+00 -0.85734875406E+03  0.85734875407E+03  0.50400001928E-02 0. -1.
    10030    2    1    2    0    0  0.00000000000E+00  0.00000000000E+00  0.10245545575E+04  0.27392520657E+04  0.25404310339E+04 0.  0.
        4    1    3    3  502    0  0.54119720178E+03  0.11274206648E+04  0.75211277051E+03  0.14593310108E+04  0.12699999809E+01 0. -1.
       -4    1    3    3    0  502 -0.54119720178E+03 -0.11274206648E+04  0.27244178701E+03  0.12799210549E+04  0.12699999809E+01 0.  1.
</event>
<event>
 5   0  0.2345143E-05  0.2449627E+04  0.7818609E-02  0.8421154E-01
       -2   -1    0    0    0  501  0.00000000000E+00  0.00000000000E+00  0.12104800839E+04  0.12104800839E+04  0.25500000920E-02 0.  1.
        2   -1    0    0  501    0  0.00000000000E+00  0.00000000000E+00 -0.12393170532E+04  0.12393170532E+04  0.25500000920E-02 0. -1.
    10030    2    1    2    0    0  0.00000000000E+00  0.00000000000E+00 -0.28836969316E+02  0.24497971371E+04  0.24496274088E+04 0.  0.
        5    1    3    3  502    0 -0.72758046624E+03 -0.87102591312E+03 -0.47497948528E+03  0.12303199086E+04  0.46999998093E+01 0. -1.
       -5    1    3    3    0  502  0.72758046624E+03  0.87102591312E+03  0.44614251596E+03  0.12194772285E+04  0.46999998093E+01 0.  1.
</event>
<event>
 5   0  0.1015327E-05  0.2522732E+04  0.7818609E-02  0.8394932E-01
       -1   -1    0    0    0  501  0.00000000000E+00  0.00000000000E+00  0.57122336697E+03  0.57122336699E+03  0.50400001928E-02 0. -1.
        1   -1    0    0  501    0  0.00000000000E+00  0.00000000000E+00 -0.27853269862E+04  0.27853269862E+04  0.50400001928E-02 0.  1.
    10030    2    1    2    0    0  0.00000000000E+00  0.00000000000E+00 -0.22141036192E+04  0.33565503532E+04  0.25227317410E+04 0.  0.
        4    1    3    3  502    0  0.11850754020E+03  0.98302180329E+02  0.55867200907E+03  0.57950270263E+03  0.12699999809E+01 0. -1.
       -4    1    3    3    0  502 -0.11850754020E+03 -0.98302180329E+02 -0.27727756283E+04  0.27770476506E+04  0.12699999809E+01 0.  1.
</event>
<event>
 5   0  0.8166500E-06  0.2517365E+04  0.7818609E-02  0.8396825E-01
        3   -1    0    0  501    0  0.00000000000E+00  0.00000000000E+00  0.16200077646E+04  0.16200077677E+04  0.10100000352E+00 0. -1.
       -3   -1    0    0    0  501  0.00000000000E+00  0.00000000000E+00 -0.97794660522E+03  0.97794661043E+03  0.10100000352E+00 0.  1.
    10030    2    1    2    0    0  0.00000000000E+00  0.00000000000E+00  0.64206115936E+03  0.25979543782E+04  0.25173645780E+04 0.  0.
        1    1    3    3  502    0 -0.49406953719E+03  0.11527389097E+04  0.21098965413E+03  0.12717815598E+04  0.50400001928E-02 0.  1.
       -1    1    3    3    0  502  0.49406953719E+03 -0.11527389097E+04  0.43107150523E+03  0.13261728184E+04  0.50400001928E-02 0. -1.
</event>
<event>
 5   0  0.1039688E-05  0.2292593E+04  0.7818609E-02  0.8480847E-01
       -1   -1    0    0    0  501  0.00000000000E+00  0.00000000000E+00  0.57303403039E+03  0.57303403041E+03  0.50400001928E-02 0. -1.
        1   -1    0    0  501    0  0.00000000000E+00  0.00000000000E+00 -0.22930490565E+04  0.22930490565E+04  0.50400001928E-02 0.  1.
    10030    2    1    2    0    0  0.00000000000E+00  0.00000000000E+00 -0.17200150261E+04  0.28660830870E+04  0.22925925436E+04 0.  0.
        3    1    3    3  502    0  0.72157416181E+02 -0.12139100760E+03 -0.22821328571E+04  0.22864979460E+04  0.10100000352E+00 0.  1.
       -3    1    3    3    0  502 -0.72157416181E+02  0.12139100760E+03  0.56211783099E+03  0.57958514091E+03  0.10100000352E+00 0. -1.
</event>
<event>
 5   0  0.1039688E-05  0.2109368E+04  0.7818609E-02  0.8557128E-01
       -1   -1    0    0    0  501  0.00000000000E+00  0.00000000000E+00  0.90233966119E+03  0.90233966121E+03  0.50400001928E-02 0.  1.
        1   -1    0    0  501    0  0.00000000000E+00  0.00000000000E+00 -0.12327489539E+04  0.12327489539E+04  0.50400001928E-02 0. -1.
    10030    2    1    2    0    0  0.00000000000E+00  0.00000000000E+00 -0.33040929274E+03  0.21350886152E+04  0.21093679370E+04 0.  0.
        3    1    3    3  502    0  0.98584393031E+03 -0.34743880835E+03 -0.30747557993E+03  0.10895610230E+04  0.10100000352E+00 0. -1.
       -3    1    3    3    0  502 -0.98584393031E+03  0.34743880835E+03 -0.22933712810E+02  0.10455275921E+04  0.10100000352E+00 0.  1.
</event>
<event>
 5   0  0.2432309E-05  0.2481889E+04  0.7818609E-02  0.8409466E-01
        2   -1    0    0  501    0  0.00000000000E+00  0.00000000000E+00  0.15265652551E+04  0.15265652551E+04  0.25500000920E-02 0.  1.
       -2   -1    0    0    0  501  0.00000000000E+00  0.00000000000E+00 -0.10087635053E+04  0.10087635053E+04  0.25500000920E-02 0. -1.
    10030    2    1    2    0    0  0.00000000000E+00  0.00000000000E+00  0.51780174975E+03  0.25353287604E+04  0.24818890529E+04 0.  0.
        4    1    3    3  502    0 -0.12326790533E+04 -0.14294076209E+03  0.25536293897E+03  0.12669418114E+04  0.12699999809E+01 0.  1.
       -4    1    3    3    0  502  0.12326790533E+04  0.14294076209E+03  0.26243881078E+03  0.12683869490E+04  0.12699999809E+01 0. -1.
</event>
<event>
 5   0  0.2388326E-05  0.2497023E+04  0.7818609E-02  0.8404047E-01
       -2   -1    0    0    0  501  0.00000000000E+00  0.00000000000E+00  0.11118123817E+04  0.11118123817E+04  0.25500000920E-02 0. -1.
        2   -1    0    0  501    0  0.00000000000E+00  0.00000000000E+00 -0.14020178230E+04  0.14020178231E+04  0.25500000920E-02 0.  1.
    10030    2    1    2    0    0  0.00000000000E+00  0.00000000000E+00 -0.29020544139E+03  0.25138302047E+04  0.24970228473E+04 0.  0.
        2    1    3    3  502    0  0.90381896674E+02  0.36063637945E+03  0.10547893660E+04  0.11183953201E+04  0.25500000920E-02 0. -1.
       -2    1    3    3    0  502 -0.90381896674E+02 -0.36063637945E+03 -0.13449948074E+04  0.13954348846E+04  0.25500000920E-02 0.  1.
</event>
<event>
 5   0  0.1039688E-05  0.2837331E+04  0.7818609E-02  0.8291771E-01
        1   -1    0    0  501    0  0.00000000000E+00  0.00000000000E+00  0.17293455072E+04  0.17293455072E+04  0.50400001928E-02 0.  1.
       -1   -1    0    0    0  501  0.00000000000E+00  0.00000000000E+00 -0.11637997275E+04  0.11637997275E+04  0.50400001928E-02 0. -1.
    10030    2    1    2    0    0  0.00000000000E+00  0.00000000000E+00  0.56554577971E+03  0.28931452347E+04  0.28373310205E+04 0.  0.
        3    1    3    3  502    0  0.90190312449E+03  0.39887700530E+03  0.13226775900E+04  0.16498509414E+04  0.10100000352E+00 0.  1.
       -3    1    3    3    0  502 -0.90190312449E+03 -0.39887700530E+03 -0.75713181034E+03  0.12432942933E+04  0.10100000352E+00 0. -1.
</event>
<event>
 5   0  0.2441340E-05  0.2492034E+04  0.7818609E-02  0.8405829E-01
       -2   -1    0    0    0  501  0.00000000000E+00  0.00000000000E+00  0.17661822833E+04  0.17661822833E+04  0.25500000920E-02 0.  1.
        2   -1    0    0  501    0  0.00000000000E+00  0.00000000000E+00 -0.87904733309E+03  0.87904733309E+03  0.25500000920E-02 0. -1.
    10030    2    1    2    0    0  0.00000000000E+00  0.00000000000E+00  0.88713495020E+03  0.26452296164E+04  0.24920335679E+04 0.  0.
        3    1    3    3  502    0  0.12044387459E+03 -0.51100648515E+03  0.16430444664E+04  0.17248853538E+04  0.10100000352E+00 0.  1.
       -3    1    3    3    0  502 -0.12044387459E+03  0.51100648515E+03 -0.75590951623E+03  0.92034426261E+03  0.10100000352E+00 0. -1.
</event>
<event>
 5   0  0.1008073E-05  0.2500522E+04  0.7818609E-02  0.8402799E-01
       -1   -1    0    0    0  501  0.00000000000E+00  0.00000000000E+00  0.94172150678E+03  0.94172150679E+03  0.50400001928E-02 0.  1.
        1   -1    0    0  501    0  0.00000000000E+00  0.00000000000E+00 -0.16598887187E+04  0.16598887187E+04  0.50400001928E-02 0. -1.
    10030    2    1    2    0    0  0.00000000000E+00  0.00000000000E+00 -0.71816721188E+03  0.26016102255E+04  0.25005222696E+04 0.  0.
        1    1    3    3  502    0  0.24962052528E+03  0.16642421732E+03  0.90371566567E+03  0.95221291272E+03  0.50400001928E-02 0.  1.
       -1    1    3    3    0  502 -0.24962052528E+03 -0.16642421732E+03 -0.16218828776E+04  0.16493973127E+04  0.50400001928E-02 0. -1.
</event>
<event>
 5   0  0.1015327E-05  0.2342756E+04  0.7818609E-02  0.8461251E-01
        1   -1    0    0  501    0  0.00000000000E+00  0.00000000000E+00  0.19678807242E+04  0.19678807242E+04  0.50400001928E-02 0.  1.
       -1   -1    0    0    0  501  0.00000000000E+00  0.00000000000E+00 -0.69726093381E+03  0.69726093382E+03  0.50400001928E-02 0. -1.
    10030    2    1    2    0    0  0.00000000000E+00  0.00000000000E+00  0.12706197904E+04  0.26651416580E+04  0.23427559424E+04 0.  0.
        4    1    3    3  502    0  0.10341747053E+04  0.82984488600E+02  0.16675123489E+02  0.10376335668E+04  0.12699999809E+01 0. -1.
       -4    1    3    3    0  502 -0.10341747053E+04 -0.82984488600E+02  0.12539446669E+04  0.16275080912E+04  0.12699999809E+01 0.  1.
</event>
<event>
 5   0  0.1002753E-05  0.2487888E+04  0.7818609E-02  0.8407313E-01
       -1   -1    0    0    0  501  0.00000000000E+00  0.00000000000E+00  0.11076371809E+04  0.11076371809E+04  0.50400001928E-02 0.  1.
        1   -1    0    0  501    0  0.00000000000E+00  0.00000000000E+00 -0.13970245556E+04  0.13970245556E+04  0.50400001928E-02 0. -1.
    10030    2    1    2    0    0  0.00000000000E+00  0.00000000000E+00 -0.28938737471E+03  0.25046617366E+04  0.24878877310E+04 0.  0.
        5    1    3    3  502    0 -0.66074840341E+03  0.88804712411E+03  0.42672288613E+03  0.11863096808E+04  0.46999998093E+01 0. -1.
       -5    1    3    3    0  502  0.66074840341E+03 -0.88804712411E+03 -0.71611026084E+03  0.13183520558E+04  0.46999998093E+01 0.  1.
</event>
<event>
 5   0  0.2441340E-05  0.2494444E+04  0.7818609E-02  0.8404968E-01
        2   -1    0    0  501    0  0.00000000000E+00  0.00000000000E+00  0.21169889403E+04  0.21169889403E+04  0.25500000920E-02 0. -1.
       -2   -1    0    0    0  501  0.00000000000E+00  0.00000000000E+00 -0.73479943247E+03  0.73479943247E+03  0.25500000920E-02 0.  1.
    10030    2    1    2    0    0  0.00000000000E+00  0.00000000000E+00  0.13821895079E+04  0.28517883728E+04  0.24944436429E+04 0.  0.
        3    1    3    3  502    0  0.40175791904E+03 -0.59452214944E+03  0.18573821774E+04  0.19911641255E+04  0.10100000352E+00 0. -1.
       -3    1    3    3    0  502 -0.40175791904E+03  0.59452214944E+03 -0.47519266951E+03  0.86062424730E+03  0.10100000352E+00 0.  1.
</event>
<event>
 5   0  0.1008073E-05  0.2436511E+04  0.7818609E-02  0.8425959E-01
       -1   -1    0    0    0  501  0.00000000000E+00  0.00000000000E+00  0.90222006071E+03  0.90222006072E+03  0.50400001928E-02 0. -1.
        1   -1    0    0  501    0  0.00000000000E+00  0.00000000000E+00 -0.16449940697E+04  0.16449940697E+04  0.50400001928E-02 0.  1.
    10030    2    1    2    0    0  0.00000000000E+00  0.00000000000E+00 -0.74277400895E+03  0.25472141304E+04  0.24365111528E+04 0.  0.
        1    1    3    3  502    0  0.20747452888E+03  0.12000753106E+04 -0.40310037746E+03  0.12828547640E+04  0.50400001928E-02 0.  1.
       -1    1    3    3    0  502 -0.20747452888E+03 -0.12000753106E+04 -0.33967363149E+03  0.12643593663E+04  0.50400001928E-02 0. -1.
</event>
<event>
 5   0  0.2452457E-05  0.2553192E+04  0.7818609E-02  0.8384277E-01
       -2   -1    0    0    0  501  0.00000000000E+00  0.00000000000E+00  0.90806957299E+03  0.90806957299E+03  0.25500000920E-02 0. -1.
        2   -1    0    0  501    0  0.00000000000E+00  0.00000000000E+00 -0.17946840055E+04  0.17946840055E+04  0.25500000920E-02 0.  1.
    10030    2    1    2    0    0  0.00000000000E+00  0.00000000000E+00 -0.88661443249E+03  0.27027535785E+04  0.25531924632E+04 0.  0.
        1    1    3    3  502    0  0.51907831845E+03  0.28165301352E+03 -0.16413853012E+04  0.17443957199E+04  0.50400001928E-02 0.  1.
       -1    1    3    3    0  502 -0.51907831845E+03 -0.28165301352E+03  0.75477086872E+03  0.95835785853E+03  0.50400001928E-02 0. -1.
</event>
<event>
 5   0  0.1015327E-05  0.2505938E+04  0.7818609E-02  0.8400873E-01
        1   -1    0    0  501    0  0.00000000000E+00  0.00000000000E+00  0.14524110367E+04  0.14524110368E+04  0.50400001928E-02 0. -1.
       -1   -1    0    0    0  501  0.00000000000E+00  0.00000000000E+00 -0.10809141259E+04  0.10809141260E+04  0.50400001928E-02 0.  1.
    10030    2    1    2    0    0  0.00000000000E+00  0.00000000000E+00  0.37149691081E+03  0.25333251627E+04  0.25059382325E+04 0.  0.
        4    1    3    3  502    0  0.70569972734E+03 -0.92331667213E+03  0.65927360974E+03  0.13361021995E+04  0.12699999809E+01 0. -1.
       -4    1    3    3    0  502 -0.70569972734E+03  0.92331667213E+03 -0.28777669894E+03  0.11972229632E+04  0.12699999809E+01 0.  1.
</event>
<event>
 5   0  0.1002753E-05  0.2506235E+04  0.7818609E-02  0.8400768E-01
       -1   -1    0    0    0  501  0.00000000000E+00  0.00000000000E+00  0.13171766034E+04  0.13171766034E+04  0.50400001928E-02 0.  1.
        1   -1    0    0  501    0  0.00000000000E+00  0.00000000000E+00 -0.11921741823E+04  0.11921741823E+04  0.50400001928E-02 0. -1.
    10030    2    1    2    0    0  0.00000000000E+00  0.00000000000E+00  0.12500242112E+03  0.25093507857E+04  0.25062353761E+04 0.  0.
        5    1    3    3  502    0 -0.11556517466E+03  0.12203687123E+04  0.32287590167E+03  0.12676458659E+04  0.46999998093E+01 0.  1.
       -5    1    3    3    0  502  0.11556517466E+03 -0.12203687123E+04 -0.19787348054E+03  0.12417049198E+04  0.46999998093E+01 0. -1.
</event>
<event>
 5   0  0.1010338E-05  0.2498338E+04  0.7818609E-02  0.8403578E-01
        1   -1    0    0  501    0  0.00000000000E+00  0.00000000000E+00  0.11828054215E+04  0.11828054215E+04  0.50400001928E-02 0. -1.
       -1   -1    0    0    0  501  0.00000000000E+00  0.00000000000E+00 -0.13192562211E+04  0.13192562211E+04  0.50400001928E-02 0.  1.
    10030    2    1    2    0    0  0.00000000000E+00  0.00000000000E+00 -0.13645079965E+03  0.25020616426E+04  0.24983381762E+04 0.  0.
        2    1    3    3  502    0  0.61678586583E+03  0.26522771726E+03  0.98674518361E+03  0.11934976346E+04  0.25500000920E-02 0. -1.
       -2    1    3    3    0  502 -0.61678586583E+03 -0.26522771726E+03 -0.11231959833E+04  0.13085640080E+04  0.25500000920E-02 0.  1.
</event>
<event>
 5   0  0.1015327E-05  0.2527921E+04  0.7818609E-02  0.8393106E-01
        1   -1    0    0  501    0  0.00000000000E+00  0.00000000000E+00  0.20195605510E+04  0.20195605510E+04  0.50400001928E-02 0. -1.
       -1   -1    0    0    0  501  0.00000000000E+00  0.00000000000E+00 -0.79106098419E+03  0.79106098421E+03  0.50400001928E-02 0.  1.
    10030    2    1    2    0    0  0.00000000000E+00  0.00000000000E+00  0.12284995668E+04  0.28106215352E+04  0.25279205345E+04 0.  0.
        4    1    3    3  502    0 -0.82933650438E+03 -0.22643257937E+03  0.16444341809E+04  0.18555958986E+04  0.12699999809E+01 0. -1.
       -4    1    3    3    0  502  0.82933650438E+03  0.22643257937E+03 -0.41593461413E+03  0.95502563663E+03  0.12699999809E+01 0.  1.
</event>
<event>
 5   0  0.1002753E-05  0.2009741E+04  0.7818609E-02  0.8602080E-01
       -1   -1    0    0    0  501  0.00000000000E+00  0.00000000000E+00  0.42143136660E+03  0.42143136663E+03  0.50400001928E-02 0.  1.
        1   -1    0    0  501    0  0.00000000000E+00  0.00000000000E+00 -0.23960362316E+04  0.23960362317E+04  0.50400001928E-02 0. -1.
    10030    2    1    2    0    0  0.00000000000E+00  0.00000000000E+00 -0.19746048650E+04  0.28174675983E+04  0.20097411013E+04 0.  0.
        5    1    3    3  502    0 -0.17862943589E+03 -0.63862193664E+03 -0.20457146067E+04  0.21505154721E+04  0.46999998093E+01 0. -1.
       -5    1    3    3    0  502  0.17862943589E+03  0.63862193664E+03  0.71109741692E+02  0.66695212623E+03  0.46999998093E+01 0.  1.
</event>
<event>
 5   0  0.2388326E-05  0.2513163E+04  0.7818609E-02  0.8398311E-01
       -2   -1    0    0    0  501  0.00000000000E+00  0.00000000000E+00  0.10178867103E+04  0.10178867103E+04  0.25500000920E-02 0.  1.
        2   -1    0    0  501    0  0.00000000000E+00  0.00000000000E+00 -0.15512502518E+04  0.15512502518E+04  0.25500000920E-02 0. -1.
    10030    2    1    2    0    0  0.00000000000E+00  0.00000000000E+00 -0.53336354148E+03  0.25691369621E+04  0.25131629599E+04 0.  0.
        2    1    3    3  502    0  0.64712691601E+03  0.10010135805E+04 -0.67327840787E+03  0.13689796376E+04  0.25500000920E-02 0.  1.
       -2    1    3    3    0  502 -0.64712691601E+03 -0.10010135805E+04  0.13991486639E+03  0.12001573245E+04  0.25500000920E-02 0. -1.
</event>
<event>
 5   0  0.1008073E-05  0.2549620E+04  0.7818609E-02  0.8385518E-01
       -1   -1    0    0    0  501  0.00000000000E+00  0.00000000000E+00  0.89948985395E+03  0.89948985396E+03  0.50400001928E-02 0.  1.
        1   -1    0    0  501    0  0.00000000000E+00  0.00000000000E+00 -0.18067359987E+04  0.18067359987E+04  0.50400001928E-02 0. -1.
    10030    2    1    2    0    0  0.00000000000E+00  0.00000000000E+00 -0.90724614474E+03  0.27062258527E+04  0.25496201283E+04 0.  0.
        1    1    3    3  502    0 -0.12438636076E+04 -0.21546639529E+03 -0.64206158246E+03  0.14162858177E+04  0.50400001928E-02 0.  1.
       -1    1    3    3    0  502  0.12438636076E+04  0.21546639529E+03 -0.26518456228E+03  0.12899400350E+04  0.50400001928E-02 0. -1.
</event>
<event>
 5   0  0.1008073E-05  0.2490091E+04  0.7818609E-02  0.8406524E-01
        1   -1    0    0  501    0  0.00000000000E+00  0.00000000000E+00  0.11015605174E+04  0.11015605175E+04  0.50400001928E-02 0. -1.
       -1   -1    0    0    0  501  0.00000000000E+00  0.00000000000E+00 -0.14072198893E+04  0.14072198893E+04  0.50400001928E-02 0.  1.
    10030    2    1    2    0    0  0.00000000000E+00  0.00000000000E+00 -0.30565937185E+03  0.25087804068E+04  0.24900906565E+04 0.  0.
        1    1    3    3  502    0 -0.94869672621E+03 -0.61649140262E+03  0.37073479702E+03  0.11906012840E+04  0.50400001928E-02 0. -1.
       -1    1    3    3    0  502  0.94869672621E+03  0.61649140262E+03 -0.67639416888E+03  0.13181791227E+04  0.50400001928E-02 0.  1.
</event>
<event>
 5   0  0.1008073E-05  0.2500113E+04  0.7818609E-02  0.8402945E-01
        1   -1    0    0  501    0  0.00000000000E+00  0.00000000000E+00  0.10896470019E+04  0.10896470019E+04  0.50400001928E-02 0. -1.
       -1   -1    0    0    0  501  0.00000000000E+00  0.00000000000E+00 -0.14340805440E+04  0.14340805440E+04  0.50400001928E-02 0.  1.
    10030    2    1    2    0    0  0.00000000000E+00  0.00000000000E+00 -0.34443354209E+03  0.25237275458E+04  0.25001132496E+04 0.  0.
        1    1    3    3  502    0 -0.10058413131E+04 -0.31446702044E+03  0.50646934830E+03  0.11692379804E+04  0.50400001928E-02 0. -1.
       -1    1    3    3    0  502  0.10058413131E+04  0.31446702044E+03 -0.85090289039E+03  0.13544895654E+04  0.50400001928E-02 0.  1.
</event>
<event>
 5   0  0.2432309E-05  0.2501311E+04  0.7818609E-02  0.8402519E-01
       -2   -1    0    0    0  501  0.00000000000E+00  0.00000000000E+00  0.47246956321E+03  0.47246956322E+03  0.25500000920E-02 0.  1.
        2   -1    0    0  501    0  0.00000000000E+00  0.00000000000E+00 -0.33105597171E+04  0.33105597171E+04  0.25500000920E-02 0. -1.
    10030    2    1    2    0    0  0.00000000000E+00  0.00000000000E+00 -0.28380901538E+04  0.37830292803E+04  0.25013106193E+04 0.  0.
        4    1    3    3  502    0 -0.78205661365E+03  0.12841896299E+03  0.44202057312E+02  0.79376281834E+03  0.12699999809E+01 0.  1.
       -4    1    3    3    0  502  0.78205661365E+03 -0.12841896299E+03 -0.28822922112E+04  0.29892664619E+04  0.12699999809E+01 0. -1.
</event>
<event>
 5   0  0.1039688E-05  0.2350625E+04  0.7818609E-02  0.8458224E-01
        1   -1    0    0  501    0  0.00000000000E+00  0.00000000000E+00  0.17511464966E+04  0.17511464966E+04  0.50400001928E-02 0. -1.
       -1   -1    0    0    0  501  0.00000000000E+00  0.00000000000E+00 -0.78883146104E+03  0.78883146105E+03  0.50400001928E-02 0.  1.
    10030    2    1    2    0    0  0.00000000000E+00  0.00000000000E+00  0.96231503556E+03  0.25399779577E+04  0.23506249802E+04 0.  0.
        3    1    3    3  502    0  0.73870326398E+03  0.69267226544E+03 -0.16345635589E+03  0.10257657481E+04  0.10100000352E+00 0.  1.
       -3    1    3    3    0  502 -0.73870326398E+03 -0.69267226544E+03  0.11257713914E+04  0.15142122095E+04  0.10100000352E+00 0. -1.
</event>
<event>
 5   0  0.2432309E-05  0.2469397E+04  0.7818609E-02  0.8413970E-01
        2   -1    0    0  501    0  0.00000000000E+00  0.00000000000E+00  0.25656407309E+04  0.25656407309E+04  0.25500000920E-02 0.  1.
       -2   -1    0    0    0  501  0.00000000000E+00  0.00000000000E+00 -0.59419104590E+03  0.59419104591E+03  0.25500000920E-02 0. -1.
    10030    2    1    2    0    0  0.00000000000E+00  0.00000000000E+00  0.19714496850E+04  0.31598317768E+04  0.24693972943E+04 0.  0.
        4    1    3    3  502    0  0.12589505102E+03 -0.12241495559E+04  0.11142426828E+04  0.16600994152E+04  0.12699999809E+01 0. -1.
       -4    1    3    3    0  502 -0.12589505102E+03  0.12241495559E+04  0.85720700223E+03  0.14997323617E+04  0.12699999809E+01 0.  1.
</event>
<event>
 5   0  0.2441340E-05  0.2496243E+04  0.7818609E-02  0.8404325E-01
        2   -1    0    0  501    0  0.00000000000E+00  0.00000000000E+00  0.10958325020E+04  0.10958325020E+04  0.25500000920E-02 0.  1.
       -2   -1    0    0    0  501  0.00000000000E+00  0.00000000000E+00 -0.14215746118E+04  0.14215746118E+04  0.25500000920E-02 0. -1.
    10030    2    1    2    0    0  0.00000000000E+00  0.00000000000E+00 -0.32574210984E+03  0.25174071138E+04  0.24962433083E+04 0.  0.
        3    1    3    3  502    0 -0.10441867314E+04 -0.54339091157E+03 -0.58136892706E+03  0.13128554575E+04  0.10100000352E+00 0. -1.
       -3    1    3    3    0  502  0.10441867314E+04  0.54339091157E+03  0.25562681722E+03  0.12045516563E+04  0.10100000352E+00 0.  1.
</event>
<event>
 5   0  0.2452457E-05  0.2494268E+04  0.7818609E-02  0.8405030E-01
        2   -1    0    0  501    0  0.00000000000E+00  0.00000000000E+00  0.17850712709E+04  0.17850712709E+04  0.25500000920E-02 0. -1.
       -2   -1    0    0    0  501  0.00000000000E+00  0.00000000000E+00 -0.87130613916E+03  0.87130613916E+03  0.25500000920E-02 0.  1.
    10030    2    1    2    0    0  0.00000000000E+00  0.00000000000E+00  0.91376513175E+03  0.26563774101E+04  0.24942682752E+04 0.  0.
        1    1    3    3  502    0 -0.12040716506E+04 -0.21688210340E+03  0.19925740575E+03  0.12395684331E+04  0.50400001928E-02 0.  1.
       -1    1    3    3    0  502  0.12040716506E+04  0.21688210340E+03  0.71450772600E+03  0.14168089769E+04  0.50400001928E-02 0. -1.
</event>
<event>
 5   0  0.2432309E-05  0.2509831E+04  0.7818609E-02  0.8399491E-01
        2   -1    0    0  501    0  0.00000000000E+00  0.00000000000E+00  0.19052022896E+04  0.19052022896E+04  0.25500000920E-02 0. -1.
       -2   -1    0    0    0  501  0.00000000000E+00  0.00000000000E+00 -0.82658591319E+03  0.82658591320E+03  0.25500000920E-02 0.  1.
    10030    2    1    2    0    0  0.00000000000E+00  0.00000000000E+00  0.10786163764E+04  0.27317882028E+04  0.25098313683E+04 0.  0.
        4    1    3    3  502    0  0.46551552399E+03 -0.11283051715E+04  0.22191320399E+03  0.12405742002E+04  0.12699999809E+01 0. -1.
       -4    1    3    3    0  502 -0.46551552399E+03  0.11283051715E+04  0.85670317240E+03  0.14912140026E+04  0.12699999809E+01 0.  1.
</event>
<event>
 5   0  0.1039688E-05  0.2486441E+04  0.7818609E-02  0.8407832E-01
        1   -1    0    0  501    0  0.00000000000E+00  0.00000000000E+00  0.95820141173E+03  0.95820141174E+03  0.50400001928E-02 0. -1.
       -1   -1    0    0    0  501  0.00000000000E+00  0.00000000000E+00 -0.16130189238E+04  0.16130189238E+04  0.50400001928E-02 0.  1.
    10030    2    1    2    0    0  0.00000000000E+00  0.00000000000E+00 -0.65481751203E+03  0.25712203355E+04  0.24864408378E+04 0.  0.
        3    1    3    3  502    0  0.22546201433E+03 -0.80516975753E+03 -0.12788145802E+04  0.15279064759E+04  0.10100000352E+00 0.  1.
       -3    1    3    3    0  502 -0.22546201433E+03  0.80516975753E+03  0.62399706818E+03  0.10433138596E+04  0.10100000352E+00 0. -1.
</event>
<event>
 5   0  0.2441340E-05  0.2510045E+04  0.7818609E-02  0.8399416E-01
       -2   -1    0    0    0  501  0.00000000000E+00  0.00000000000E+00  0.11748250209E+04  0.11748250209E+04  0.25500000920E-02 0.  1.
        2   -1    0    0  501    0  0.00000000000E+00  0.00000000000E+00 -0.13406942061E+04  0.13406942061E+04  0.25500000920E-02 0. -1.
    10030    2    1    2    0    0  0.00000000000E+00  0.00000000000E+00 -0.16586918524E+03  0.25155192270E+04  0.25100446998E+04 0.  0.
        3    1    3    3  502    0  0.63497570225E+03 -0.12933789220E+03 -0.11600618196E+04  0.13287836047E+04  0.10100000352E+00 0. -1.
       -3    1    3    3    0  502 -0.63497570225E+03  0.12933789220E+03  0.99419263433E+03  0.11867356223E+04  0.10100000352E+00 0.  1.
</event>
<event>
 5   0  0.1039688E-05  0.2497074E+04  0.7818609E-02  0.8404029E-01
       -1   -1    0    0    0  501  0.00000000000E+00  0.00000000000E+00  0.13983438396E+04  0.13983438396E+04  0.50400001928E-02 0.  1.
        1   -1    0    0  501    0  0.00000000000E+00  0.00000000000E+00 -0.11147795846E+04  0.11147795846E+04  0.50400001928E-02 0. -1.
    10030    2    1    2    0    0  0.00000000000E+00  0.00000000000E+00  0.28356425503E+03  0.25131234242E+04  0.24970744200E+04 0.  0.
        3    1    3    3  502    0 -0.75543936058E+03  0.63366584610E+03 -0.62905440859E+03  0.11695856066E+04  0.10100000352E+00 0. -1.
       -3    1    3    3    0  502  0.75543936058E+03 -0.63366584610E+03  0.91261866362E+03  0.13435378176E+04  0.10100000352E+00 0.  1.
</event>
<event>
 5   0  0.2432309E-05  0.2523996E+04  0.7818609E-02  0.8394487E-01
       -2   -1    0    0    0  501  0.00000000000E+00  0.00000000000E+00  0.20078966453E+04  0.20078966453E+04  0.25500000920E-02 0.  1.
        2   -1    0    0  501    0  0.00000000000E+00  0.00000000000E+00 -0.79318748192E+03  0.79318748192E+03  0.25500000920E-02 0. -1.
    10030    2    1    2    0    0  0.00000000000E+00  0.00000000000E+00  0.12147091634E+04  0.28010841272E+04  0.25239956292E+04 0.  0.
        4    1    3    3  502    0 -0.10416974033E+03  0.12243033803E+04  0.28788629110E+03  0.12620024688E+04  0.12699999809E+01 0.  1.
       -4    1    3    3    0  502  0.10416974033E+03 -0.12243033803E+04  0.92682287229E+03  0.15390816584E+04  0.12699999809E+01 0. -1.
</event>
<event>
 5   0  0.2388326E-05  0.2452709E+04  0.7818609E-02  0.8420030E-01
       -2   -1    0    0    0  501  0.00000000000E+00  0.00000000000E+00  0.11424078391E+04  0.11424078391E+04  0.25500000920E-02 0.  1.
        2   -1    0    0  501    0  0.00000000000E+00  0.00000000000E+00 -0.13164693624E+04  0.13164693624E+04  0.25500000920E-02 0. -1.
    10030    2    1    2    0    0  0.00000000000E+00  0.00000000000E+00 -0.17406152328E+03  0.24588772015E+04  0.24527086411E+04 0.  0.
        2    1    3    3  502    0 -0.21348913887E+03  0.74188081536E+03  0.86824566168E+03  0.11618155127E+04  0.25500000920E-02 0.  1.
       -2    1    3    3    0  502  0.21348913887E+03 -0.74188081536E+03 -0.10423071850E+04  0.12970616888E+04  0.25500000920E-02 0. -1.
</event>
<event>
 5   0  0.2452457E-05  0.2492542E+04  0.7818609E-02  0.8405647E-01
        2   -1    0    0  501    0  0.00000000000E+00  0.00000000000E+00  0.10687304225E+04  0.10687304225E+04  0.25500000920E-02 0. -1.
       -2   -1    0    0    0  501  0.00000000000E+00  0.00000000000E+00 -0.14533056042E+04  0.14533056042E+04  0.25500000920E-02 0.  1.
    10030    2    1    2    0    0  0.00000000000E+00  0.00000000000E+00 -0.38457518176E+03  0.25220360267E+04  0.24925424068E+04 0.  0.
        1    1    3    3  502    0 -0.90795200487E+03  0.64989029398E+03 -0.75242423018E+03  0.13464310081E+04  0.50400001928E-02 0.  1.
       -1    1    3    3    0  502  0.90795200487E+03 -0.64989029398E+03  0.36784904842E+03  0.11756050186E+04  0.50400001928E-02 0. -1.
</event>
<event>
 5   0  0.2441340E-05  0.2488216E+04  0.7818609E-02  0.8407196E-01
       -2   -1    0    0    0  501  0.00000000000E+00  0.00000000000E+00  0.14096139122E+04  0.14096139122E+04  0.25500000920E-02 0. -1.
        2   -1    0    0  501    0  0.00000000000E+00  0.00000000000E+00 -0.10980346039E+04  0.10980346039E+04  0.25500000920E-02 0.  1.
    10030    2    1    2    0    0  0.00000000000E+00  0.00000000000E+00  0.31157930824E+03  0.25076485161E+04  0.24882161110E+04 0.  0.
        3    1    3    3  502    0 -0.80026335117E+03 -0.65304754785E+03  0.85468397906E+03  0.13406629872E+04  0.10100000352E+00 0.  1.
       -3    1    3    3    0  502  0.80026335117E+03  0.65304754785E+03 -0.54310467081E+03  0.11669855289E+04  0.10100000352E+00 0. -1.
</event>
<event>
 5   0  0.2388326E-05  0.2480656E+04  0.7818609E-02  0.8409909E-01
       -2   -1    0    0    0  501  0.00000000000E+00  0.00000000000E+00  0.83913328449E+03  0.83913328449E+03  0.25500000920E-02 0. -1.
        2   -1    0    0  501    0  0.00000000000E+00  0.00000000000E+00 -0.18333364708E+04  0.18333364708E+04  0.25500000920E-02 0.  1.
    10030    2    1    2    0    0  0.00000000000E+00  0.00000000000E+00 -0.99420318628E+03  0.26724697553E+04  0.24806560860E+04 0.  0.
        2    1    3    3  502    0 -0.24343961323E+03  0.26607933952E+02  0.81282967105E+03  0.84891866606E+03  0.25500000920E-02 0. -1.
       -2    1    3    3    0  502  0.24343961323E+03 -0.26607933952E+02 -0.18070328573E+04  0.18235510892E+04  0.25500000920E-02 0.  1.
</event>
<event>
 5   0  0.1010338E-05  0.2365423E+04  0.7818609E-02  0.8452563E-01
       -1   -1    0    0    0  501  0.00000000000E+00  0.00000000000E+00  0.73948286860E+03  0.73948286861E+03  0.50400001928E-02 0.  1.
        1   -1    0    0  501    0  0.00000000000E+00  0.00000000000E+00 -0.18916015716E+04  0.18916015717E+04  0.50400001928E-02 0. -1.
    10030    2    1    2    0    0  0.00000000000E+00  0.00000000000E+00 -0.11521187030E+04  0.26310844403E+04  0.23654233925E+04 0.  0.
        2    1    3    3  502    0 -0.17192175006E+03 -0.43128954498E+02  0.72462543566E+03  0.74598875117E+03  0.25500000920E-02 0.  1.
       -2    1    3    3    0  502  0.17192175006E+03  0.43128954498E+02 -0.18767441387E+04  0.18850956891E+04  0.25500000920E-02 0. -1.
</event>
<event>
 5   0  0.1010338E-05  0.2502396E+04  0.7818609E-02  0.8402133E-01
        1   -1    0    0  501    0  0.00000000000E+00  0.00000000000E+00  0.21754004142E+04  0.21754004143E+04  0.50400001928E-02 0. -1.
       -1   -1    0    0    0  501  0.00000000000E+00  0.00000000000E+00 -0.71963589993E+03  0.71963589995E+03  0.50400001928E-02 0.  1.
    10030    2    1    2    0    0  0.00000000000E+00  0.00000000000E+00  0.14557645143E+04  0.28950363142E+04  0.25023958399E+04 0.  0.
        2    1    3    3  502    0 -0.38124928620E+03 -0.44484845240E+03  0.20069069535E+04  0.20906737392E+04  0.25500000920E-02 0. -1.
       -2    1    3    3    0  502  0.38124928620E+03  0.44484845240E+03 -0.55114243916E+03  0.80436257501E+03  0.25500000920E-02 0.  1.
</event>
<event>
 5   0  0.1015327E-05  0.2494946E+04  0.7818609E-02  0.8404788E-01
        1   -1    0    0  501    0  0.00000000000E+00  0.00000000000E+00  0.12642517817E+04  0.12642517817E+04  0.50400001928E-02 0.  1.
       -1   -1    0    0    0  501  0.00000000000E+00  0.00000000000E+00 -0.12309167509E+04  0.12309167509E+04  0.50400001928E-02 0. -1.
    10030    2    1    2    0    0  0.00000000000E+00  0.00000000000E+00  0.33335030804E+02  0.24951685327E+04  0.24949458475E+04 0.  0.
        4    1    3    3  502    0 -0.24204186991E+03  0.94948234584E+03 -0.75546751311E+03  0.12372686726E+04  0.12699999809E+01 0. -1.
       -4    1    3    3    0  502  0.24204186991E+03 -0.94948234584E+03  0.78880254392E+03  0.12578998601E+04  0.12699999809E+01 0.  1.
</event>
<event>
 5   0  0.1002753E-05  0.2446686E+04  0.7818609E-02  0.8422229E-01
        1   -1    0    0  501    0  0.00000000000E+00  0.00000000000E+00  0.14481126108E+04  0.14481126108E+04  0.50400001928E-02 0.  1.
       -1   -1    0    0    0  501  0.00000000000E+00  0.00000000000E+00 -0.10334608619E+04  0.10334608619E+04  0.50400001928E-02 0. -1.
    10030    2    1    2    0    0  0.00000000000E+00  0.00000000000E+00  0.41465174893E+03  0.24815734727E+04  0.24466856823E+04 0.  0.
        5    1    3    3  502    0 -0.80746765767E+00  0.11702483579E+04  0.56886873047E+03  0.13011977535E+04  0.46999998093E+01 0.  1.
       -5    1    3    3    0  502  0.80746765767E+00 -0.11702483579E+04 -0.15421698155E+03  0.11803757192E+04  0.46999998093E+01 0. -1.
</event>
<event>
 5   0  0.1002753E-05  0.2508685E+04  0.7818609E-02  0.8399898E-01
        1   -1    0    0  501    0  0.00000000000E+00  0.00000000000E+00  0.14113986811E+04  0.14113986811E+04  0.50400001928E-02 0.  1.
       -1   -1    0    0    0  501  0.00000000000E+00  0.00000000000E+00 -0.11147632395E+04  0.11147632396E+04  0.50400001928E-02 0. -1.
    10030    2    1    2    0    0  0.00000000000E+00  0.00000000000E+00  0.29663544156E+03  0.25261619207E+04  0.25086852063E+04 0.  0.
        5    1    3    3  502    0 -0.10658748283E+04 -0.65358011587E+03  0.47133077539E+02  0.12511993184E+04  0.46999998093E+01 0. -1.
       -5    1    3    3    0  502  0.10658748283E+04  0.65358011587E+03  0.24950236403E+03  0.12749626022E+04  0.46999998093E+01 0.  1.
</event>
<event>
 5   0  0.2441340E-05  0.2490818E+04  0.7818609E-02  0.8406264E-01
       -2   -1    0    0    0  501  0.00000000000E+00  0.00000000000E+00  0.83115600060E+03  0.83115600061E+03  0.25500000920E-02 0.  1.
        2   -1    0    0  501    0  0.00000000000E+00  0.00000000000E+00 -0.18661274347E+04  0.18661274347E+04  0.25500000920E-02 0. -1.
    10030    2    1    2    0    0  0.00000000000E+00  0.00000000000E+00 -0.10349714341E+04  0.26972834353E+04  0.24908175487E+04 0.  0.
        3    1    3    3  502    0  0.25191353088E+03  0.52023368368E+03 -0.17120765041E+04  0.18070167345E+04  0.10100000352E+00 0. -1.
       -3    1    3    3    0  502 -0.25191353088E+03 -0.52023368368E+03  0.67710506996E+03  0.89026670085E+03  0.10100000352E+00 0.  1.
</event>
<event>
 5   0  0.2441340E-05  0.2516183E+04  0.7818609E-02  0.8397243E-01
       -2   -1    0    0    0  501  0.00000000000E+00  0.00000000000E+00  0.10662382192E+04  0.10662382193E+04  0.25500000920E-02 0.  1.
        2   -1    0    0  501    0  0.00000000000E+00  0.00000000000E+00 -0.14844655355E+04  0.14844655355E+04  0.25500000920E-02 0. -1.
    10030    2    1    2    0    0  0.00000000000E+00  0.00000000000E+00 -0.41822731628E+03  0.25507037548E+04  0.25161827351E+04 0.  0.
        3    1    3    3  502    0 -0.75388676857E+03 -0.89091945566E+03 -0.68535815790E+03  0.13534395262E+04  0.10100000352E+00 0.  1.
       -3    1    3    3    0  502  0.75388676857E+03  0.89091945566E+03  0.26713084162E+03  0.11972642286E+04  0.10100000352E+00 0. -1.
</event>
<event>
 5   0  0.8166500E-06  0.2472989E+04  0.7818609E-02  0.8412672E-01
       -3   -1    0    0    0  501  0.00000000000E+00  0.00000000000E+00  0.85790101047E+03  0.85790101642E+03  0.10100000352E+00 0.  1.
        3   -1    0    0  501    0  0.00000000000E+00  0.00000000000E+00 -0.17821626179E+04  0.17821626208E+04  0.10100000352E+00 0. -1.
    10030    2    1    2    0    0  0.00000000000E+00  0.00000000000E+00 -0.92426160742E+03  0.26400636372E+04  0.24729893832E+04 0.  0.
        1    1    3    3  502    0  0.42095613397E+03  0.10330306749E+04  0.10735265609E+03  0.11206609813E+04  0.50400001928E-02 0. -1.
       -1    1    3    3    0  502 -0.42095613397E+03 -0.10330306749E+04 -0.10316142635E+04  0.15194026559E+04  0.50400001928E-02 0.  1.
</event>
<event>
 5   0  0.2452457E-05  0.2391960E+04  0.7818609E-02  0.8442520E-01
        2   -1    0    0  501    0  0.00000000000E+00  0.00000000000E+00  0.44553900445E+03  0.44553900445E+03  0.25500000920E-02 0.  1.
       -2   -1    0    0    0  501  0.00000000000E+00  0.00000000000E+00 -0.32104231992E+04  0.32104231992E+04  0.25500000920E-02 0. -1.
    10030    2    1    2    0    0  0.00000000000E+00  0.00000000000E+00 -0.27648841947E+04  0.36559622036E+04  0.23919604980E+04 0.  0.
        1    1    3    3  502    0 -0.18623982840E+03 -0.58772216148E+03 -0.29488229901E+04  0.30125835490E+04  0.50400001928E-02 0. -1.
       -1    1    3    3    0  502  0.18623982840E+03  0.58772216148E+03  0.18393879536E+03  0.64337865463E+03  0.50400001928E-02 0.  1.
</event>
<event>
 5   0  0.1010338E-05  0.2482701E+04  0.7818609E-02  0.8409174E-01
        1   -1    0    0  501    0  0.00000000000E+00  0.00000000000E+00  0.26881619311E+04  0.26881619311E+04  0.50400001928E-02 0.  1.
       -1   -1    0    0    0  501  0.00000000000E+00  0.00000000000E+00 -0.57323585359E+03  0.57323585362E+03  0.50400001928E-02 0. -1.
    10030    2    1    2    0    0  0.00000000000E+00  0.00000000000E+00  0.21149260775E+04  0.32613977848E+04  0.24827007868E+04 0.  0.
        2    1    3    3  502    0 -0.11728557289E+04  0.25703727795E+03  0.64352371478E+03  0.13622707126E+04  0.25500000920E-02 0. -1.
       -2    1    3    3    0  502  0.11728557289E+04 -0.25703727795E+03  0.14714023628E+04  0.18991270721E+04  0.25500000920E-02 0.  1.
</event>
<event>
 5   0  0.2441340E-05  0.2500693E+04  0.7818609E-02  0.8402739E-01
        2   -1    0    0  501    0  0.00000000000E+00  0.00000000000E+00  0.16234204806E+04  0.16234204806E+04  0.25500000920E-02 0.  1.
       -2   -1    0    0    0  501  0.00000000000E+00  0.00000000000E+00 -0.96300735540E+03  0.96300735540E+03  0.25500000920E-02 0. -1.
    10030    2    1    2    0    0  0.00000000000E+00  0.00000000000E+00  0.66041312524E+03  0.25864278360E+04  0.25006925951E+04 0.  0.
        3    1    3    3  502    0 -0.45757703384E+03  0.78258495407E+03 -0.56044995083E+03  0.10657955291E+04  0.10100000352E+00 0. -1.
       -3    1    3    3    0  502  0.45757703384E+03 -0.78258495407E+03  0.12208630761E+04  0.15206323070E+04  0.10100000352E+00 0.  1.
</event>
<event>
 5   0  0.2432309E-05  0.2508878E+04  0.7818609E-02  0.8399830E-01
       -2   -1    0    0    0  501  0.00000000000E+00  0.00000000000E+00  0.11503585809E+04  0.11503585809E+04  0.25500000920E-02 0.  1.
        2   -1    0    0  501    0  0.00000000000E+00  0.00000000000E+00 -0.13679362216E+04  0.13679362216E+04  0.25500000920E-02 0. -1.
    10030    2    1    2    0    0  0.00000000000E+00  0.00000000000E+00 -0.21757764067E+03  0.25182948025E+04  0.25088779729E+04 0.  0.
        4    1    3    3  502    0 -0.12324327084E+03 -0.11125253760E+04  0.45965290678E+03  0.12100347200E+04  0.12699999809E+01 0.  1.
       -4    1    3    3    0  502  0.12324327084E+03  0.11125253760E+04 -0.67723054744E+03  0.13082600825E+04  0.12699999809E+01 0. -1.
</event>
<event>
 5   0  0.2345143E-05  0.2521292E+04  0.7818609E-02  0.8395439E-01
        2   -1    0    0  501    0  0.00000000000E+00  0.00000000000E+00  0.86638173540E+03  0.86638173540E+03  0.25500000920E-02 0. -1.
       -2   -1    0    0    0  501  0.00000000000E+00  0.00000000000E+00 -0.18343284943E+04  0.18343284943E+04  0.25500000920E-02 0.  1.
    10030    2    1    2    0    0  0.00000000000E+00  0.00000000000E+00 -0.96794675893E+03  0.27007102297E+04  0.25212922910E+04 0.  0.
        5    1    3    3  502    0 -0.51043075899E+03  0.10241968170E+04  0.82515852926E+02  0.11473228123E+04  0.46999998093E+01 0. -1.
       -5    1    3    3    0  502  0.51043075899E+03 -0.10241968170E+04 -0.10504626119E+04  0.15533874174E+04  0.46999998093E+01 0.  1.
</event>
<event>
 5   0  0.1008073E-05  0.2480503E+04  0.7818609E-02  0.8409965E-01
        1   -1    0    0  501    0  0.00000000000E+00  0.00000000000E+00  0.14077279259E+04  0.14077279259E+04  0.50400001928E-02 0. -1.
       -1   -1    0    0    0  501  0.00000000000E+00  0.00000000000E+00 -0.10926994426E+04  0.10926994426E+04  0.50400001928E-02 0.  1.
    10030    2    1    2    0    0  0.00000000000E+00  0.00000000000E+00  0.31502848327E+03  0.25004273685E+04  0.24805027877E+04 0.  0.
        1    1    3    3  502    0  0.12218274542E+04  0.20419077743E+03  0.21855906437E+03  0.12579047127E+04  0.50400001928E-02 0. -1.
       -1    1    3    3    0  502 -0.12218274542E+04 -0.20419077743E+03  0.96469418906E+02  0.12425226559E+04  0.50400001928E-02 0.  1.
</event>
<event>
 5   0  0.1039688E-05  0.2490537E+04  0.7818609E-02  0.8406364E-01
        1   -1    0    0  501    0  0.00000000000E+00  0.00000000000E+00  0.27891234400E+04  0.27891234400E+04  0.50400001928E-02 0. -1.
       -1   -1    0    0    0  501  0.00000000000E+00  0.00000000000E+00 -0.55597901617E+03  0.55597901619E+03  0.50400001928E-02 0.  1.
    10030    2    1    2    0    0  0.00000000000E+00  0.00000000000E+00  0.22331444238E+04  0.33451024562E+04  0.24905373767E+04 0.  0.
        3    1    3    3  502    0  0.91341618382E+03 -0.68661275848E+03  0.17812872160E+04  0.21163058288E+04  0.10100000352E+00 0. -1.
       -3    1    3    3    0  502 -0.91341618382E+03  0.68661275848E+03  0.45185720781E+03  0.12287966274E+04  0.10100000352E+00 0.  1.
</event>
<event>
 5   0  0.1015327E-05  0.2486514E+04  0.7818609E-02  0.8407806E-01
        1   -1    0    0  501    0  0.00000000000E+00  0.00000000000E+00  0.17015525769E+04  0.17015525769E+04  0.50400001928E-02 0. -1.
       -1   -1    0    0    0  501  0.00000000000E+00  0.00000000000E+00 -0.90839872407E+03  0.90839872409E+03  0.50400001928E-02 0.  1.
    10030    2    1    2    0    0  0.00000000000E+00  0.00000000000E+00  0.79315385280E+03  0.26099513010E+04  0.24865141784E+04 0.  0.
        4    1    3    3  502    0 -0.39991428922E+03  0.10128323442E+03  0.16276143712E+04  0.16790830493E+04  0.12699999809E+01 0. -1.
       -4    1    3    3    0  502  0.39991428922E+03 -0.10128323442E+03 -0.83446051838E+03  0.93086825166E+03  0.12699999809E+01 0.  1.
</event>
<event>
 5   0  0.1002753E-05  0.2494838E+04  0.7818609E-02  0.8404827E-01
       -1   -1    0    0    0  501  0.00000000000E+00  0.00000000000E+00  0.80496238587E+03  0.80496238588E+03  0.50400001928E-02 0.  1.
        1   -1    0    0  501    0  0.00000000000E+00  0.00000000000E+00 -0.19330768663E+04  0.19330768663E+04  0.50400001928E-02 0. -1.
    10030    2    1    2    0    0  0.00000000000E+00  0.00000000000E+00 -0.11281144804E+04  0.27380392522E+04  0.24948380039E+04 0.  0.
        5    1    3    3  502    0  0.10316380231E+04 -0.29252464663E+03  0.13539640361E+03  0.10808339168E+04  0.46999998093E+01 0.  1.
       -5    1    3    3    0  502 -0.10316380231E+04  0.29252464663E+03 -0.12635108840E+04  0.16572053354E+04  0.46999998093E+01 0. -1.
</event>
<event>
 5   0  0.2441340E-05  0.2502588E+04  0.7818609E-02  0.8402064E-01
        2   -1    0    0  501    0  0.00000000000E+00  0.00000000000E+00  0.11086075258E+04  0.11086075258E+04  0.25500000920E-02 0. -1.
       -2   -1    0    0    0  501  0.00000000000E+00  0.00000000000E+00 -0.14123458078E+04  0.14123458078E+04  0.25500000920E-02 0.  1.
    10030    2    1    2    0    0  0.00000000000E+00  0.00000000000E+00 -0.30373828201E+03  0.25209533336E+04  0.25025884133E+04 0.  0.
        3    1    3    3  502    0 -0.10073424972E+04 -0.43724397789E+03  0.45237938476E+03  0.11876734909E+04  0.10100000352E+00 0. -1.
       -3    1    3    3    0  502  0.10073424972E+04  0.43724397789E+03 -0.75611766677E+03  0.13332798428E+04  0.10100000352E+00 0.  1.
</event>
<event>
 5   0  0.1010338E-05  0.2498662E+04  0.7818609E-02  0.8403462E-01
        1   -1    0    0  501    0  0.00000000000E+00  0.00000000000E+00  0.98857383551E+03  0.98857383552E+03  0.50400001928E-02 0.  1.
       -1   -1    0    0    0  501  0.00000000000E+00  0.00000000000E+00 -0.15788684264E+04  0.15788684264E+04  0.50400001928E-02 0. -1.
    10030    2    1    2    0    0  0.00000000000E+00  0.00000000000E+00 -0.59029459086E+03  0.25674422619E+04  0.24986620548E+04 0.  0.
        2    1    3    3  502    0 -0.77988095670E+03 -0.39209381167E+01  0.70773063296E+03  0.10531440211E+04  0.25500000920E-02 0.  1.
       -2    1    3    3    0  502  0.77988095670E+03  0.39209381167E+01 -0.12980252238E+04  0.15142982408E+04  0.25500000920E-02 0. -1.
</event>
<event>
 5   0  0.1015327E-05  0.2493010E+04  0.7818609E-02  0.8405480E-01
        1   -1    0    0  501    0  0.00000000000E+00  0.00000000000E+00  0.10719802836E+04  0.10719802837E+04  0.50400001928E-02 0.  1.
       -1   -1    0    0    0  501  0.00000000000E+00  0.00000000000E+00 -0.14494428262E+04  0.14494428263E+04  0.50400001928E-02 0. -1.
    10030    2    1    2    0    0  0.00000000000E+00  0.00000000000E+00 -0.37746254260E+03  0.25214231099E+04  0.24930095323E+04 0.  0.
        4    1    3    3  502    0  0.89434586708E+03  0.75374690497E+03  0.24720747223E+03  0.11954505736E+04  0.12699999809E+01 0.  1.
       -4    1    3    3    0  502 -0.89434586708E+03 -0.75374690497E+03 -0.62467001483E+03  0.13259725363E+04  0.12699999809E+01 0. -1.
</event>
<event>
 5   0  0.1039688E-05  0.2447196E+04  0.7818609E-02  0.8422042E-01
        1   -1    0    0  501    0  0.00000000000E+00  0.00000000000E+00  0.19115147800E+04  0.19115147800E+04  0.50400001928E-02 0. -1.
       -1   -1    0    0    0  501  0.00000000000E+00  0.00000000000E+00 -0.78324904275E+03  0.78324904276E+03  0.50400001928E-02 0.  1.
    10030    2    1    2    0    0  0.00000000000E+00  0.00000000000E+00  0.11282657372E+04  0.26947638228E+04  0.24471960458E+04 0.  0.
        3    1    3    3  502    0  0.72498830587E+03  0.35263311537E+03 -0.44943683853E+03  0.92301226413E+03  0.10100000352E+00 0.  1.
       -3    1    3    3    0  502 -0.72498830587E+03 -0.35263311537E+03  0.15777025758E+04  0.17717515586E+04  0.10100000352E+00 0. -1.
</event>
<event>
 5   0  0.1015327E-05  0.2496566E+04  0.7818609E-02  0.8404210E-01
       -1   -1    0    0    0  501  0.00000000000E+00  0.00000000000E+00  0.13864285937E+04  0.13864285937E+04  0.50400001928E-02 0. -1.
        1   -1    0    0  501    0  0.00000000000E+00  0.00000000000E+00 -0.11239027735E+04  0.11239027735E+04  0.50400001928E-02 0.  1.
    10030    2    1    2    0    0  0.00000000000E+00  0.00000000000E+00  0.26252582024E+03  0.25103313672E+04  0.24965663954E+04 0.  0.
        4    1    3    3  502    0 -0.12065784092E+04  0.20717564840E+03  0.37644357662E+03  0.12808062251E+04  0.12699999809E+01 0. -1.
       -4    1    3    3    0  502  0.12065784092E+04 -0.20717564840E+03 -0.11391775638E+03  0.12295251421E+04  0.12699999809E+01 0.  1.
</event>
<event>
 5   0  0.2388326E-05  0.2489231E+04  0.7818609E-02  0.8406832E-01
       -2   -1    0    0    0  501  0.00000000000E+00  0.00000000000E+00  0.83622014255E+03  0.83622014255E+03  0.25500000920E-02 0.  1.
        2   -1    0    0  501    0  0.00000000000E+00  0.00000000000E+00 -0.18524638863E+04  0.18524638863E+04  0.25500000920E-02 0. -1.
    10030    2    1    2    0    0  0.00000000000E+00  0.00000000000E+00 -0.10162437438E+04  0.26886840289E+04  0.24892308973E+04 0.  0.
        2    1    3    3  502    0  0.20813520423E+03  0.11451147044E+04 -0.98443149053E+03  0.15243730872E+04  0.25500000920E-02 0.  1.
       -2    1    3    3    0  502 -0.20813520423E+03 -0.11451147044E+04 -0.31812253227E+02  0.11643109417E+04  0.25500000920E-02 0. -1.
</event>
<event>
 5   0  0.2345143E-05  0.2518132E+04  0.7818609E-02  0.8396554E-01
        2   -1    0    0  501    0  0.00000000000E+00  0.00000000000E+00  0.15651051344E+04  0.15651051344E+04  0.25500000920E-02 0. -1.
       -2   -1    0    0    0  501  0.00000000000E+00  0.00000000000E+00 -0.10128696953E+04  0.10128696953E+04  0.25500000920E-02 0.  1.
    10030    2    1    2    0    0  0.00000000000E+00  0.00000000000E+00  0.55223543906E+03  0.25779748297E+04  0.25181322924E+04 0.  0.
        5    1    3    3  502    0 -0.27647837353E+03 -0.17078268945E+03 -0.96918518123E+03  0.10222274813E+04  0.46999998093E+01 0.  1.
       -5    1    3    3    0  502  0.27647837353E+03  0.17078268945E+03  0.15214206203E+04  0.15557473483E+04  0.46999998093E+01 0. -1.
</event>
<event>
 5   0  0.2441340E-05  0.2453317E+04  0.7818609E-02  0.8419808E-01
        2   -1    0    0  501    0  0.00000000000E+00  0.00000000000E+00  0.18252063138E+04  0.18252063138E+04  0.25500000920E-02 0.  1.
       -2   -1    0    0    0  501  0.00000000000E+00  0.00000000000E+00 -0.82439502710E+03  0.82439502711E+03  0.25500000920E-02 0. -1.
    10030    2    1    2    0    0  0.00000000000E+00  0.00000000000E+00  0.10008112867E+04  0.26496013409E+04  0.24533169453E+04 0.  0.
        3    1    3    3  502    0  0.75261231094E+02  0.11438018751E+04  0.97209093840E+03  0.15029663287E+04  0.10100000352E+00 0. -1.
       -3    1    3    3    0  502 -0.75261231094E+02 -0.11438018751E+04  0.28720348247E+02  0.11466350122E+04  0.10100000352E+00 0.  1.
</event>
<event>
 5   0  0.2345143E-05  0.2502382E+04  0.7818609E-02  0.8402137E-01
       -2   -1    0    0    0  501  0.00000000000E+00  0.00000000000E+00  0.11721613551E+04  0.11721613551E+04  0.25500000920E-02 0.  1.
        2   -1    0    0  501    0  0.00000000000E+00  0.00000000000E+00 -0.13355490589E+04  0.13355490589E+04  0.25500000920E-02 0. -1.
    10030    2    1    2    0    0  0.00000000000E+00  0.00000000000E+00 -0.16338770382E+03  0.25077104141E+04  0.25023820610E+04 0.  0.
        5    1    3    3  502    0 -0.40264955417E+03 -0.11630795200E+04 -0.30706440458E+03  0.12685390305E+04  0.46999998093E+01 0. -1.
       -5    1    3    3    0  502  0.40264955417E+03  0.11630795200E+04  0.14367670076E+03  0.12391713835E+04  0.46999998093E+01 0.  1.
</event>
<event>
 5   0  0.1015327E-05  0.2482656E+04  0.7818609E-02  0.8409191E-01
       -1   -1    0    0    0  501  0.00000000000E+00  0.00000000000E+00  0.62993494097E+03  0.62993494100E+03  0.50400001928E-02 0.  1.
        1   -1    0    0  501    0  0.00000000000E+00  0.00000000000E+00 -0.24461170885E+04  0.24461170885E+04  0.50400001928E-02 0. -1.
    10030    2    1    2    0    0  0.00000000000E+00  0.00000000000E+00 -0.18161821476E+04  0.30760520295E+04  0.24826555329E+04 0.  0.
        4    1    3    3  502    0  0.10444924664E+04 -0.23028015998E+03 -0.12751090635E+03  0.10771509219E+04  0.12699999809E+01 0.  1.
       -4    1    3    3    0  502 -0.10444924664E+04  0.23028015998E+03 -0.16886712412E+04  0.19989011076E+04  0.12699999809E+01 0. -1.
</event>
<event>
 5   0  0.1002753E-05  0.2516243E+04  0.7818609E-02  0.8397222E-01
       -1   -1    0    0    0  501  0.00000000000E+00  0.00000000000E+00  0.90210291024E+03  0.90210291025E+03  0.50400001928E-02 0. -1.
        1   -1    0    0  501    0  0.00000000000E+00  0.00000000000E+00 -0.17546439238E+04  0.17546439238E+04  0.50400001928E-02 0.  1.
    10030    2    1    2    0    0  0.00000000000E+00  0.00000000000E+00 -0.85254101357E+03  0.26567468341E+04  0.25162427467E+04 0.  0.
        5    1    3    3  502    0 -0.90367617210E+03  0.45337757899E+03  0.36431624371E+03  0.10746768205E+04  0.46999998093E+01 0. -1.
       -5    1    3    3    0  502  0.90367617210E+03 -0.45337757899E+03 -0.12168572573E+04  0.15820700135E+04  0.46999998093E+01 0.  1.
</event>
<event>
 5   0  0.1039688E-05  0.2434322E+04  0.7818609E-02  0.8426764E-01
       -1   -1    0    0    0  501  0.00000000000E+00  0.00000000000E+00  0.56845182904E+03  0.56845182907E+03  0.50400001928E-02 0. -1.
        1   -1    0    0  501    0  0.00000000000E+00  0.00000000000E+00 -0.26061686640E+04  0.26061686640E+04  0.50400001928E-02 0.  1.
    10030    2    1    2    0    0  0.00000000000E+00  0.00000000000E+00 -0.20377168349E+04  0.31746204930E+04  0.24343223647E+04 0.  0.
        3    1    3    3  502    0 -0.76437225929E+03  0.47581153442E+03  0.49253232410E+02  0.90171362314E+03  0.10100000352E+00 0. -1.
       -3    1    3    3    0  502  0.76437225929E+03 -0.47581153442E+03 -0.20869700673E+04  0.22729068699E+04  0.10100000352E+00 0.  1.
</event>
<event>
 5   0  0.1002753E-05  0.2572633E+04  0.7818609E-02  0.8377557E-01
       -1   -1    0    0    0  501  0.00000000000E+00  0.00000000000E+00  0.91630183162E+03  0.91630183163E+03  0.50400001928E-02 0.  1.
        1   -1    0    0  501    0  0.00000000000E+00  0.00000000000E+00 -0.18057482478E+04  0.18057482478E+04  0.50400001928E-02 0. -1.
    10030    2    1    2    0    0  0.00000000000E+00  0.00000000000E+00 -0.88944641618E+03  0.27220500794E+04  0.25726332245E+04 0.  0.
        5    1    3    3  502    0 -0.38412892310E+03  0.97953737776E+01 -0.17435936585E+04  0.17854388578E+04  0.46999998093E+01 0. -1.
       -5    1    3    3    0  502  0.38412892310E+03 -0.97953737776E+01  0.85414724234E+03  0.93661122164E+03  0.46999998093E+01 0.  1.
</event>
<event>
 5   0  0.2388326E-05  0.2508579E+04  0.7818609E-02  0.8399936E-01
        2   -1    0    0  501    0  0.00000000000E+00  0.00000000000E+00  0.11217299021E+04  0.11217299021E+04  0.25500000920E-02 0.  1.
       -2   -1    0    0    0  501  0.00000000000E+00  0.00000000000E+00 -0.14025141243E+04  0.14025141243E+04  0.25500000920E-02 0. -1.
    10030    2    1    2    0    0  0.00000000000E+00  0.00000000000E+00 -0.28078422218E+03  0.25242440265E+04  0.25085789056E+04 0.  0.
        2    1    3    3  502    0  0.70797912663E+03 -0.80317653665E+03 -0.79785962383E+03  0.13352553958E+04  0.25500000920E-02 0. -1.
       -2    1    3    3    0  502 -0.70797912663E+03  0.80317653665E+03  0.51707540165E+03  0.11889886306E+04  0.25500000920E-02 0.  1.
</event>
<event>
 5   0  0.2441340E-05  0.2454645E+04  0.7818609E-02  0.8419324E-01
       -2   -1    0    0    0  501  0.00000000000E+00  0.00000000000E+00  0.13240868227E+04  0.13240868227E+04  0.25500000920E-02 0.  1.
        2   -1    0    0  501    0  0.00000000000E+00  0.00000000000E+00 -0.11376301702E+04  0.11376301702E+04  0.25500000920E-02 0. -1.
    10030    2    1    2    0    0  0.00000000000E+00  0.00000000000E+00  0.18645665250E+03  0.24617169930E+04  0.24546454877E+04 0.  0.
        3    1    3    3  502    0  0.89668999658E+03 -0.65157409719E+03 -0.43528071132E+03  0.11908278893E+04  0.10100000352E+00 0. -1.
       -3    1    3    3    0  502 -0.89668999658E+03  0.65157409719E+03  0.62173736382E+03  0.12708891037E+04  0.10100000352E+00 0.  1.
</event>
<event>
 5   0  0.2441340E-05  0.2487885E+04  0.7818609E-02  0.8407314E-01
        2   -1    0    0  501    0  0.00000000000E+00  0.00000000000E+00  0.99694655431E+03  0.99694655432E+03  0.25500000920E-02 0.  1.
       -2   -1    0    0    0  501  0.00000000000E+00  0.00000000000E+00 -0.15521326112E+04  0.15521326112E+04  0.25500000920E-02 0. -1.
    10030    2    1    2    0    0  0.00000000000E+00  0.00000000000E+00 -0.55518605692E+03  0.25490791656E+04  0.24878852535E+04 0.  0.
        3    1    3    3  502    0 -0.18665579469E+03  0.78096443910E+03  0.69585337984E+03  0.10625242478E+04  0.10100000352E+00 0.  1.
       -3    1    3    3    0  502  0.18665579469E+03 -0.78096443910E+03 -0.12510394368E+04  0.14865549177E+04  0.10100000352E+00 0. -1.
</event>
<event>
 5   0  0.1010338E-05  0.2486560E+04  0.7818609E-02  0.8407789E-01
        1   -1    0    0  501    0  0.00000000000E+00  0.00000000000E+00  0.21370531627E+04  0.21370531627E+04  0.50400001928E-02 0.  1.
       -1   -1    0    0    0  501  0.00000000000E+00  0.00000000000E+00 -0.72330685676E+03  0.72330685678E+03  0.50400001928E-02 0. -1.
    10030    2    1    2    0    0  0.00000000000E+00  0.00000000000E+00  0.14137463059E+04  0.28603600194E+04  0.24865600382E+04 0.  0.
        2    1    3    3  502    0  0.71914211914E+03  0.20258643251E+03 -0.43626515713E+03  0.86517855815E+03  0.25500000920E-02 0. -1.
       -2    1    3    3    0  502 -0.71914211914E+03 -0.20258643251E+03  0.18500114630E+04  0.19951814613E+04  0.25500000920E-02 0.  1.
</event>
<event>
 5   0  0.2432309E-05  0.2437002E+04  0.7818609E-02  0.8425779E-01
       -2   -1    0    0    0  501  0.00000000000E+00  0.00000000000E+00  0.10332142288E+04  0.10332142288E+04  0.25500000920E-02 0. -1.
        2   -1    0    0  501    0  0.00000000000E+00  0.00000000000E+00 -0.14370157058E+04  0.14370157058E+04  0.25500000920E-02 0.  1.
    10030    2    1    2    0    0  0.00000000000E+00  0.00000000000E+00 -0.40380147697E+03  0.24702299347E+04  0.24370023179E+04 0.  0.
        4    1    3    3  502    0 -0.84579536740E+03 -0.44674744756E+03 -0.96703736672E+03  0.13601896805E+04  0.12699999809E+01 0.  1.
       -4    1    3    3    0  502  0.84579536740E+03  0.44674744756E+03  0.56323588975E+03  0.11100402541E+04  0.12699999809E+01 0. -1.
</event>
<event>
 5   0  0.2441340E-05  0.2468885E+04  0.7818609E-02  0.8414155E-01
        2   -1    0    0  501    0  0.00000000000E+00  0.00000000000E+00  0.11418623713E+04  0.11418623713E+04  0.25500000920E-02 0.  1.
       -2   -1    0    0    0  501  0.00000000000E+00  0.00000000000E+00 -0.13345284617E+04  0.13345284617E+04  0.25500000920E-02 0. -1.
    10030    2    1    2    0    0  0.00000000000E+00  0.00000000000E+00 -0.19266609042E+03  0.24763908330E+04  0.24688846338E+04 0.  0.
        3    1    3    3  502    0 -0.49085058459E+03  0.11282334986E+04  0.39845257615E+01  0.12303905926E+04  0.10100000352E+00 0.  1.
       -3    1    3    3    0  502  0.49085058459E+03 -0.11282334986E+04 -0.19665061618E+03  0.12460002403E+04  0.10100000352E+00 0. -1.
</event>
<event>
 5   0  0.2441340E-05  0.2495302E+04  0.7818609E-02  0.8404661E-01
        2   -1    0    0  501    0  0.00000000000E+00  0.00000000000E+00  0.20040562956E+04  0.20040562956E+04  0.25500000920E-02 0. -1.
       -2   -1    0    0    0  501  0.00000000000E+00  0.00000000000E+00 -0.77674105557E+03  0.77674105558E+03  0.25500000920E-02 0.  1.
    10030    2    1    2    0    0  0.00000000000E+00  0.00000000000E+00  0.12273152401E+04  0.27807973512E+04  0.24953018274E+04 0.  0.
        3    1    3    3  502    0 -0.10061166986E+03  0.68597946214E+03 -0.54229687908E+03  0.88021386370E+03  0.10100000352E+00 0.  1.
       -3    1    3    3    0  502  0.10061166986E+03 -0.68597946214E+03  0.17696121191E+04  0.19005834875E+04  0.10100000352E+00 0. -1.
</event>
<event>
 5   0  0.2441340E-05  0.2533831E+04  0.7818609E-02  0.8391031E-01
       -2   -1    0    0    0  501  0.00000000000E+00  0.00000000000E+00  0.11218325925E+04  0.11218325925E+04  0.25500000920E-02 0. -1.
        2   -1    0    0  501    0  0.00000000000E+00  0.00000000000E+00 -0.14307614474E+04  0.14307614474E+04  0.25500000920E-02 0.  1.
    10030    2    1    2    0    0  0.00000000000E+00  0.00000000000E+00 -0.30892885496E+03  0.25525940399E+04  0.25338309524E+04 0.  0.
        3    1    3    3  502    0  0.48467718015E+03  0.10579617703E+04  0.35012355967E+03  0.12152290292E+04  0.10100000352E+00 0. -1.
       -3    1    3    3    0  502 -0.48467718015E+03 -0.10579617703E+04 -0.65905241464E+03  0.13373650107E+04  0.10100000352E+00 0.  1.
</event>
<event>
 5   0  0.2345143E-05  0.2495579E+04  0.7818609E-02  0.8404562E-01
        2   -1    0    0  501    0  0.00000000000E+00  0.00000000000E+00  0.16261737962E+04  0.16261737962E+04  0.25500000920E-02 0.  1.
       -2   -1    0    0    0  501  0.00000000000E+00  0.00000000000E+00 -0.95744887682E+03  0.95744887682E+03  0.25500000920E-02 0. -1.
    10030    2    1    2    0    0  0.00000000000E+00  0.00000000000E+00  0.66872491939E+03  0.25836226730E+04  0.24955787102E+04 0.  0.
        5    1    3    3  502    0 -0.13596099286E+03 -0.12341120246E+04  0.20572791710E+03  0.12585165659E+04  0.46999998093E+01 0. -1.
       -5    1    3    3    0  502  0.13596099286E+03  0.12341120246E+04  0.46299700229E+03  0.13251061071E+04  0.46999998093E+01 0.  1.
</event>
<event>
 5   0  0.1039688E-05  0.2462948E+04  0.7818609E-02  0.8416306E-01
       -1   -1    0    0    0  501  0.00000000000E+00  0.00000000000E+00  0.10104312268E+04  0.10104312268E+04  0.50400001928E-02 0.  1.
        1   -1    0    0  501    0  0.00000000000E+00  0.00000000000E+00 -0.15008718161E+04  0.15008718161E+04  0.50400001928E-02 0. -1.
    10030    2    1    2    0    0  0.00000000000E+00  0.00000000000E+00 -0.49044058928E+03  0.25113030429E+04  0.24629476247E+04 0.  0.
        3    1    3    3  502    0 -0.22513851678E+03 -0.95058923184E+03  0.51931455260E+03  0.11063430093E+04  0.10100000352E+00 0.  1.
       -3    1    3    3    0  502  0.22513851678E+03  0.95058923184E+03 -0.10097551419E+04  0.14049600337E+04  0.10100000352E+00 0. -1.
</event>
<event>
 5   0  0.1010338E-05  0.2517419E+04  0.7818609E-02  0.8396806E-01
       -1   -1    0    0    0  501  0.00000000000E+00  0.00000000000E+00  0.59682235894E+03  0.59682235896E+03  0.50400001928E-02 0.  1.
        1   -1    0    0  501    0  0.00000000000E+00  0.00000000000E+00 -0.26546423363E+04  0.26546423363E+04  0.50400001928E-02 0. -1.
    10030    2    1    2    0    0  0.00000000000E+00  0.00000000000E+00 -0.20578199773E+04  0.32514646952E+04  0.25174192351E+04 0.  0.
        2    1    3    3  502    0  0.88816650722E+03 -0.49737236260E+03 -0.72672787953E+02  0.10205392426E+04  0.25500000920E-02 0.  1.
       -2    1    3    3    0  502 -0.88816650722E+03  0.49737236260E+03 -0.19851471894E+04  0.22309254526E+04  0.25500000920E-02 0. -1.
</event>
<event>
 5   0  0.1015327E-05  0.2181432E+04  0.7818609E-02  0.8526196E-01
        1   -1    0    0  501    0  0.00000000000E+00  0.00000000000E+00  0.65238886656E+03  0.65238886658E+03  0.50400001928E-02 0. -1.
       -1   -1    0    0    0  501  0.00000000000E+00  0.00000000000E+00 -0.18235472539E+04  0.18235472539E+04  0.50400001928E-02 0.  1.
    10030    2    1    2    0    0  0.00000000000E+00  0.00000000000E+00 -0.11711583873E+04  0.24759361205E+04  0.21814324891E+04 0.  0.
        4    1    3    3  502    0 -0.65339317304E+02  0.69793146587E+03  0.36286835243E+03  0.78933681755E+03  0.12699999809E+01 0. -1.
       -4    1    3    3    0  502  0.65339317304E+02 -0.69793146587E+03 -0.15340267398E+04  0.16865993029E+04  0.12699999809E+01 0.  1.
</event>
<event>
 5   0  0.2441340E-05  0.2500153E+04  0.7818609E-02  0.8402931E-01
        2   -1    0    0  501    0  0.00000000000E+00  0.00000000000E+00  0.16140689021E+04  0.16140689021E+04  0.25500000920E-02 0.  1.
       -2   -1    0    0    0  501  0.00000000000E+00  0.00000000000E+00 -0.96816896153E+03  0.96816896154E+03  0.25500000920E-02 0. -1.
    10030    2    1    2    0    0  0.00000000000E+00  0.00000000000E+00  0.64589994061E+03  0.25822378637E+04  0.25001531256E+04 0.  0.
        3    1    3    3  502    0  0.12267855938E+04 -0.12268262360E+03  0.53621783334E+03  0.13444640175E+04  0.10100000352E+00 0. -1.
       -3    1    3    3    0  502 -0.12267855938E+04  0.12268262360E+03  0.10968210728E+03  0.12377738462E+04  0.10100000352E+00 0.  1.
</event>
<event>
 5   0  0.2441340E-05  0.2482058E+04  0.7818609E-02  0.8409405E-01
       -2   -1    0    0    0  501  0.00000000000E+00  0.00000000000E+00  0.10032359033E+04  0.10032359033E+04  0.25500000920E-02 0. -1.
        2   -1    0    0  501    0  0.00000000000E+00  0.00000000000E+00 -0.15351852700E+04  0.15351852701E+04  0.25500000920E-02 0.  1.
    10030    2    1    2    0    0  0.00000000000E+00  0.00000000000E+00 -0.53194936674E+03  0.25384211734E+04  0.24820580019E+04 0.  0.
        3    1    3    3  502    0  0.11265658802E+04  0.49062663385E+03 -0.44396057643E+03  0.13065091580E+04  0.10100000352E+00 0. -1.
       -3    1    3    3    0  502 -0.11265658802E+04 -0.49062663385E+03 -0.87988790305E+02  0.12319120154E+04  0.10100000352E+00 0.  1.
</event>
<event>
 5   0  0.2452457E-05  0.2463691E+04  0.7818609E-02  0.8416036E-01
        2   -1    0    0  501    0  0.00000000000E+00  0.00000000000E+00  0.15145745950E+04  0.15145745950E+04  0.25500000920E-02 0. -1.
       -2   -1    0    0    0  501  0.00000000000E+00  0.00000000000E+00 -0.10018939434E+04  0.10018939434E+04  0.25500000920E-02 0.  1.
    10030    2    1    2    0    0  0.00000000000E+00  0.00000000000E+00  0.51268065166E+03  0.25164685384E+04  0.24636908195E+04 0.  0.
        1    1    3    3  502    0  0.37551589505E+03 -0.98113282905E+03  0.91340092020E+03  0.13920973589E+04  0.50400001928E-02 0.  1.
       -1    1    3    3    0  502 -0.37551589505E+03  0.98113282905E+03 -0.40072026854E+03  0.11243711795E+04  0.50400001928E-02 0. -1.
</event>
<event>
 5   0  0.1008073E-05  0.2487990E+04  0.7818609E-02  0.8407277E-01
       -1   -1    0    0    0  501  0.00000000000E+00  0.00000000000E+00  0.13701353667E+04  0.13701353667E+04  0.50400001928E-02 0. -1.
        1   -1    0    0  501    0  0.00000000000E+00  0.00000000000E+00 -0.11294676396E+04  0.11294676396E+04  0.50400001928E-02 0.  1.
    10030    2    1    2    0    0  0.00000000000E+00  0.00000000000E+00  0.24066772708E+03  0.24996030063E+04  0.24879899988E+04 0.  0.
        1    1    3    3  502    0 -0.65494108334E+03 -0.39415392640E+03  0.11063517593E+04  0.13447376531E+04  0.50400001928E-02 0. -1.
       -1    1    3    3    0  502  0.65494108334E+03  0.39415392640E+03 -0.86568403223E+03  0.11548653532E+04  0.50400001928E-02 0.  1.
</event>
<event>
 5   0  0.2388326E-05  0.2508508E+04  0.7818609E-02  0.8399961E-01
       -2   -1    0    0    0  501  0.00000000000E+00  0.00000000000E+00  0.89462055049E+03  0.89462055050E+03  0.25500000920E-02 0.  1.
        2   -1    0    0  501    0  0.00000000000E+00  0.00000000000E+00 -0.17584584712E+04  0.17584584712E+04  0.25500000920E-02 0. -1.
    10030    2    1    2    0    0  0.00000000000E+00  0.00000000000E+00 -0.86383792067E+03  0.26530790217E+04  0.25085079912E+04 0.  0.
        2    1    3    3  502    0  0.30354956888E+03 -0.96793201416E+03  0.34823692162E+03  0.10725221109E+04  0.25500000920E-02 0.  1.
       -2    1    3    3    0  502 -0.30354956888E+03  0.96793201416E+03 -0.12120748423E+04  0.15805569107E+04  0.25500000920E-02 0. -1.
</event>
<event>
 5   0  0.2441340E-05  0.2414188E+04  0.7818609E-02  0.8434211E-01
       -2   -1    0    0    0  501  0.00000000000E+00  0.00000000000E+00  0.62895080644E+03  0.62895080644E+03  0.25500000920E-02 0.  1.
        2   -1    0    0  501    0  0.00000000000E+00  0.00000000000E+00 -0.23166766345E+04  0.23166766345E+04  0.25500000920E-02 0. -1.
    10030    2    1    2    0    0  0.00000000000E+00  0.00000000000E+00 -0.16877258281E+04  0.29456274409E+04  0.24141877620E+04 0.  0.
        3    1    3    3  502    0 -0.59463392527E+03  0.33617795045E+03 -0.20581672540E+04  0.21685611763E+04  0.10100000352E+00 0. -1.
       -3    1    3    3    0  502  0.59463392527E+03 -0.33617795045E+03  0.37044142596E+03  0.77706626468E+03  0.10100000352E+00 0.  1.
</event>
<event>
 5   0  0.1008073E-05  0.2501347E+04  0.7818609E-02  0.8402506E-01
       -1   -1    0    0    0  501  0.00000000000E+00  0.00000000000E+00  0.65524521812E+03  0.65524521814E+03  0.50400001928E-02 0.  1.
        1   -1    0    0  501    0  0.00000000000E+00  0.00000000000E+00 -0.23871740691E+04  0.23871740691E+04  0.50400001928E-02 0. -1.
    10030    2    1    2    0    0  0.00000000000E+00  0.00000000000E+00 -0.17319288509E+04  0.30424192872E+04  0.25013471519E+04 0.  0.
        1    1    3    3  502    0  0.77341539806E+03 -0.82561633818E+03 -0.21734865753E+03  0.11519783656E+04  0.50400001928E-02 0.  1.
       -1    1    3    3    0  502 -0.77341539806E+03  0.82561633818E+03 -0.15145801934E+04  0.18904409216E+04  0.50400001928E-02 0. -1.
</event>
<event>
 5   0  0.2432309E-05  0.2511391E+04  0.7818609E-02  0.8398938E-01
        2   -1    0    0  501    0  0.00000000000E+00  0.00000000000E+00  0.14562255841E+04  0.14562255841E+04  0.25500000920E-02 0. -1.
       -2   -1    0    0    0  501  0.00000000000E+00  0.00000000000E+00 -0.10827798932E+04  0.10827798932E+04  0.25500000920E-02 0.  1.
    10030    2    1    2    0    0  0.00000000000E+00  0.00000000000E+00  0.37344569094E+03  0.25390054773E+04  0.25113914728E+04 0.  0.
        4    1    3    3  502    0  0.40470716372E+02 -0.65468291171E+03  0.12692543088E+04  0.14287252035E+04  0.12699999809E+01 0. -1.
       -4    1    3    3    0  502 -0.40470716372E+02  0.65468291171E+03 -0.89580861783E+03  0.11102802738E+04  0.12699999809E+01 0.  1.
</event>
<event>
 5   0  0.8166500E-06  0.2545651E+04  0.7818609E-02  0.8386900E-01
       -3   -1    0    0    0  501  0.00000000000E+00  0.00000000000E+00  0.11059605225E+04  0.11059605271E+04  0.10100000352E+00 0.  1.
        3   -1    0    0  501    0  0.00000000000E+00  0.00000000000E+00 -0.14648672501E+04  0.14648672536E+04  0.10100000352E+00 0. -1.
    10030    2    1    2    0    0  0.00000000000E+00  0.00000000000E+00 -0.35890672757E+03  0.25708277807E+04  0.25456514763E+04 0.  0.
        3    1    3    3  502    0  0.43178259795E+03  0.57497309321E+01  0.10297252891E+04  0.11166035342E+04  0.10100000352E+00 0.  1.
       -3    1    3    3    0  502 -0.43178259795E+03 -0.57497309321E+01 -0.13886320167E+04  0.14542242465E+04  0.10100000352E+00 0. -1.
</event>
<event>
 5   0  0.2345143E-05  0.2485978E+04  0.7818609E-02  0.8407998E-01
       -2   -1    0    0    0  501  0.00000000000E+00  0.00000000000E+00  0.58303908972E+03  0.58303908972E+03  0.25500000920E-02 0. -1.
        2   -1    0    0  501    0  0.00000000000E+00  0.00000000000E+00 -0.26499447551E+04  0.26499447551E+04  0.25500000920E-02 0.  1.
    10030    2    1    2    0    0  0.00000000000E+00  0.00000000000E+00 -0.20669056654E+04  0.32329838449E+04  0.24859777777E+04 0.  0.
        5    1    3    3  502    0 -0.60470028778E+02 -0.16892007954E+03  0.56609891527E+03  0.59386925288E+03  0.46999998093E+01 0. -1.
       -5    1    3    3    0  502  0.60470028778E+02  0.16892007954E+03 -0.26330045807E+04  0.26391145920E+04  0.46999998093E+01 0.  1.
</event>
<event>
 5   0  0.2432309E-05  0.2483102E+04  0.7818609E-02  0.8409031E-01
       -2   -1    0    0    0  501  0.00000000000E+00  0.00000000000E+00  0.10012185161E+04  0.10012185161E+04  0.25500000920E-02 0. -1.
        2   -1    0    0  501    0  0.00000000000E+00  0.00000000000E+00 -0.15395722974E+04  0.15395722974E+04  0.25500000920E-02 0.  1.
    10030    2    1    2    0    0  0.00000000000E+00  0.00000000000E+00 -0.53835378131E+03  0.25407908135E+04  0.24831015211E+04 0.  0.
        4    1    3    3  502    0 -0.11966119993E+04 -0.19756761829E+03 -0.54092839643E+03  0.13279752948E+04  0.12699999809E+01 0. -1.
       -4    1    3    3    0  502  0.11966119993E+04  0.19756761829E+03  0.25746151174E+01  0.12128155186E+04  0.12699999809E+01 0.  1.
</event>
<event>
 5   0  0.2441340E-05  0.2467955E+04  0.7818609E-02  0.8414492E-01
        2   -1    0    0  501    0  0.00000000000E+00  0.00000000000E+00  0.16990965432E+04  0.16990965432E+04  0.25500000920E-02 0. -1.
       -2   -1    0    0    0  501  0.00000000000E+00  0.00000000000E+00 -0.89618228610E+03  0.89618228610E+03  0.25500000920E-02 0.  1.
    10030    2    1    2    0    0  0.00000000000E+00  0.00000000000E+00  0.80291425714E+03  0.25952788293E+04  0.24679548006E+04 0.  0.
        3    1    3    3  502    0 -0.79857827771E+03  0.94054471152E+03  0.38182321299E+03  0.12915651730E+04  0.10100000352E+00 0.  1.
       -3    1    3    3    0  502  0.79857827771E+03 -0.94054471152E+03  0.42109104414E+03  0.13037136563E+04  0.10100000352E+00 0. -1.
</event>
<event>
 5   0  0.2441340E-05  0.2596282E+04  0.7818609E-02  0.8369465E-01
       -2   -1    0    0    0  501  0.00000000000E+00  0.00000000000E+00  0.70220501877E+03  0.70220501877E+03  0.25500000920E-02 0. -1.
        2   -1    0    0  501    0  0.00000000000E+00  0.00000000000E+00 -0.23998266124E+04  0.23998266124E+04  0.25500000920E-02 0.  1.
    10030    2    1    2    0    0  0.00000000000E+00  0.00000000000E+00 -0.16976215936E+04  0.31020316312E+04  0.25962821814E+04 0.  0.
        3    1    3    3  502    0  0.10652935778E+04 -0.72031830593E+03 -0.10607364050E+04  0.16669944810E+04  0.10100000352E+00 0. -1.
       -3    1    3    3    0  502 -0.10652935778E+04  0.72031830593E+03 -0.63688518870E+03  0.14350371502E+04  0.10100000352E+00 0.  1.
</event>
<event>
 5   0  0.2432309E-05  0.2488102E+04  0.7818609E-02  0.8407236E-01
        2   -1    0    0  501    0  0.00000000000E+00  0.00000000000E+00  0.21443732314E+04  0.21443732314E+04  0.25500000920E-02 0. -1.
       -2   -1    0    0    0  501  0.00000000000E+00  0.00000000000E+00 -0.72173213009E+03  0.72173213010E+03  0.25500000920E-02 0.  1.
    10030    2    1    2    0    0  0.00000000000E+00  0.00000000000E+00  0.14226411013E+04  0.28661053615E+04  0.24881021362E+04 0.  0.
        4    1    3    3  502    0  0.79708732228E+03  0.63674206657E+03  0.15314330589E+04  0.18401297469E+04  0.12699999809E+01 0. -1.
       -4    1    3    3    0  502 -0.79708732228E+03 -0.63674206657E+03 -0.10879195765E+03  0.10259756145E+04  0.12699999809E+01 0.  1.
</event>
<event>
 5   0  0.2441340E-05  0.2484819E+04  0.7818609E-02  0.8408414E-01
        2   -1    0    0  501    0  0.00000000000E+00  0.00000000000E+00  0.10129493650E+04  0.10129493650E+04  0.25500000920E-02 0.  1.
       -2   -1    0    0    0  501  0.00000000000E+00  0.00000000000E+00 -0.15238490224E+04  0.15238490224E+04  0.25500000920E-02 0. -1.
    10030    2    1    2    0    0  0.00000000000E+00  0.00000000000E+00 -0.51089965736E+03  0.25367983874E+04  0.24848194298E+04 0.  0.
        3    1    3    3  502    0 -0.12784073141E+03  0.94229213577E+01  0.10061799897E+04  0.10143126864E+04  0.10100000352E+00 0.  1.
       -3    1    3    3    0  502  0.12784073141E+03 -0.94229213577E+01 -0.15170796470E+04  0.15224857010E+04  0.10100000352E+00 0. -1.
</event>
<event>
 5   0  0.1002753E-05  0.2507595E+04  0.7818609E-02  0.8400285E-01
        1   -1    0    0  501    0  0.00000000000E+00  0.00000000000E+00  0.19887443625E+04  0.19887443625E+04  0.50400001928E-02 0.  1.
       -1   -1    0    0    0  501  0.00000000000E+00  0.00000000000E+00 -0.79045254419E+03  0.79045254421E+03  0.50400001928E-02 0. -1.
    10030    2    1    2    0    0  0.00000000000E+00  0.00000000000E+00  0.11982918183E+04  0.27791969067E+04  0.25075948964E+04 0.  0.
        5    1    3    3  502    0  0.35866725367E+03  0.11832987041E+04  0.36892650843E+03  0.12903359565E+04  0.46999998093E+01 0. -1.
       -5    1    3    3    0  502 -0.35866725367E+03 -0.11832987041E+04  0.82936530985E+03  0.14888609502E+04  0.46999998093E+01 0.  1.
</event>
<event>
 5   0  0.2452457E-05  0.2777005E+04  0.7818609E-02  0.8310443E-01
        2   -1    0    0  501    0  0.00000000000E+00  0.00000000000E+00  0.13609586994E+04  0.13609586994E+04  0.25500000920E-02 0.  1.
       -2   -1    0    0    0  501  0.00000000000E+00  0.00000000000E+00 -0.14166033032E+04  0.14166033032E+04  0.25500000920E-02 0. -1.
    10030    2    1    2    0    0  0.00000000000E+00  0.00000000000E+00 -0.55644603798E+02  0.27775620026E+04  0.27770045655E+04 0.  0.
        1    1    3    3  502    0 -0.12850662770E+03 -0.34368248534E+03 -0.13672352367E+04  0.14156142824E+04  0.50400001928E-02 0. -1.
       -1    1    3    3    0  502  0.12850662770E+03  0.34368248534E+03  0.13115906329E+04  0.13619477202E+04  0.50400001928E-02 0.  1.
</event>
<event>
 5   0  0.1039688E-05  0.2504058E+04  0.7818609E-02  0.8401541E-01
        1   -1    0    0  501    0  0.00000000000E+00  0.00000000000E+00  0.18802765264E+04  0.18802765264E+04  0.50400001928E-02 0.  1.
       -1   -1    0    0    0  501  0.00000000000E+00  0.00000000000E+00 -0.83369455500E+03  0.83369455501E+03  0.50400001928E-02 0. -1.
    10030    2    1    2    0    0  0.00000000000E+00  0.00000000000E+00  0.10465819714E+04  0.27139710815E+04  0.25040577485E+04 0.  0.
        3    1    3    3  502    0 -0.34395498392E+03  0.10572233044E+04 -0.10078214828E+03  0.11163257580E+04  0.10100000352E+00 0. -1.
       -3    1    3    3    0  502  0.34395498392E+03 -0.10572233044E+04  0.11473641197E+04  0.15976453235E+04  0.10100000352E+00 0.  1.
</event>
<event>
 5   0  0.2432309E-05  0.2360080E+04  0.7818609E-02  0.8454602E-01
        2   -1    0    0  501    0  0.00000000000E+00  0.00000000000E+00  0.15071873474E+04  0.15071873474E+04  0.25500000920E-02 0.  1.
       -2   -1    0    0    0  501  0.00000000000E+00  0.00000000000E+00 -0.92390294666E+03  0.92390294666E+03  0.25500000920E-02 0. -1.
    10030    2    1    2    0    0  0.00000000000E+00  0.00000000000E+00  0.58328440072E+03  0.24310902940E+04  0.23600803642E+04 0.  0.
        4    1    3    3  502    0 -0.16467504493E+03  0.28006693786E+03  0.14602077702E+04  0.14959156745E+04  0.12699999809E+01 0.  1.
       -4    1    3    3    0  502  0.16467504493E+03 -0.28006693786E+03 -0.87692336952E+03  0.93517461953E+03  0.12699999809E+01 0. -1.
</event>
<event>
 5   0  0.2432309E-05  0.2525450E+04  0.7818609E-02  0.8393975E-01
        2   -1    0    0  501    0  0.00000000000E+00  0.00000000000E+00  0.79464231073E+03  0.79464231073E+03  0.25500000920E-02 0. -1.
       -2   -1    0    0    0  501  0.00000000000E+00  0.00000000000E+00 -0.20065305244E+04  0.20065305244E+04  0.25500000920E-02 0.  1.
    10030    2    1    2    0    0  0.00000000000E+00  0.00000000000E+00 -0.12118882137E+04  0.28011728351E+04  0.25254497045E+04 0.  0.
        4    1    3    3  502    0  0.85639638858E+03  0.83991247640E+03 -0.16840937471E+03  0.12112931407E+04  0.12699999809E+01 0. -1.
       -4    1    3    3    0  502 -0.85639638858E+03 -0.83991247640E+03 -0.10434788390E+04  0.15898796944E+04  0.12699999809E+01 0.  1.
</event>
<event>
 5   0  0.2432309E-05  0.2501385E+04  0.7818609E-02  0.8402492E-01
        2   -1    0    0  501    0  0.00000000000E+00  0.00000000000E+00  0.16793786347E+04  0.16793786347E+04  0.25500000920E-02 0. -1.
       -2   -1    0    0    0  501  0.00000000000E+00  0.00000000000E+00 -0.93143495569E+03  0.93143495569E+03  0.25500000920E-02 0.  1.
    10030    2    1    2    0    0  0.00000000000E+00  0.00000000000E+00  0.74794367899E+03  0.26108135904E+04  0.25013851876E+04 0.  0.
        4    1    3    3  502    0 -0.12216186018E+04  0.22511284327E+03  0.52595285699E+03  0.13489461891E+04  0.12699999809E+01 0. -1.
       -4    1    3    3    0  502  0.12216186018E+04 -0.22511284327E+03  0.22199082200E+03  0.12618674013E+04  0.12699999809E+01 0.  1.
</event>
<event>
 5   0  0.2452457E-05  0.2500527E+04  0.7818609E-02  0.8402798E-01
       -2   -1    0    0    0  501  0.00000000000E+00  0.00000000000E+00  0.85926603227E+03  0.85926603227E+03  0.25500000920E-02 0.  1.
        2   -1    0    0  501    0  0.00000000000E+00  0.00000000000E+00 -0.18191784634E+04  0.18191784634E+04  0.25500000920E-02 0. -1.
    10030    2    1    2    0    0  0.00000000000E+00  0.00000000000E+00 -0.95991243110E+03  0.26784444956E+04  0.25005265527E+04 0.  0.
        1    1    3    3  502    0 -0.54234584017E+03 -0.30837437925E+03 -0.16405260074E+04  0.17551522296E+04  0.50400001928E-02 0. -1.
       -1    1    3    3    0  502  0.54234584017E+03  0.30837437925E+03  0.68061357634E+03  0.92329226600E+03  0.50400001928E-02 0.  1.
</event>
<event>
 5   0  0.1015327E-05  0.2486018E+04  0.7818609E-02  0.8407984E-01
        1   -1    0    0  501    0  0.00000000000E+00  0.00000000000E+00  0.15117233965E+04  0.15117233965E+04  0.50400001928E-02 0.  1.
       -1   -1    0    0    0  501  0.00000000000E+00  0.00000000000E+00 -0.10220593639E+04  0.10220593639E+04  0.50400001928E-02 0. -1.
    10030    2    1    2    0    0  0.00000000000E+00  0.00000000000E+00  0.48966403261E+03  0.25337827603E+04  0.24860177416E+04 0.  0.
        4    1    3    3  502    0 -0.40081887072E+01 -0.55745317429E+03 -0.88750420647E+03  0.10480627064E+04  0.12699999809E+01 0. -1.
       -4    1    3    3    0  502  0.40081887072E+01  0.55745317429E+03  0.13771682391E+04  0.14857200540E+04  0.12699999809E+01 0.  1.
</event>
<event>
 5   0  0.1002753E-05  0.2492148E+04  0.7818609E-02  0.8405788E-01
       -1   -1    0    0    0  501  0.00000000000E+00  0.00000000000E+00  0.84659618156E+03  0.84659618157E+03  0.50400001928E-02 0. -1.
        1   -1    0    0  501    0  0.00000000000E+00  0.00000000000E+00 -0.18340504326E+04  0.18340504326E+04  0.50400001928E-02 0.  1.
    10030    2    1    2    0    0  0.00000000000E+00  0.00000000000E+00 -0.98745425108E+03  0.26806466142E+04  0.24921477429E+04 0.  0.
        5    1    3    3  502    0  0.22646477327E+03  0.11920637078E+04 -0.18877721877E+03  0.12279906780E+04  0.46999998093E+01 0. -1.
       -5    1    3    3    0  502 -0.22646477327E+03 -0.11920637078E+04 -0.79867703230E+03  0.14526559362E+04  0.46999998093E+01 0.  1.
</event>
<event>
 5   0  0.2432309E-05  0.2520875E+04  0.7818609E-02  0.8395586E-01
        2   -1    0    0  501    0  0.00000000000E+00  0.00000000000E+00  0.83717672717E+03  0.83717672717E+03  0.25500000920E-02 0.  1.
       -2   -1    0    0    0  501  0.00000000000E+00  0.00000000000E+00 -0.18976904807E+04  0.18976904808E+04  0.25500000920E-02 0. -1.
    10030    2    1    2    0    0  0.00000000000E+00  0.00000000000E+00 -0.10605137536E+04  0.27348672079E+04  0.25208746941E+04 0.  0.
        4    1    3    3  502    0 -0.58578194661E+03  0.69094134686E+03  0.42059069749E+03  0.99871846958E+03  0.12699999809E+01 0.  1.
       -4    1    3    3    0  502  0.58578194661E+03 -0.69094134686E+03 -0.14811044511E+04  0.17361487383E+04  0.12699999809E+01 0. -1.
</event>
<event>
 5   0  0.2452457E-05  0.2534560E+04  0.7818609E-02  0.8390776E-01
        2   -1    0    0  501    0  0.00000000000E+00  0.00000000000E+00  0.18982106051E+04  0.18982106051E+04  0.25500000920E-02 0.  1.
       -2   -1    0    0    0  501  0.00000000000E+00  0.00000000000E+00 -0.84605910327E+03  0.84605910327E+03  0.25500000920E-02 0. -1.
    10030    2    1    2    0    0  0.00000000000E+00  0.00000000000E+00  0.10521515018E+04  0.27442697084E+04  0.25345598137E+04 0.  0.
        1    1    3    3  502    0  0.25458442247E+02 -0.50636097781E+03  0.17836162448E+04  0.18542751902E+04  0.50400001928E-02 0.  1.
       -1    1    3    3    0  502 -0.25458442247E+02  0.50636097781E+03 -0.73146474299E+03  0.88999451818E+03  0.50400001928E-02 0. -1.
</event>
<event>
 5   0  0.2388326E-05  0.2512798E+04  0.7818609E-02  0.8398440E-01
        2   -1    0    0  501    0  0.00000000000E+00  0.00000000000E+00  0.13351363035E+04  0.13351363035E+04  0.25500000920E-02 0.  1.
       -2   -1    0    0    0  501  0.00000000000E+00  0.00000000000E+00 -0.11823046802E+04  0.11823046802E+04  0.25500000920E-02 0. -1.
    10030    2    1    2    0    0  0.00000000000E+00  0.00000000000E+00  0.15283162332E+03  0.25174409838E+04  0.25127975648E+04 0.  0.
        2    1    3    3  502    0 -0.45968593208E+03 -0.27073017051E+03 -0.10631974877E+04  0.11895355729E+04  0.25500000920E-02 0. -1.
       -2    1    3    3    0  502  0.45968593208E+03  0.27073017051E+03  0.12160291110E+04  0.13279054109E+04  0.25500000920E-02 0.  1.
</event>
<event>
 5   0  0.2345143E-05  0.2493720E+04  0.7818609E-02  0.8405226E-01
        2   -1    0    0  501    0  0.00000000000E+00  0.00000000000E+00  0.83601869689E+03  0.83601869690E+03  0.25500000920E-02 0. -1.
       -2   -1    0    0    0  501  0.00000000000E+00  0.00000000000E+00 -0.18595997810E+04  0.18595997810E+04  0.25500000920E-02 0.  1.
    10030    2    1    2    0    0  0.00000000000E+00  0.00000000000E+00 -0.10235810841E+04  0.26956184779E+04  0.24937202615E+04 0.  0.
        5    1    3    3  502    0  0.61041285935E+03 -0.24976209527E+02 -0.16867181000E+04  0.17939530955E+04  0.46999998093E+01 0.  1.
       -5    1    3    3    0  502 -0.61041285935E+03  0.24976209527E+02  0.66313701593E+03  0.90166538239E+03  0.46999998093E+01 0. -1.
</event>
<event>
 5   0  0.2388326E-05  0.2488711E+04  0.7818609E-02  0.8407018E-01
        2   -1    0    0  501    0  0.00000000000E+00  0.00000000000E+00  0.12770244821E+04  0.12770244821E+04  0.25500000920E-02 0.  1.
       -2   -1    0    0    0  501  0.00000000000E+00  0.00000000000E+00 -0.12125219055E+04  0.12125219055E+04  0.25500000920E-02 0. -1.
    10030    2    1    2    0    0  0.00000000000E+00  0.00000000000E+00  0.64502576661E+02  0.24895463876E+04  0.24887106368E+04 0.  0.
        2    1    3    3  502    0 -0.62824293372E+03  0.41607867102E+03  0.10228411303E+04  0.12704387518E+04  0.25500000920E-02 0.  1.
       -2    1    3    3    0  502  0.62824293372E+03 -0.41607867102E+03 -0.95833855366E+03  0.12191076358E+04  0.25500000920E-02 0. -1.
</event>
<event>
 5   0  0.1039688E-05  0.2501018E+04  0.7818609E-02  0.8402623E-01
       -1   -1    0    0    0  501  0.00000000000E+00  0.00000000000E+00  0.11612071858E+04  0.11612071858E+04  0.50400001928E-02 0.  1.
        1   -1    0    0  501    0  0.00000000000E+00  0.00000000000E+00 -0.13466785985E+04  0.13466785985E+04  0.50400001928E-02 0. -1.
    10030    2    1    2    0    0  0.00000000000E+00  0.00000000000E+00 -0.18547141271E+03  0.25078857844E+04  0.25010180852E+04 0.  0.
        3    1    3    3  502    0  0.11996059192E+04  0.66172386118E+02  0.25511701140E+03  0.12282173446E+04  0.10100000352E+00 0.  1.
       -3    1    3    3    0  502 -0.11996059192E+04 -0.66172386118E+02 -0.44058842411E+03  0.12796684397E+04  0.10100000352E+00 0. -1.
</event>
<event>
 5   0  0.2452457E-05  0.2456029E+04  0.7818609E-02  0.8418820E-01
        2   -1    0    0  501    0  0.00000000000E+00  0.00000000000E+00  0.82497174557E+03  0.82497174557E+03  0.25500000920E-02 0.  1.
       -2   -1    0    0    0  501  0.00000000000E+00  0.00000000000E+00 -0.18279653018E+04  0.18279653018E+04  0.25500000920E-02 0. -1.
    10030    2    1    2    0    0  0.00000000000E+00  0.00000000000E+00 -0.10029935562E+04  0.26529370474E+04  0.24560290925E+04 0.  0.
        1    1    3    3  502    0 -0.35580244748E+03 -0.60924109655E+03 -0.15871916532E+04  0.17369362221E+04  0.50400001928E-02 0. -1.
       -1    1    3    3    0  502  0.35580244748E+03  0.60924109655E+03  0.58419809702E+03  0.91600082530E+03  0.50400001928E-02 0.  1.
</event>
<event>
 5   0  0.1015327E-05  0.2481143E+04  0.7818609E-02  0.8409734E-01
       -1   -1    0    0    0  501  0.00000000000E+00  0.00000000000E+00  0.16524412493E+04  0.16524412493E+04  0.50400001928E-02 0.  1.
        1   -1    0    0  501    0  0.00000000000E+00  0.00000000000E+00 -0.93136005561E+03  0.93136005563E+03  0.50400001928E-02 0. -1.
    10030    2    1    2    0    0  0.00000000000E+00  0.00000000000E+00  0.72108119366E+03  0.25838013049E+04  0.24811431026E+04 0.  0.
        4    1    3    3  502    0 -0.47692922829E+03 -0.22367263162E+03 -0.80910763730E+03  0.96547797311E+03  0.12699999809E+01 0. -1.
       -4    1    3    3    0  502  0.47692922829E+03  0.22367263162E+03  0.15301888310E+04  0.16183233318E+04  0.12699999809E+01 0.  1.
</event>
<event>
 5   0  0.1015327E-05  0.2483913E+04  0.7818609E-02  0.8408739E-01
       -1   -1    0    0    0  501  0.00000000000E+00  0.00000000000E+00  0.59958241658E+03  0.59958241660E+03  0.50400001928E-02 0. -1.
        1   -1    0    0  501    0  0.00000000000E+00  0.00000000000E+00 -0.25725497177E+04  0.25725497177E+04  0.50400001928E-02 0.  1.
    10030    2    1    2    0    0  0.00000000000E+00  0.00000000000E+00 -0.19729673011E+04  0.31721321343E+04  0.24839127010E+04 0.  0.
        4    1    3    3  502    0 -0.82936054474E+03 -0.40092766150E+03  0.77303258518E+02  0.92442377166E+03  0.12699999809E+01 0. -1.
       -4    1    3    3    0  502  0.82936054474E+03  0.40092766150E+03 -0.20502705597E+04  0.22477083627E+04  0.12699999809E+01 0.  1.
</event>
<event>
 5   0  0.2441340E-05  0.2499760E+04  0.7818609E-02  0.8403071E-01
        2   -1    0    0  501    0  0.00000000000E+00  0.00000000000E+00  0.18004318140E+04  0.18004318140E+04  0.25500000920E-02 0.  1.
       -2   -1    0    0    0  501  0.00000000000E+00  0.00000000000E+00 -0.86768063073E+03  0.86768063073E+03  0.25500000920E-02 0. -1.
    10030    2    1    2    0    0  0.00000000000E+00  0.00000000000E+00  0.93275118325E+03  0.26681124447E+04  0.24997598380E+04 0.  0.
        3    1    3    3  502    0 -0.11706643721E+04 -0.33170393273E+03  0.77148996163E+03  0.14407218129E+04  0.10100000352E+00 0. -1.
       -3    1    3    3    0  502  0.11706643721E+04  0.33170393273E+03  0.16126122161E+03  0.12273906318E+04  0.10100000352E+00 0.  1.
</event>
<event>
 5   0  0.2345143E-05  0.2484084E+04  0.7818609E-02  0.8408678E-01
       -2   -1    0    0    0  501  0.00000000000E+00  0.00000000000E+00  0.30980807337E+04  0.30980807337E+04  0.25500000920E-02 0.  1.
        2   -1    0    0  501    0  0.00000000000E+00  0.00000000000E+00 -0.49794317265E+03  0.49794317266E+03  0.25500000920E-02 0. -1.
    10030    2    1    2    0    0  0.00000000000E+00  0.00000000000E+00  0.26001375611E+04  0.35960239064E+04  0.24840838550E+04 0.  0.
        5    1    3    3  502    0 -0.61081676418E+02  0.54814743315E+03 -0.31093094207E+03  0.63316405488E+03  0.46999998093E+01 0. -1.
       -5    1    3    3    0  502  0.61081676418E+02 -0.54814743315E+03  0.29110685031E+04  0.29628598515E+04  0.46999998093E+01 0.  1.
</event>
<event>
 5   0  0.2345143E-05  0.2345966E+04  0.7818609E-02  0.8460015E-01
        2   -1    0    0  501    0  0.00000000000E+00  0.00000000000E+00  0.20641658620E+04  0.20641658620E+04  0.25500000920E-02 0.  1.
       -2   -1    0    0    0  501  0.00000000000E+00  0.00000000000E+00 -0.66655966155E+03  0.66655966156E+03  0.25500000920E-02 0. -1.
    10030    2    1    2    0    0  0.00000000000E+00  0.00000000000E+00  0.13976062004E+04  0.27307255235E+04  0.23459664945E+04 0.  0.
        5    1    3    3  502    0 -0.28624518257E+03 -0.33350459409E+02  0.20223066669E+04  0.20427420059E+04  0.46999998093E+01 0.  1.
       -5    1    3    3    0  502  0.28624518257E+03  0.33350459409E+02 -0.62470046649E+03  0.68798351762E+03  0.46999998093E+01 0. -1.
</event>
<event>
 5   0  0.2452457E-05  0.2490868E+04  0.7818609E-02  0.8406246E-01
        2   -1    0    0  501    0  0.00000000000E+00  0.00000000000E+00  0.18835120818E+04  0.18835120818E+04  0.25500000920E-02 0.  1.
       -2   -1    0    0    0  501  0.00000000000E+00  0.00000000000E+00 -0.82351775877E+03  0.82351775878E+03  0.25500000920E-02 0. -1.
    10030    2    1    2    0    0  0.00000000000E+00  0.00000000000E+00  0.10599943231E+04  0.27070298406E+04  0.24908678393E+04 0.  0.
        1    1    3    3  502    0  0.34543112187E+03  0.49947847037E+03 -0.65170214996E+03  0.89079576481E+03  0.50400001928E-02 0. -1.
       -1    1    3    3    0  502 -0.34543112187E+03 -0.49947847037E+03  0.17116964730E+04  0.18162340758E+04  0.50400001928E-02 0.  1.
</event>
<event>
 5   0  0.1008073E-05  0.2490399E+04  0.7818609E-02  0.8406414E-01
        1   -1    0    0  501    0  0.00000000000E+00  0.00000000000E+00  0.19528978584E+04  0.19528978584E+04  0.50400001928E-02 0. -1.
       -1   -1    0    0    0  501  0.00000000000E+00  0.00000000000E+00 -0.79395922207E+03  0.79395922208E+03  0.50400001928E-02 0.  1.
    10030    2    1    2    0    0  0.00000000000E+00  0.00000000000E+00  0.11589386364E+04  0.27468570805E+04  0.24903985741E+04 0.  0.
        1    1    3    3  502    0 -0.26755691329E+03  0.70759756734E+03 -0.51144330612E+03  0.91315676341E+03  0.50400001928E-02 0.  1.
       -1    1    3    3    0  502  0.26755691329E+03 -0.70759756734E+03  0.16703819425E+04  0.18337003171E+04  0.50400001928E-02 0. -1.
</event>
<event>
 5   0  0.8166500E-06  0.2545123E+04  0.7818609E-02  0.8387084E-01
        3   -1    0    0  501    0  0.00000000000E+00  0.00000000000E+00  0.11034342567E+04  0.11034342613E+04  0.10100000352E+00 0. -1.
       -3   -1    0    0    0  501  0.00000000000E+00  0.00000000000E+00 -0.14676113489E+04  0.14676113524E+04  0.10100000352E+00 0.  1.
    10030    2    1    2    0    0  0.00000000000E+00  0.00000000000E+00 -0.36417709222E+03  0.25710456137E+04  0.25451229034E+04 0.  0.
        3    1    3    3  502    0  0.63197548592E+03  0.11051484772E+03 -0.12922844748E+04  0.14427770862E+04  0.10100000352E+00 0.  1.
       -3    1    3    3    0  502 -0.63197548592E+03 -0.11051484772E+03  0.92810738262E+03  0.11282685275E+04  0.10100000352E+00 0. -1.
</event>
<event>
 5   0  0.2345143E-05  0.2486652E+04  0.7818609E-02  0.8407756E-01
       -2   -1    0    0    0  501  0.00000000000E+00  0.00000000000E+00  0.88537482074E+03  0.88537482075E+03  0.25500000920E-02 0. -1.
        2   -1    0    0  501    0  0.00000000000E+00  0.00000000000E+00 -0.17459943370E+04  0.17459943370E+04  0.25500000920E-02 0.  1.
    10030    2    1    2    0    0  0.00000000000E+00  0.00000000000E+00 -0.86061951624E+03  0.26313691577E+04  0.24866519042E+04 0.  0.
        5    1    3    3  502    0 -0.11289811735E+04 -0.51001805379E+03 -0.31871917833E+03  0.12791875976E+04  0.46999998093E+01 0.  1.
       -5    1    3    3    0  502  0.11289811735E+04  0.51001805379E+03 -0.54190033791E+03  0.13521815601E+04  0.46999998093E+01 0. -1.
</event>
<event>
 5   0  0.2388326E-05  0.2508221E+04  0.7818609E-02  0.8400063E-01
       -2   -1    0    0    0  501  0.00000000000E+00  0.00000000000E+00  0.11269034209E+04  0.11269034209E+04  0.25500000920E-02 0.  1.
        2   -1    0    0  501    0  0.00000000000E+00  0.00000000000E+00 -0.13956765659E+04  0.13956765659E+04  0.25500000920E-02 0. -1.
    10030    2    1    2    0    0  0.00000000000E+00  0.00000000000E+00 -0.26877314499E+03  0.25225799867E+04  0.25082206414E+04 0.  0.
        2    1    3    3  502    0  0.80826984071E+02  0.11090533359E+04  0.44881282493E+03  0.11991518899E+04  0.25500000920E-02 0.  1.
       -2    1    3    3    0  502 -0.80826984071E+02 -0.11090533359E+04 -0.71758596993E+03  0.13234280968E+04  0.25500000920E-02 0. -1.
</event>
<event>
 5   0  0.2441340E-05  0.2462988E+04  0.7818609E-02  0.8416291E-01
       -2   -1    0    0    0  501  0.00000000000E+00  0.00000000000E+00  0.72213506437E+03  0.72213506437E+03  0.25500000920E-02 0.  1.
        2   -1    0    0  501    0  0.00000000000E+00  0.00000000000E+00 -0.21001297985E+04  0.21001297985E+04  0.25500000920E-02 0. -1.
    10030    2    1    2    0    0  0.00000000000E+00  0.00000000000E+00 -0.13779947341E+04  0.28222648629E+04  0.24629879149E+04 0.  0.
        3    1    3    3  502    0  0.20113714632E+03 -0.20918379681E+03 -0.20603908686E+04  0.20807269292E+04  0.10100000352E+00 0. -1.
       -3    1    3    3    0  502 -0.20113714632E+03  0.20918379681E+03  0.68239613447E+03  0.74153793363E+03  0.10100000352E+00 0.  1.
</event>
<event>
 5   0  0.1008073E-05  0.2469465E+04  0.7818609E-02  0.8413945E-01
       -1   -1    0    0    0  501  0.00000000000E+00  0.00000000000E+00  0.12649212981E+04  0.12649212982E+04  0.50400001928E-02 0.  1.
        1   -1    0    0  501    0  0.00000000000E+00  0.00000000000E+00 -0.12052640411E+04  0.12052640411E+04  0.50400001928E-02 0. -1.
    10030    2    1    2    0    0  0.00000000000E+00  0.00000000000E+00  0.59657257064E+02  0.24701853392E+04  0.24694648452E+04 0.  0.
        1    1    3    3  502    0 -0.44385649655E+02  0.69914661720E+03  0.10468789733E+04  0.12596553747E+04  0.50400001928E-02 0.  1.
       -1    1    3    3    0  502  0.44385649655E+02 -0.69914661720E+03 -0.98722171619E+03  0.12105299646E+04  0.50400001928E-02 0. -1.
</event>
<event>
 5   0  0.2441340E-05  0.2496737E+04  0.7818609E-02  0.8404149E-01
       -2   -1    0    0    0  501  0.00000000000E+00  0.00000000000E+00  0.72306088498E+03  0.72306088499E+03  0.25500000920E-02 0.  1.
        2   -1    0    0  501    0  0.00000000000E+00  0.00000000000E+00 -0.21553141956E+04  0.21553141956E+04  0.25500000920E-02 0. -1.
    10030    2    1    2    0    0  0.00000000000E+00  0.00000000000E+00 -0.14322533106E+04  0.28783750806E+04  0.24967365818E+04 0.  0.
        3    1    3    3  502    0 -0.10373258942E+04  0.32610480151E+03 -0.14230758995E+04  0.17909590666E+04  0.10100000352E+00 0. -1.
       -3    1    3    3    0  502  0.10373258942E+04 -0.32610480151E+03 -0.91774110727E+01  0.10874160139E+04  0.10100000352E+00 0.  1.
</event>
<event>
 5   0  0.2345143E-05  0.2298695E+04  0.7818609E-02  0.8478436E-01
       -2   -1    0    0    0  501  0.00000000000E+00  0.00000000000E+00  0.61526041921E+03  0.61526041922E+03  0.25500000920E-02 0. -1.
        2   -1    0    0  501    0  0.00000000000E+00  0.00000000000E+00 -0.21470577753E+04  0.21470577753E+04  0.25500000920E-02 0.  1.
    10030    2    1    2    0    0  0.00000000000E+00  0.00000000000E+00 -0.15317973561E+04  0.27623181945E+04  0.22986949923E+04 0.  0.
        5    1    3    3  502    0  0.70239965393E+03 -0.90906714424E+03 -0.72411113173E+03  0.13579865123E+04  0.46999998093E+01 0. -1.
       -5    1    3    3    0  502 -0.70239965393E+03  0.90906714424E+03 -0.80768622434E+03  0.14043316822E+04  0.46999998093E+01 0.  1.
</event>
<event>
 5   0  0.1008073E-05  0.2510286E+04  0.7818609E-02  0.8399330E-01
       -1   -1    0    0    0  501  0.00000000000E+00  0.00000000000E+00  0.12781252303E+04  0.12781252303E+04  0.50400001928E-02 0. -1.
        1   -1    0    0  501    0  0.00000000000E+00  0.00000000000E+00 -0.12325744519E+04  0.12325744519E+04  0.50400001928E-02 0.  1.
    10030    2    1    2    0    0  0.00000000000E+00  0.00000000000E+00  0.45550778427E+02  0.25106996822E+04  0.25102864420E+04 0.  0.
        1    1    3    3  502    0 -0.80717731216E+03  0.37326353340E+03  0.90865458098E+03  0.12714220488E+04  0.50400001928E-02 0. -1.
       -1    1    3    3    0  502  0.80717731216E+03 -0.37326353340E+03 -0.86310380255E+03  0.12392776334E+04  0.50400001928E-02 0.  1.
</event>
<event>
 5   0  0.1010338E-05  0.2381377E+04  0.7818609E-02  0.8446509E-01
       -1   -1    0    0    0  501  0.00000000000E+00  0.00000000000E+00  0.12296816810E+04  0.12296816810E+04  0.50400001928E-02 0. -1.
        1   -1    0    0  501    0  0.00000000000E+00  0.00000000000E+00 -0.11529320121E+04  0.11529320121E+04  0.50400001928E-02 0.  1.
    10030    2    1    2    0    0  0.00000000000E+00  0.00000000000E+00  0.76749668894E+02  0.23826136931E+04  0.23813772274E+04 0.  0.
        2    1    3    3  502    0  0.45504142621E+00 -0.46719199208E+03  0.11341470367E+04  0.12266042823E+04  0.25500000920E-02 0. -1.
       -2    1    3    3    0  502 -0.45504142621E+00  0.46719199208E+03 -0.10573973678E+04  0.11560094108E+04  0.25500000920E-02 0.  1.
</event>
<event>
 5   0  0.2432309E-05  0.2413556E+04  0.7818609E-02  0.8434446E-01
       -2   -1    0    0    0  501  0.00000000000E+00  0.00000000000E+00  0.61864097964E+03  0.61864097965E+03  0.25500000920E-02 0.  1.
        2   -1    0    0  501    0  0.00000000000E+00  0.00000000000E+00 -0.23540524572E+04  0.23540524572E+04  0.25500000920E-02 0. -1.
    10030    2    1    2    0    0  0.00000000000E+00  0.00000000000E+00 -0.17354114776E+04  0.29726934369E+04  0.24135561467E+04 0.  0.
        4    1    3    3  502    0 -0.65627389200E+03 -0.82803965341E+03 -0.14956286634E+03  0.10671062519E+04  0.12699999809E+01 0.  1.
       -4    1    3    3    0  502  0.65627389200E+03  0.82803965341E+03 -0.15858486113E+04  0.19055871850E+04  0.12699999809E+01 0. -1.
</event>
<event>
 5   0  0.2432309E-05  0.2496440E+04  0.7818609E-02  0.8404255E-01
       -2   -1    0    0    0  501  0.00000000000E+00  0.00000000000E+00  0.11911904468E+04  0.11911904468E+04  0.25500000920E-02 0. -1.
        2   -1    0    0  501    0  0.00000000000E+00  0.00000000000E+00 -0.13079796327E+04  0.13079796327E+04  0.25500000920E-02 0.  1.
    10030    2    1    2    0    0  0.00000000000E+00  0.00000000000E+00 -0.11678918589E+03  0.24991700796E+04  0.24964397394E+04 0.  0.
        4    1    3    3  502    0 -0.48698599500E+02 -0.84830265502E+03  0.85696985586E+03  0.12068089720E+04  0.12699999809E+01 0. -1.
       -4    1    3    3    0  502  0.48698599500E+02  0.84830265502E+03 -0.97375904175E+03  0.12923611076E+04  0.12699999809E+01 0.  1.
</event>
<event>
 5   0  0.2388326E-05  0.2526359E+04  0.7818609E-02  0.8393655E-01
       -2   -1    0    0    0  501  0.00000000000E+00  0.00000000000E+00  0.79460965914E+03  0.79460965914E+03  0.25500000920E-02 0.  1.
        2   -1    0    0  501    0  0.00000000000E+00  0.00000000000E+00 -0.20080589761E+04  0.20080589761E+04  0.25500000920E-02 0. -1.
    10030    2    1    2    0    0  0.00000000000E+00  0.00000000000E+00 -0.12134493170E+04  0.28026686352E+04  0.25263594824E+04 0.  0.
        2    1    3    3  502    0 -0.53342548017E+03  0.10005110764E+04 -0.12244536831E+04  0.16687875776E+04  0.25500000920E-02 0. -1.
       -2    1    3    3    0  502  0.53342548017E+03 -0.10005110764E+04  0.11004366169E+02  0.11338810577E+04  0.25500000920E-02 0.  1.
</event>
<event>
 5   0  0.2452457E-05  0.2504494E+04  0.7818609E-02  0.8401386E-01
       -2   -1    0    0    0  501  0.00000000000E+00  0.00000000000E+00  0.14934900172E+04  0.14934900172E+04  0.25500000920E-02 0. -1.
        2   -1    0    0  501    0  0.00000000000E+00  0.00000000000E+00 -0.10499717761E+04  0.10499717761E+04  0.25500000920E-02 0.  1.
    10030    2    1    2    0    0  0.00000000000E+00  0.00000000000E+00  0.44351824113E+03  0.25434617933E+04  0.25044938538E+04 0.  0.
        1    1    3    3  502    0  0.11188969809E+04  0.21430163884E+03 -0.30620150322E+03  0.11796673289E+04  0.50400001928E-02 0.  1.
       -1    1    3    3    0  502 -0.11188969809E+04 -0.21430163884E+03  0.74971974435E+03  0.13637944644E+04  0.50400001928E-02 0. -1.
</event>
<event>
 5   0  0.2432309E-05  0.2465411E+04  0.7818609E-02  0.8415413E-01
        2   -1    0    0  501    0  0.00000000000E+00  0.00000000000E+00  0.20462134500E+04  0.20462134500E+04  0.25500000920E-02 0. -1.
       -2   -1    0    0    0  501  0.00000000000E+00  0.00000000000E+00 -0.74262207928E+03  0.74262207929E+03  0.25500000920E-02 0.  1.
    10030    2    1    2    0    0  0.00000000000E+00  0.00000000000E+00  0.13035913708E+04  0.27888355293E+04  0.24654113547E+04 0.  0.
        4    1    3    3  502    0 -0.49266772980E+03  0.69663163983E+03 -0.35460561601E+03  0.92399344662E+03  0.12699999809E+01 0.  1.
       -4    1    3    3    0  502  0.49266772980E+03 -0.69663163983E+03  0.16581969868E+04  0.18648420827E+04  0.12699999809E+01 0. -1.
</event>
<event>
 5   0  0.2345143E-05  0.2489145E+04  0.7818609E-02  0.8406863E-01
       -2   -1    0    0    0  501  0.00000000000E+00  0.00000000000E+00  0.77563558409E+03  0.77563558410E+03  0.25500000920E-02 0.  1.
        2   -1    0    0  501    0  0.00000000000E+00  0.00000000000E+00 -0.19970205721E+04  0.19970205721E+04  0.25500000920E-02 0. -1.
    10030    2    1    2    0    0  0.00000000000E+00  0.00000000000E+00 -0.12213849880E+04  0.27726561562E+04  0.24891446064E+04 0.  0.
        5    1    3    3  502    0 -0.22651282961E+03 -0.73563709446E+03  0.47869187499E+03  0.90644249564E+03  0.46999998093E+01 0.  1.
       -5    1    3    3    0  502  0.22651282961E+03  0.73563709446E+03 -0.17000768630E+04  0.18662136605E+04  0.46999998093E+01 0. -1.
</event>
<event>
 5   0  0.1039688E-05  0.2518167E+04  0.7818609E-02  0.8396542E-01
       -1   -1    0    0    0  501  0.00000000000E+00  0.00000000000E+00  0.17277853420E+04  0.17277853420E+04  0.50400001928E-02 0.  1.
        1   -1    0    0  501    0  0.00000000000E+00  0.00000000000E+00 -0.91752787522E+03  0.91752787524E+03  0.50400001928E-02 0. -1.
    10030    2    1    2    0    0  0.00000000000E+00  0.00000000000E+00  0.81025746677E+03  0.26453132172E+04  0.25181669633E+04 0.  0.
        3    1    3    3  502    0 -0.10467851647E+03  0.65304382433E+03  0.15306104289E+04  0.16673908131E+04  0.10100000352E+00 0. -1.
       -3    1    3    3    0  502  0.10467851647E+03 -0.65304382433E+03 -0.72035296212E+03  0.97792240416E+03  0.10100000352E+00 0.  1.
</event>
<event>
 5   0  0.1039688E-05  0.2465348E+04  0.7818609E-02  0.8415436E-01
        1   -1    0    0  501    0  0.00000000000E+00  0.00000000000E+00  0.21355106833E+04  0.21355106833E+04  0.50400001928E-02 0.  1.
       -1   -1    0    0    0  501  0.00000000000E+00  0.00000000000E+00 -0.71153226247E+03  0.71153226249E+03  0.50400001928E-02 0. -1.
    10030    2    1    2    0    0  0.00000000000E+00  0.00000000000E+00  0.14239784208E+04  0.28470429458E+04  0.24653476412E+04 0.  0.
        3    1    3    3  502    0 -0.94948310385E+03  0.75686344567E+03  0.46667591932E+03  0.13008254548E+04  0.10100000352E+00 0. -1.
       -3    1    3    3    0  502  0.94948310385E+03 -0.75686344567E+03  0.95730250148E+03  0.15462174910E+04  0.10100000352E+00 0.  1.
</event>
<event>
 5   0  0.1015327E-05  0.2493355E+04  0.7818609E-02  0.8405357E-01
       -1   -1    0    0    0  501  0.00000000000E+00  0.00000000000E+00  0.12475898107E+04  0.12475898108E+04  0.50400001928E-02 0. -1.
        1   -1    0    0  501    0  0.00000000000E+00  0.00000000000E+00 -0.12457661786E+04  0.12457661786E+04  0.50400001928E-02 0.  1.
    10030    2    1    2    0    0  0.00000000000E+00  0.00000000000E+00  0.18236321717E+01  0.24933559893E+04  0.24933553224E+04 0.  0.
        4    1    3    3  502    0 -0.13522578626E+03  0.63893778456E+03  0.10628330352E+04  0.12474546803E+04  0.12699999809E+01 0. -1.
       -4    1    3    3    0  502  0.13522578626E+03 -0.63893778456E+03 -0.10610094030E+04  0.12459013091E+04  0.12699999809E+01 0.  1.
</event>
<event>
 5   0  0.1008073E-05  0.2513466E+04  0.7818609E-02  0.8398204E-01
        1   -1    0    0  501    0  0.00000000000E+00  0.00000000000E+00  0.73590180913E+03  0.73590180915E+03  0.50400001928E-02 0. -1.
       -1   -1    0    0    0  501  0.00000000000E+00  0.00000000000E+00 -0.21461807326E+04  0.21461807326E+04  0.50400001928E-02 0.  1.
    10030    2    1    2    0    0  0.00000000000E+00  0.00000000000E+00 -0.14102789235E+04  0.28820825417E+04  0.25134663585E+04 0.  0.
        1    1    3    3  502    0 -0.12477539108E+03  0.68943600996E+03  0.49117412671E+03  0.85565351213E+03  0.50400001928E-02 0. -1.
       -1    1    3    3    0  502  0.12477539108E+03 -0.68943600996E+03 -0.19014530502E+04  0.20264290296E+04  0.50400001928E-02 0.  1.
</event>
<event>
 5   0  0.2452457E-05  0.2499958E+04  0.7818609E-02  0.8403000E-01
       -2   -1    0    0    0  501  0.00000000000E+00  0.00000000000E+00  0.11840151348E+04  0.11840151348E+04  0.25500000920E-02 0. -1.
        2   -1    0    0  501    0  0.00000000000E+00  0.00000000000E+00 -0.13196180732E+04  0.13196180732E+04  0.25500000920E-02 0.  1.
    10030    2    1    2    0    0  0.00000000000E+00  0.00000000000E+00 -0.13560293839E+03  0.25036332081E+04  0.24999582164E+04 0.  0.
        1    1    3    3  502    0 -0.27532686603E+03 -0.12112679074E+04  0.71949156971E+02  0.12442473661E+04  0.50400001928E-02 0. -1.
       -1    1    3    3    0  502  0.27532686603E+03  0.12112679074E+04 -0.20755209536E+03  0.12593858420E+04  0.50400001928E-02 0.  1.
</event>
<event>
 5   0  0.2432309E-05  0.2257003E+04  0.7818609E-02  0.8495070E-01
        2   -1    0    0  501    0  0.00000000000E+00  0.00000000000E+00  0.17440281377E+04  0.17440281377E+04  0.25500000920E-02 0. -1.
       -2   -1    0    0    0  501  0.00000000000E+00  0.00000000000E+00 -0.73021480780E+03  0.73021480781E+03  0.25500000920E-02 0.  1.
    10030    2    1    2    0    0  0.00000000000E+00  0.00000000000E+00  0.10138133299E+04  0.24742429455E+04  0.22570025887E+04 0.  0.
        4    1    3    3  502    0  0.69586800594E+03 -0.67598946785E+03 -0.12505132187E+03  0.97817865870E+03  0.12699999809E+01 0.  1.
       -4    1    3    3    0  502 -0.69586800594E+03  0.67598946785E+03  0.11388646517E+04  0.14960642868E+04  0.12699999809E+01 0. -1.
</event>
<event>
 5   0  0.2388326E-05  0.2490182E+04  0.7818609E-02  0.8406492E-01
        2   -1    0    0  501    0  0.00000000000E+00  0.00000000000E+00  0.10243919056E+04  0.10243919056E+04  0.25500000920E-02 0. -1.
       -2   -1    0    0    0  501  0.00000000000E+00  0.00000000000E+00 -0.15133382702E+04  0.15133382702E+04  0.25500000920E-02 0.  1.
    10030    2    1    2    0    0  0.00000000000E+00  0.00000000000E+00 -0.48894636467E+03  0.25377301758E+04  0.24901819005E+04 0.  0.
        2    1    3    3  502    0  0.11088108107E+04  0.36497954332E+03 -0.68584807987E+03  0.13539051184E+04  0.25500000920E-02 0.  1.
       -2    1    3    3    0  502 -0.11088108107E+04 -0.36497954332E+03  0.19690171520E+03  0.11838250574E+04  0.25500000920E-02 0. -1.
</event>
<event>
 5   0  0.8166500E-06  0.2628930E+04  0.7818609E-02  0.8358440E-01
        3   -1    0    0  501    0  0.00000000000E+00  0.00000000000E+00  0.11419649838E+04  0.11419649883E+04  0.10100000352E+00 0. -1.
       -3   -1    0    0    0  501  0.00000000000E+00  0.00000000000E+00 -0.15130216581E+04  0.15130216614E+04  0.10100000352E+00 0.  1.
    10030    2    1    2    0    0  0.00000000000E+00  0.00000000000E+00 -0.37105667428E+03  0.26549866497E+04  0.26289296405E+04 0.  0.
        4    1    3    3  502    0  0.43368876684E+03  0.11331344991E+04  0.32518789551E+03  0.12561164436E+04  0.12699999809E+01 0. -1.
       -4    1    3    3    0  502 -0.43368876684E+03 -0.11331344991E+04 -0.69624456978E+03  0.13988702061E+04  0.12699999809E+01 0.  1.
</event>
<event>
 5   0  0.1039688E-05  0.2486760E+04  0.7818609E-02  0.8407718E-01
        1   -1    0    0  501    0  0.00000000000E+00  0.00000000000E+00  0.20031679783E+04  0.20031679783E+04  0.50400001928E-02 0.  1.
       -1   -1    0    0    0  501  0.00000000000E+00  0.00000000000E+00 -0.77177431528E+03  0.77177431530E+03  0.50400001928E-02 0. -1.
    10030    2    1    2    0    0  0.00000000000E+00  0.00000000000E+00  0.12313936630E+04  0.27749422936E+04  0.24867598154E+04 0.  0.
        3    1    3    3  502    0 -0.91896835728E+03 -0.36103377168E+03 -0.22762519040E+03  0.10132430426E+04  0.10100000352E+00 0. -1.
       -3    1    3    3    0  502  0.91896835728E+03  0.36103377168E+03  0.14590188534E+04  0.17616992509E+04  0.10100000352E+00 0.  1.
</event>
<event>
 5   0  0.2452457E-05  0.2463820E+04  0.7818609E-02  0.8415989E-01
       -2   -1    0    0    0  501  0.00000000000E+00  0.00000000000E+00  0.96528542859E+03  0.96528542859E+03  0.25500000920E-02 0. -1.
        2   -1    0    0  501    0  0.00000000000E+00  0.00000000000E+00 -0.15721802901E+04  0.15721802901E+04  0.25500000920E-02 0.  1.
    10030    2    1    2    0    0  0.00000000000E+00  0.00000000000E+00 -0.60689486146E+03  0.25374657186E+04  0.24638203872E+04 0.  0.
        1    1    3    3  502    0  0.10610734975E+04 -0.35868553928E+03 -0.83168242189E+03  0.13950727343E+04  0.50400001928E-02 0.  1.
       -1    1    3    3    0  502 -0.10610734975E+04  0.35868553928E+03  0.22478756043E+03  0.11423929843E+04  0.50400001928E-02 0. -1.
</event>
<event>
 5   0  0.1015327E-05  0.2514050E+04  0.7818609E-02  0.8397997E-01
       -1   -1    0    0    0  501  0.00000000000E+00  0.00000000000E+00  0.17420226804E+04  0.17420226804E+04  0.50400001928E-02 0.  1.
        1   -1    0    0  501    0  0.00000000000E+00  0.00000000000E+00 -0.90705585699E+03  0.90705585701E+03  0.50400001928E-02 0. -1.
    10030    2    1    2    0    0  0.00000000000E+00  0.00000000000E+00  0.83496682341E+03  0.26490785374E+04  0.25140500196E+04 0.  0.
        4    1    3    3  502    0  0.10206798926E+04  0.91414520633E+02 -0.34960426862E+03  0.10827598142E+04  0.12699999809E+01 0. -1.
       -4    1    3    3    0  502 -0.10206798926E+04 -0.91414520633E+02  0.11845710920E+04  0.15663187232E+04  0.12699999809E+01 0.  1.
</event>
<event>
 5   0  0.1039688E-05  0.2492842E+04  0.7818609E-02  0.8405540E-01
        1   -1    0    0  501    0  0.00000000000E+00  0.00000000000E+00  0.14774025452E+04  0.14774025452E+04  0.50400001928E-02 0.  1.
       -1   -1    0    0    0  501  0.00000000000E+00  0.00000000000E+00 -0.10515521103E+04  0.10515521103E+04  0.50400001928E-02 0. -1.
    10030    2    1    2    0    0  0.00000000000E+00  0.00000000000E+00  0.42585043485E+03  0.25289546555E+04  0.24928423650E+04 0.  0.
        3    1    3    3  502    0 -0.24875345886E+03 -0.98776903044E+03 -0.51581208040E+03  0.11417653232E+04  0.10100000352E+00 0. -1.
       -3    1    3    3    0  502  0.24875345886E+03  0.98776903044E+03  0.94166251525E+03  0.13871893323E+04  0.10100000352E+00 0.  1.
</event>
<event>
 5   0  0.1008073E-05  0.2537778E+04  0.7818609E-02  0.8389649E-01
        1   -1    0    0  501    0  0.00000000000E+00  0.00000000000E+00  0.14831922866E+04  0.14831922866E+04  0.50400001928E-02 0. -1.
       -1   -1    0    0    0  501  0.00000000000E+00  0.00000000000E+00 -0.10855498634E+04  0.10855498634E+04  0.50400001928E-02 0.  1.
    10030    2    1    2    0    0  0.00000000000E+00  0.00000000000E+00  0.39764242318E+03  0.25687421501E+04  0.25377779132E+04 0.  0.
        1    1    3    3  502    0  0.28761262222E+03 -0.73961028505E+03 -0.80337811426E+03  0.11292301753E+04  0.50400001928E-02 0.  1.
       -1    1    3    3    0  502 -0.28761262222E+03  0.73961028505E+03  0.12010205374E+04  0.14395119748E+04  0.50400001928E-02 0. -1.
</event>
<event>
 5   0  0.8166500E-06  0.2497438E+04  0.7818609E-02  0.8403899E-01
        3   -1    0    0  501    0  0.00000000000E+00  0.00000000000E+00  0.10190817636E+04  0.10190817686E+04  0.10100000352E+00 0.  1.
       -3   -1    0    0    0  501  0.00000000000E+00  0.00000000000E+00 -0.15301025986E+04  0.15301026020E+04  0.10100000352E+00 0. -1.
    10030    2    1    2    0    0  0.00000000000E+00  0.00000000000E+00 -0.51102083503E+03  0.25491843706E+04  0.24974384200E+04 0.  0.
        4    1    3    3  502    0  0.17040200876E+03  0.86629106019E+03  0.64584973420E+03  0.10939015210E+04  0.12699999809E+01 0.  1.
       -4    1    3    3    0  502 -0.17040200876E+03 -0.86629106019E+03 -0.11568705692E+04  0.14552828496E+04  0.12699999809E+01 0. -1.
</event>
<event>
 5   0  0.1039688E-05  0.2500147E+04  0.7818609E-02  0.8402933E-01
       -1   -1    0    0    0  501  0.00000000000E+00  0.00000000000E+00  0.88567491546E+03  0.88567491547E+03  0.50400001928E-02 0. -1.
        1   -1    0    0  501    0  0.00000000000E+00  0.00000000000E+00 -0.17643989696E+04  0.17643989696E+04  0.50400001928E-02 0.  1.
    10030    2    1    2    0    0  0.00000000000E+00  0.00000000000E+00 -0.87872405415E+03  0.26500738851E+04  0.25001471223E+04 0.  0.
        3    1    3    3  502    0 -0.10199858298E+04 -0.36808808118E+03  0.21988640468E+03  0.11064402242E+04  0.10100000352E+00 0. -1.
       -3    1    3    3    0  502  0.10199858298E+04  0.36808808118E+03 -0.10986104588E+04  0.15436336609E+04  0.10100000352E+00 0.  1.
</event>
<event>
 5   0  0.2432309E-05  0.2468274E+04  0.7818609E-02  0.8414376E-01
        2   -1    0    0  501    0  0.00000000000E+00  0.00000000000E+00  0.20253799026E+04  0.20253799026E+04  0.25500000920E-02 0. -1.
       -2   -1    0    0    0  501  0.00000000000E+00  0.00000000000E+00 -0.75200412281E+03  0.75200412282E+03  0.25500000920E-02 0.  1.
    10030    2    1    2    0    0  0.00000000000E+00  0.00000000000E+00  0.12733757798E+04  0.27773840254E+04  0.24682739208E+04 0.  0.
        4    1    3    3  502    0 -0.44760071101E+03  0.30282769176E+03 -0.61178440963E+03  0.81629209488E+03  0.12699999809E+01 0.  1.
       -4    1    3    3    0  502  0.44760071101E+03 -0.30282769176E+03  0.18851601894E+04  0.19610919305E+04  0.12699999809E+01 0. -1.
</event>
<event>
 5   0  0.2452457E-05  0.2482064E+04  0.7818609E-02  0.8409403E-01
        2   -1    0    0  501    0  0.00000000000E+00  0.00000000000E+00  0.87840908884E+03  0.87840908884E+03  0.25500000920E-02 0. -1.
       -2   -1    0    0    0  501  0.00000000000E+00  0.00000000000E+00 -0.17533520901E+04  0.17533520901E+04  0.25500000920E-02 0.  1.
    10030    2    1    2    0    0  0.00000000000E+00  0.00000000000E+00 -0.87494300131E+03  0.26317611790E+04  0.24820639894E+04 0.  0.
        1    1    3    3  502    0 -0.20877339581E+03 -0.20157934938E+03  0.84192517741E+03  0.89053835924E+03  0.50400001928E-02 0. -1.
       -1    1    3    3    0  502  0.20877339581E+03  0.20157934938E+03 -0.17168681787E+04  0.17412228197E+04  0.50400001928E-02 0.  1.
</event>
<event>
 5   0  0.1015327E-05  0.2027455E+04  0.7818609E-02  0.8593891E-01
       -1   -1    0    0    0  501  0.00000000000E+00  0.00000000000E+00  0.10525125922E+04  0.10525125922E+04  0.50400001928E-02 0.  1.
        1   -1    0    0  501    0  0.00000000000E+00  0.00000000000E+00 -0.97637179704E+03  0.97637179705E+03  0.50400001928E-02 0. -1.
    10030    2    1    2    0    0  0.00000000000E+00  0.00000000000E+00  0.76140795118E+02  0.20288843892E+04  0.20274551645E+04 0.  0.
        4    1    3    3  502    0 -0.49681649463E+03 -0.21624124060E+03  0.89544451784E+03  0.10466180779E+04  0.12699999809E+01 0.  1.
       -4    1    3    3    0  502  0.49681649463E+03  0.21624124060E+03 -0.81930372272E+03  0.98226631136E+03  0.12699999809E+01 0. -1.
</event>
<event>
 5   0  0.2345143E-05  0.2454660E+04  0.7818609E-02  0.8419319E-01
       -2   -1    0    0    0  501  0.00000000000E+00  0.00000000000E+00  0.78306758643E+03  0.78306758643E+03  0.25500000920E-02 0. -1.
        2   -1    0    0  501    0  0.00000000000E+00  0.00000000000E+00 -0.19236383781E+04  0.19236383781E+04  0.25500000920E-02 0.  1.
    10030    2    1    2    0    0  0.00000000000E+00  0.00000000000E+00 -0.11405707917E+04  0.27067059646E+04  0.24546599454E+04 0.  0.
        5    1    3    3  502    0 -0.97600356208E+03 -0.14178942561E+03  0.23522229369E+03  0.10139224881E+04  0.46999998093E+01 0. -1.
       -5    1    3    3    0  502  0.97600356208E+03  0.14178942561E+03 -0.13757930854E+04  0.16927834765E+04  0.46999998093E+01 0.  1.
</event>
<event>
 5   0  0.1015327E-05  0.2507756E+04  0.7818609E-02  0.8400227E-01
        1   -1    0    0  501    0  0.00000000000E+00  0.00000000000E+00  0.21408535572E+04  0.21408535572E+04  0.50400001928E-02 0. -1.
       -1   -1    0    0    0  501  0.00000000000E+00  0.00000000000E+00 -0.73438492434E+03  0.73438492436E+03  0.50400001928E-02 0.  1.
    10030    2    1    2    0    0  0.00000000000E+00  0.00000000000E+00  0.14064686329E+04  0.28752384816E+04  0.25077564297E+04 0.  0.
        4    1    3    3  502    0 -0.24123034028E+03 -0.53268246053E+03 -0.56847566728E+03  0.81554207618E+03  0.12699999809E+01 0.  1.
       -4    1    3    3    0  502  0.24123034028E+03  0.53268246053E+03  0.19749443002E+04  0.20596964054E+04  0.12699999809E+01 0. -1.
</event>
<event>
 5   0  0.1008073E-05  0.2501601E+04  0.7818609E-02  0.8402415E-01
       -1   -1    0    0    0  501  0.00000000000E+00  0.00000000000E+00  0.73864963996E+03  0.73864963998E+03  0.50400001928E-02 0.  1.
        1   -1    0    0  501    0  0.00000000000E+00  0.00000000000E+00 -0.21180563084E+04  0.21180563084E+04  0.50400001928E-02 0. -1.
    10030    2    1    2    0    0  0.00000000000E+00  0.00000000000E+00 -0.13794066684E+04  0.28567059484E+04  0.25016007113E+04 0.  0.
        1    1    3    3  502    0  0.51063899620E+03 -0.36157909373E+03  0.54709356259E+03  0.83114558996E+03  0.50400001928E-02 0.  1.
       -1    1    3    3    0  502 -0.51063899620E+03  0.36157909373E+03 -0.19265002310E+04  0.20255603584E+04  0.50400001928E-02 0. -1.
</event>
<event>
 5   0  0.1039688E-05  0.2490394E+04  0.7818609E-02  0.8406416E-01
        1   -1    0    0  501    0  0.00000000000E+00  0.00000000000E+00  0.22438245998E+04  0.22438245998E+04  0.50400001928E-02 0.  1.
       -1   -1    0    0    0  501  0.00000000000E+00  0.00000000000E+00 -0.69101454211E+03  0.69101454213E+03  0.50400001928E-02 0. -1.
    10030    2    1    2    0    0  0.00000000000E+00  0.00000000000E+00  0.15528100576E+04  0.29348391419E+04  0.24903938872E+04 0.  0.
        3    1    3    3  502    0 -0.77183024549E+03 -0.71292150832E+03  0.15638944000E+04  0.18840766198E+04  0.10100000352E+00 0.  1.
       -3    1    3    3    0  502  0.77183024549E+03  0.71292150832E+03 -0.11084342356E+02  0.10507625220E+04  0.10100000352E+00 0. -1.
</event>
<event>
 5   0  0.1039688E-05  0.2521604E+04  0.7818609E-02  0.8395329E-01
       -1   -1    0    0    0  501  0.00000000000E+00  0.00000000000E+00  0.12276796979E+04  0.12276796979E+04  0.50400001928E-02 0.  1.
        1   -1    0    0  501    0  0.00000000000E+00  0.00000000000E+00 -0.12948179025E+04  0.12948179025E+04  0.50400001928E-02 0. -1.
    10030    2    1    2    0    0  0.00000000000E+00  0.00000000000E+00 -0.67138204587E+02  0.25224976004E+04  0.25216039748E+04 0.  0.
        3    1    3    3  502    0  0.99267362018E+03  0.11145918861E+03 -0.80312553315E+03  0.12817311337E+04  0.10100000352E+00 0. -1.
       -3    1    3    3    0  502 -0.99267362018E+03 -0.11145918861E+03  0.73598732857E+03  0.12407664667E+04  0.10100000352E+00 0.  1.
</event>
<event>
 5   0  0.2345143E-05  0.2498024E+04  0.7818609E-02  0.8403690E-01
        2   -1    0    0  501    0  0.00000000000E+00  0.00000000000E+00  0.18169741736E+04  0.18169741736E+04  0.25500000920E-02 0. -1.
       -2   -1    0    0    0  501  0.00000000000E+00  0.00000000000E+00 -0.85858748327E+03  0.85858748328E+03  0.25500000920E-02 0.  1.
    10030    2    1    2    0    0  0.00000000000E+00  0.00000000000E+00  0.95838669031E+03  0.26755616569E+04  0.24980242456E+04 0.  0.
        5    1    3    3  502    0 -0.12975956404E+03 -0.97199475004E+02  0.18056464735E+04  0.18129165893E+04  0.46999998093E+01 0. -1.
       -5    1    3    3    0  502  0.12975956404E+03  0.97199475004E+02 -0.84725978320E+03  0.86264506758E+03  0.46999998093E+01 0.  1.
</event>
<event>
 5   0  0.2452457E-05  0.2610018E+04  0.7818609E-02  0.8364806E-01
       -2   -1    0    0    0  501  0.00000000000E+00  0.00000000000E+00  0.71723849614E+03  0.71723849614E+03  0.25500000920E-02 0. -1.
        2   -1    0    0  501    0  0.00000000000E+00  0.00000000000E+00 -0.23744524080E+04  0.23744524080E+04  0.25500000920E-02 0.  1.
    10030    2    1    2    0    0  0.00000000000E+00  0.00000000000E+00 -0.16572139119E+04  0.30916909042E+04  0.26100181412E+04 0.  0.
        1    1    3    3  502    0  0.10118884094E+04 -0.14033118002E+03  0.13331407967E+03  0.10302347485E+04  0.50400001928E-02 0. -1.
       -1    1    3    3    0  502 -0.10118884094E+04  0.14033118002E+03 -0.17905279916E+04  0.20614561557E+04  0.50400001928E-02 0.  1.
</event>
<event>
 5   0  0.1015327E-05  0.2529939E+04  0.7818609E-02  0.8392396E-01
       -1   -1    0    0    0  501  0.00000000000E+00  0.00000000000E+00  0.12241624447E+04  0.12241624447E+04  0.50400001928E-02 0.  1.
        1   -1    0    0  501    0  0.00000000000E+00  0.00000000000E+00 -0.13071373350E+04  0.13071373350E+04  0.50400001928E-02 0. -1.
    10030    2    1    2    0    0  0.00000000000E+00  0.00000000000E+00 -0.82974890339E+02  0.25312997797E+04  0.25299394740E+04 0.  0.
        4    1    3    3  502    0  0.44158909716E+03  0.10273973547E+04  0.55010077078E+03  0.12462578890E+04  0.12699999809E+01 0.  1.
       -4    1    3    3    0  502 -0.44158909716E+03 -0.10273973547E+04 -0.63307566112E+03  0.12850418906E+04  0.12699999809E+01 0. -1.
</event>
<event>
 5   0  0.1039688E-05  0.2502839E+04  0.7818609E-02  0.8401975E-01
       -1   -1    0    0    0  501  0.00000000000E+00  0.00000000000E+00  0.11634972839E+04  0.11634972839E+04  0.50400001928E-02 0.  1.
        1   -1    0    0  501    0  0.00000000000E+00  0.00000000000E+00 -0.13459854261E+04  0.13459854261E+04  0.50400001928E-02 0. -1.
    10030    2    1    2    0    0  0.00000000000E+00  0.00000000000E+00 -0.18248814220E+03  0.25094827101E+04  0.25028386984E+04 0.  0.
        3    1    3    3  502    0 -0.53368720834E+03 -0.10522836470E+04 -0.50939727889E+03  0.12851492163E+04  0.10100000352E+00 0. -1.
       -3    1    3    3    0  502  0.53368720834E+03  0.10522836470E+04  0.32690913669E+03  0.12243334938E+04  0.10100000352E+00 0.  1.
</event>
<event>
 5   0  0.2345143E-05  0.2500998E+04  0.7818609E-02  0.8402630E-01
       -2   -1    0    0    0  501  0.00000000000E+00  0.00000000000E+00  0.56566301785E+03  0.56566301785E+03  0.25500000920E-02 0. -1.
        2   -1    0    0  501    0  0.00000000000E+00  0.00000000000E+00 -0.27644501325E+04  0.27644501325E+04  0.25500000920E-02 0.  1.
    10030    2    1    2    0    0  0.00000000000E+00  0.00000000000E+00 -0.21987871146E+04  0.33301131503E+04  0.25009975647E+04 0.  0.
        5    1    3    3  502    0 -0.91131490641E+03  0.18336134190E+03  0.14319666118E+02  0.92970069549E+03  0.46999998093E+01 0. -1.
       -5    1    3    3    0  502  0.91131490641E+03 -0.18336134190E+03 -0.22131067807E+04  0.24004124548E+04  0.46999998093E+01 0.  1.
</event>
<event>
 5   0  0.1002753E-05  0.2517465E+04  0.7818609E-02  0.8396790E-01
       -1   -1    0    0    0  501  0.00000000000E+00  0.00000000000E+00  0.14287261141E+04  0.14287261141E+04  0.50400001928E-02 0. -1.
        1   -1    0    0  501    0  0.00000000000E+00  0.00000000000E+00 -0.11089653645E+04  0.11089653645E+04  0.50400001928E-02 0.  1.
    10030    2    1    2    0    0  0.00000000000E+00  0.00000000000E+00  0.31976074957E+03  0.25376914786E+04  0.25174652140E+04 0.  0.
        5    1    3    3  502    0  0.50636775244E+03 -0.95011729956E+03 -0.49747437185E+03  0.11860160304E+04  0.46999998093E+01 0.  1.
       -5    1    3    3    0  502 -0.50636775244E+03  0.95011729956E+03  0.81723512143E+03  0.13516754482E+04  0.46999998093E+01 0. -1.
</event>
<event>
 5   0  0.1039688E-05  0.2500007E+04  0.7818609E-02  0.8402983E-01
       -1   -1    0    0    0  501  0.00000000000E+00  0.00000000000E+00  0.10193027321E+04  0.10193027321E+04  0.50400001928E-02 0. -1.
        1   -1    0    0  501    0  0.00000000000E+00  0.00000000000E+00 -0.15329191705E+04  0.15329191705E+04  0.50400001928E-02 0.  1.
    10030    2    1    2    0    0  0.00000000000E+00  0.00000000000E+00 -0.51361643842E+03  0.25522219025E+04  0.25000069588E+04 0.  0.
        3    1    3    3  502    0  0.71157134320E+03  0.56589700176E+03 -0.11325923850E+04  0.14523562627E+04  0.10100000352E+00 0.  1.
       -3    1    3    3    0  502 -0.71157134320E+03 -0.56589700176E+03  0.61897594658E+03  0.10998656398E+04  0.10100000352E+00 0. -1.
</event>
<event>
 5   0  0.2432309E-05  0.2509716E+04  0.7818609E-02  0.8399532E-01
        2   -1    0    0  501    0  0.00000000000E+00  0.00000000000E+00  0.94765779566E+03  0.94765779566E+03  0.25500000920E-02 0. -1.
       -2   -1    0    0    0  501  0.00000000000E+00  0.00000000000E+00 -0.16616430583E+04  0.16616430583E+04  0.25500000920E-02 0.  1.
    10030    2    1    2    0    0  0.00000000000E+00  0.00000000000E+00 -0.71398526268E+03  0.26093008540E+04  0.25097163169E+04 0.  0.
        4    1    3    3  502    0  0.43529302646E+03  0.43853746143E+03  0.77853182425E+03  0.99393588235E+03  0.12699999809E+01 0. -1.
       -4    1    3    3    0  502 -0.43529302646E+03 -0.43853746143E+03 -0.14925170869E+04  0.16153649716E+04  0.12699999809E+01 0.  1.
</event>
<event>
 5   0  0.2388326E-05  0.2343098E+04  0.7818609E-02  0.8461119E-01
       -2   -1    0    0    0  501  0.00000000000E+00  0.00000000000E+00  0.66972194046E+03  0.66972194047E+03  0.25500000920E-02 0.  1.
        2   -1    0    0  501    0  0.00000000000E+00  0.00000000000E+00 -0.20493990449E+04  0.20493990449E+04  0.25500000920E-02 0. -1.
    10030    2    1    2    0    0  0.00000000000E+00  0.00000000000E+00 -0.13796771045E+04  0.27191209854E+04  0.23430983805E+04 0.  0.
        2    1    3    3  502    0  0.45584791778E+03  0.29756401439E+03 -0.18937142406E+04  0.19704048548E+04  0.25500000920E-02 0. -1.
       -2    1    3    3    0  502 -0.45584791778E+03 -0.29756401439E+03  0.51403713617E+03  0.74871613056E+03  0.25500000920E-02 0.  1.
</event>
<event>
 5   0  0.1010338E-05  0.2519224E+04  0.7818609E-02  0.8396169E-01
       -1   -1    0    0    0  501  0.00000000000E+00  0.00000000000E+00  0.16107157783E+04  0.16107157783E+04  0.50400001928E-02 0.  1.
        1   -1    0    0  501    0  0.00000000000E+00  0.00000000000E+00 -0.98504143453E+03  0.98504143454E+03  0.50400001928E-02 0. -1.
    10030    2    1    2    0    0  0.00000000000E+00  0.00000000000E+00  0.62567434374E+03  0.25957572128E+04  0.25192235160E+04 0.  0.
        2    1    3    3  502    0 -0.11523160084E+04  0.50799748018E+03  0.28503298963E+03  0.12911767610E+04  0.25500000920E-02 0. -1.
       -2    1    3    3    0  502  0.11523160084E+04 -0.50799748018E+03  0.34064135411E+03  0.13045804518E+04  0.25500000920E-02 0.  1.
</event>
<event>
 5   0  0.2388326E-05  0.2496494E+04  0.7818609E-02  0.8404236E-01
       -2   -1    0    0    0  501  0.00000000000E+00  0.00000000000E+00  0.17162843013E+04  0.17162843013E+04  0.25500000920E-02 0. -1.
        2   -1    0    0  501    0  0.00000000000E+00  0.00000000000E+00 -0.90784532265E+03  0.90784532266E+03  0.25500000920E-02 0.  1.
    10030    2    1    2    0    0  0.00000000000E+00  0.00000000000E+00  0.80843897868E+03  0.26241296240E+04  0.24964940820E+04 0.  0.
        2    1    3    3  502    0 -0.66430719365E+03  0.10557014747E+04  0.45475038290E+03  0.13276323143E+04  0.25500000920E-02 0. -1.
       -2    1    3    3    0  502  0.66430719365E+03 -0.10557014747E+04  0.35368859578E+03  0.12964973097E+04  0.25500000920E-02 0.  1.
</event>
<event>
 5   0  0.1010338E-05  0.2482446E+04  0.7818609E-02  0.8409266E-01
        1   -1    0    0  501    0  0.00000000000E+00  0.00000000000E+00  0.12378990918E+04  0.12378990918E+04  0.50400001928E-02 0.  1.
       -1   -1    0    0    0  501  0.00000000000E+00  0.00000000000E+00 -0.12445559731E+04  0.12445559731E+04  0.50400001928E-02 0. -1.
    10030    2    1    2    0    0  0.00000000000E+00  0.00000000000E+00 -0.66568812460E+01  0.24824550649E+04  0.24824461394E+04 0.  0.
        2    1    3    3  502    0 -0.48469562456E+03 -0.85277454058E+03 -0.76391019366E+03  0.12432670870E+04  0.25500000920E-02 0. -1.
       -2    1    3    3    0  502  0.48469562456E+03  0.85277454058E+03  0.75725331242E+03  0.12391879780E+04  0.25500000920E-02 0.  1.
</event>
<event>
 5   0  0.1008073E-05  0.2412521E+04  0.7818609E-02  0.8434831E-01
       -1   -1    0    0    0  501  0.00000000000E+00  0.00000000000E+00  0.87828245618E+03  0.87828245620E+03  0.50400001928E-02 0. -1.
        1   -1    0    0  501    0  0.00000000000E+00  0.00000000000E+00 -0.16567158454E+04  0.16567158454E+04  0.50400001928E-02 0.  1.
    10030    2    1    2    0    0  0.00000000000E+00  0.00000000000E+00 -0.77843338919E+03  0.25349983016E+04  0.24125210564E+04 0.  0.
        1    1    3    3  502    0  0.93401051548E+03  0.17467891753E+03  0.39159329417E+03  0.10277322975E+04  0.50400001928E-02 0.  1.
       -1    1    3    3    0  502 -0.93401051548E+03 -0.17467891753E+03 -0.11700266834E+04  0.15072660041E+04  0.50400001928E-02 0. -1.
</event>
<event>
 5   0  0.2388326E-05  0.2611879E+04  0.7818609E-02  0.8364177E-01
       -2   -1    0    0    0  501  0.00000000000E+00  0.00000000000E+00  0.12731127205E+04  0.12731127205E+04  0.25500000920E-02 0.  1.
        2   -1    0    0  501    0  0.00000000000E+00  0.00000000000E+00 -0.13396131874E+04  0.13396131874E+04  0.25500000920E-02 0. -1.
    10030    2    1    2    0    0  0.00000000000E+00  0.00000000000E+00 -0.66500466923E+02  0.26127259079E+04  0.26118794685E+04 0.  0.
        2    1    3    3  502    0 -0.67657263641E+03  0.41726370459E+03 -0.10697419278E+04  0.13327442829E+04  0.25500000920E-02 0. -1.
       -2    1    3    3    0  502  0.67657263641E+03 -0.41726370459E+03  0.10032414609E+04  0.12799816250E+04  0.25500000920E-02 0.  1.
</event>
<event>
 5   0  0.2432309E-05  0.2509541E+04  0.7818609E-02  0.8399594E-01
       -2   -1    0    0    0  501  0.00000000000E+00  0.00000000000E+00  0.16995549897E+04  0.16995549897E+04  0.25500000920E-02 0.  1.
        2   -1    0    0  501    0  0.00000000000E+00  0.00000000000E+00 -0.92638906981E+03  0.92638906981E+03  0.25500000920E-02 0. -1.
    10030    2    1    2    0    0  0.00000000000E+00  0.00000000000E+00  0.77316591985E+03  0.26259440595E+04  0.25095411262E+04 0.  0.
        4    1    3    3  502    0 -0.48825602607E+03  0.11480186472E+04  0.24577996035E+03  0.12715149087E+04  0.12699999809E+01 0. -1.
       -4    1    3    3    0  502  0.48825602607E+03 -0.11480186472E+04  0.52738595951E+03  0.13544291508E+04  0.12699999809E+01 0.  1.
</event>
<event>
 5   0  0.2452457E-05  0.2521245E+04  0.7818609E-02  0.8395456E-01
        2   -1    0    0  501    0  0.00000000000E+00  0.00000000000E+00  0.22757658223E+04  0.22757658223E+04  0.25500000920E-02 0. -1.
       -2   -1    0    0    0  501  0.00000000000E+00  0.00000000000E+00 -0.69830099352E+03  0.69830099352E+03  0.25500000920E-02 0.  1.
    10030    2    1    2    0    0  0.00000000000E+00  0.00000000000E+00  0.15774648288E+04  0.29740668158E+04  0.25212453548E+04 0.  0.
        1    1    3    3  502    0  0.73636029309E+03  0.81491981230E+03  0.58856170200E+02  0.10999021913E+04  0.50400001928E-02 0.  1.
       -1    1    3    3    0  502 -0.73636029309E+03 -0.81491981230E+03  0.15186086586E+04  0.18741646245E+04  0.50400001928E-02 0. -1.
</event>
<event>
 5   0  0.2452457E-05  0.2472470E+04  0.7818609E-02  0.8412859E-01
        2   -1    0    0  501    0  0.00000000000E+00  0.00000000000E+00  0.11983980849E+04  0.11983980849E+04  0.25500000920E-02 0.  1.
       -2   -1    0    0    0  501  0.00000000000E+00  0.00000000000E+00 -0.12752665615E+04  0.12752665615E+04  0.25500000920E-02 0. -1.
    10030    2    1    2    0    0  0.00000000000E+00  0.00000000000E+00 -0.76868476548E+02  0.24736646464E+04  0.24724700241E+04 0.  0.
        1    1    3    3  502    0 -0.11608186194E+04 -0.29300276384E+03  0.26981610069E+03  0.12272535252E+04  0.50400001928E-02 0.  1.
       -1    1    3    3    0  502  0.11608186194E+04  0.29300276384E+03 -0.34668457724E+03  0.12464111212E+04  0.50400001928E-02 0. -1.
</event>
<event>
 5   0  0.1010338E-05  0.2499409E+04  0.7818609E-02  0.8403196E-01
       -1   -1    0    0    0  501  0.00000000000E+00  0.00000000000E+00  0.12040102698E+04  0.12040102698E+04  0.50400001928E-02 0. -1.
        1   -1    0    0  501    0  0.00000000000E+00  0.00000000000E+00 -0.12971325359E+04  0.12971325359E+04  0.50400001928E-02 0.  1.
    10030    2    1    2    0    0  0.00000000000E+00  0.00000000000E+00 -0.93122266120E+02  0.25011428057E+04  0.24994086457E+04 0.  0.
        2    1    3    3  502    0  0.59159649906E+03  0.76115152060E+03  0.74924080805E+03  0.12209421950E+04  0.25500000920E-02 0. -1.
       -2    1    3    3    0  502 -0.59159649906E+03 -0.76115152060E+03 -0.84236307417E+03  0.12802006107E+04  0.25500000920E-02 0.  1.
</event>
<event>
 5   0  0.1010338E-05  0.2513972E+04  0.7818609E-02  0.8398025E-01
        1   -1    0    0  501    0  0.00000000000E+00  0.00000000000E+00  0.12505902733E+04  0.12505902734E+04  0.50400001928E-02 0. -1.
       -1   -1    0    0    0  501  0.00000000000E+00  0.00000000000E+00 -0.12634143506E+04  0.12634143506E+04  0.50400001928E-02 0.  1.
    10030    2    1    2    0    0  0.00000000000E+00  0.00000000000E+00 -0.12824077215E+02  0.25140046239E+04  0.25139719155E+04 0.  0.
        2    1    3    3  502    0  0.39273495826E+03 -0.13267671318E+03  0.11802667229E+04  0.12509489977E+04  0.25500000920E-02 0. -1.
       -2    1    3    3    0  502 -0.39273495826E+03  0.13267671318E+03 -0.11930908001E+04  0.12630556262E+04  0.25500000920E-02 0.  1.
</event>
<event>
 5   0  0.2452457E-05  0.2468803E+04  0.7818609E-02  0.8414185E-01
       -2   -1    0    0    0  501  0.00000000000E+00  0.00000000000E+00  0.15188774924E+04  0.15188774924E+04  0.25500000920E-02 0.  1.
        2   -1    0    0  501    0  0.00000000000E+00  0.00000000000E+00 -0.10032059582E+04  0.10032059582E+04  0.25500000920E-02 0. -1.
    10030    2    1    2    0    0  0.00000000000E+00  0.00000000000E+00  0.51567153421E+03  0.25220834505E+04  0.24688029084E+04 0.  0.
        1    1    3    3  502    0  0.19732338210E+03 -0.43584168549E+03  0.14203095707E+04  0.14987240469E+04  0.50400001928E-02 0.  1.
       -1    1    3    3    0  502 -0.19732338210E+03  0.43584168549E+03 -0.90463803652E+03  0.10233594037E+04  0.50400001928E-02 0. -1.
</event>
<event>
 5   0  0.2345143E-05  0.2538380E+04  0.7818609E-02  0.8389439E-01
        2   -1    0    0  501    0  0.00000000000E+00  0.00000000000E+00  0.27990600559E+04  0.27990600559E+04  0.25500000920E-02 0.  1.
       -2   -1    0    0    0  501  0.00000000000E+00  0.00000000000E+00 -0.57549434353E+03  0.57549434354E+03  0.25500000920E-02 0. -1.
    10030    2    1    2    0    0  0.00000000000E+00  0.00000000000E+00  0.22235657124E+04  0.33745543994E+04  0.25383799789E+04 0.  0.
        5    1    3    3  502    0 -0.93124595166E+03 -0.10697912359E+03  0.22493108222E+04  0.24368185859E+04  0.46999998093E+01 0.  1.
       -5    1    3    3    0  502  0.93124595166E+03  0.10697912359E+03 -0.25745109877E+02  0.93773581357E+03  0.46999998093E+01 0. -1.
</event>
<event>
 5   0  0.2432309E-05  0.2538696E+04  0.7818609E-02  0.8389328E-01
       -2   -1    0    0    0  501  0.00000000000E+00  0.00000000000E+00  0.77890855851E+03  0.77890855852E+03  0.25500000920E-02 0.  1.
        2   -1    0    0  501    0  0.00000000000E+00  0.00000000000E+00 -0.20685922767E+04  0.20685922767E+04  0.25500000920E-02 0. -1.
    10030    2    1    2    0    0  0.00000000000E+00  0.00000000000E+00 -0.12896837182E+04  0.28475008352E+04  0.25386959081E+04 0.  0.
        4    1    3    3  502    0  0.44578270508E+03 -0.11176899769E+04 -0.10980861279E+04  0.16290327995E+04  0.12699999809E+01 0.  1.
       -4    1    3    3    0  502 -0.44578270508E+03  0.11176899769E+04 -0.19159759028E+03  0.12184680357E+04  0.12699999809E+01 0. -1.
</event>
<event>
 5   0  0.1008073E-05  0.2553036E+04  0.7818609E-02  0.8384331E-01
       -1   -1    0    0    0  501  0.00000000000E+00  0.00000000000E+00  0.80075971958E+03  0.80075971959E+03  0.50400001928E-02 0. -1.
        1   -1    0    0  501    0  0.00000000000E+00  0.00000000000E+00 -0.20349410493E+04  0.20349410493E+04  0.50400001928E-02 0.  1.
    10030    2    1    2    0    0  0.00000000000E+00  0.00000000000E+00 -0.12341813297E+04  0.28357007689E+04  0.25530364854E+04 0.  0.
        1    1    3    3  502    0  0.10153653523E+04 -0.43548608033E+03 -0.13273278138E+04  0.17269667194E+04  0.50400001928E-02 0.  1.
       -1    1    3    3    0  502 -0.10153653523E+04  0.43548608033E+03  0.93146484112E+02  0.11087340494E+04  0.50400001928E-02 0. -1.
</event>
<event>
 5   0  0.2441340E-05  0.2521920E+04  0.7818609E-02  0.8395218E-01
        2   -1    0    0  501    0  0.00000000000E+00  0.00000000000E+00  0.14316120207E+04  0.14316120207E+04  0.25500000920E-02 0. -1.
       -2   -1    0    0    0  501  0.00000000000E+00  0.00000000000E+00 -0.11106501296E+04  0.11106501296E+04  0.25500000920E-02 0.  1.
    10030    2    1    2    0    0  0.00000000000E+00  0.00000000000E+00  0.32096189117E+03  0.25422621503E+04  0.25219199641E+04 0.  0.
        3    1    3    3  502    0 -0.95104570843E+03  0.58631249920E+03  0.74980729781E+03  0.13455338273E+04  0.10100000352E+00 0. -1.
       -3    1    3    3    0  502  0.95104570843E+03 -0.58631249920E+03 -0.42884540664E+03  0.11967283231E+04  0.10100000352E+00 0.  1.
</event>
<event>
 5   0  0.2452457E-05  0.2512973E+04  0.7818609E-02  0.8398378E-01
       -2   -1    0    0    0  501  0.00000000000E+00  0.00000000000E+00  0.13722538196E+04  0.13722538196E+04  0.25500000920E-02 0.  1.
        2   -1    0    0  501    0  0.00000000000E+00  0.00000000000E+00 -0.11504860221E+04  0.11504860221E+04  0.25500000920E-02 0. -1.
    10030    2    1    2    0    0  0.00000000000E+00  0.00000000000E+00  0.22176779755E+03  0.25227398417E+04  0.25129734087E+04 0.  0.
        1    1    3    3  502    0 -0.12324860756E+04 -0.16464434550E+03  0.29222133080E+03  0.12773108444E+04  0.50400001928E-02 0. -1.
       -1    1    3    3    0  502  0.12324860756E+04  0.16464434550E+03 -0.70453533251E+02  0.12454289973E+04  0.50400001928E-02 0.  1.
</event>
<event>
 5   0  0.1015327E-05  0.2465727E+04  0.7818609E-02  0.8415298E-01
       -1   -1    0    0    0  501  0.00000000000E+00  0.00000000000E+00  0.70938349362E+03  0.70938349364E+03  0.50400001928E-02 0. -1.
        1   -1    0    0  501    0  0.00000000000E+00  0.00000000000E+00 -0.21426379710E+04  0.21426379710E+04  0.50400001928E-02 0.  1.
    10030    2    1    2    0    0  0.00000000000E+00  0.00000000000E+00 -0.14332544774E+04  0.28520214646E+04  0.24657266754E+04 0.  0.
        4    1    3    3  502    0 -0.10912976555E+04 -0.49620859053E+03 -0.38380312431E+03  0.12587533473E+04  0.12699999809E+01 0.  1.
       -4    1    3    3    0  502  0.10912976555E+04  0.49620859053E+03 -0.10494513531E+04  0.15932681173E+04  0.12699999809E+01 0. -1.
</event>
<event>
 5   0  0.2441340E-05  0.2480919E+04  0.7818609E-02  0.8409815E-01
       -2   -1    0    0    0  501  0.00000000000E+00  0.00000000000E+00  0.60199285907E+03  0.60199285907E+03  0.25500000920E-02 0.  1.
        2   -1    0    0  501    0  0.00000000000E+00  0.00000000000E+00 -0.25560772660E+04  0.25560772660E+04  0.25500000920E-02 0. -1.
    10030    2    1    2    0    0  0.00000000000E+00  0.00000000000E+00 -0.19540844069E+04  0.31580701251E+04  0.24809193952E+04 0.  0.
        3    1    3    3  502    0 -0.49932709694E+02 -0.64644974640E+03 -0.23232060664E+04  0.24119861085E+04  0.10100000352E+00 0. -1.
       -3    1    3    3    0  502  0.49932709694E+02  0.64644974640E+03  0.36912165950E+03  0.74608401660E+03  0.10100000352E+00 0.  1.
</event>
<event>
 5   0  0.2452457E-05  0.2463857E+04  0.7818609E-02  0.8415976E-01
        2   -1    0    0  501    0  0.00000000000E+00  0.00000000000E+00  0.16873939001E+04  0.16873939001E+04  0.25500000920E-02 0. -1.
       -2   -1    0    0    0  501  0.00000000000E+00  0.00000000000E+00 -0.89940369523E+03  0.89940369524E+03  0.25500000920E-02 0.  1.
    10030    2    1    2    0    0  0.00000000000E+00  0.00000000000E+00  0.78799020488E+03  0.25867975954E+04  0.24638573896E+04 0.  0.
        1    1    3    3  502    0  0.65810032706E+03 -0.54872041653E+03  0.13232926466E+04  0.15764813873E+04  0.50400001928E-02 0. -1.
       -1    1    3    3    0  502 -0.65810032706E+03  0.54872041653E+03 -0.53530244175E+03  0.10103162080E+04  0.50400001928E-02 0.  1.
</event>
<event>
 5   0  0.1010338E-05  0.2487187E+04  0.7818609E-02  0.8407565E-01
       -1   -1    0    0    0  501  0.00000000000E+00  0.00000000000E+00  0.10514861082E+04  0.10514861082E+04  0.50400001928E-02 0.  1.
        1   -1    0    0  501    0  0.00000000000E+00  0.00000000000E+00 -0.14707987278E+04  0.14707987278E+04  0.50400001928E-02 0. -1.
    10030    2    1    2    0    0  0.00000000000E+00  0.00000000000E+00 -0.41931261959E+03  0.25222848359E+04  0.24871867081E+04 0.  0.
        2    1    3    3  502    0 -0.12220158841E+03  0.94625797579E+03  0.59921261586E+03  0.11266734860E+04  0.25500000920E-02 0.  1.
       -2    1    3    3    0  502  0.12220158841E+03 -0.94625797579E+03 -0.10185252354E+04  0.13956113500E+04  0.25500000920E-02 0. -1.
</event>
<event>
 5   0  0.2345143E-05  0.2059007E+04  0.7818609E-02  0.8579519E-01
        2   -1    0    0  501    0  0.00000000000E+00  0.00000000000E+00  0.17599053522E+04  0.17599053522E+04  0.25500000920E-02 0. -1.
       -2   -1    0    0    0  501  0.00000000000E+00  0.00000000000E+00 -0.60223542599E+03  0.60223542599E+03  0.25500000920E-02 0.  1.
    10030    2    1    2    0    0  0.00000000000E+00  0.00000000000E+00  0.11576699263E+04  0.23621407782E+04  0.20590068961E+04 0.  0.
        5    1    3    3  502    0 -0.25940564867E+03 -0.13466365829E+03  0.17112958859E+04  0.17360821670E+04  0.46999998093E+01 0. -1.
       -5    1    3    3    0  502  0.25940564867E+03  0.13466365829E+03 -0.55362595969E+03  0.62605861121E+03  0.46999998093E+01 0.  1.
</event>
<event>
 5   0  0.1008073E-05  0.2502286E+04  0.7818609E-02  0.8402172E-01
        1   -1    0    0  501    0  0.00000000000E+00  0.00000000000E+00  0.20790136855E+04  0.20790136855E+04  0.50400001928E-02 0.  1.
       -1   -1    0    0    0  501  0.00000000000E+00  0.00000000000E+00 -0.75293330173E+03  0.75293330174E+03  0.50400001928E-02 0. -1.
    10030    2    1    2    0    0  0.00000000000E+00  0.00000000000E+00  0.13260803838E+04  0.28319469873E+04  0.25022858658E+04 0.  0.
        1    1    3    3  502    0  0.74627049060E+01 -0.69003191443E+03  0.18441596372E+04  0.19690415187E+04  0.50400001928E-02 0.  1.
       -1    1    3    3    0  502 -0.74627049060E+01  0.69003191443E+03 -0.51807925338E+03  0.86290546858E+03  0.50400001928E-02 0. -1.
</event>
<event>
 5   0  0.2452457E-05  0.2500070E+04  0.7818609E-02  0.8402961E-01
        2   -1    0    0  501    0  0.00000000000E+00  0.00000000000E+00  0.28612374432E+04  0.28612374432E+04  0.25500000920E-02 0.  1.
       -2   -1    0    0    0  501  0.00000000000E+00  0.00000000000E+00 -0.54612278614E+03  0.54612278615E+03  0.25500000920E-02 0. -1.
    10030    2    1    2    0    0  0.00000000000E+00  0.00000000000E+00  0.23151146570E+04  0.34073602293E+04  0.25000695705E+04 0.  0.
        1    1    3    3  502    0 -0.11978082302E+04  0.35460825731E+03  0.10951696858E+04  0.16612911284E+04  0.50400001928E-02 0.  1.
       -1    1    3    3    0  502  0.11978082302E+04 -0.35460825731E+03  0.12199449712E+04  0.17460691009E+04  0.50400001928E-02 0. -1.
</event>
<event>
 5   0  0.2388326E-05  0.2511689E+04  0.7818609E-02  0.8398833E-01
       -2   -1    0    0    0  501  0.00000000000E+00  0.00000000000E+00  0.97677314523E+03  0.97677314524E+03  0.25500000920E-02 0.  1.
        2   -1    0    0  501    0  0.00000000000E+00  0.00000000000E+00 -0.16146485191E+04  0.16146485191E+04  0.25500000920E-02 0. -1.
    10030    2    1    2    0    0  0.00000000000E+00  0.00000000000E+00 -0.63787537388E+03  0.25914216643E+04  0.25116889238E+04 0.  0.
        2    1    3    3  502    0  0.11235568111E+04  0.54430765581E+03 -0.45924957751E+03  0.13302484379E+04  0.25500000920E-02 0.  1.
       -2    1    3    3    0  502 -0.11235568111E+04 -0.54430765581E+03 -0.17862579637E+03  0.12611732265E+04  0.25500000920E-02 0. -1.
</event>
<event>
 5   0  0.8166500E-06  0.2402223E+04  0.7818609E-02  0.8438672E-01
        3   -1    0    0  501    0  0.00000000000E+00  0.00000000000E+00  0.10162075462E+04  0.10162075512E+04  0.10100000352E+00 0.  1.
       -3   -1    0    0    0  501  0.00000000000E+00  0.00000000000E+00 -0.14196595102E+04  0.14196595138E+04  0.10100000352E+00 0. -1.
    10030    2    1    2    0    0  0.00000000000E+00  0.00000000000E+00 -0.40345196398E+03  0.24358670650E+04  0.24022229021E+04 0.  0.
        4    1    3    3  502    0  0.94324101834E+03  0.54191273407E+03  0.31461497668E+03  0.11324121275E+04  0.12699999809E+01 0.  1.
       -4    1    3    3    0  502 -0.94324101834E+03 -0.54191273407E+03 -0.71806694066E+03  0.13034549375E+04  0.12699999809E+01 0. -1.
</event>
<event>
 5   0  0.1039688E-05  0.2027024E+04  0.7818609E-02  0.8594089E-01
        1   -1    0    0  501    0  0.00000000000E+00  0.00000000000E+00  0.96302974318E+03  0.96302974320E+03  0.50400001928E-02 0. -1.
       -1   -1    0    0    0  501  0.00000000000E+00  0.00000000000E+00 -0.10666408659E+04  0.10666408660E+04  0.50400001928E-02 0.  1.
    10030    2    1    2    0    0  0.00000000000E+00  0.00000000000E+00 -0.10361112276E+03  0.20296706092E+04  0.20270243010E+04 0.  0.
        3    1    3    3  502    0  0.56407445288E+03  0.71838982903E+03  0.38802058875E+03  0.99238295146E+03  0.10100000352E+00 0. -1.
       -3    1    3    3    0  502 -0.56407445288E+03 -0.71838982903E+03 -0.49163171151E+03  0.10372876577E+04  0.10100000352E+00 0.  1.
</event>
<event>
 5   0  0.2441340E-05  0.2492416E+04  0.7818609E-02  0.8405692E-01
        2   -1    0    0  501    0  0.00000000000E+00  0.00000000000E+00  0.78149672654E+03  0.78149672654E+03  0.25500000920E-02 0. -1.
       -2   -1    0    0    0  501  0.00000000000E+00  0.00000000000E+00 -0.19872558901E+04  0.19872558901E+04  0.25500000920E-02 0.  1.
    10030    2    1    2    0    0  0.00000000000E+00  0.00000000000E+00 -0.12057591635E+04  0.27687526166E+04  0.24924156739E+04 0.  0.
        3    1    3    3  502    0 -0.46461915272E+02  0.93961977220E+03 -0.15108017920E+04  0.17797657404E+04  0.10100000352E+00 0.  1.
       -3    1    3    3    0  502  0.46461915272E+02 -0.93961977220E+03  0.30504262847E+03  0.98898687619E+03  0.10100000352E+00 0. -1.
</event>
<event>
 5   0  0.2345143E-05  0.2200170E+04  0.7818609E-02  0.8518357E-01
       -2   -1    0    0    0  501  0.00000000000E+00  0.00000000000E+00  0.34857652393E+03  0.34857652394E+03  0.25500000920E-02 0.  1.
        2   -1    0    0  501    0  0.00000000000E+00  0.00000000000E+00 -0.34717965839E+04  0.34717965839E+04  0.25500000920E-02 0. -1.
    10030    2    1    2    0    0  0.00000000000E+00  0.00000000000E+00 -0.31232200599E+04  0.38203731078E+04  0.22001697980E+04 0.  0.
        5    1    3    3  502    0  0.60496332197E+03 -0.67752047501E+03 -0.26392273843E+04  0.27911570882E+04  0.46999998093E+01 0. -1.
       -5    1    3    3    0  502 -0.60496332197E+03  0.67752047501E+03 -0.48399267566E+03  0.10292160196E+04  0.46999998093E+01 0.  1.
</event>
<event>
 5   0  0.8166500E-06  0.2441283E+04  0.7818609E-02  0.8424208E-01
       -3   -1    0    0    0  501  0.00000000000E+00  0.00000000000E+00  0.11937580212E+04  0.11937580254E+04  0.10100000352E+00 0. -1.
        3   -1    0    0  501    0  0.00000000000E+00  0.00000000000E+00 -0.12481304723E+04  0.12481304763E+04  0.10100000352E+00 0.  1.
    10030    2    1    2    0    0  0.00000000000E+00  0.00000000000E+00 -0.54372451093E+02  0.24418885018E+04  0.24412830831E+04 0.  0.
        4    1    3    3  502    0 -0.11566312619E+04 -0.38970773474E+03 -0.44399956237E+02  0.12213275414E+04  0.12699999809E+01 0. -1.
       -4    1    3    3    0  502  0.11566312619E+04  0.38970773474E+03 -0.99724948566E+01  0.12205609604E+04  0.12699999809E+01 0.  1.
</event>
<event>
 5   0  0.2452457E-05  0.2366307E+04  0.7818609E-02  0.8452227E-01
       -2   -1    0    0    0  501  0.00000000000E+00  0.00000000000E+00  0.11273018778E+04  0.11273018778E+04  0.25500000920E-02 0. -1.
        2   -1    0    0  501    0  0.00000000000E+00  0.00000000000E+00 -0.12417719532E+04  0.12417719532E+04  0.25500000920E-02 0.  1.
    10030    2    1    2    0    0  0.00000000000E+00  0.00000000000E+00 -0.11447007533E+03  0.23690738310E+04  0.23663067043E+04 0.  0.
        1    1    3    3  502    0  0.23583628945E+03  0.11392759915E+04  0.15815211108E+03  0.11741297332E+04  0.50400001928E-02 0.  1.
       -1    1    3    3    0  502 -0.23583628945E+03 -0.11392759915E+04 -0.27262218641E+03  0.11949440978E+04  0.50400001928E-02 0. -1.
</event>
<event>
 5   0  0.1008073E-05  0.2498595E+04  0.7818609E-02  0.8403486E-01
        1   -1    0    0  501    0  0.00000000000E+00  0.00000000000E+00  0.16044123827E+04  0.16044123827E+04  0.50400001928E-02 0. -1.
       -1   -1    0    0    0  501  0.00000000000E+00  0.00000000000E+00 -0.97278279248E+03  0.97278279249E+03  0.50400001928E-02 0.  1.
    10030    2    1    2    0    0  0.00000000000E+00  0.00000000000E+00  0.63162959024E+03  0.25771951752E+04  0.24985954118E+04 0.  0.
        1    1    3    3  502    0 -0.62244953680E+03  0.37569461430E+03  0.13637243698E+04  0.15454235749E+04  0.50400001928E-02 0. -1.
       -1    1    3    3    0  502  0.62244953680E+03 -0.37569461430E+03 -0.73209477951E+03  0.10317716003E+04  0.50400001928E-02 0.  1.
</event>
<event>
 5   0  0.2441340E-05  0.2469356E+04  0.7818609E-02  0.8413985E-01
        2   -1    0    0  501    0  0.00000000000E+00  0.00000000000E+00  0.16172956210E+04  0.16172956210E+04  0.25500000920E-02 0. -1.
       -2   -1    0    0    0  501  0.00000000000E+00  0.00000000000E+00 -0.94257972537E+03  0.94257972537E+03  0.25500000920E-02 0.  1.
    10030    2    1    2    0    0  0.00000000000E+00  0.00000000000E+00  0.67471589560E+03  0.25598753463E+04  0.24693562418E+04 0.  0.
        3    1    3    3  502    0  0.12155995203E+04 -0.20394019650E+03  0.41179724115E+03  0.12995579154E+04  0.10100000352E+00 0. -1.
       -3    1    3    3    0  502 -0.12155995203E+04  0.20394019650E+03  0.26291865445E+03  0.12603174309E+04  0.10100000352E+00 0.  1.
</event>
<event>
 5   0  0.2432309E-05  0.2454880E+04  0.7818609E-02  0.8419238E-01
       -2   -1    0    0    0  501  0.00000000000E+00  0.00000000000E+00  0.97756748384E+03  0.97756748384E+03  0.25500000920E-02 0. -1.
        2   -1    0    0  501    0  0.00000000000E+00  0.00000000000E+00 -0.15411816005E+04  0.15411816005E+04  0.25500000920E-02 0.  1.
    10030    2    1    2    0    0  0.00000000000E+00  0.00000000000E+00 -0.56361411664E+03  0.25187490843E+04  0.24548800535E+04 0.  0.
        4    1    3    3  502    0 -0.41108758578E+03 -0.68555721161E+03 -0.12375054069E+04  0.14732287462E+04  0.12699999809E+01 0.  1.
       -4    1    3    3    0  502  0.41108758578E+03  0.68555721161E+03  0.67389129023E+03  0.10455203382E+04  0.12699999809E+01 0. -1.
</event>
<event>
 5   0  0.2388326E-05  0.2508991E+04  0.7818609E-02  0.8399789E-01
        2   -1    0    0  501    0  0.00000000000E+00  0.00000000000E+00  0.21821846200E+04  0.21821846200E+04  0.25500000920E-02 0. -1.
       -2   -1    0    0    0  501  0.00000000000E+00  0.00000000000E+00 -0.72118531523E+03  0.72118531524E+03  0.25500000920E-02 0.  1.
    10030    2    1    2    0    0  0.00000000000E+00  0.00000000000E+00  0.14609993048E+04  0.29033699352E+04  0.25089914333E+04 0.  0.
        2    1    3    3  502    0 -0.22453382577E+03  0.10680778179E+03  0.21533850555E+04  0.21676924455E+04  0.25500000920E-02 0. -1.
       -2    1    3    3    0  502  0.22453382577E+03 -0.10680778179E+03 -0.69238575068E+03  0.73567748975E+03  0.25500000920E-02 0.  1.
</event>
<event>
 5   0  0.2388326E-05  0.2521555E+04  0.7818609E-02  0.8395347E-01
       -2   -1    0    0    0  501  0.00000000000E+00  0.00000000000E+00  0.71866531169E+03  0.71866531170E+03  0.25500000920E-02 0. -1.
        2   -1    0    0  501    0  0.00000000000E+00  0.00000000000E+00 -0.22118216769E+04  0.22118216769E+04  0.25500000920E-02 0.  1.
    10030    2    1    2    0    0  0.00000000000E+00  0.00000000000E+00 -0.14931563652E+04  0.29304869886E+04  0.25215546909E+04 0.  0.
        2    1    3    3  502    0 -0.13773164379E+03 -0.25778857861E+03  0.67874959820E+03  0.73900336537E+03  0.25500000920E-02 0. -1.
       -2    1    3    3    0  502  0.13773164379E+03  0.25778857861E+03 -0.21719059634E+04  0.21914836233E+04  0.25500000920E-02 0.  1.
</event>
<event>
 5   0  0.2452457E-05  0.2510333E+04  0.7818609E-02  0.8399314E-01
       -2   -1    0    0    0  501  0.00000000000E+00  0.00000000000E+00  0.71087117703E+03  0.71087117703E+03  0.25500000920E-02 0. -1.
        2   -1    0    0  501    0  0.00000000000E+00  0.00000000000E+00 -0.22162139986E+04  0.22162139986E+04  0.25500000920E-02 0.  1.
    10030    2    1    2    0    0  0.00000000000E+00  0.00000000000E+00 -0.15053428216E+04  0.29270851757E+04  0.25103327698E+04 0.  0.
        1    1    3    3  502    0 -0.25576815467E+03  0.77162382768E+01  0.68013532705E+03  0.72667802526E+03  0.50400001928E-02 0. -1.
       -1    1    3    3    0  502  0.25576815467E+03 -0.77162382768E+01 -0.21854781486E+04  0.22004071504E+04  0.50400001928E-02 0.  1.
</event>
<event>
 5   0  0.8166500E-06  0.2410954E+04  0.7818609E-02  0.8435414E-01
        3   -1    0    0  501    0  0.00000000000E+00  0.00000000000E+00  0.17677170131E+04  0.17677170160E+04  0.10100000352E+00 0. -1.
       -3   -1    0    0    0  501  0.00000000000E+00  0.00000000000E+00 -0.82206321706E+03  0.82206322327E+03  0.10100000352E+00 0.  1.
    10030    2    1    2    0    0  0.00000000000E+00  0.00000000000E+00  0.94565379605E+03  0.25897802393E+04  0.24109542894E+04 0.  0.
        4    1    3    3  502    0 -0.51388653813E+02 -0.94577089623E+03 -0.32817015467E+03  0.10024074248E+04  0.12699999809E+01 0.  1.
       -4    1    3    3    0  502  0.51388653813E+02  0.94577089623E+03  0.12738239507E+04  0.15873728145E+04  0.12699999809E+01 0. -1.
</event>
<event>
 5   0  0.1008073E-05  0.2463995E+04  0.7818609E-02  0.8415926E-01
       -1   -1    0    0    0  501  0.00000000000E+00  0.00000000000E+00  0.86910861276E+03  0.86910861278E+03  0.50400001928E-02 0.  1.
        1   -1    0    0  501    0  0.00000000000E+00  0.00000000000E+00 -0.17464068382E+04  0.17464068382E+04  0.50400001928E-02 0. -1.
    10030    2    1    2    0    0  0.00000000000E+00  0.00000000000E+00 -0.87729822540E+03  0.26155154509E+04  0.24639945004E+04 0.  0.
        1    1    3    3  502    0  0.79672623753E+03 -0.64433070912E+03 -0.11647315634E+04  0.15513008654E+04  0.50400001928E-02 0. -1.
       -1    1    3    3    0  502 -0.79672623753E+03  0.64433070912E+03  0.28743333796E+03  0.10642145855E+04  0.50400001928E-02 0.  1.
</event>
<event>
 5   0  0.2452457E-05  0.2496060E+04  0.7818609E-02  0.8404391E-01
       -2   -1    0    0    0  501  0.00000000000E+00  0.00000000000E+00  0.61081826859E+03  0.61081826859E+03  0.25500000920E-02 0.  1.
        2   -1    0    0  501    0  0.00000000000E+00  0.00000000000E+00 -0.25499864017E+04  0.25499864017E+04  0.25500000920E-02 0. -1.
    10030    2    1    2    0    0  0.00000000000E+00  0.00000000000E+00 -0.19391681331E+04  0.31608046703E+04  0.24960595176E+04 0.  0.
        1    1    3    3  502    0  0.62815323591E+03 -0.72215508657E+03  0.44651791215E+02  0.95816399396E+03  0.50400001928E-02 0.  1.
       -1    1    3    3    0  502 -0.62815323591E+03  0.72215508657E+03 -0.19838199243E+04  0.22026406763E+04  0.50400001928E-02 0. -1.
</event>
<event>
 5   0  0.1010338E-05  0.2510603E+04  0.7818609E-02  0.8399218E-01
       -1   -1    0    0    0  501  0.00000000000E+00  0.00000000000E+00  0.10857520665E+04  0.10857520666E+04  0.50400001928E-02 0.  1.
        1   -1    0    0  501    0  0.00000000000E+00  0.00000000000E+00 -0.14513272567E+04  0.14513272567E+04  0.50400001928E-02 0. -1.
    10030    2    1    2    0    0  0.00000000000E+00  0.00000000000E+00 -0.36557519019E+03  0.25370793233E+04  0.25106027709E+04 0.  0.
        2    1    3    3  502    0  0.10868153311E+04 -0.55718297980E+03 -0.47595239548E+03  0.13107826363E+04  0.25500000920E-02 0.  1.
       -2    1    3    3    0  502 -0.10868153311E+04  0.55718297980E+03  0.11037720529E+03  0.12262966870E+04  0.25500000920E-02 0. -1.
</event>
<event>
 5   0  0.1039688E-05  0.2512736E+04  0.7818609E-02  0.8398462E-01
       -1   -1    0    0    0  501  0.00000000000E+00  0.00000000000E+00  0.12908893714E+04  0.12908893714E+04  0.50400001928E-02 0.  1.
        1   -1    0    0  501    0  0.00000000000E+00  0.00000000000E+00 -0.12227700573E+04  0.12227700574E+04  0.50400001928E-02 0. -1.
    10030    2    1    2    0    0  0.00000000000E+00  0.00000000000E+00  0.68119314032E+02  0.25136594288E+04  0.25127362541E+04 0.  0.
        3    1    3    3  502    0 -0.44592940544E+03  0.93102920601E+03  0.75041802446E+03  0.12762427820E+04  0.10100000352E+00 0.  1.
       -3    1    3    3    0  502  0.44592940544E+03 -0.93102920601E+03 -0.68229871043E+03  0.12374166467E+04  0.10100000352E+00 0. -1.
</event>
<event>
 5   0  0.1015327E-05  0.2495869E+04  0.7818609E-02  0.8404459E-01
       -1   -1    0    0    0  501  0.00000000000E+00  0.00000000000E+00  0.88301089266E+03  0.88301089268E+03  0.50400001928E-02 0.  1.
        1   -1    0    0  501    0  0.00000000000E+00  0.00000000000E+00 -0.17636701414E+04  0.17636701414E+04  0.50400001928E-02 0. -1.
    10030    2    1    2    0    0  0.00000000000E+00  0.00000000000E+00 -0.88065924874E+03  0.26466810341E+04  0.24958685430E+04 0.  0.
        4    1    3    3  502    0  0.12390917100E+04 -0.12684539538E+03 -0.52178456244E+03  0.13504439132E+04  0.12699999809E+01 0.  1.
       -4    1    3    3    0  502 -0.12390917100E+04  0.12684539538E+03 -0.35887468630E+03  0.12962371209E+04  0.12699999809E+01 0. -1.
</event>
<event>
 5   0  0.2452457E-05  0.2514652E+04  0.7818609E-02  0.8397784E-01
       -2   -1    0    0    0  501  0.00000000000E+00  0.00000000000E+00  0.54876370393E+03  0.54876370394E+03  0.25500000920E-02 0. -1.
        2   -1    0    0  501    0  0.00000000000E+00  0.00000000000E+00 -0.28807829902E+04  0.28807829902E+04  0.25500000920E-02 0.  1.
    10030    2    1    2    0    0  0.00000000000E+00  0.00000000000E+00 -0.23320192862E+04  0.34295466941E+04  0.25146523767E+04 0.  0.
        1    1    3    3  502    0 -0.26544313856E+03  0.42280049274E+03  0.40780513385E+03  0.64461255316E+03  0.50400001928E-02 0. -1.
       -1    1    3    3    0  502  0.26544313856E+03 -0.42280049274E+03 -0.27398244201E+04  0.27849341409E+04  0.50400001928E-02 0.  1.
</event>
<event>
 5   0  0.1010338E-05  0.2498152E+04  0.7818609E-02  0.8403644E-01
        1   -1    0    0  501    0  0.00000000000E+00  0.00000000000E+00  0.11391030222E+04  0.11391030222E+04  0.50400001928E-02 0.  1.
       -1   -1    0    0    0  501  0.00000000000E+00  0.00000000000E+00 -0.13696657977E+04  0.13696657977E+04  0.50400001928E-02 0. -1.
    10030    2    1    2    0    0  0.00000000000E+00  0.00000000000E+00 -0.23056277556E+03  0.25087688199E+04  0.24981516764E+04 0.  0.
        2    1    3    3  502    0 -0.25394661009E+03  0.91448533021E+03 -0.93077823881E+03  0.13293308203E+04  0.25500000920E-02 0. -1.
       -2    1    3    3    0  502  0.25394661009E+03 -0.91448533021E+03  0.70021546325E+03  0.11794379996E+04  0.25500000920E-02 0.  1.
</event>
<event>
 5   0  0.1002753E-05  0.2565922E+04  0.7818609E-02  0.8379870E-01
        1   -1    0    0  501    0  0.00000000000E+00  0.00000000000E+00  0.83256164615E+03  0.83256164617E+03  0.50400001928E-02 0.  1.
       -1   -1    0    0    0  501  0.00000000000E+00  0.00000000000E+00 -0.19770168159E+04  0.19770168159E+04  0.50400001928E-02 0. -1.
    10030    2    1    2    0    0  0.00000000000E+00  0.00000000000E+00 -0.11444551697E+04  0.28095784621E+04  0.25659215691E+04 0.  0.
        5    1    3    3  502    0 -0.69360844215E+03 -0.16381947542E+03 -0.17403165983E+04  0.18805992247E+04  0.46999998093E+01 0. -1.
       -5    1    3    3    0  502  0.69360844215E+03  0.16381947542E+03  0.59586142853E+03  0.92897923742E+03  0.46999998093E+01 0.  1.
</event>
<event>
 5   0  0.1002753E-05  0.2508103E+04  0.7818609E-02  0.8400105E-01
       -1   -1    0    0    0  501  0.00000000000E+00  0.00000000000E+00  0.95169235623E+03  0.95169235625E+03  0.50400001928E-02 0. -1.
        1   -1    0    0  501    0  0.00000000000E+00  0.00000000000E+00 -0.16524717249E+04  0.16524717249E+04  0.50400001928E-02 0.  1.
    10030    2    1    2    0    0  0.00000000000E+00  0.00000000000E+00 -0.70077936870E+03  0.26041640812E+04  0.25081026371E+04 0.  0.
        5    1    3    3  502    0 -0.86253234998E+03  0.62949388786E+03  0.33236530560E+03  0.11183529836E+04  0.46999998093E+01 0. -1.
       -5    1    3    3    0  502  0.86253234998E+03 -0.62949388786E+03 -0.10331446743E+04  0.14858110976E+04  0.46999998093E+01 0.  1.
</event>
<event>
 5   0  0.2452457E-05  0.2535967E+04  0.7818609E-02  0.8390283E-01
        2   -1    0    0  501    0  0.00000000000E+00  0.00000000000E+00  0.13380661553E+04  0.13380661553E+04  0.25500000920E-02 0. -1.
       -2   -1    0    0    0  501  0.00000000000E+00  0.00000000000E+00 -0.12015713552E+04  0.12015713552E+04  0.25500000920E-02 0.  1.
    10030    2    1    2    0    0  0.00000000000E+00  0.00000000000E+00  0.13649480012E+03  0.25396375104E+04  0.25359668479E+04 0.  0.
        1    1    3    3  502    0 -0.25295442475E+03 -0.69586139503E+03 -0.96259812666E+03  0.12144151578E+04  0.50400001928E-02 0.  1.
       -1    1    3    3    0  502  0.25295442475E+03  0.69586139503E+03  0.10990929268E+04  0.13252223526E+04  0.50400001928E-02 0. -1.
</event>
<event>
 5   0  0.1002753E-05  0.2477745E+04  0.7818609E-02  0.8410957E-01
        1   -1    0    0  501    0  0.00000000000E+00  0.00000000000E+00  0.16371192992E+04  0.16371192992E+04  0.50400001928E-02 0.  1.
       -1   -1    0    0    0  501  0.00000000000E+00  0.00000000000E+00 -0.93750366132E+03  0.93750366133E+03  0.50400001928E-02 0. -1.
    10030    2    1    2    0    0  0.00000000000E+00  0.00000000000E+00  0.69961563788E+03  0.25746229605E+04  0.24777452145E+04 0.  0.
        5    1    3    3  502    0  0.50042093629E+03 -0.48895773931E+02  0.15263192454E+04  0.16070110265E+04  0.46999998093E+01 0.  1.
       -5    1    3    3    0  502 -0.50042093629E+03  0.48895773931E+02 -0.82670360757E+03  0.96761193407E+03  0.46999998093E+01 0. -1.
</event>
<event>
 5   0  0.2388326E-05  0.2438992E+04  0.7818609E-02  0.8425048E-01
        2   -1    0    0  501    0  0.00000000000E+00  0.00000000000E+00  0.19881080866E+04  0.19881080867E+04  0.25500000920E-02 0. -1.
       -2   -1    0    0    0  501  0.00000000000E+00  0.00000000000E+00 -0.74803323493E+03  0.74803323494E+03  0.25500000920E-02 0.  1.
    10030    2    1    2    0    0  0.00000000000E+00  0.00000000000E+00  0.12400748517E+04  0.27361413216E+04  0.24389923521E+04 0.  0.
        2    1    3    3  502    0  0.26458730092E+03  0.10528783939E+04 -0.31722525798E+01  0.10856193695E+04  0.25500000920E-02 0.  1.
       -2    1    3    3    0  502 -0.26458730092E+03 -0.10528783939E+04  0.12432471043E+04  0.16505219521E+04  0.25500000920E-02 0. -1.
</event>
<event>
 5   0  0.1010338E-05  0.2506620E+04  0.7818609E-02  0.8400631E-01
        1   -1    0    0  501    0  0.00000000000E+00  0.00000000000E+00  0.14094102304E+04  0.14094102305E+04  0.50400001928E-02 0.  1.
       -1   -1    0    0    0  501  0.00000000000E+00  0.00000000000E+00 -0.11144991170E+04  0.11144991170E+04  0.50400001928E-02 0. -1.
    10030    2    1    2    0    0  0.00000000000E+00  0.00000000000E+00  0.29491111343E+03  0.25239093475E+04  0.25066204000E+04 0.  0.
        2    1    3    3  502    0  0.22863098948E+03 -0.11631646651E+04 -0.26224437767E+03  0.12140824853E+04  0.25500000920E-02 0. -1.
       -2    1    3    3    0  502 -0.22863098948E+03  0.11631646651E+04  0.55715549110E+03  0.13098268622E+04  0.25500000920E-02 0.  1.
</event>
<event>
 5   0  0.2345143E-05  0.2478076E+04  0.7818609E-02  0.8410838E-01
        2   -1    0    0  501    0  0.00000000000E+00  0.00000000000E+00  0.12987902606E+04  0.12987902606E+04  0.25500000920E-02 0. -1.
       -2   -1    0    0    0  501  0.00000000000E+00  0.00000000000E+00 -0.11820350717E+04  0.11820350717E+04  0.25500000920E-02 0.  1.
    10030    2    1    2    0    0  0.00000000000E+00  0.00000000000E+00  0.11675518889E+03  0.24808253324E+04  0.24780763821E+04 0.  0.
        5    1    3    3  502    0  0.53604621577E+03  0.11151121117E+04  0.12457947704E+03  0.12435283282E+04  0.46999998093E+01 0. -1.
       -5    1    3    3    0  502 -0.53604621577E+03 -0.11151121117E+04 -0.78242881527E+01  0.12372970042E+04  0.46999998093E+01 0.  1.
</event>
<event>
 5   0  0.2432309E-05  0.2429652E+04  0.7818609E-02  0.8428485E-01
        2   -1    0    0  501    0  0.00000000000E+00  0.00000000000E+00  0.18840104016E+04  0.18840104016E+04  0.25500000920E-02 0.  1.
       -2   -1    0    0    0  501  0.00000000000E+00  0.00000000000E+00 -0.78333007824E+03  0.78333007824E+03  0.25500000920E-02 0. -1.
    10030    2    1    2    0    0  0.00000000000E+00  0.00000000000E+00  0.11006803234E+04  0.26673404799E+04  0.24296518395E+04 0.  0.
        4    1    3    3  502    0  0.18991715518E+03  0.49560031262E+03 -0.64931652674E+03  0.83863088454E+03  0.12699999809E+01 0. -1.
       -4    1    3    3    0  502 -0.18991715518E+03 -0.49560031262E+03  0.17499968501E+04  0.18287095953E+04  0.12699999809E+01 0.  1.
</event>
<event>
 5   0  0.2432309E-05  0.2476805E+04  0.7818609E-02  0.8411296E-01
        2   -1    0    0  501    0  0.00000000000E+00  0.00000000000E+00  0.15849207792E+04  0.15849207792E+04  0.25500000920E-02 0.  1.
       -2   -1    0    0    0  501  0.00000000000E+00  0.00000000000E+00 -0.96764505241E+03  0.96764505242E+03  0.25500000920E-02 0. -1.
    10030    2    1    2    0    0  0.00000000000E+00  0.00000000000E+00  0.61727572677E+03  0.25525658316E+04  0.24768049987E+04 0.  0.
        4    1    3    3  502    0  0.93028527556E+03 -0.30019144207E+03  0.10922194010E+04  0.14657729799E+04  0.12699999809E+01 0.  1.
       -4    1    3    3    0  502 -0.93028527556E+03  0.30019144207E+03 -0.47494367426E+03  0.10867928517E+04  0.12699999809E+01 0. -1.
</event>
<event>
 5   0  0.8166500E-06  0.2465587E+04  0.7818609E-02  0.8415349E-01
        3   -1    0    0  501    0  0.00000000000E+00  0.00000000000E+00  0.18344216804E+04  0.18344216832E+04  0.10100000352E+00 0.  1.
       -3   -1    0    0    0  501  0.00000000000E+00  0.00000000000E+00 -0.82847908576E+03  0.82847909192E+03  0.10100000352E+00 0. -1.
    10030    2    1    2    0    0  0.00000000000E+00  0.00000000000E+00  0.10059425946E+04  0.26629007751E+04  0.24655871581E+04 0.  0.
        4    1    3    3  502    0 -0.62344338366E+03 -0.10630395495E+04  0.46808025116E+03  0.13182698778E+04  0.12699999809E+01 0. -1.
       -4    1    3    3    0  502  0.62344338366E+03  0.10630395495E+04  0.53786234346E+03  0.13446308972E+04  0.12699999809E+01 0.  1.
</event>
<event>
 5   0  0.8166500E-06  0.2672675E+04  0.7818609E-02  0.8343926E-01
        3   -1    0    0  501    0  0.00000000000E+00  0.00000000000E+00  0.15261408466E+04  0.15261408499E+04  0.10100000352E+00 0.  1.
       -3   -1    0    0    0  501  0.00000000000E+00  0.00000000000E+00 -0.11701394343E+04  0.11701394386E+04  0.10100000352E+00 0. -1.
    10030    2    1    2    0    0  0.00000000000E+00  0.00000000000E+00  0.35600141228E+03  0.26962802885E+04  0.26726747630E+04 0.  0.
        5    1    3    3  502    0 -0.12479771462E+03 -0.11923303908E+04 -0.41759425773E+03  0.12695011952E+04  0.46999998093E+01 0. -1.
       -5    1    3    3    0  502  0.12479771462E+03  0.11923303908E+04  0.77359567001E+03  0.14267790933E+04  0.46999998093E+01 0.  1.
</event>
<event>
 5   0  0.1002753E-05  0.2450072E+04  0.7818609E-02  0.8420992E-01
        1   -1    0    0  501    0  0.00000000000E+00  0.00000000000E+00  0.18962175145E+04  0.18962175145E+04  0.50400001928E-02 0.  1.
       -1   -1    0    0    0  501  0.00000000000E+00  0.00000000000E+00 -0.79142475970E+03  0.79142475972E+03  0.50400001928E-02 0. -1.
    10030    2    1    2    0    0  0.00000000000E+00  0.00000000000E+00  0.11047927548E+04  0.26876422742E+04  0.24500722363E+04 0.  0.
        5    1    3    3  502    0  0.74382835448E+03 -0.96942829236E+03  0.64815054555E+03  0.13831822203E+04  0.46999998093E+01 0. -1.
       -5    1    3    3    0  502 -0.74382835448E+03  0.96942829236E+03  0.45664220927E+03  0.13044600539E+04  0.46999998093E+01 0.  1.
</event>
<event>
 5   0  0.2452457E-05  0.2487625E+04  0.7818609E-02  0.8407408E-01
        2   -1    0    0  501    0  0.00000000000E+00  0.00000000000E+00  0.23202669778E+04  0.23202669778E+04  0.25500000920E-02 0.  1.
       -2   -1    0    0    0  501  0.00000000000E+00  0.00000000000E+00 -0.66676353537E+03  0.66676353538E+03  0.25500000920E-02 0. -1.
    10030    2    1    2    0    0  0.00000000000E+00  0.00000000000E+00  0.16535034424E+04  0.29870305132E+04  0.24876249019E+04 0.  0.
        1    1    3    3  502    0 -0.47927388719E+02  0.23615389440E+03 -0.63846765893E+03  0.68242702757E+03  0.50400001928E-02 0. -1.
       -1    1    3    3    0  502  0.47927388719E+02 -0.23615389440E+03  0.22919711013E+04  0.23046034856E+04  0.50400001928E-02 0.  1.
</event>
<event>
 5   0  0.2345143E-05  0.2515438E+04  0.7818609E-02  0.8397506E-01
       -2   -1    0    0    0  501  0.00000000000E+00  0.00000000000E+00  0.15875361664E+04  0.15875361664E+04  0.25500000920E-02 0. -1.
        2   -1    0    0  501    0  0.00000000000E+00  0.00000000000E+00 -0.99642248078E+03  0.99642248079E+03  0.25500000920E-02 0.  1.
    10030    2    1    2    0    0  0.00000000000E+00  0.00000000000E+00  0.59111368564E+03  0.25839586472E+04  0.25154377156E+04 0.  0.
        5    1    3    3  502    0 -0.56262385972E+03 -0.38651170232E+03  0.13806928840E+04  0.15402181123E+04  0.46999998093E+01 0. -1.
       -5    1    3    3    0  502  0.56262385972E+03  0.38651170232E+03 -0.78957919841E+03  0.10437405349E+04  0.46999998093E+01 0.  1.
</event>
<event>
 5   0  0.1002753E-05  0.2506744E+04  0.7818609E-02  0.8400587E-01
       -1   -1    0    0    0  501  0.00000000000E+00  0.00000000000E+00  0.96807884223E+03  0.96807884225E+03  0.50400001928E-02 0.  1.
        1   -1    0    0  501    0  0.00000000000E+00  0.00000000000E+00 -0.16227413321E+04  0.16227413321E+04  0.50400001928E-02 0. -1.
    10030    2    1    2    0    0  0.00000000000E+00  0.00000000000E+00 -0.65466248989E+03  0.25908201744E+04  0.25067441434E+04 0.  0.
        5    1    3    3  502    0  0.11412877229E+04  0.45745540314E+03 -0.57862463153E+03  0.13589082627E+04  0.46999998093E+01 0.  1.
       -5    1    3    3    0  502 -0.11412877229E+04 -0.45745540314E+03 -0.76037858361E+02  0.12319119117E+04  0.46999998093E+01 0. -1.
</event>
<event>
 5   0  0.2432309E-05  0.2559387E+04  0.7818609E-02  0.8382129E-01
       -2   -1    0    0    0  501  0.00000000000E+00  0.00000000000E+00  0.73579531035E+03  0.73579531035E+03  0.25500000920E-02 0.  1.
        2   -1    0    0  501    0  0.00000000000E+00  0.00000000000E+00 -0.22256395443E+04  0.22256395443E+04  0.25500000920E-02 0. -1.
    10030    2    1    2    0    0  0.00000000000E+00  0.00000000000E+00 -0.14898442340E+04  0.29614348547E+04  0.25593867541E+04 0.  0.
        4    1    3    3  502    0 -0.76717971736E+03 -0.76436672203E+03 -0.15337744933E+04  0.18775747691E+04  0.12699999809E+01 0. -1.
       -4    1    3    3    0  502  0.76717971736E+03  0.76436672203E+03  0.43930259316E+02  0.10838600856E+04  0.12699999809E+01 0.  1.
</event>
<event>
 5   0  0.2452457E-05  0.2477209E+04  0.7818609E-02  0.8411150E-01
        2   -1    0    0  501    0  0.00000000000E+00  0.00000000000E+00  0.16313382922E+04  0.16313382922E+04  0.25500000920E-02 0.  1.
       -2   -1    0    0    0  501  0.00000000000E+00  0.00000000000E+00 -0.94041854032E+03  0.94041854033E+03  0.25500000920E-02 0. -1.
    10030    2    1    2    0    0  0.00000000000E+00  0.00000000000E+00  0.69091975189E+03  0.25717568325E+04  0.24772087321E+04 0.  0.
        1    1    3    3  502    0  0.76412562827E+03 -0.64487090792E+03 -0.41346399557E+03  0.10819884192E+04  0.50400001928E-02 0. -1.
       -1    1    3    3    0  502 -0.76412562827E+03  0.64487090792E+03  0.11043837475E+04  0.14897684133E+04  0.50400001928E-02 0.  1.
</event>
<event>
 5   0  0.1039688E-05  0.2484787E+04  0.7818609E-02  0.8408425E-01
        1   -1    0    0  501    0  0.00000000000E+00  0.00000000000E+00  0.17919198747E+04  0.17919198747E+04  0.50400001928E-02 0. -1.
       -1   -1    0    0    0  501  0.00000000000E+00  0.00000000000E+00 -0.86138959387E+03  0.86138959388E+03  0.50400001928E-02 0.  1.
    10030    2    1    2    0    0  0.00000000000E+00  0.00000000000E+00  0.93053028087E+03  0.26533094686E+04  0.24847866171E+04 0.  0.
        3    1    3    3  502    0 -0.12073310611E+04 -0.61904184319E+02  0.77115594799E+03  0.14339323295E+04  0.10100000352E+00 0. -1.
       -3    1    3    3    0  502  0.12073310611E+04  0.61904184319E+02  0.15937433288E+03  0.12193771391E+04  0.10100000352E+00 0.  1.
</event>
<event>
 5   0  0.2441340E-05  0.2519753E+04  0.7818609E-02  0.8395982E-01
       -2   -1    0    0    0  501  0.00000000000E+00  0.00000000000E+00  0.90816928491E+03  0.90816928491E+03  0.25500000920E-02 0.  1.
        2   -1    0    0  501    0  0.00000000000E+00  0.00000000000E+00 -0.17477898213E+04  0.17477898213E+04  0.25500000920E-02 0. -1.
    10030    2    1    2    0    0  0.00000000000E+00  0.00000000000E+00 -0.83962053636E+03  0.26559591062E+04  0.25197531880E+04 0.  0.
        3    1    3    3  502    0  0.64205351303E+03 -0.83744239727E+03 -0.11453085796E+04  0.15573291993E+04  0.10100000352E+00 0. -1.
       -3    1    3    3    0  502 -0.64205351303E+03  0.83744239727E+03  0.30568804322E+03  0.10986299069E+04  0.10100000352E+00 0.  1.
</event>
<event>
 5   0  0.1039688E-05  0.2494737E+04  0.7818609E-02  0.8404863E-01
        1   -1    0    0  501    0  0.00000000000E+00  0.00000000000E+00  0.10789268500E+04  0.10789268500E+04  0.50400001928E-02 0.  1.
       -1   -1    0    0    0  501  0.00000000000E+00  0.00000000000E+00 -0.14421077329E+04  0.14421077329E+04  0.50400001928E-02 0. -1.
    10030    2    1    2    0    0  0.00000000000E+00  0.00000000000E+00 -0.36318088294E+03  0.25210345829E+04  0.24947374640E+04 0.  0.
        3    1    3    3  502    0 -0.93281693185E+03 -0.57469741325E+03 -0.78411717537E+03  0.13473174459E+04  0.10100000352E+00 0. -1.
       -3    1    3    3    0  502  0.93281693185E+03  0.57469741325E+03  0.42093629243E+03  0.11737171370E+04  0.10100000352E+00 0.  1.
</event>
<event>
 5   0  0.1002753E-05  0.2496656E+04  0.7818609E-02  0.8404178E-01
        1   -1    0    0  501    0  0.00000000000E+00  0.00000000000E+00  0.29108230321E+04  0.29108230321E+04  0.50400001928E-02 0. -1.
       -1   -1    0    0    0  501  0.00000000000E+00  0.00000000000E+00 -0.53535468964E+03  0.53535468967E+03  0.50400001928E-02 0.  1.
    10030    2    1    2    0    0  0.00000000000E+00  0.00000000000E+00  0.23754683425E+04  0.34461777218E+04  0.24966559723E+04 0.  0.
        5    1    3    3  502    0 -0.98757961777E+03 -0.76088706782E+02  0.13905834806E+03  0.10002311267E+04  0.46999998093E+01 0.  1.
       -5    1    3    3    0  502  0.98757961777E+03  0.76088706782E+02  0.22364099944E+04  0.24459465951E+04  0.46999998093E+01 0. -1.
</event>
<event>
 5   0  0.1008073E-05  0.2480544E+04  0.7818609E-02  0.8409950E-01
       -1   -1    0    0    0  501  0.00000000000E+00  0.00000000000E+00  0.79257189865E+03  0.79257189866E+03  0.50400001928E-02 0.  1.
        1   -1    0    0  501    0  0.00000000000E+00  0.00000000000E+00 -0.19408644401E+04  0.19408644401E+04  0.50400001928E-02 0. -1.
    10030    2    1    2    0    0  0.00000000000E+00  0.00000000000E+00 -0.11482925414E+04  0.27334363387E+04  0.24805439841E+04 0.  0.
        1    1    3    3  502    0  0.63501363771E+03 -0.10644946083E+04 -0.52632209435E+03  0.13466276539E+04  0.50400001928E-02 0.  1.
       -1    1    3    3    0  502 -0.63501363771E+03  0.10644946083E+04 -0.62197044708E+03  0.13868086848E+04  0.50400001928E-02 0. -1.
</event>
<event>
 5   0  0.1008073E-05  0.2495997E+04  0.7818609E-02  0.8404413E-01
        1   -1    0    0  501    0  0.00000000000E+00  0.00000000000E+00  0.16191504636E+04  0.16191504636E+04  0.50400001928E-02 0. -1.
       -1   -1    0    0    0  501  0.00000000000E+00  0.00000000000E+00 -0.96192436875E+03  0.96192436876E+03  0.50400001928E-02 0.  1.
    10030    2    1    2    0    0  0.00000000000E+00  0.00000000000E+00  0.65722609481E+03  0.25810748323E+04  0.24959970253E+04 0.  0.
        1    1    3    3  502    0  0.39760606293E+03 -0.11219699053E+01 -0.89467512942E+03  0.97904822523E+03  0.50400001928E-02 0.  1.
       -1    1    3    3    0  502 -0.39760606293E+03  0.11219699053E+01  0.15519012242E+04  0.16020266071E+04  0.50400001928E-02 0. -1.
</event>
<event>
 5   0  0.2441340E-05  0.2465684E+04  0.7818609E-02  0.8415314E-01
       -2   -1    0    0    0  501  0.00000000000E+00  0.00000000000E+00  0.77081445967E+03  0.77081445967E+03  0.25500000920E-02 0. -1.
        2   -1    0    0  501    0  0.00000000000E+00  0.00000000000E+00 -0.19718096101E+04  0.19718096101E+04  0.25500000920E-02 0.  1.
    10030    2    1    2    0    0  0.00000000000E+00  0.00000000000E+00 -0.12009951504E+04  0.27426240698E+04  0.24656839694E+04 0.  0.
        3    1    3    3  502    0 -0.65115888619E+03 -0.10468248182E+04 -0.60830395178E+03  0.13747304474E+04  0.10100000352E+00 0.  1.
       -3    1    3    3    0  502  0.65115888619E+03  0.10468248182E+04 -0.59269119865E+03  0.13678936224E+04  0.10100000352E+00 0. -1.
</event>
<event>
 5   0  0.1008073E-05  0.2489768E+04  0.7818609E-02  0.8406640E-01
       -1   -1    0    0    0  501  0.00000000000E+00  0.00000000000E+00  0.13395030172E+04  0.13395030172E+04  0.50400001928E-02 0. -1.
        1   -1    0    0  501    0  0.00000000000E+00  0.00000000000E+00 -0.11569485479E+04  0.11569485479E+04  0.50400001928E-02 0.  1.
    10030    2    1    2    0    0  0.00000000000E+00  0.00000000000E+00  0.18255446930E+03  0.24964515652E+04  0.24897679175E+04 0.  0.
        1    1    3    3  502    0  0.90006683725E+03 -0.60974841582E+02 -0.76887047769E+03  0.11853269820E+04  0.50400001928E-02 0.  1.
       -1    1    3    3    0  502 -0.90006683725E+03  0.60974841582E+02  0.95142494699E+03  0.13111245832E+04  0.50400001928E-02 0. -1.
</event>
<event>
 5   0  0.1010338E-05  0.2578875E+04  0.7818609E-02  0.8375412E-01
       -1   -1    0    0    0  501  0.00000000000E+00  0.00000000000E+00  0.16618272684E+04  0.16618272684E+04  0.50400001928E-02 0.  1.
        1   -1    0    0  501    0  0.00000000000E+00  0.00000000000E+00 -0.10004948191E+04  0.10004948191E+04  0.50400001928E-02 0. -1.
    10030    2    1    2    0    0  0.00000000000E+00  0.00000000000E+00  0.66133244930E+03  0.26623220874E+04  0.25788753923E+04 0.  0.
        2    1    3    3  502    0 -0.33077378608E+03 -0.70473333837E+03 -0.73049975902E+03  0.10675627727E+04  0.25500000920E-02 0. -1.
       -2    1    3    3    0  502  0.33077378608E+03  0.70473333837E+03  0.13918322083E+04  0.15947593147E+04  0.25500000920E-02 0.  1.
</event>
<event>
 5   0  0.1002753E-05  0.2386090E+04  0.7818609E-02  0.8444730E-01
        1   -1    0    0  501    0  0.00000000000E+00  0.00000000000E+00  0.10421396299E+04  0.10421396299E+04  0.50400001928E-02 0.  1.
       -1   -1    0    0    0  501  0.00000000000E+00  0.00000000000E+00 -0.13658016059E+04  0.13658016059E+04  0.50400001928E-02 0. -1.
    10030    2    1    2    0    0  0.00000000000E+00  0.00000000000E+00 -0.32366197605E+03  0.24079412358E+04  0.23860896715E+04 0.  0.
        5    1    3    3  502    0 -0.38504219241E+03 -0.10857812523E+03  0.97242262028E+03  0.10515105999E+04  0.46999998093E+01 0.  1.
       -5    1    3    3    0  502  0.38504219241E+03  0.10857812523E+03 -0.12960845963E+04  0.13564306359E+04  0.46999998093E+01 0. -1.
</event>
<event>
 5   0  0.2452457E-05  0.2492929E+04  0.7818609E-02  0.8405509E-01
        2   -1    0    0  501    0  0.00000000000E+00  0.00000000000E+00  0.17976957371E+04  0.17976957371E+04  0.25500000920E-02 0.  1.
       -2   -1    0    0    0  501  0.00000000000E+00  0.00000000000E+00 -0.86425878812E+03  0.86425878812E+03  0.25500000920E-02 0. -1.
    10030    2    1    2    0    0  0.00000000000E+00  0.00000000000E+00  0.93343694894E+03  0.26619545252E+04  0.24929294728E+04 0.  0.
        1    1    3    3  502    0 -0.60638568034E+02  0.38442217374E+03 -0.79772155954E+03  0.88759063209E+03  0.50400001928E-02 0. -1.
       -1    1    3    3    0  502  0.60638568034E+02 -0.38442217374E+03  0.17311585085E+04  0.17743638931E+04  0.50400001928E-02 0.  1.
</event>
<event>
 5   0  0.2441340E-05  0.2492088E+04  0.7818609E-02  0.8405810E-01
       -2   -1    0    0    0  501  0.00000000000E+00  0.00000000000E+00  0.87754669190E+03  0.87754669191E+03  0.25500000920E-02 0.  1.
        2   -1    0    0  501    0  0.00000000000E+00  0.00000000000E+00 -0.17692800269E+04  0.17692800269E+04  0.25500000920E-02 0. -1.
    10030    2    1    2    0    0  0.00000000000E+00  0.00000000000E+00 -0.89173333504E+03  0.26468267189E+04  0.24920881483E+04 0.  0.
        3    1    3    3  502    0 -0.44139978075E+03 -0.51508318176E+03 -0.15559846326E+04  0.16974194053E+04  0.10100000352E+00 0. -1.
       -3    1    3    3    0  502  0.44139978075E+03  0.51508318176E+03  0.66425129751E+03  0.94940731355E+03  0.10100000352E+00 0.  1.
</event>
<event>
 5   0  0.1008073E-05  0.2173635E+04  0.7818609E-02  0.8529482E-01
       -1   -1    0    0    0  501  0.00000000000E+00  0.00000000000E+00  0.91931011725E+03  0.91931011727E+03  0.50400001928E-02 0.  1.
        1   -1    0    0  501    0  0.00000000000E+00  0.00000000000E+00 -0.12848468403E+04  0.12848468403E+04  0.50400001928E-02 0. -1.
    10030    2    1    2    0    0  0.00000000000E+00  0.00000000000E+00 -0.36553672304E+03  0.22041569576E+04  0.21736353875E+04 0.  0.
        1    1    3    3  502    0 -0.26841676543E+03  0.47010868004E+03 -0.11384040765E+04  0.12605608167E+04  0.50400001928E-02 0. -1.
       -1    1    3    3    0  502  0.26841676543E+03 -0.47010868004E+03  0.77286735349E+03  0.94359614091E+03  0.50400001928E-02 0.  1.
</event>
<event>
 5   0  0.1010338E-05  0.2599227E+04  0.7818609E-02  0.8368464E-01
       -1   -1    0    0    0  501  0.00000000000E+00  0.00000000000E+00  0.16688715917E+04  0.16688715917E+04  0.50400001928E-02 0.  1.
        1   -1    0    0  501    0  0.00000000000E+00  0.00000000000E+00 -0.10120582101E+04  0.10120582101E+04  0.50400001928E-02 0. -1.
    10030    2    1    2    0    0  0.00000000000E+00  0.00000000000E+00  0.65681338162E+03  0.26809298018E+04  0.25992269589E+04 0.  0.
        2    1    3    3  502    0  0.90349603296E+01  0.12444643942E+04 -0.57826169757E+02  0.12458399275E+04  0.25500000920E-02 0. -1.
       -2    1    3    3    0  502 -0.90349603296E+01 -0.12444643942E+04  0.71463955138E+03  0.14350898743E+04  0.25500000920E-02 0.  1.
</event>
<event>
 5   0  0.1015327E-05  0.2433553E+04  0.7818609E-02  0.8427048E-01
        1   -1    0    0  501    0  0.00000000000E+00  0.00000000000E+00  0.18930309839E+04  0.18930309839E+04  0.50400001928E-02 0.  1.
       -1   -1    0    0    0  501  0.00000000000E+00  0.00000000000E+00 -0.78210263919E+03  0.78210263920E+03  0.50400001928E-02 0. -1.
    10030    2    1    2    0    0  0.00000000000E+00  0.00000000000E+00  0.11109283447E+04  0.26751336231E+04  0.24335525707E+04 0.  0.
        4    1    3    3  502    0 -0.45917770041E+03  0.91155571225E+03  0.12836139236E+04  0.16399525282E+04  0.12699999809E+01 0.  1.
       -4    1    3    3    0  502  0.45917770041E+03 -0.91155571225E+03 -0.17268557891E+03  0.10351810949E+04  0.12699999809E+01 0. -1.
</event>
<event>
 5   0  0.1039688E-05  0.2104588E+04  0.7818609E-02  0.8559225E-01
        1   -1    0    0  501    0  0.00000000000E+00  0.00000000000E+00  0.82449426763E+03  0.82449426764E+03  0.50400001928E-02 0. -1.
       -1   -1    0    0    0  501  0.00000000000E+00  0.00000000000E+00 -0.13430322064E+04  0.13430322064E+04  0.50400001928E-02 0.  1.
    10030    2    1    2    0    0  0.00000000000E+00  0.00000000000E+00 -0.51853793878E+03  0.21675264741E+04  0.21045877083E+04 0.  0.
        3    1    3    3  502    0 -0.18668475928E+03 -0.96420090496E+03 -0.64844212199E+03  0.11768652345E+04  0.10100000352E+00 0.  1.
       -3    1    3    3    0  502  0.18668475928E+03  0.96420090496E+03  0.12990418320E+03  0.99066123953E+03  0.10100000352E+00 0. -1.
</event>
<event>
 5   0  0.1008073E-05  0.2502548E+04  0.7818609E-02  0.8402078E-01
        1   -1    0    0  501    0  0.00000000000E+00  0.00000000000E+00  0.10961523346E+04  0.10961523347E+04  0.50400001928E-02 0. -1.
       -1   -1    0    0    0  501  0.00000000000E+00  0.00000000000E+00 -0.14283479755E+04  0.14283479755E+04  0.50400001928E-02 0.  1.
    10030    2    1    2    0    0  0.00000000000E+00  0.00000000000E+00 -0.33219564085E+03  0.25245003102E+04  0.25025482757E+04 0.  0.
        1    1    3    3  502    0 -0.42786472439E+03 -0.10849187634E+04 -0.62347327687E+03  0.13224355836E+04  0.50400001928E-02 0.  1.
       -1    1    3    3    0  502  0.42786472439E+03  0.10849187634E+04  0.29127763602E+03  0.12020647266E+04  0.50400001928E-02 0. -1.
</event>
<event>
 5   0  0.2432309E-05  0.2165466E+04  0.7818609E-02  0.8532941E-01
        2   -1    0    0  501    0  0.00000000000E+00  0.00000000000E+00  0.17686765299E+04  0.17686765299E+04  0.25500000920E-02 0.  1.
       -2   -1    0    0    0  501  0.00000000000E+00  0.00000000000E+00 -0.66281783944E+03  0.66281783945E+03  0.25500000920E-02 0. -1.
    10030    2    1    2    0    0  0.00000000000E+00  0.00000000000E+00  0.11058586904E+04  0.24314943693E+04  0.21654656370E+04 0.  0.
        4    1    3    3  502    0 -0.40860617819E+03 -0.45363366071E+03 -0.45110644728E+03  0.75910549112E+03  0.12699999809E+01 0. -1.
       -4    1    3    3    0  502  0.40860617819E+03  0.45363366071E+03  0.15569651377E+04  0.16723888782E+04  0.12699999809E+01 0.  1.
</event>
<event>
 5   0  0.2432309E-05  0.2499398E+04  0.7818609E-02  0.8403200E-01
        2   -1    0    0  501    0  0.00000000000E+00  0.00000000000E+00  0.19997482606E+04  0.19997482606E+04  0.25500000920E-02 0. -1.
       -2   -1    0    0    0  501  0.00000000000E+00  0.00000000000E+00 -0.78097228166E+03  0.78097228166E+03  0.25500000920E-02 0.  1.
    10030    2    1    2    0    0  0.00000000000E+00  0.00000000000E+00  0.12187759789E+04  0.27807205422E+04  0.24993982970E+04 0.  0.
        4    1    3    3  502    0  0.17750630286E+03 -0.63312825857E+03 -0.57295414297E+03  0.87214559691E+03  0.12699999809E+01 0.  1.
       -4    1    3    3    0  502 -0.17750630286E+03  0.63312825857E+03  0.17917301219E+04  0.19085749453E+04  0.12699999809E+01 0. -1.
</event>
<event>
 5   0  0.1008073E-05  0.2099115E+04  0.7818609E-02  0.8561634E-01
        1   -1    0    0  501    0  0.00000000000E+00  0.00000000000E+00  0.18071691432E+04  0.18071691432E+04  0.50400001928E-02 0.  1.
       -1   -1    0    0    0  501  0.00000000000E+00  0.00000000000E+00 -0.60955580519E+03  0.60955580521E+03  0.50400001928E-02 0. -1.
    10030    2    1    2    0    0  0.00000000000E+00  0.00000000000E+00  0.11976133380E+04  0.24167249484E+04  0.20991145202E+04 0.  0.
        1    1    3    3  502    0  0.93048405934E+03  0.65237897807E+02  0.11527681963E+04  0.14828793216E+04  0.50400001928E-02 0.  1.
       -1    1    3    3    0  502 -0.93048405934E+03 -0.65237897807E+02  0.44845141739E+02  0.93384562684E+03  0.50400001928E-02 0. -1.
</event>
<event>
 5   0  0.1015327E-05  0.2481872E+04  0.7818609E-02  0.8409472E-01
        1   -1    0    0  501    0  0.00000000000E+00  0.00000000000E+00  0.13410370689E+04  0.13410370689E+04  0.50400001928E-02 0.  1.
       -1   -1    0    0    0  501  0.00000000000E+00  0.00000000000E+00 -0.11483065882E+04  0.11483065882E+04  0.50400001928E-02 0. -1.
    10030    2    1    2    0    0  0.00000000000E+00  0.00000000000E+00  0.19273048072E+03  0.24893436571E+04  0.24818716335E+04 0.  0.
        4    1    3    3  502    0 -0.11076727564E+04 -0.39208833521E+03  0.49662541868E+03  0.12756608551E+04  0.12699999809E+01 0.  1.
       -4    1    3    3    0  502  0.11076727564E+04  0.39208833521E+03 -0.30389493796E+03  0.12136828020E+04  0.12699999809E+01 0. -1.
</event>
<event>
 5   0  0.2432309E-05  0.2482367E+04  0.7818609E-02  0.8409294E-01
       -2   -1    0    0    0  501  0.00000000000E+00  0.00000000000E+00  0.13065105044E+04  0.13065105044E+04  0.25500000920E-02 0. -1.
        2   -1    0    0  501    0  0.00000000000E+00  0.00000000000E+00 -0.11791233773E+04  0.11791233773E+04  0.25500000920E-02 0.  1.
    10030    2    1    2    0    0  0.00000000000E+00  0.00000000000E+00  0.12738712711E+03  0.24856338817E+04  0.24823674816E+04 0.  0.
        4    1    3    3  502    0  0.11492271632E+04  0.42507310628E+03  0.26175486738E+03  0.12529674544E+04  0.12699999809E+01 0. -1.
       -4    1    3    3    0  502 -0.11492271632E+04 -0.42507310628E+03 -0.13436774026E+03  0.12326664273E+04  0.12699999809E+01 0.  1.
</event>
<event>
 5   0  0.2432309E-05  0.2659267E+04  0.7818609E-02  0.8348344E-01
       -2   -1    0    0    0  501  0.00000000000E+00  0.00000000000E+00  0.11367249672E+04  0.11367249672E+04  0.25500000920E-02 0. -1.
        2   -1    0    0  501    0  0.00000000000E+00  0.00000000000E+00 -0.15552792097E+04  0.15552792097E+04  0.25500000920E-02 0.  1.
    10030    2    1    2    0    0  0.00000000000E+00  0.00000000000E+00 -0.41855424253E+03  0.26920041769E+04  0.26592665971E+04 0.  0.
        4    1    3    3  502    0  0.57351364597E+02  0.56201274846E+03  0.10091916715E+04  0.11565539119E+04  0.12699999809E+01 0. -1.
       -4    1    3    3    0  502 -0.57351364597E+02 -0.56201274846E+03 -0.14277459140E+04  0.15354502650E+04  0.12699999809E+01 0.  1.
</event>
<event>
 5   0  0.2345143E-05  0.2476011E+04  0.7818609E-02  0.8411582E-01
        2   -1    0    0  501    0  0.00000000000E+00  0.00000000000E+00  0.17925050634E+04  0.17925050634E+04  0.25500000920E-02 0.  1.
       -2   -1    0    0    0  501  0.00000000000E+00  0.00000000000E+00 -0.85503638048E+03  0.85503638048E+03  0.25500000920E-02 0. -1.
    10030    2    1    2    0    0  0.00000000000E+00  0.00000000000E+00  0.93746868291E+03  0.26475414439E+04  0.24760105342E+04 0.  0.
        5    1    3    3  502    0  0.28876998502E+03  0.72685015492E+03 -0.55740167992E+03  0.96042593401E+03  0.46999998093E+01 0. -1.
       -5    1    3    3    0  502 -0.28876998502E+03 -0.72685015492E+03  0.14948703628E+04  0.16871155099E+04  0.46999998093E+01 0.  1.
</event>
<event>
 5   0  0.2452457E-05  0.2532761E+04  0.7818609E-02  0.8391406E-01
        2   -1    0    0  501    0  0.00000000000E+00  0.00000000000E+00  0.14259292827E+04  0.14259292827E+04  0.25500000920E-02 0.  1.
       -2   -1    0    0    0  501  0.00000000000E+00  0.00000000000E+00 -0.11246840308E+04  0.11246840308E+04  0.25500000920E-02 0. -1.
    10030    2    1    2    0    0  0.00000000000E+00  0.00000000000E+00  0.30124525190E+03  0.25506133134E+04  0.25327612546E+04 0.  0.
        1    1    3    3  502    0 -0.11585661351E+03 -0.11428883043E+04  0.68739311571E+03  0.13387030016E+04  0.50400001928E-02 0. -1.
       -1    1    3    3    0  502  0.11585661351E+03  0.11428883043E+04 -0.38614786381E+03  0.12119103118E+04  0.50400001928E-02 0.  1.
</event>
<event>
 5   0  0.8166500E-06  0.2631270E+04  0.7818609E-02  0.8357656E-01
       -3   -1    0    0    0  501  0.00000000000E+00  0.00000000000E+00  0.10034690485E+04  0.10034690536E+04  0.10100000352E+00 0. -1.
        3   -1    0    0  501    0  0.00000000000E+00  0.00000000000E+00 -0.17249115039E+04  0.17249115068E+04  0.10100000352E+00 0.  1.
    10030    2    1    2    0    0  0.00000000000E+00  0.00000000000E+00 -0.72144245534E+03  0.27283805604E+04  0.26312698961E+04 0.  0.
        4    1    3    3  502    0  0.57436733903E+03 -0.61650598152E+03  0.68697313052E+03  0.10871573761E+04  0.12699999809E+01 0. -1.
       -4    1    3    3    0  502 -0.57436733903E+03  0.61650598152E+03 -0.14084155859E+04  0.16412231843E+04  0.12699999809E+01 0.  1.
</event>
<event>
 5   0  0.2345143E-05  0.2487763E+04  0.7818609E-02  0.8407358E-01
        2   -1    0    0  501    0  0.00000000000E+00  0.00000000000E+00  0.16312999837E+04  0.16312999837E+04  0.25500000920E-02 0. -1.
       -2   -1    0    0    0  501  0.00000000000E+00  0.00000000000E+00 -0.94847120737E+03  0.94847120737E+03  0.25500000920E-02 0.  1.
    10030    2    1    2    0    0  0.00000000000E+00  0.00000000000E+00  0.68282877633E+03  0.25797711911E+04  0.24877629028E+04 0.  0.
        5    1    3    3  502    0  0.40237496545E+03 -0.79086392150E+01  0.15619105232E+04  0.16129335795E+04  0.46999998093E+01 0. -1.
       -5    1    3    3    0  502 -0.40237496545E+03  0.79086392150E+01 -0.87908174689E+03  0.96683761155E+03  0.46999998093E+01 0.  1.
</event>
<event>
 5   0  0.1010338E-05  0.2199571E+04  0.7818609E-02  0.8518607E-01
        1   -1    0    0  501    0  0.00000000000E+00  0.00000000000E+00  0.17898375693E+04  0.17898375693E+04  0.50400001928E-02 0. -1.
       -1   -1    0    0    0  501  0.00000000000E+00  0.00000000000E+00 -0.67577545062E+03  0.67577545064E+03  0.50400001928E-02 0.  1.
    10030    2    1    2    0    0  0.00000000000E+00  0.00000000000E+00  0.11140621186E+04  0.24656130199E+04  0.21995711309E+04 0.  0.
        2    1    3    3  502    0 -0.66379039254E+03 -0.44582647980E+03  0.14034419101E+04  0.16152486280E+04  0.25500000920E-02 0. -1.
       -2    1    3    3    0  502  0.66379039254E+03  0.44582647980E+03 -0.28937979144E+03  0.85036439190E+03  0.25500000920E-02 0.  1.
</event>
<event>
 5   0  0.2345143E-05  0.2500985E+04  0.7818609E-02  0.8402635E-01
       -2   -1    0    0    0  501  0.00000000000E+00  0.00000000000E+00  0.15085153802E+04  0.15085153802E+04  0.25500000920E-02 0. -1.
        2   -1    0    0  501    0  0.00000000000E+00  0.00000000000E+00 -0.10366027302E+04  0.10366027302E+04  0.25500000920E-02 0.  1.
    10030    2    1    2    0    0  0.00000000000E+00  0.00000000000E+00  0.47191264997E+03  0.25451181105E+04  0.25009847355E+04 0.  0.
        5    1    3    3  502    0  0.17589647191E+03 -0.11022397382E+04  0.80967524110E+03  0.13789373066E+04  0.46999998093E+01 0. -1.
       -5    1    3    3    0  502 -0.17589647191E+03  0.11022397382E+04 -0.33776259112E+03  0.11661808039E+04  0.46999998093E+01 0.  1.
</event>
<event>
 5   0  0.1039688E-05  0.2481335E+04  0.7818609E-02  0.8409665E-01
        1   -1    0    0  501    0  0.00000000000E+00  0.00000000000E+00  0.19980446092E+04  0.19980446092E+04  0.50400001928E-02 0. -1.
       -1   -1    0    0    0  501  0.00000000000E+00  0.00000000000E+00 -0.77038112741E+03  0.77038112742E+03  0.50400001928E-02 0.  1.
    10030    2    1    2    0    0  0.00000000000E+00  0.00000000000E+00  0.12276634817E+04  0.27684257366E+04  0.24813350105E+04 0.  0.
        3    1    3    3  502    0 -0.74453516136E+03 -0.14120522559E+03 -0.48216081502E+03  0.89819295475E+03  0.10100000352E+00 0.  1.
       -3    1    3    3    0  502  0.74453516136E+03  0.14120522559E+03  0.17098242968E+04  0.18702327818E+04  0.10100000352E+00 0. -1.
</event>
<event>
 5   0  0.1015327E-05  0.2521782E+04  0.7818609E-02  0.8395266E-01
       -1   -1    0    0    0  501  0.00000000000E+00  0.00000000000E+00  0.13704816060E+04  0.13704816060E+04  0.50400001928E-02 0. -1.
        1   -1    0    0  501    0  0.00000000000E+00  0.00000000000E+00 -0.11600636916E+04  0.11600636916E+04  0.50400001928E-02 0.  1.
    10030    2    1    2    0    0  0.00000000000E+00  0.00000000000E+00  0.21041791437E+03  0.25305452976E+04  0.25217818709E+04 0.  0.
        4    1    3    3  502    0 -0.67070272583E+03  0.76186295614E+03 -0.64543268855E+03  0.12028558844E+04  0.12699999809E+01 0.  1.
       -4    1    3    3    0  502  0.67070272583E+03 -0.76186295614E+03  0.85585060291E+03  0.13276894131E+04  0.12699999809E+01 0. -1.
</event>
<event>
 5   0  0.1039688E-05  0.2482628E+04  0.7818609E-02  0.8409201E-01
        1   -1    0    0  501    0  0.00000000000E+00  0.00000000000E+00  0.27057362831E+04  0.27057362831E+04  0.50400001928E-02 0.  1.
       -1   -1    0    0    0  501  0.00000000000E+00  0.00000000000E+00 -0.56947910586E+03  0.56947910588E+03  0.50400001928E-02 0. -1.
    10030    2    1    2    0    0  0.00000000000E+00  0.00000000000E+00  0.21362571772E+04  0.32752153890E+04  0.24826278652E+04 0.  0.
        3    1    3    3  502    0 -0.75571978337E+03  0.65066409170E+02 -0.22817756331E+03  0.79209282233E+03  0.10100000352E+00 0. -1.
       -3    1    3    3    0  502  0.75571978337E+03 -0.65066409170E+02  0.23644347406E+04  0.24831225667E+04  0.10100000352E+00 0.  1.
</event>
<event>
 5   0  0.1039688E-05  0.2462227E+04  0.7818609E-02  0.8416567E-01
       -1   -1    0    0    0  501  0.00000000000E+00  0.00000000000E+00  0.67194433962E+03  0.67194433964E+03  0.50400001928E-02 0.  1.
        1   -1    0    0  501    0  0.00000000000E+00  0.00000000000E+00 -0.22556036766E+04  0.22556036767E+04  0.50400001928E-02 0. -1.
    10030    2    1    2    0    0  0.00000000000E+00  0.00000000000E+00 -0.15836593370E+04  0.29275480163E+04  0.24622267345E+04 0.  0.
        3    1    3    3  502    0  0.85071233311E+03 -0.68597488118E+03 -0.11780360200E+03  0.10991590923E+04  0.10100000352E+00 0.  1.
       -3    1    3    3    0  502 -0.85071233311E+03  0.68597488118E+03 -0.14658557350E+04  0.18283889240E+04  0.10100000352E+00 0. -1.
</event>
<event>
 5   0  0.2388326E-05  0.2482367E+04  0.7818609E-02  0.8409295E-01
        2   -1    0    0  501    0  0.00000000000E+00  0.00000000000E+00  0.14962258154E+04  0.14962258154E+04  0.25500000920E-02 0.  1.
       -2   -1    0    0    0  501  0.00000000000E+00  0.00000000000E+00 -0.10296146197E+04  0.10296146197E+04  0.25500000920E-02 0. -1.
    10030    2    1    2    0    0  0.00000000000E+00  0.00000000000E+00  0.46661119572E+03  0.25258404350E+04  0.24823665917E+04 0.  0.
        2    1    3    3  502    0  0.93990021387E+03  0.81063156702E+03  0.23314682773E+03  0.12628908871E+04  0.25500000920E-02 0. -1.
       -2    1    3    3    0  502 -0.93990021387E+03 -0.81063156702E+03  0.23346436799E+03  0.12629495479E+04  0.25500000920E-02 0.  1.
</event>
<event>
 5   0  0.1002753E-05  0.2529360E+04  0.7818609E-02  0.8392600E-01
        1   -1    0    0  501    0  0.00000000000E+00  0.00000000000E+00  0.14292548171E+04  0.14292548171E+04  0.50400001928E-02 0.  1.
       -1   -1    0    0    0  501  0.00000000000E+00  0.00000000000E+00 -0.11190558035E+04  0.11190558035E+04  0.50400001928E-02 0. -1.
    10030    2    1    2    0    0  0.00000000000E+00  0.00000000000E+00  0.31019901354E+03  0.25483106206E+04  0.25293603126E+04 0.  0.
        5    1    3    3  502    0  0.59372757053E+03  0.73561566356E+03 -0.69128442102E+03  0.11711272660E+04  0.46999998093E+01 0. -1.
       -5    1    3    3    0  502 -0.59372757053E+03 -0.73561566356E+03  0.10014834346E+04  0.13771833546E+04  0.46999998093E+01 0.  1.
</event>
<event>
 5   0  0.1010338E-05  0.2506626E+04  0.7818609E-02  0.8400629E-01
       -1   -1    0    0    0  501  0.00000000000E+00  0.00000000000E+00  0.23132836242E+04  0.23132836242E+04  0.50400001928E-02 0.  1.
        1   -1    0    0  501    0  0.00000000000E+00  0.00000000000E+00 -0.67903168950E+03  0.67903168952E+03  0.50400001928E-02 0. -1.
    10030    2    1    2    0    0  0.00000000000E+00  0.00000000000E+00  0.16342519347E+04  0.29923153137E+04  0.25066255306E+04 0.  0.
        2    1    3    3  502    0 -0.63558934076E+03  0.48905830251E+03 -0.33263583635E+03  0.86821566040E+03  0.25500000920E-02 0. -1.
       -2    1    3    3    0  502  0.63558934076E+03 -0.48905830251E+03  0.19668877710E+04  0.21240996533E+04  0.25500000920E-02 0.  1.
</event>
<event>
 5   0  0.1039688E-05  0.2494206E+04  0.7818609E-02  0.8405052E-01
        1   -1    0    0  501    0  0.00000000000E+00  0.00000000000E+00  0.11221624185E+04  0.11221624185E+04  0.50400001928E-02 0.  1.
       -1   -1    0    0    0  501  0.00000000000E+00  0.00000000000E+00 -0.13859547261E+04  0.13859547261E+04  0.50400001928E-02 0. -1.
    10030    2    1    2    0    0  0.00000000000E+00  0.00000000000E+00 -0.26379230758E+03  0.25081171446E+04  0.24942063325E+04 0.  0.
        3    1    3    3  502    0 -0.24510953482E+02  0.53454844329E+03 -0.12646437644E+04  0.13731957931E+04  0.10100000352E+00 0. -1.
       -3    1    3    3    0  502  0.24510953482E+02 -0.53454844329E+03  0.10008514569E+04  0.11349213515E+04  0.10100000352E+00 0.  1.
</event>
<event>
 5   0  0.2452457E-05  0.2513115E+04  0.7818609E-02  0.8398328E-01
        2   -1    0    0  501    0  0.00000000000E+00  0.00000000000E+00  0.11201172090E+04  0.11201172090E+04  0.25500000920E-02 0.  1.
       -2   -1    0    0    0  501  0.00000000000E+00  0.00000000000E+00 -0.14096171488E+04  0.14096171488E+04  0.25500000920E-02 0. -1.
    10030    2    1    2    0    0  0.00000000000E+00  0.00000000000E+00 -0.28949993981E+03  0.25297343578E+04  0.25131147419E+04 0.  0.
        1    1    3    3  502    0  0.98401064826E+03 -0.23223412197E+03  0.60632563973E+03  0.11789149353E+04  0.50400001928E-02 0.  1.
       -1    1    3    3    0  502 -0.98401064826E+03  0.23223412197E+03 -0.89582557954E+03  0.13508194225E+04  0.50400001928E-02 0. -1.
</event>
<event>
 5   0  0.2388326E-05  0.2558929E+04  0.7818609E-02  0.8382288E-01
       -2   -1    0    0    0  501  0.00000000000E+00  0.00000000000E+00  0.69196498495E+03  0.69196498495E+03  0.25500000920E-02 0.  1.
        2   -1    0    0  501    0  0.00000000000E+00  0.00000000000E+00 -0.23657686822E+04  0.23657686823E+04  0.25500000920E-02 0. -1.
    10030    2    1    2    0    0  0.00000000000E+00  0.00000000000E+00 -0.16738036973E+04  0.30577336672E+04  0.25589287529E+04 0.  0.
        2    1    3    3  502    0  0.70966022491E+03  0.44947692960E+03  0.31630010223E+03  0.89760397712E+03  0.25500000920E-02 0.  1.
       -2    1    3    3    0  502 -0.70966022491E+03 -0.44947692960E+03 -0.19901037995E+04  0.21601296901E+04  0.25500000920E-02 0. -1.
</event>
<event>
 5   0  0.1039688E-05  0.2522889E+04  0.7818609E-02  0.8394876E-01
        1   -1    0    0  501    0  0.00000000000E+00  0.00000000000E+00  0.14148569473E+04  0.14148569473E+04  0.50400001928E-02 0. -1.
       -1   -1    0    0    0  501  0.00000000000E+00  0.00000000000E+00 -0.11246663475E+04  0.11246663475E+04  0.50400001928E-02 0.  1.
    10030    2    1    2    0    0  0.00000000000E+00  0.00000000000E+00  0.29019059983E+03  0.25395232948E+04  0.25228888166E+04 0.  0.
        3    1    3    3  502    0  0.44084061562E+03  0.88051352926E+03  0.93870817582E+03  0.13604475635E+04  0.10100000352E+00 0. -1.
       -3    1    3    3    0  502 -0.44084061562E+03 -0.88051352926E+03 -0.64851757599E+03  0.11790757313E+04  0.10100000352E+00 0.  1.
</event>
<event>
 5   0  0.2452457E-05  0.2486934E+04  0.7818609E-02  0.8407655E-01
       -2   -1    0    0    0  501  0.00000000000E+00  0.00000000000E+00  0.11137116868E+04  0.11137116868E+04  0.25500000920E-02 0. -1.
        2   -1    0    0  501    0  0.00000000000E+00  0.00000000000E+00 -0.13883395776E+04  0.13883395776E+04  0.25500000920E-02 0.  1.
    10030    2    1    2    0    0  0.00000000000E+00  0.00000000000E+00 -0.27462789084E+03  0.25020512644E+04  0.24869338655E+04 0.  0.
        1    1    3    3  502    0 -0.66088670231E+03 -0.10532987610E+04 -0.13660281928E+03  0.12509475782E+04  0.50400001928E-02 0.  1.
       -1    1    3    3    0  502  0.66088670231E+03  0.10532987610E+04 -0.13802507156E+03  0.12511036862E+04  0.50400001928E-02 0. -1.
</event>
<event>
 5   0  0.1008073E-05  0.2514686E+04  0.7818609E-02  0.8397772E-01
        1   -1    0    0  501    0  0.00000000000E+00  0.00000000000E+00  0.15403926259E+04  0.15403926259E+04  0.50400001928E-02 0. -1.
       -1   -1    0    0    0  501  0.00000000000E+00  0.00000000000E+00 -0.10263043582E+04  0.10263043582E+04  0.50400001928E-02 0.  1.
    10030    2    1    2    0    0  0.00000000000E+00  0.00000000000E+00  0.51408826774E+03  0.25666969841E+04  0.25146861954E+04 0.  0.
        1    1    3    3  502    0  0.11378186702E+03  0.96866959377E+03  0.10669574396E+04  0.14455674571E+04  0.50400001928E-02 0. -1.
       -1    1    3    3    0  502 -0.11378186702E+03 -0.96866959377E+03 -0.55286917184E+03  0.11211295270E+04  0.50400001928E-02 0.  1.
</event>
<event>
 5   0  0.1039688E-05  0.2476024E+04  0.7818609E-02  0.8411577E-01
        1   -1    0    0  501    0  0.00000000000E+00  0.00000000000E+00  0.17675785756E+04  0.17675785757E+04  0.50400001928E-02 0.  1.
       -1   -1    0    0    0  501  0.00000000000E+00  0.00000000000E+00 -0.86710330036E+03  0.86710330037E+03  0.50400001928E-02 0. -1.
    10030    2    1    2    0    0  0.00000000000E+00  0.00000000000E+00  0.90047527529E+03  0.26346818760E+04  0.24760235997E+04 0.  0.
        3    1    3    3  502    0  0.29501810406E+03 -0.66360497250E+03  0.15171135104E+04  0.16819752242E+04  0.10100000352E+00 0.  1.
       -3    1    3    3    0  502 -0.29501810406E+03  0.66360497250E+03 -0.61663823509E+03  0.95270665182E+03  0.10100000352E+00 0. -1.
</event>
<event>
 5   0  0.2432309E-05  0.2469986E+04  0.7818609E-02  0.8413757E-01
        2   -1    0    0  501    0  0.00000000000E+00  0.00000000000E+00  0.11996037954E+04  0.11996037954E+04  0.25500000920E-02 0.  1.
       -2   -1    0    0    0  501  0.00000000000E+00  0.00000000000E+00 -0.12714263651E+04  0.12714263651E+04  0.25500000920E-02 0. -1.
    10030    2    1    2    0    0  0.00000000000E+00  0.00000000000E+00 -0.71822569644E+02  0.24710301605E+04  0.24699861483E+04 0.  0.
        4    1    3    3  502    0 -0.22714710687E+03 -0.39932341977E+03  0.11109376340E+04  0.12021809520E+04  0.12699999809E+01 0.  1.
       -4    1    3    3    0  502  0.22714710687E+03  0.39932341977E+03 -0.11827602037E+04  0.12688492085E+04  0.12699999809E+01 0. -1.
</event>
<event>
 5   0  0.8166500E-06  0.2443755E+04  0.7818609E-02  0.8423302E-01
       -4   -1    0    0    0  501  0.00000000000E+00  0.00000000000E+00  0.17828227663E+04  0.17828232187E+04  0.12699999809E+01 0.  1.
        4   -1    0    0  501    0  0.00000000000E+00  0.00000000000E+00 -0.83742637891E+03  0.83742734192E+03  0.12699999809E+01 0. -1.
    10030    2    1    2    0    0  0.00000000000E+00  0.00000000000E+00  0.94539638740E+03  0.26202505606E+04  0.24437550350E+04 0.  0.
        5    1    3    3  502    0 -0.35819139554E+03 -0.11403287156E+04  0.20078461337E+03  0.12120178243E+04  0.46999998093E+01 0. -1.
       -5    1    3    3    0  502  0.35819139554E+03  0.11403287156E+04  0.74461177403E+03  0.14082327363E+04  0.46999998093E+01 0.  1.
</event>
<event>
 5   0  0.2452457E-05  0.2479980E+04  0.7818609E-02  0.8410153E-01
        2   -1    0    0  501    0  0.00000000000E+00  0.00000000000E+00  0.16177479185E+04  0.16177479185E+04  0.25500000920E-02 0. -1.
       -2   -1    0    0    0  501  0.00000000000E+00  0.00000000000E+00 -0.95044145868E+03  0.95044145869E+03  0.25500000920E-02 0.  1.
    10030    2    1    2    0    0  0.00000000000E+00  0.00000000000E+00  0.66730645979E+03  0.25681893772E+04  0.24799795898E+04 0.  0.
        1    1    3    3  502    0 -0.10792946970E+04  0.84817812982E+02  0.95972592072E+03  0.14467705234E+04  0.50400001928E-02 0. -1.
       -1    1    3    3    0  502  0.10792946970E+04 -0.84817812982E+02 -0.29241946093E+03  0.11214188538E+04  0.50400001928E-02 0.  1.
</event>
<event>
 5   0  0.2345143E-05  0.2475291E+04  0.7818609E-02  0.8411841E-01
        2   -1    0    0  501    0  0.00000000000E+00  0.00000000000E+00  0.16554551526E+04  0.16554551526E+04  0.25500000920E-02 0.  1.
       -2   -1    0    0    0  501  0.00000000000E+00  0.00000000000E+00 -0.92528436818E+03  0.92528436818E+03  0.25500000920E-02 0. -1.
    10030    2    1    2    0    0  0.00000000000E+00  0.00000000000E+00  0.73017078438E+03  0.25807395207E+04  0.24752913161E+04 0.  0.
        5    1    3    3  502    0 -0.36813752747E+03 -0.40862200840E+03 -0.79086054037E+03  0.96331701386E+03  0.46999998093E+01 0. -1.
       -5    1    3    3    0  502  0.36813752747E+03  0.40862200840E+03  0.15210313247E+04  0.16174225069E+04  0.46999998093E+01 0.  1.
</event>
<event>
 5   0  0.2432309E-05  0.2444868E+04  0.7818609E-02  0.8422894E-01
        2   -1    0    0  501    0  0.00000000000E+00  0.00000000000E+00  0.25075002150E+04  0.25075002150E+04  0.25500000920E-02 0.  1.
       -2   -1    0    0    0  501  0.00000000000E+00  0.00000000000E+00 -0.59595004242E+03  0.59595004243E+03  0.25500000920E-02 0. -1.
    10030    2    1    2    0    0  0.00000000000E+00  0.00000000000E+00  0.19115501725E+04  0.31034502574E+04  0.24448679797E+04 0.  0.
        4    1    3    3  502    0 -0.11044874338E+04  0.40299161844E+03  0.13806806524E+04  0.18134429720E+04  0.12699999809E+01 0.  1.
       -4    1    3    3    0  502  0.11044874338E+04 -0.40299161844E+03  0.53086952019E+03  0.12900072854E+04  0.12699999809E+01 0. -1.
</event>
<event>
 5   0  0.1039688E-05  0.2489151E+04  0.7818609E-02  0.8406861E-01
        1   -1    0    0  501    0  0.00000000000E+00  0.00000000000E+00  0.13104216314E+04  0.13104216315E+04  0.50400001928E-02 0. -1.
       -1   -1    0    0    0  501  0.00000000000E+00  0.00000000000E+00 -0.11820381512E+04  0.11820381512E+04  0.50400001928E-02 0.  1.
    10030    2    1    2    0    0  0.00000000000E+00  0.00000000000E+00  0.12838348023E+03  0.24924597827E+04  0.24891511505E+04 0.  0.
        3    1    3    3  502    0 -0.50748127452E+03 -0.10496930536E+04  0.50017329061E+03  0.12686867547E+04  0.10100000352E+00 0. -1.
       -3    1    3    3    0  502  0.50748127452E+03  0.10496930536E+04 -0.37178981037E+03  0.12237730280E+04  0.10100000352E+00 0.  1.
</event>
<event>
 5   0  0.1039688E-05  0.2511820E+04  0.7818609E-02  0.8398787E-01
        1   -1    0    0  501    0  0.00000000000E+00  0.00000000000E+00  0.16977229496E+04  0.16977229496E+04  0.50400001928E-02 0. -1.
       -1   -1    0    0    0  501  0.00000000000E+00  0.00000000000E+00 -0.92907359447E+03  0.92907359449E+03  0.50400001928E-02 0.  1.
    10030    2    1    2    0    0  0.00000000000E+00  0.00000000000E+00  0.76864935511E+03  0.26267965441E+04  0.25118197095E+04 0.  0.
        3    1    3    3  502    0 -0.98128449870E+03 -0.39440110221E+03  0.10927069561E+04  0.15206840562E+04  0.10100000352E+00 0. -1.
       -3    1    3    3    0  502  0.98128449870E+03  0.39440110221E+03 -0.32405760097E+03  0.11061124878E+04  0.10100000352E+00 0.  1.
</event>
<event>
 5   0  0.2441340E-05  0.2496347E+04  0.7818609E-02  0.8404288E-01
        2   -1    0    0  501    0  0.00000000000E+00  0.00000000000E+00  0.87939445267E+03  0.87939445267E+03  0.25500000920E-02 0. -1.
       -2   -1    0    0    0  501  0.00000000000E+00  0.00000000000E+00 -0.17716020829E+04  0.17716020829E+04  0.25500000920E-02 0.  1.
    10030    2    1    2    0    0  0.00000000000E+00  0.00000000000E+00 -0.89220763019E+03  0.26509965355E+04  0.24963469663E+04 0.  0.
        3    1    3    3  502    0 -0.10097378533E+04  0.41996419343E+03 -0.10850384709E+04  0.15405352802E+04  0.10100000352E+00 0. -1.
       -3    1    3    3    0  502  0.10097378533E+04 -0.41996419343E+03  0.19283084071E+03  0.11104612553E+04  0.10100000352E+00 0.  1.
</event>
<event>
 5   0  0.2432309E-05  0.2555455E+04  0.7818609E-02  0.8383491E-01
        2   -1    0    0  501    0  0.00000000000E+00  0.00000000000E+00  0.18869797710E+04  0.18869797710E+04  0.25500000920E-02 0. -1.
       -2   -1    0    0    0  501  0.00000000000E+00  0.00000000000E+00 -0.86518582967E+03  0.86518582967E+03  0.25500000920E-02 0.  1.
    10030    2    1    2    0    0  0.00000000000E+00  0.00000000000E+00  0.10217939413E+04  0.27521656007E+04  0.25554554653E+04 0.  0.
        4    1    3    3  502    0 -0.23499029702E+03  0.25748303629E+03 -0.81298215641E+03  0.88456743848E+03  0.12699999809E+01 0.  1.
       -4    1    3    3    0  502  0.23499029702E+03 -0.25748303629E+03  0.18347760977E+04  0.18675981622E+04  0.12699999809E+01 0. -1.
</event>
<event>
 5   0  0.1015327E-05  0.2351732E+04  0.7818609E-02  0.8457798E-01
       -1   -1    0    0    0  501  0.00000000000E+00  0.00000000000E+00  0.14438262768E+04  0.14438262768E+04  0.50400001928E-02 0. -1.
        1   -1    0    0  501    0  0.00000000000E+00  0.00000000000E+00 -0.95763697170E+03  0.95763697171E+03  0.50400001928E-02 0.  1.
    10030    2    1    2    0    0  0.00000000000E+00  0.00000000000E+00  0.48618930513E+03  0.24014632485E+04  0.23517324877E+04 0.  0.
        4    1    3    3  502    0 -0.43456533296E+03  0.32390297172E+03 -0.82247527272E+03  0.98500119332E+03  0.12699999809E+01 0. -1.
       -4    1    3    3    0  502  0.43456533296E+03 -0.32390297172E+03  0.13086645778E+04  0.14164620552E+04  0.12699999809E+01 0.  1.
</event>
<event>
 5   0  0.1008073E-05  0.2491318E+04  0.7818609E-02  0.8406085E-01
        1   -1    0    0  501    0  0.00000000000E+00  0.00000000000E+00  0.14629986412E+04  0.14629986412E+04  0.50400001928E-02 0. -1.
       -1   -1    0    0    0  501  0.00000000000E+00  0.00000000000E+00 -0.10606068672E+04  0.10606068672E+04  0.50400001928E-02 0.  1.
    10030    2    1    2    0    0  0.00000000000E+00  0.00000000000E+00  0.40239177403E+03  0.25236055084E+04  0.24913180492E+04 0.  0.
        1    1    3    3  502    0 -0.80778758963E+03  0.75914219185E+03 -0.37436575856E+03  0.11700287939E+04  0.50400001928E-02 0.  1.
       -1    1    3    3    0  502  0.80778758963E+03 -0.75914219185E+03  0.77675753260E+03  0.13535767144E+04  0.50400001928E-02 0. -1.
</event>
<event>
 5   0  0.1010338E-05  0.2479308E+04  0.7818609E-02  0.8410394E-01
        1   -1    0    0  501    0  0.00000000000E+00  0.00000000000E+00  0.12455700730E+04  0.12455700731E+04  0.50400001928E-02 0. -1.
       -1   -1    0    0    0  501  0.00000000000E+00  0.00000000000E+00 -0.12337662682E+04  0.12337662682E+04  0.50400001928E-02 0.  1.
    10030    2    1    2    0    0  0.00000000000E+00  0.00000000000E+00  0.11803804838E+02  0.24793363413E+04  0.24793082429E+04 0.  0.
        2    1    3    3  502    0  0.52171789817E+03 -0.61114419185E+03  0.94986998947E+03  0.12441622826E+04  0.25500000920E-02 0. -1.
       -2    1    3    3    0  502 -0.52171789817E+03  0.61114419185E+03 -0.93806618463E+03  0.12351740587E+04  0.25500000920E-02 0.  1.
</event>
<event>
 5   0  0.2432309E-05  0.2518867E+04  0.7818609E-02  0.8396295E-01
       -2   -1    0    0    0  501  0.00000000000E+00  0.00000000000E+00  0.14583794404E+04  0.14583794404E+04  0.25500000920E-02 0. -1.
        2   -1    0    0  501    0  0.00000000000E+00  0.00000000000E+00 -0.10876265599E+04  0.10876265599E+04  0.25500000920E-02 0.  1.
    10030    2    1    2    0    0  0.00000000000E+00  0.00000000000E+00  0.37075288043E+03  0.25460060003E+04  0.25188665815E+04 0.  0.
        4    1    3    3  502    0  0.70246985521E+03  0.46276270721E+03  0.11327894061E+04  0.14109665737E+04  0.12699999809E+01 0. -1.
       -4    1    3    3    0  502 -0.70246985521E+03 -0.46276270721E+03 -0.76203652563E+03  0.11350394266E+04  0.12699999809E+01 0.  1.
</event>
<event>
 5   0  0.2432309E-05  0.2549856E+04  0.7818609E-02  0.8385436E-01
       -2   -1    0    0    0  501  0.00000000000E+00  0.00000000000E+00  0.10710005696E+04  0.10710005696E+04  0.25500000920E-02 0.  1.
        2   -1    0    0  501    0  0.00000000000E+00  0.00000000000E+00 -0.15176848395E+04  0.15176848395E+04  0.25500000920E-02 0. -1.
    10030    2    1    2    0    0  0.00000000000E+00  0.00000000000E+00 -0.44668426987E+03  0.25886854092E+04  0.25498559392E+04 0.  0.
        4    1    3    3  502    0  0.81862945133E+03  0.51096834636E+03 -0.10692147435E+04  0.14403001806E+04  0.12699999809E+01 0. -1.
       -4    1    3    3    0  502 -0.81862945133E+03 -0.51096834636E+03  0.62253047367E+03  0.11483852285E+04  0.12699999809E+01 0.  1.
</event>
<event>
 5   0  0.2345143E-05  0.2502386E+04  0.7818609E-02  0.8402136E-01
        2   -1    0    0  501    0  0.00000000000E+00  0.00000000000E+00  0.11148421988E+04  0.11148421988E+04  0.25500000920E-02 0. -1.
       -2   -1    0    0    0  501  0.00000000000E+00  0.00000000000E+00 -0.14042205644E+04  0.14042205644E+04  0.25500000920E-02 0.  1.
    10030    2    1    2    0    0  0.00000000000E+00  0.00000000000E+00 -0.28937836557E+03  0.25190627632E+04  0.25023863344E+04 0.  0.
        5    1    3    3  502    0 -0.46373634615E+03  0.44237922748E+03  0.93704703040E+03  0.11352664915E+04  0.46999998093E+01 0. -1.
       -5    1    3    3    0  502  0.46373634615E+03 -0.44237922748E+03 -0.12264253960E+04  0.13837962717E+04  0.46999998093E+01 0.  1.
</event>
<event>
 5   0  0.1039688E-05  0.2508620E+04  0.7818609E-02  0.8399921E-01
        1   -1    0    0  501    0  0.00000000000E+00  0.00000000000E+00  0.12951826707E+04  0.12951826708E+04  0.50400001928E-02 0. -1.
       -1   -1    0    0    0  501  0.00000000000E+00  0.00000000000E+00 -0.12147270027E+04  0.12147270027E+04  0.50400001928E-02 0.  1.
    10030    2    1    2    0    0  0.00000000000E+00  0.00000000000E+00  0.80455668049E+02  0.25099096735E+04  0.25086198306E+04 0.  0.
        3    1    3    3  502    0 -0.88586213962E+03  0.37248062682E+03 -0.76628824467E+03  0.12291017988E+04  0.10100000352E+00 0.  1.
       -3    1    3    3    0  502  0.88586213962E+03 -0.37248062682E+03  0.84674391272E+03  0.12808078746E+04  0.10100000352E+00 0. -1.
</event>
<event>
 5   0  0.1010338E-05  0.2497050E+04  0.7818609E-02  0.8404037E-01
        1   -1    0    0  501    0  0.00000000000E+00  0.00000000000E+00  0.13446802081E+04  0.13446802081E+04  0.50400001928E-02 0. -1.
       -1   -1    0    0    0  501  0.00000000000E+00  0.00000000000E+00 -0.11592454777E+04  0.11592454777E+04  0.50400001928E-02 0.  1.
    10030    2    1    2    0    0  0.00000000000E+00  0.00000000000E+00  0.18543473035E+03  0.25039256858E+04  0.24970498195E+04 0.  0.
        2    1    3    3  502    0 -0.43501952085E+03  0.29258102810E+03  0.12289610040E+04  0.13361103214E+04  0.25500000920E-02 0. -1.
       -2    1    3    3    0  502  0.43501952085E+03 -0.29258102810E+03 -0.10435262737E+04  0.11678153644E+04  0.25500000920E-02 0.  1.
</event>
<event>
 5   0  0.2452457E-05  0.2504295E+04  0.7818609E-02  0.8401457E-01
       -2   -1    0    0    0  501  0.00000000000E+00  0.00000000000E+00  0.18868387758E+04  0.18868387758E+04  0.25500000920E-02 0. -1.
        2   -1    0    0  501    0  0.00000000000E+00  0.00000000000E+00 -0.83095277972E+03  0.83095277972E+03  0.25500000920E-02 0.  1.
    10030    2    1    2    0    0  0.00000000000E+00  0.00000000000E+00  0.10558859961E+04  0.27177915555E+04  0.25042954503E+04 0.  0.
        1    1    3    3  502    0  0.11532696363E+03 -0.20736126879E+03 -0.80633221859E+03  0.84051808493E+03  0.50400001928E-02 0.  1.
       -1    1    3    3    0  502 -0.11532696363E+03  0.20736126879E+03  0.18622182147E+04  0.18772734706E+04  0.50400001928E-02 0. -1.
</event>
<event>
 5   0  0.1015327E-05  0.2088356E+04  0.7818609E-02  0.8566390E-01
       -1   -1    0    0    0  501  0.00000000000E+00  0.00000000000E+00  0.68642829648E+03  0.68642829650E+03  0.50400001928E-02 0.  1.
        1   -1    0    0  501    0  0.00000000000E+00  0.00000000000E+00 -0.15883779773E+04  0.15883779773E+04  0.50400001928E-02 0. -1.
    10030    2    1    2    0    0  0.00000000000E+00  0.00000000000E+00 -0.90194968077E+03  0.22748062738E+04  0.20883558980E+04 0.  0.
        4    1    3    3  502    0  0.78635530559E+03 -0.68662198028E+03 -0.47537001132E+03  0.11470757041E+04  0.12699999809E+01 0.  1.
       -4    1    3    3    0  502 -0.78635530559E+03  0.68662198028E+03 -0.42657966945E+03  0.11277305696E+04  0.12699999809E+01 0. -1.
</event>
<event>
 5   0  0.2452457E-05  0.2546319E+04  0.7818609E-02  0.8386667E-01
       -2   -1    0    0    0  501  0.00000000000E+00  0.00000000000E+00  0.13598623500E+04  0.13598623500E+04  0.25500000920E-02 0. -1.
        2   -1    0    0  501    0  0.00000000000E+00  0.00000000000E+00 -0.11919847485E+04  0.11919847485E+04  0.25500000920E-02 0.  1.
    10030    2    1    2    0    0  0.00000000000E+00  0.00000000000E+00  0.16787760151E+03  0.25518470984E+04  0.25463190540E+04 0.  0.
        1    1    3    3  502    0  0.41103050409E+03  0.52435462052E+03 -0.10033319042E+04  0.12043955967E+04  0.50400001928E-02 0.  1.
       -1    1    3    3    0  502 -0.41103050409E+03 -0.52435462052E+03  0.11712095057E+04  0.13474515017E+04  0.50400001928E-02 0. -1.
</event>
<event>
 5   0  0.2388326E-05  0.2482906E+04  0.7818609E-02  0.8409101E-01
        2   -1    0    0  501    0  0.00000000000E+00  0.00000000000E+00  0.12575464770E+04  0.12575464770E+04  0.25500000920E-02 0.  1.
       -2   -1    0    0    0  501  0.00000000000E+00  0.00000000000E+00 -0.12255654519E+04  0.12255654519E+04  0.25500000920E-02 0. -1.
    10030    2    1    2    0    0  0.00000000000E+00  0.00000000000E+00  0.31981025155E+02  0.24831119289E+04  0.24829059720E+04 0.  0.
        2    1    3    3  502    0 -0.65597632536E+03 -0.93096018602E+03 -0.47823031431E+03  0.12351906901E+04  0.25500000920E-02 0. -1.
       -2    1    3    3    0  502  0.65597632536E+03  0.93096018602E+03  0.51021133946E+03  0.12479212388E+04  0.25500000920E-02 0.  1.
</event>
<event>
 5   0  0.1008073E-05  0.2539395E+04  0.7818609E-02  0.8389084E-01
        1   -1    0    0  501    0  0.00000000000E+00  0.00000000000E+00  0.15411598295E+04  0.15411598295E+04  0.50400001928E-02 0.  1.
       -1   -1    0    0    0  501  0.00000000000E+00  0.00000000000E+00 -0.10460508938E+04  0.10460508938E+04  0.50400001928E-02 0. -1.
    10030    2    1    2    0    0  0.00000000000E+00  0.00000000000E+00  0.49510893569E+03  0.25872107234E+04  0.25393949021E+04 0.  0.
        1    1    3    3  502    0  0.46942942981E+03  0.39736551468E+03  0.13792665651E+04  0.15101786647E+04  0.50400001928E-02 0.  1.
       -1    1    3    3    0  502 -0.46942942981E+03 -0.39736551468E+03 -0.88415762936E+03  0.10770320587E+04  0.50400001928E-02 0. -1.
</event>
<event>
 5   0  0.2432309E-05  0.2554941E+04  0.7818609E-02  0.8383670E-01
       -2   -1    0    0    0  501  0.00000000000E+00  0.00000000000E+00  0.11716256098E+04  0.11716256098E+04  0.25500000920E-02 0. -1.
        2   -1    0    0  501    0  0.00000000000E+00  0.00000000000E+00 -0.13928778069E+04  0.13928778069E+04  0.25500000920E-02 0.  1.
    10030    2    1    2    0    0  0.00000000000E+00  0.00000000000E+00 -0.22125219716E+03  0.25645034167E+04  0.25549413378E+04 0.  0.
        4    1    3    3  502    0  0.75548429750E+03 -0.72690312881E+03 -0.84327912764E+03  0.13454612527E+04  0.12699999809E+01 0.  1.
       -4    1    3    3    0  502 -0.75548429750E+03  0.72690312881E+03  0.62202693048E+03  0.12190421640E+04  0.12699999809E+01 0. -1.
</event>
<event>
 5   0  0.1039688E-05  0.2491762E+04  0.7818609E-02  0.8405926E-01
        1   -1    0    0  501    0  0.00000000000E+00  0.00000000000E+00  0.43601010158E+03  0.43601010161E+03  0.50400001928E-02 0.  1.
       -1   -1    0    0    0  501  0.00000000000E+00  0.00000000000E+00 -0.35600532013E+04  0.35600532013E+04  0.50400001928E-02 0. -1.
    10030    2    1    2    0    0  0.00000000000E+00  0.00000000000E+00 -0.31240430997E+04  0.39960633029E+04  0.24917617526E+04 0.  0.
        3    1    3    3  502    0 -0.38505161748E+03  0.19912162553E+03  0.31116735158E+03  0.53360968953E+03  0.10100000352E+00 0.  1.
       -3    1    3    3    0  502  0.38505161748E+03 -0.19912162553E+03 -0.34352104513E+04  0.34624536134E+04  0.10100000352E+00 0. -1.
</event>
<event>
 5   0  0.2345143E-05  0.2631095E+04  0.7818609E-02  0.8357715E-01
       -2   -1    0    0    0  501  0.00000000000E+00  0.00000000000E+00  0.62116458642E+03  0.62116458642E+03  0.25500000920E-02 0.  1.
        2   -1    0    0  501    0  0.00000000000E+00  0.00000000000E+00 -0.27861621652E+04  0.27861621652E+04  0.25500000920E-02 0. -1.
    10030    2    1    2    0    0  0.00000000000E+00  0.00000000000E+00 -0.21649975788E+04  0.34073267516E+04  0.26310950337E+04 0.  0.
        5    1    3    3  502    0  0.60074758284E+03  0.41825900667E+03 -0.24980505363E+04  0.26030975446E+04  0.46999998093E+01 0. -1.
       -5    1    3    3    0  502 -0.60074758284E+03 -0.41825900667E+03  0.33305295748E+03  0.80422920703E+03  0.46999998093E+01 0.  1.
</event>
<event>
 5   0  0.2345143E-05  0.2488669E+04  0.7818609E-02  0.8407033E-01
        2   -1    0    0  501    0  0.00000000000E+00  0.00000000000E+00  0.18570775645E+04  0.18570775645E+04  0.25500000920E-02 0. -1.
       -2   -1    0    0    0  501  0.00000000000E+00  0.00000000000E+00 -0.83376614877E+03  0.83376614877E+03  0.25500000920E-02 0.  1.
    10030    2    1    2    0    0  0.00000000000E+00  0.00000000000E+00  0.10233114157E+04  0.26908437133E+04  0.24886690490E+04 0.  0.
        5    1    3    3  502    0 -0.10486519750E+04  0.28062610924E+01 -0.21258615340E+03  0.10699971039E+04  0.46999998093E+01 0.  1.
       -5    1    3    3    0  502  0.10486519750E+04 -0.28062610924E+01  0.12358975691E+04  0.16208466094E+04  0.46999998093E+01 0. -1.
</event>
<event>
 5   0  0.2452457E-05  0.2506202E+04  0.7818609E-02  0.8400779E-01
        2   -1    0    0  501    0  0.00000000000E+00  0.00000000000E+00  0.15960912312E+04  0.15960912312E+04  0.25500000920E-02 0. -1.
       -2   -1    0    0    0  501  0.00000000000E+00  0.00000000000E+00 -0.98381720367E+03  0.98381720368E+03  0.25500000920E-02 0.  1.
    10030    2    1    2    0    0  0.00000000000E+00  0.00000000000E+00  0.61227402748E+03  0.25799084348E+04  0.25062019167E+04 0.  0.
        1    1    3    3  502    0 -0.21652830373E+03 -0.91077487195E+03  0.11636214338E+04  0.14934557961E+04  0.50400001928E-02 0. -1.
       -1    1    3    3    0  502  0.21652830373E+03  0.91077487195E+03 -0.55134740633E+03  0.10864526387E+04  0.50400001928E-02 0.  1.
</event>
<event>
 5   0  0.1015327E-05  0.2472304E+04  0.7818609E-02  0.8412919E-01
        1   -1    0    0  501    0  0.00000000000E+00  0.00000000000E+00  0.13524443410E+04  0.13524443411E+04  0.50400001928E-02 0.  1.
       -1   -1    0    0    0  501  0.00000000000E+00  0.00000000000E+00 -0.11298591101E+04  0.11298591102E+04  0.50400001928E-02 0. -1.
    10030    2    1    2    0    0  0.00000000000E+00  0.00000000000E+00  0.22258523091E+03  0.24823034512E+04  0.24723038322E+04 0.  0.
        4    1    3    3  502    0  0.43189267687E+03  0.18154180591E+03 -0.10372665537E+04  0.11381617758E+04  0.12699999809E+01 0. -1.
       -4    1    3    3    0  502 -0.43189267687E+03 -0.18154180591E+03  0.12598517846E+04  0.13441416754E+04  0.12699999809E+01 0.  1.
</event>
<event>
 5   0  0.1039688E-05  0.2583638E+04  0.7818609E-02  0.8373780E-01
        1   -1    0    0  501    0  0.00000000000E+00  0.00000000000E+00  0.28848478088E+04  0.28848478088E+04  0.50400001928E-02 0.  1.
       -1   -1    0    0    0  501  0.00000000000E+00  0.00000000000E+00 -0.57846933003E+03  0.57846933005E+03  0.50400001928E-02 0. -1.
    10030    2    1    2    0    0  0.00000000000E+00  0.00000000000E+00  0.23063784788E+04  0.34633171389E+04  0.25836377295E+04 0.  0.
        3    1    3    3  502    0  0.82433301473E+03 -0.90757473416E+03  0.60772853267E+03  0.13684117790E+04  0.10100000352E+00 0. -1.
       -3    1    3    3    0  502 -0.82433301473E+03  0.90757473416E+03  0.16986499461E+04  0.20949053599E+04  0.10100000352E+00 0.  1.
</event>
<event>
 5   0  0.1039688E-05  0.2486021E+04  0.7818609E-02  0.8407982E-01
       -1   -1    0    0    0  501  0.00000000000E+00  0.00000000000E+00  0.94565546352E+03  0.94565546353E+03  0.50400001928E-02 0.  1.
        1   -1    0    0  501    0  0.00000000000E+00  0.00000000000E+00 -0.16338672858E+04  0.16338672858E+04  0.50400001928E-02 0. -1.
    10030    2    1    2    0    0  0.00000000000E+00  0.00000000000E+00 -0.68821182231E+03  0.25795227494E+04  0.24860213398E+04 0.  0.
        3    1    3    3  502    0 -0.94085192088E+03  0.51117686172E+03 -0.99917570364E+03  0.14645327644E+04  0.10100000352E+00 0. -1.
       -3    1    3    3    0  502  0.94085192088E+03 -0.51117686172E+03  0.31096388132E+03  0.11149899850E+04  0.10100000352E+00 0.  1.
</event>
<event>
 5   0  0.2432309E-05  0.2521029E+04  0.7818609E-02  0.8395532E-01
        2   -1    0    0  501    0  0.00000000000E+00  0.00000000000E+00  0.24056707662E+04  0.24056707662E+04  0.25500000920E-02 0.  1.
       -2   -1    0    0    0  501  0.00000000000E+00  0.00000000000E+00 -0.66047958561E+03  0.66047958562E+03  0.25500000920E-02 0. -1.
    10030    2    1    2    0    0  0.00000000000E+00  0.00000000000E+00  0.17451911806E+04  0.30661503518E+04  0.25210287033E+04 0.  0.
        4    1    3    3  502    0  0.17665943299E+03 -0.50164671143E+03  0.22625270036E+04  0.23241962123E+04  0.12699999809E+01 0.  1.
       -4    1    3    3    0  502 -0.17665943299E+03  0.50164671143E+03 -0.51733582306E+03  0.74195413947E+03  0.12699999809E+01 0. -1.
</event>
<event>
 5   0  0.1002753E-05  0.2500546E+04  0.7818609E-02  0.8402791E-01
       -1   -1    0    0    0  501  0.00000000000E+00  0.00000000000E+00  0.75938383795E+03  0.75938383797E+03  0.50400001928E-02 0. -1.
        1   -1    0    0  501    0  0.00000000000E+00  0.00000000000E+00 -0.20584886070E+04  0.20584886070E+04  0.50400001928E-02 0.  1.
    10030    2    1    2    0    0  0.00000000000E+00  0.00000000000E+00 -0.12991047691E+04  0.28178724450E+04  0.25005463234E+04 0.  0.
        5    1    3    3  502    0 -0.11098098749E+04  0.20470427378E+03 -0.12559675111E+04  0.16885077071E+04  0.46999998093E+01 0. -1.
       -5    1    3    3    0  502  0.11098098749E+04 -0.20470427378E+03 -0.43137257990E+02  0.11293647379E+04  0.46999998093E+01 0.  1.
</event>
<event>
 5   0  0.1008073E-05  0.2490299E+04  0.7818609E-02  0.8406450E-01
       -1   -1    0    0    0  501  0.00000000000E+00  0.00000000000E+00  0.72373248203E+03  0.72373248204E+03  0.50400001928E-02 0. -1.
        1   -1    0    0  501    0  0.00000000000E+00  0.00000000000E+00 -0.21422246720E+04  0.21422246720E+04  0.50400001928E-02 0.  1.
    10030    2    1    2    0    0  0.00000000000E+00  0.00000000000E+00 -0.14184921899E+04  0.28659571540E+04  0.24902992422E+04 0.  0.
        1    1    3    3  502    0  0.43483814768E+03  0.63420406630E+03 -0.18363132089E+04  0.19908152133E+04  0.50400001928E-02 0.  1.
       -1    1    3    3    0  502 -0.43483814768E+03 -0.63420406630E+03  0.41782101899E+03  0.87514194067E+03  0.50400001928E-02 0. -1.
</event>
<event>
 5   0  0.1010338E-05  0.2520697E+04  0.7818609E-02  0.8395649E-01
        1   -1    0    0  501    0  0.00000000000E+00  0.00000000000E+00  0.14702357965E+04  0.14702357965E+04  0.50400001928E-02 0. -1.
       -1   -1    0    0    0  501  0.00000000000E+00  0.00000000000E+00 -0.10804241459E+04  0.10804241459E+04  0.50400001928E-02 0.  1.
    10030    2    1    2    0    0  0.00000000000E+00  0.00000000000E+00  0.38981165061E+03  0.25506599423E+04  0.25206969311E+04 0.  0.
        2    1    3    3  502    0  0.37338554632E+03  0.95816831933E+03 -0.54243613562E+03  0.11626436494E+04  0.25500000920E-02 0.  1.
       -2    1    3    3    0  502 -0.37338554632E+03 -0.95816831933E+03  0.93224778623E+03  0.13880162929E+04  0.25500000920E-02 0. -1.
</event>
<event>
 5   0  0.2441340E-05  0.2669667E+04  0.7818609E-02  0.8344914E-01
       -2   -1    0    0    0  501  0.00000000000E+00  0.00000000000E+00  0.10666095531E+04  0.10666095531E+04  0.25500000920E-02 0.  1.
        2   -1    0    0  501    0  0.00000000000E+00  0.00000000000E+00 -0.16705090677E+04  0.16705090677E+04  0.25500000920E-02 0. -1.
    10030    2    1    2    0    0  0.00000000000E+00  0.00000000000E+00 -0.60389951451E+03  0.27371186208E+04  0.26696673427E+04 0.  0.
        3    1    3    3  502    0  0.65082919902E+03  0.50490869776E+03 -0.13788544577E+04  0.16061603485E+04  0.10100000352E+00 0. -1.
       -3    1    3    3    0  502 -0.65082919902E+03 -0.50490869776E+03  0.77495494323E+03  0.11309582723E+04  0.10100000352E+00 0.  1.
</event>
<event>
 5   0  0.2432309E-05  0.2490496E+04  0.7818609E-02  0.8406379E-01
        2   -1    0    0  501    0  0.00000000000E+00  0.00000000000E+00  0.14265555602E+04  0.14265555602E+04  0.25500000920E-02 0.  1.
       -2   -1    0    0    0  501  0.00000000000E+00  0.00000000000E+00 -0.10869836685E+04  0.10869836685E+04  0.25500000920E-02 0. -1.
    10030    2    1    2    0    0  0.00000000000E+00  0.00000000000E+00  0.33957189171E+03  0.25135392287E+04  0.24904960118E+04 0.  0.
        4    1    3    3  502    0 -0.92595891623E+03  0.63407876104E+01 -0.67050438161E+03  0.11432488175E+04  0.12699999809E+01 0. -1.
       -4    1    3    3    0  502  0.92595891623E+03 -0.63407876104E+01  0.10100762733E+04  0.13702904112E+04  0.12699999809E+01 0.  1.
</event>
<event>
 5   0  0.2452457E-05  0.2556747E+04  0.7818609E-02  0.8383043E-01
        2   -1    0    0  501    0  0.00000000000E+00  0.00000000000E+00  0.15656868529E+04  0.15656868529E+04  0.25500000920E-02 0. -1.
       -2   -1    0    0    0  501  0.00000000000E+00  0.00000000000E+00 -0.10437842318E+04  0.10437842318E+04  0.25500000920E-02 0.  1.
    10030    2    1    2    0    0  0.00000000000E+00  0.00000000000E+00  0.52190262105E+03  0.26094710847E+04  0.25567473469E+04 0.  0.
        1    1    3    3  502    0  0.96434619612E+03  0.30108510969E+03 -0.53854347991E+03  0.11448340094E+04  0.50400001928E-02 0.  1.
       -1    1    3    3    0  502 -0.96434619612E+03 -0.30108510969E+03  0.10604461010E+04  0.14646370753E+04  0.50400001928E-02 0. -1.
</event>
<event>
 5   0  0.2441340E-05  0.2499636E+04  0.7818609E-02  0.8403115E-01
        2   -1    0    0  501    0  0.00000000000E+00  0.00000000000E+00  0.17427930225E+04  0.17427930225E+04  0.25500000920E-02 0. -1.
       -2   -1    0    0    0  501  0.00000000000E+00  0.00000000000E+00 -0.89628819084E+03  0.89628819085E+03  0.25500000920E-02 0.  1.
    10030    2    1    2    0    0  0.00000000000E+00  0.00000000000E+00  0.84650483167E+03  0.26390812134E+04  0.24996358176E+04 0.  0.
        3    1    3    3  502    0 -0.26143740781E+03  0.45627229710E+02 -0.86619655207E+03  0.90594030670E+03  0.10100000352E+00 0.  1.
       -3    1    3    3    0  502  0.26143740781E+03 -0.45627229710E+02  0.17127013837E+04  0.17331409067E+04  0.10100000352E+00 0. -1.
</event>
<event>
 5   0  0.1002753E-05  0.2521784E+04  0.7818609E-02  0.8395266E-01
       -1   -1    0    0    0  501  0.00000000000E+00  0.00000000000E+00  0.11301758281E+04  0.11301758281E+04  0.50400001928E-02 0.  1.
        1   -1    0    0  501    0  0.00000000000E+00  0.00000000000E+00 -0.14067270410E+04  0.14067270410E+04  0.50400001928E-02 0. -1.
    10030    2    1    2    0    0  0.00000000000E+00  0.00000000000E+00 -0.27655121294E+03  0.25369028691E+04  0.25217842084E+04 0.  0.
        5    1    3    3  502    0  0.84741190415E+03  0.77306541617E+03  0.38839890934E+03  0.12110379332E+04  0.46999998093E+01 0.  1.
       -5    1    3    3    0  502 -0.84741190415E+03 -0.77306541617E+03 -0.66495012228E+03  0.13258649358E+04  0.46999998093E+01 0. -1.
</event>
<event>
 5   0  0.1015327E-05  0.2488712E+04  0.7818609E-02  0.8407018E-01
        1   -1    0    0  501    0  0.00000000000E+00  0.00000000000E+00  0.12263662860E+04  0.12263662860E+04  0.50400001928E-02 0. -1.
       -1   -1    0    0    0  501  0.00000000000E+00  0.00000000000E+00 -0.12626096405E+04  0.12626096405E+04  0.50400001928E-02 0.  1.
    10030    2    1    2    0    0  0.00000000000E+00  0.00000000000E+00 -0.36243354482E+02  0.24889759265E+04  0.24887120328E+04 0.  0.
        4    1    3    3  502    0 -0.82017939842E+03  0.64062897693E+03  0.66409473849E+03  0.12345538329E+04  0.12699999809E+01 0. -1.
       -4    1    3    3    0  502  0.82017939842E+03 -0.64062897693E+03 -0.70033809297E+03  0.12544220936E+04  0.12699999809E+01 0.  1.
</event>
<event>
 5   0  0.1002753E-05  0.2518776E+04  0.7818609E-02  0.8396327E-01
        1   -1    0    0  501    0  0.00000000000E+00  0.00000000000E+00  0.11718187753E+04  0.11718187753E+04  0.50400001928E-02 0. -1.
       -1   -1    0    0    0  501  0.00000000000E+00  0.00000000000E+00 -0.13535017469E+04  0.13535017469E+04  0.50400001928E-02 0.  1.
    10030    2    1    2    0    0  0.00000000000E+00  0.00000000000E+00 -0.18168297161E+03  0.25253205222E+04  0.25187764962E+04 0.  0.
        5    1    3    3  502    0  0.67737404884E+03  0.81081192069E+03  0.59634798036E+03  0.12132207451E+04  0.46999998093E+01 0. -1.
       -5    1    3    3    0  502 -0.67737404884E+03 -0.81081192069E+03 -0.77803095197E+03  0.13120997771E+04  0.46999998093E+01 0.  1.
</event>
<event>
 5   0  0.1039688E-05  0.2414010E+04  0.7818609E-02  0.8434277E-01
        1   -1    0    0  501    0  0.00000000000E+00  0.00000000000E+00  0.61450457378E+03  0.61450457381E+03  0.50400001928E-02 0. -1.
       -1   -1    0    0    0  501  0.00000000000E+00  0.00000000000E+00 -0.23707895933E+04  0.23707895933E+04  0.50400001928E-02 0.  1.
    10030    2    1    2    0    0  0.00000000000E+00  0.00000000000E+00 -0.17562850195E+04  0.29852941671E+04  0.24140099822E+04 0.  0.
        3    1    3    3  502    0  0.10353227236E+04  0.62036433508E+03 -0.89146100168E+03  0.15004825150E+04  0.10100000352E+00 0. -1.
       -3    1    3    3    0  502 -0.10353227236E+04 -0.62036433508E+03 -0.86482401780E+03  0.14848116521E+04  0.10100000352E+00 0.  1.
</event>
<event>
 5   0  0.2432309E-05  0.2521757E+04  0.7818609E-02  0.8395275E-01
        2   -1    0    0  501    0  0.00000000000E+00  0.00000000000E+00  0.16618690555E+04  0.16618690555E+04  0.25500000920E-02 0. -1.
       -2   -1    0    0    0  501  0.00000000000E+00  0.00000000000E+00 -0.95664273257E+03  0.95664273257E+03  0.25500000920E-02 0.  1.
    10030    2    1    2    0    0  0.00000000000E+00  0.00000000000E+00  0.70522632296E+03  0.26185117881E+04  0.25217572877E+04 0.  0.
        4    1    3    3  502    0 -0.11595023608E+04  0.29285468121E+03  0.76744568433E+03  0.14209799719E+04  0.12699999809E+01 0. -1.
       -4    1    3    3    0  502  0.11595023608E+04 -0.29285468121E+03 -0.62219361373E+02  0.11975318162E+04  0.12699999809E+01 0.  1.
</event>
<event>
 5   0  0.2452457E-05  0.2535397E+04  0.7818609E-02  0.8390483E-01
        2   -1    0    0  501    0  0.00000000000E+00  0.00000000000E+00  0.11641161788E+04  0.11641161788E+04  0.25500000920E-02 0.  1.
       -2   -1    0    0    0  501  0.00000000000E+00  0.00000000000E+00 -0.13804972339E+04  0.13804972339E+04  0.25500000920E-02 0. -1.
    10030    2    1    2    0    0  0.00000000000E+00  0.00000000000E+00 -0.21638105509E+03  0.25446134127E+04  0.25353967459E+04 0.  0.
        1    1    3    3  502    0  0.12162031297E+04 -0.28390598057E+03 -0.32648177396E+03  0.12908690899E+04  0.50400001928E-02 0.  1.
       -1    1    3    3    0  502 -0.12162031297E+04  0.28390598057E+03  0.11010071888E+03  0.12537443228E+04  0.50400001928E-02 0. -1.
</event>
<event>
 5   0  0.2388326E-05  0.2454046E+04  0.7818609E-02  0.8419542E-01
       -2   -1    0    0    0  501  0.00000000000E+00  0.00000000000E+00  0.14885682189E+04  0.14885682189E+04  0.25500000920E-02 0.  1.
        2   -1    0    0  501    0  0.00000000000E+00  0.00000000000E+00 -0.10114316489E+04  0.10114316489E+04  0.25500000920E-02 0. -1.
    10030    2    1    2    0    0  0.00000000000E+00  0.00000000000E+00  0.47713656999E+03  0.24999998678E+04  0.24540456460E+04 0.  0.
        2    1    3    3  502    0  0.10087841278E+04  0.67586295226E+02  0.94683682605E+03  0.13851762700E+04  0.25500000920E-02 0.  1.
       -2    1    3    3    0  502 -0.10087841278E+04 -0.67586295226E+02 -0.46970025606E+03  0.11148235978E+04  0.25500000920E-02 0. -1.
</event>
<event>
 5   0  0.1039688E-05  0.2498823E+04  0.7818609E-02  0.8403405E-01
       -1   -1    0    0    0  501  0.00000000000E+00  0.00000000000E+00  0.10794050136E+04  0.10794050136E+04  0.50400001928E-02 0. -1.
        1   -1    0    0  501    0  0.00000000000E+00  0.00000000000E+00 -0.14461941771E+04  0.14461941771E+04  0.50400001928E-02 0.  1.
    10030    2    1    2    0    0  0.00000000000E+00  0.00000000000E+00 -0.36678916352E+03  0.25255991907E+04  0.24988231193E+04 0.  0.
        3    1    3    3  502    0  0.17161498992E+03  0.13624510185E+03  0.10598326168E+04  0.10822474848E+04  0.10100000352E+00 0. -1.
       -3    1    3    3    0  502 -0.17161498992E+03 -0.13624510185E+03 -0.14266217803E+04  0.14433517059E+04  0.10100000352E+00 0.  1.
</event>
<event>
 5   0  0.2441340E-05  0.2500712E+04  0.7818609E-02  0.8402732E-01
        2   -1    0    0  501    0  0.00000000000E+00  0.00000000000E+00  0.94711233038E+03  0.94711233039E+03  0.25500000920E-02 0. -1.
       -2   -1    0    0    0  501  0.00000000000E+00  0.00000000000E+00 -0.16506915532E+04  0.16506915532E+04  0.25500000920E-02 0.  1.
    10030    2    1    2    0    0  0.00000000000E+00  0.00000000000E+00 -0.70357922283E+03  0.25978038836E+04  0.25007121575E+04 0.  0.
        3    1    3    3  502    0  0.45884268684E+03  0.86028305122E+03 -0.11649762993E+04  0.15191423000E+04  0.10100000352E+00 0.  1.
       -3    1    3    3    0  502 -0.45884268684E+03 -0.86028305122E+03  0.46139707651E+03  0.10786615836E+04  0.10100000352E+00 0. -1.
</event>
<event>
 5   0  0.2345143E-05  0.2474331E+04  0.7818609E-02  0.8412188E-01
        2   -1    0    0  501    0  0.00000000000E+00  0.00000000000E+00  0.11941631701E+04  0.11941631701E+04  0.25500000920E-02 0.  1.
       -2   -1    0    0    0  501  0.00000000000E+00  0.00000000000E+00 -0.12817160121E+04  0.12817160121E+04  0.25500000920E-02 0. -1.
    10030    2    1    2    0    0  0.00000000000E+00  0.00000000000E+00 -0.87552841954E+02  0.24758791822E+04  0.24743306619E+04 0.  0.
        5    1    3    3  502    0  0.44292592028E+03  0.46271075892E+03  0.10153146966E+04  0.12004876678E+04  0.46999998093E+01 0.  1.
       -5    1    3    3    0  502 -0.44292592028E+03 -0.46271075892E+03 -0.11028675386E+04  0.12753915144E+04  0.46999998093E+01 0. -1.
</event>
<event>
 5   0  0.2452457E-05  0.2674297E+04  0.7818609E-02  0.8343393E-01
       -2   -1    0    0    0  501  0.00000000000E+00  0.00000000000E+00  0.11216832616E+04  0.11216832616E+04  0.25500000920E-02 0.  1.
        2   -1    0    0  501    0  0.00000000000E+00  0.00000000000E+00 -0.15940022749E+04  0.15940022749E+04  0.25500000920E-02 0. -1.
    10030    2    1    2    0    0  0.00000000000E+00  0.00000000000E+00 -0.47231901334E+03  0.27156855365E+04  0.26742966707E+04 0.  0.
        1    1    3    3  502    0  0.58933813009E+03 -0.45028768094E+03 -0.13659825792E+04  0.15543445030E+04  0.50400001928E-02 0. -1.
       -1    1    3    3    0  502 -0.58933813009E+03  0.45028768094E+03  0.89366356585E+03  0.11613410335E+04  0.50400001928E-02 0.  1.
</event>
<event>
 5   0  0.1039688E-05  0.2505484E+04  0.7818609E-02  0.8401035E-01
       -1   -1    0    0    0  501  0.00000000000E+00  0.00000000000E+00  0.11663690992E+04  0.11663690992E+04  0.50400001928E-02 0. -1.
        1   -1    0    0  501    0  0.00000000000E+00  0.00000000000E+00 -0.13455105474E+04  0.13455105475E+04  0.50400001928E-02 0.  1.
    10030    2    1    2    0    0  0.00000000000E+00  0.00000000000E+00 -0.17914144825E+03  0.25118796467E+04  0.25054835264E+04 0.  0.
        3    1    3    3  502    0  0.11975226729E+04 -0.35915452650E+03 -0.99362845705E+01  0.12502604792E+04  0.10100000352E+00 0. -1.
       -3    1    3    3    0  502 -0.11975226729E+04  0.35915452650E+03 -0.16920516368E+03  0.12616191674E+04  0.10100000352E+00 0.  1.
</event>
<event>
 5   0  0.1015327E-05  0.2485874E+04  0.7818609E-02  0.8408035E-01
       -1   -1    0    0    0  501  0.00000000000E+00  0.00000000000E+00  0.17163195580E+04  0.17163195580E+04  0.50400001928E-02 0.  1.
        1   -1    0    0  501    0  0.00000000000E+00  0.00000000000E+00 -0.90011934040E+03  0.90011934041E+03  0.50400001928E-02 0. -1.
    10030    2    1    2    0    0  0.00000000000E+00  0.00000000000E+00  0.81620021761E+03  0.26164388984E+04  0.24858740342E+04 0.  0.
        4    1    3    3  502    0  0.52712720931E+03 -0.92732689908E+03  0.10796496438E+04  0.15177098665E+04  0.12699999809E+01 0.  1.
       -4    1    3    3    0  502 -0.52712720931E+03  0.92732689908E+03 -0.26344942620E+03  0.10987290319E+04  0.12699999809E+01 0. -1.
</event>
<event>
 5   0  0.1002753E-05  0.2481253E+04  0.7818609E-02  0.8409695E-01
        1   -1    0    0  501    0  0.00000000000E+00  0.00000000000E+00  0.14820086792E+04  0.14820086792E+04  0.50400001928E-02 0.  1.
       -1   -1    0    0    0  501  0.00000000000E+00  0.00000000000E+00 -0.10385594896E+04  0.10385594896E+04  0.50400001928E-02 0. -1.
    10030    2    1    2    0    0  0.00000000000E+00  0.00000000000E+00  0.44344918957E+03  0.25205681688E+04  0.24812530523E+04 0.  0.
        5    1    3    3  502    0 -0.11533317220E+01  0.43560098985E+03  0.14017597109E+04  0.14678902989E+04  0.46999998093E+01 0.  1.
       -5    1    3    3    0  502  0.11533317220E+01 -0.43560098985E+03 -0.95831052131E+03  0.10526778699E+04  0.46999998093E+01 0. -1.
</event>
<event>
 5   0  0.2432309E-05  0.2340021E+04  0.7818609E-02  0.8462306E-01
        2   -1    0    0  501    0  0.00000000000E+00  0.00000000000E+00  0.91748600249E+03  0.91748600249E+03  0.25500000920E-02 0.  1.
       -2   -1    0    0    0  501  0.00000000000E+00  0.00000000000E+00 -0.14920391645E+04  0.14920391645E+04  0.25500000920E-02 0. -1.
    10030    2    1    2    0    0  0.00000000000E+00  0.00000000000E+00 -0.57455316196E+03  0.24095251669E+04  0.23400214089E+04 0.  0.
        4    1    3    3  502    0  0.60960132249E+03 -0.86698408822E+03 -0.79762700135E+03  0.13264560407E+04  0.12699999809E+01 0. -1.
       -4    1    3    3    0  502 -0.60960132249E+03  0.86698408822E+03  0.22307383939E+03  0.10830691263E+04  0.12699999809E+01 0.  1.
</event>
<event>
 5   0  0.2345143E-05  0.2496351E+04  0.7818609E-02  0.8404286E-01
        2   -1    0    0  501    0  0.00000000000E+00  0.00000000000E+00  0.91684869019E+03  0.91684869019E+03  0.25500000920E-02 0.  1.
       -2   -1    0    0    0  501  0.00000000000E+00  0.00000000000E+00 -0.16992364224E+04  0.16992364224E+04  0.25500000920E-02 0. -1.
    10030    2    1    2    0    0  0.00000000000E+00  0.00000000000E+00 -0.78238773221E+03  0.26160851126E+04  0.24963514882E+04 0.  0.
        5    1    3    3  502    0  0.84346528029E+02 -0.14762946795E+03  0.90464664764E+03  0.92049793247E+03  0.46999998093E+01 0.  1.
       -5    1    3    3    0  502 -0.84346528029E+02  0.14762946795E+03 -0.16870343799E+04  0.16955871801E+04  0.46999998093E+01 0. -1.
</event>
<event>
 5   0  0.2388326E-05  0.2517337E+04  0.7818609E-02  0.8396835E-01
        2   -1    0    0  501    0  0.00000000000E+00  0.00000000000E+00  0.22495937392E+04  0.22495937392E+04  0.25500000920E-02 0. -1.
       -2   -1    0    0    0  501  0.00000000000E+00  0.00000000000E+00 -0.70423674839E+03  0.70423674840E+03  0.25500000920E-02 0.  1.
    10030    2    1    2    0    0  0.00000000000E+00  0.00000000000E+00  0.15453569908E+04  0.29538304876E+04  0.25173371488E+04 0.  0.
        2    1    3    3  502    0  0.14217587555E+03  0.10460224017E+04  0.15770060008E+04  0.18977156718E+04  0.25500000920E-02 0. -1.
       -2    1    3    3    0  502 -0.14217587555E+03 -0.10460224017E+04 -0.31649009926E+02  0.10561148159E+04  0.25500000920E-02 0.  1.
</event>
<event>
 5   0  0.2441340E-05  0.2593371E+04  0.7818609E-02  0.8370456E-01
        2   -1    0    0  501    0  0.00000000000E+00  0.00000000000E+00  0.13790357638E+04  0.13790357638E+04  0.25500000920E-02 0. -1.
       -2   -1    0    0    0  501  0.00000000000E+00  0.00000000000E+00 -0.12192527550E+04  0.12192527550E+04  0.25500000920E-02 0.  1.
    10030    2    1    2    0    0  0.00000000000E+00  0.00000000000E+00  0.15978300879E+03  0.25982885187E+04  0.25933708984E+04 0.  0.
        3    1    3    3  502    0  0.69187418425E+03 -0.71103910452E+03 -0.75663283871E+03  0.12477017904E+04  0.10100000352E+00 0.  1.
       -3    1    3    3    0  502 -0.69187418425E+03  0.71103910452E+03  0.91641584750E+03  0.13505867283E+04  0.10100000352E+00 0. -1.
</event>
<event>
 5   0  0.2388326E-05  0.2487583E+04  0.7818609E-02  0.8407422E-01
       -2   -1    0    0    0  501  0.00000000000E+00  0.00000000000E+00  0.66214650809E+03  0.66214650809E+03  0.25500000920E-02 0. -1.
        2   -1    0    0  501    0  0.00000000000E+00  0.00000000000E+00 -0.23363676268E+04  0.23363676268E+04  0.25500000920E-02 0.  1.
    10030    2    1    2    0    0  0.00000000000E+00  0.00000000000E+00 -0.16742211187E+04  0.29985141349E+04  0.24875832977E+04 0.  0.
        2    1    3    3  502    0  0.96714245821E+03  0.75701164816E+03 -0.10738911711E+04  0.16314635813E+04  0.25500000920E-02 0.  1.
       -2    1    3    3    0  502 -0.96714245821E+03 -0.75701164816E+03 -0.60032994764E+03  0.13670505536E+04  0.25500000920E-02 0. -1.
</event>
<event>
 5   0  0.2441340E-05  0.2255064E+04  0.7818609E-02  0.8495853E-01
        2   -1    0    0  501    0  0.00000000000E+00  0.00000000000E+00  0.10696836738E+04  0.10696836738E+04  0.25500000920E-02 0.  1.
       -2   -1    0    0    0  501  0.00000000000E+00  0.00000000000E+00 -0.11885085996E+04  0.11885085996E+04  0.25500000920E-02 0. -1.
    10030    2    1    2    0    0  0.00000000000E+00  0.00000000000E+00 -0.11882492572E+03  0.22581922734E+04  0.22550638529E+04 0.  0.
        3    1    3    3  502    0  0.18189321997E+03  0.54325348354E+03 -0.10319027259E+04  0.11802680784E+04  0.10100000352E+00 0. -1.
       -3    1    3    3    0  502 -0.18189321997E+03 -0.54325348354E+03  0.91307780019E+03  0.10779241950E+04  0.10100000352E+00 0.  1.
</event>
<event>
 5   0  0.2441340E-05  0.2436955E+04  0.7818609E-02  0.8425796E-01
        2   -1    0    0  501    0  0.00000000000E+00  0.00000000000E+00  0.12025346959E+04  0.12025346959E+04  0.25500000920E-02 0.  1.
       -2   -1    0    0    0  501  0.00000000000E+00  0.00000000000E+00 -0.12346315420E+04  0.12346315420E+04  0.25500000920E-02 0. -1.
    10030    2    1    2    0    0  0.00000000000E+00  0.00000000000E+00 -0.32096846123E+02  0.24371662379E+04  0.24369548752E+04 0.  0.
        3    1    3    3  502    0 -0.44530327389E+03 -0.10018281148E+04 -0.54782067178E+03  0.12255864213E+04  0.10100000352E+00 0. -1.
       -3    1    3    3    0  502  0.44530327389E+03  0.10018281148E+04  0.51572382565E+03  0.12115798166E+04  0.10100000352E+00 0.  1.
</event>
<event>
 5   0  0.2432309E-05  0.2466526E+04  0.7818609E-02  0.8415009E-01
       -2   -1    0    0    0  501  0.00000000000E+00  0.00000000000E+00  0.64882135956E+03  0.64882135957E+03  0.25500000920E-02 0. -1.
        2   -1    0    0  501    0  0.00000000000E+00  0.00000000000E+00 -0.23441549682E+04  0.23441549682E+04  0.25500000920E-02 0.  1.
    10030    2    1    2    0    0  0.00000000000E+00  0.00000000000E+00 -0.16953336086E+04  0.29929763277E+04  0.24665261511E+04 0.  0.
        4    1    3    3  502    0 -0.84030926372E+03 -0.39146722742E+03 -0.18346401933E+04  0.20555467644E+04  0.12699999809E+01 0.  1.
       -4    1    3    3    0  502  0.84030926372E+03  0.39146722742E+03  0.13930658467E+03  0.93742956337E+03  0.12699999809E+01 0. -1.
</event>
<event>
 5   0  0.1002753E-05  0.2481007E+04  0.7818609E-02  0.8409783E-01
       -1   -1    0    0    0  501  0.00000000000E+00  0.00000000000E+00  0.71386136645E+03  0.71386136647E+03  0.50400001928E-02 0. -1.
        1   -1    0    0  501    0  0.00000000000E+00  0.00000000000E+00 -0.21556686747E+04  0.21556686747E+04  0.50400001928E-02 0.  1.
    10030    2    1    2    0    0  0.00000000000E+00  0.00000000000E+00 -0.14418073082E+04  0.28695300411E+04  0.24810067197E+04 0.  0.
        5    1    3    3  502    0 -0.54012599090E+02  0.10571211013E+04 -0.14690400917E+04  0.18106692863E+04  0.46999998093E+01 0. -1.
       -5    1    3    3    0  502  0.54012599090E+02 -0.10571211013E+04  0.27232783426E+02  0.10588607548E+04  0.46999998093E+01 0.  1.
</event>
<event>
 5   0  0.1010338E-05  0.2548378E+04  0.7818609E-02  0.8385950E-01
        1   -1    0    0  501    0  0.00000000000E+00  0.00000000000E+00  0.13965178270E+04  0.13965178270E+04  0.50400001928E-02 0.  1.
       -1   -1    0    0    0  501  0.00000000000E+00  0.00000000000E+00 -0.11625759870E+04  0.11625759870E+04  0.50400001928E-02 0. -1.
    10030    2    1    2    0    0  0.00000000000E+00  0.00000000000E+00  0.23394184004E+03  0.25590938140E+04  0.25483783793E+04 0.  0.
        2    1    3    3  502    0  0.11381351403E+04  0.56103122279E+03  0.50714266249E+00  0.12689002671E+04  0.25500000920E-02 0.  1.
       -2    1    3    3    0  502 -0.11381351403E+04 -0.56103122279E+03  0.23343469738E+03  0.12901935469E+04  0.25500000920E-02 0. -1.
</event>
<event>
 5   0  0.1010338E-05  0.2564803E+04  0.7818609E-02  0.8380256E-01
       -1   -1    0    0    0  501  0.00000000000E+00  0.00000000000E+00  0.12364237830E+04  0.12364237830E+04  0.50400001928E-02 0. -1.
        1   -1    0    0  501    0  0.00000000000E+00  0.00000000000E+00 -0.13300884907E+04  0.13300884907E+04  0.50400001928E-02 0.  1.
    10030    2    1    2    0    0  0.00000000000E+00  0.00000000000E+00 -0.93664707674E+02  0.25665122737E+04  0.25648025603E+04 0.  0.
        2    1    3    3  502    0  0.12662849160E+03 -0.98915664227E+03  0.75998509704E+03  0.12538113836E+04  0.25500000920E-02 0. -1.
       -2    1    3    3    0  502 -0.12662849160E+03  0.98915664227E+03 -0.85364980471E+03  0.13127008901E+04  0.25500000920E-02 0.  1.
</event>
<event>
 5   0  0.1039688E-05  0.2489987E+04  0.7818609E-02  0.8406562E-01
        1   -1    0    0  501    0  0.00000000000E+00  0.00000000000E+00  0.21266535112E+04  0.21266535112E+04  0.50400001928E-02 0. -1.
       -1   -1    0    0    0  501  0.00000000000E+00  0.00000000000E+00 -0.72884851301E+03  0.72884851303E+03  0.50400001928E-02 0.  1.
    10030    2    1    2    0    0  0.00000000000E+00  0.00000000000E+00  0.13978049982E+04  0.28555020242E+04  0.24899865456E+04 0.  0.
        3    1    3    3  502    0  0.31495486955E+03  0.48320960003E+03 -0.56638109712E+03  0.80837840446E+03  0.10100000352E+00 0.  1.
       -3    1    3    3    0  502 -0.31495486955E+03 -0.48320960003E+03  0.19641860953E+04  0.20471236197E+04  0.10100000352E+00 0. -1.
</event>
<event>
 5   0  0.2452457E-05  0.2509221E+04  0.7818609E-02  0.8399708E-01
        2   -1    0    0  501    0  0.00000000000E+00  0.00000000000E+00  0.12327262116E+04  0.12327262116E+04  0.25500000920E-02 0. -1.
       -2   -1    0    0    0  501  0.00000000000E+00  0.00000000000E+00 -0.12768828567E+04  0.12768828567E+04  0.25500000920E-02 0.  1.
    10030    2    1    2    0    0  0.00000000000E+00  0.00000000000E+00 -0.44156645108E+02  0.25096090684E+04  0.25092205696E+04 0.  0.
        1    1    3    3  502    0  0.57635205144E+03  0.79865182881E+03 -0.79938623414E+03  0.12684812897E+04  0.50400001928E-02 0.  1.
       -1    1    3    3    0  502 -0.57635205144E+03 -0.79865182881E+03  0.75522958904E+03  0.12411277787E+04  0.50400001928E-02 0. -1.
</event>
<event>
 5   0  0.1039688E-05  0.2503422E+04  0.7818609E-02  0.8401767E-01
       -1   -1    0    0    0  501  0.00000000000E+00  0.00000000000E+00  0.12280341339E+04  0.12280341339E+04  0.50400001928E-02 0.  1.
        1   -1    0    0  501    0  0.00000000000E+00  0.00000000000E+00 -0.12758446758E+04  0.12758446758E+04  0.50400001928E-02 0. -1.
    10030    2    1    2    0    0  0.00000000000E+00  0.00000000000E+00 -0.47810541905E+02  0.25038788098E+04  0.25034223068E+04 0.  0.
        3    1    3    3  502    0  0.88117208692E+03 -0.73149658896E+03 -0.52919962705E+03  0.12615877940E+04  0.10100000352E+00 0. -1.
       -3    1    3    3    0  502 -0.88117208692E+03  0.73149658896E+03  0.48138908515E+03  0.12422910158E+04  0.10100000352E+00 0.  1.
</event>
<event>
 5   0  0.2441340E-05  0.2488515E+04  0.7818609E-02  0.8407088E-01
       -2   -1    0    0    0  501  0.00000000000E+00  0.00000000000E+00  0.11233581697E+04  0.11233581697E+04  0.25500000920E-02 0.  1.
        2   -1    0    0  501    0  0.00000000000E+00  0.00000000000E+00 -0.13781689452E+04  0.13781689452E+04  0.25500000920E-02 0. -1.
    10030    2    1    2    0    0  0.00000000000E+00  0.00000000000E+00 -0.25481077556E+03  0.25015271149E+04  0.24885154962E+04 0.  0.
        3    1    3    3  502    0 -0.10420368304E+04  0.57133341434E+03 -0.49799913919E+03  0.12885130108E+04  0.10100000352E+00 0.  1.
       -3    1    3    3    0  502  0.10420368304E+04 -0.57133341434E+03  0.24318836363E+03  0.12130141040E+04  0.10100000352E+00 0. -1.
</event>
<event>
 5   0  0.1008073E-05  0.2500848E+04  0.7818609E-02  0.8402683E-01
       -1   -1    0    0    0  501  0.00000000000E+00  0.00000000000E+00  0.11963755026E+04  0.11963755026E+04  0.50400001928E-02 0.  1.
        1   -1    0    0  501    0  0.00000000000E+00  0.00000000000E+00 -0.13069147174E+04  0.13069147174E+04  0.50400001928E-02 0. -1.
    10030    2    1    2    0    0  0.00000000000E+00  0.00000000000E+00 -0.11053921480E+03  0.25032902199E+04  0.25008484575E+04 0.  0.
        1    1    3    3  502    0 -0.47308168308E+02 -0.42859867109E+03 -0.12301386795E+04  0.13035244741E+04  0.50400001928E-02 0. -1.
       -1    1    3    3    0  502  0.47308168308E+02  0.42859867109E+03  0.11195994647E+04  0.11997657459E+04  0.50400001928E-02 0.  1.
</event>
<event>
 5   0  0.2432309E-05  0.2600795E+04  0.7818609E-02  0.8367931E-01
        2   -1    0    0  501    0  0.00000000000E+00  0.00000000000E+00  0.12727684469E+04  0.12727684469E+04  0.25500000920E-02 0. -1.
       -2   -1    0    0    0  501  0.00000000000E+00  0.00000000000E+00 -0.13286265121E+04  0.13286265121E+04  0.25500000920E-02 0.  1.
    10030    2    1    2    0    0  0.00000000000E+00  0.00000000000E+00 -0.55858065141E+02  0.26013949590E+04  0.26007951879E+04 0.  0.
        4    1    3    3  502    0 -0.11271274142E+04  0.92248580849E+02 -0.67003212007E+03  0.13144849423E+04  0.12699999809E+01 0.  1.
       -4    1    3    3    0  502  0.11271274142E+04 -0.92248580849E+02  0.61417405493E+03  0.12869100168E+04  0.12699999809E+01 0. -1.
</event>
<event>
 5   0  0.2432309E-05  0.2498512E+04  0.7818609E-02  0.8403516E-01
       -2   -1    0    0    0  501  0.00000000000E+00  0.00000000000E+00  0.63405205972E+03  0.63405205972E+03  0.25500000920E-02 0.  1.
        2   -1    0    0  501    0  0.00000000000E+00  0.00000000000E+00 -0.24613754490E+04  0.24613754490E+04  0.25500000920E-02 0. -1.
    10030    2    1    2    0    0  0.00000000000E+00  0.00000000000E+00 -0.18273233893E+04  0.30954275087E+04  0.24985116955E+04 0.  0.
        4    1    3    3  502    0 -0.81956179442E+03  0.82922392325E+03 -0.14695779375E+04  0.18758877304E+04  0.12699999809E+01 0. -1.
       -4    1    3    3    0  502  0.81956179442E+03 -0.82922392325E+03 -0.35774545179E+03  0.12195397783E+04  0.12699999809E+01 0.  1.
</event>
<event>
 5   0  0.1002753E-05  0.2220435E+04  0.7818609E-02  0.8509970E-01
       -1   -1    0    0    0  501  0.00000000000E+00  0.00000000000E+00  0.96231207387E+03  0.96231207388E+03  0.50400001928E-02 0.  1.
        1   -1    0    0  501    0  0.00000000000E+00  0.00000000000E+00 -0.12808557604E+04  0.12808557604E+04  0.50400001928E-02 0. -1.
    10030    2    1    2    0    0  0.00000000000E+00  0.00000000000E+00 -0.31854368657E+03  0.22431678343E+04  0.22204350593E+04 0.  0.
        5    1    3    3  502    0  0.77573517807E+03 -0.51750957664E+03  0.44937423560E+03  0.10351524149E+04  0.46999998093E+01 0.  1.
       -5    1    3    3    0  502 -0.77573517807E+03  0.51750957664E+03 -0.76791792217E+03  0.12080154194E+04  0.46999998093E+01 0. -1.
</event>
<event>
 5   0  0.1039688E-05  0.2474576E+04  0.7818609E-02  0.8412099E-01
       -1   -1    0    0    0  501  0.00000000000E+00  0.00000000000E+00  0.13918447631E+04  0.13918447631E+04  0.50400001928E-02 0. -1.
        1   -1    0    0  501    0  0.00000000000E+00  0.00000000000E+00 -0.10998941502E+04  0.10998941502E+04  0.50400001928E-02 0.  1.
    10030    2    1    2    0    0  0.00000000000E+00  0.00000000000E+00  0.29195061289E+03  0.24917389133E+04  0.24745762570E+04 0.  0.
        3    1    3    3  502    0  0.85082721803E+03  0.13562951187E+01 -0.75857187387E+03  0.11398859998E+04  0.10100000352E+00 0.  1.
       -3    1    3    3    0  502 -0.85082721803E+03 -0.13562951187E+01  0.10505224868E+04  0.13518529135E+04  0.10100000352E+00 0. -1.
</event>
<event>
 5   0  0.1010338E-05  0.2496885E+04  0.7818609E-02  0.8404096E-01
       -1   -1    0    0    0  501  0.00000000000E+00  0.00000000000E+00  0.12388419851E+04  0.12388419852E+04  0.50400001928E-02 0. -1.
        1   -1    0    0  501    0  0.00000000000E+00  0.00000000000E+00 -0.12581178637E+04  0.12581178637E+04  0.50400001928E-02 0.  1.
    10030    2    1    2    0    0  0.00000000000E+00  0.00000000000E+00 -0.19275878534E+02  0.24969598489E+04  0.24968854454E+04 0.  0.
        2    1    3    3  502    0 -0.76558218179E+03  0.45167848497E+03  0.86701792295E+03  0.12417123699E+04  0.25500000920E-02 0. -1.
       -2    1    3    3    0  502  0.76558218179E+03 -0.45167848497E+03 -0.88629380148E+03  0.12552474789E+04  0.25500000920E-02 0.  1.
</event>
<event>
 5   0  0.2432309E-05  0.2299738E+04  0.7818609E-02  0.8478024E-01
       -2   -1    0    0    0  501  0.00000000000E+00  0.00000000000E+00  0.15930756388E+04  0.15930756388E+04  0.25500000920E-02 0. -1.
        2   -1    0    0  501    0  0.00000000000E+00  0.00000000000E+00 -0.82996626884E+03  0.82996626885E+03  0.25500000920E-02 0.  1.
    10030    2    1    2    0    0  0.00000000000E+00  0.00000000000E+00  0.76310936996E+03  0.24230419076E+04  0.22997382842E+04 0.  0.
        4    1    3    3  502    0 -0.50087168651E+02  0.24480647049E+03  0.15641227830E+04  0.15839572676E+04  0.12699999809E+01 0. -1.
       -4    1    3    3    0  502  0.50087168651E+02 -0.24480647049E+03 -0.80101341301E+03  0.83908464006E+03  0.12699999809E+01 0.  1.
</event>
<event>
 5   0  0.1039688E-05  0.2507373E+04  0.7818609E-02  0.8400364E-01
       -1   -1    0    0    0  501  0.00000000000E+00  0.00000000000E+00  0.81837264973E+03  0.81837264974E+03  0.50400001928E-02 0. -1.
        1   -1    0    0  501    0  0.00000000000E+00  0.00000000000E+00 -0.19205546714E+04  0.19205546714E+04  0.50400001928E-02 0.  1.
    10030    2    1    2    0    0  0.00000000000E+00  0.00000000000E+00 -0.11021820217E+04  0.27389273211E+04  0.25073726611E+04 0.  0.
        3    1    3    3  502    0  0.28764052463E+03 -0.19999872342E+03  0.76381509580E+03  0.84032735976E+03  0.10100000352E+00 0. -1.
       -3    1    3    3    0  502 -0.28764052463E+03  0.19999872342E+03 -0.18659971175E+04  0.18985999614E+04  0.10100000352E+00 0.  1.
</event>
<event>
 5   0  0.2388326E-05  0.2509081E+04  0.7818609E-02  0.8399758E-01
       -2   -1    0    0    0  501  0.00000000000E+00  0.00000000000E+00  0.11454526549E+04  0.11454526549E+04  0.25500000920E-02 0.  1.
        2   -1    0    0  501    0  0.00000000000E+00  0.00000000000E+00 -0.13740169475E+04  0.13740169475E+04  0.25500000920E-02 0. -1.
    10030    2    1    2    0    0  0.00000000000E+00  0.00000000000E+00 -0.22856429263E+03  0.25194696025E+04  0.25090805969E+04 0.  0.
        2    1    3    3  502    0 -0.63193146381E+03 -0.94897891240E+03  0.41130943583E+03  0.12120535480E+04  0.25500000920E-02 0. -1.
       -2    1    3    3    0  502  0.63193146381E+03  0.94897891240E+03 -0.63987372846E+03  0.13074160545E+04  0.25500000920E-02 0.  1.
</event>
<event>
 5   0  0.2432309E-05  0.2491058E+04  0.7818609E-02  0.8406178E-01
       -2   -1    0    0    0  501  0.00000000000E+00  0.00000000000E+00  0.15236323919E+04  0.15236323919E+04  0.25500000920E-02 0.  1.
        2   -1    0    0  501    0  0.00000000000E+00  0.00000000000E+00 -0.10181868047E+04  0.10181868047E+04  0.25500000920E-02 0. -1.
    10030    2    1    2    0    0  0.00000000000E+00  0.00000000000E+00  0.50544558725E+03  0.25418191966E+04  0.24910579252E+04 0.  0.
        4    1    3    3  502    0  0.60090302188E+03 -0.10896042642E+04  0.19665874851E+03  0.12597611562E+04  0.12699999809E+01 0.  1.
       -4    1    3    3    0  502 -0.60090302188E+03  0.10896042642E+04  0.30878683874E+03  0.12820580404E+04  0.12699999809E+01 0. -1.
</event>
<event>
 5   0  0.1002753E-05  0.2467929E+04  0.7818609E-02  0.8414501E-01
        1   -1    0    0  501    0  0.00000000000E+00  0.00000000000E+00  0.18803845320E+04  0.18803845320E+04  0.50400001928E-02 0. -1.
       -1   -1    0    0    0  501  0.00000000000E+00  0.00000000000E+00 -0.80976424153E+03  0.80976424155E+03  0.50400001928E-02 0.  1.
    10030    2    1    2    0    0  0.00000000000E+00  0.00000000000E+00  0.10706202905E+04  0.26901487736E+04  0.24679288113E+04 0.  0.
        5    1    3    3  502    0  0.66701838013E+03  0.65024814634E+03  0.14174439107E+04  0.16961443044E+04  0.46999998093E+01 0. -1.
       -5    1    3    3    0  502 -0.66701838013E+03 -0.65024814634E+03 -0.34682362022E+03  0.99400446920E+03  0.46999998093E+01 0.  1.
</event>
<event>
 5   0  0.1010338E-05  0.2516583E+04  0.7818609E-02  0.8397102E-01
        1   -1    0    0  501    0  0.00000000000E+00  0.00000000000E+00  0.99482500597E+03  0.99482500598E+03  0.50400001928E-02 0.  1.
       -1   -1    0    0    0  501  0.00000000000E+00  0.00000000000E+00 -0.15915333220E+04  0.15915333220E+04  0.50400001928E-02 0. -1.
    10030    2    1    2    0    0  0.00000000000E+00  0.00000000000E+00 -0.59670831604E+03  0.25863583280E+04  0.25165827200E+04 0.  0.
        2    1    3    3  502    0  0.13971516077E+03  0.87268475307E+03 -0.12188425369E+04  0.15055484496E+04  0.25500000920E-02 0. -1.
       -2    1    3    3    0  502 -0.13971516077E+03 -0.87268475307E+03  0.62213422087E+03  0.10808098784E+04  0.25500000920E-02 0.  1.
</event>
<event>
 5   0  0.2388326E-05  0.2424099E+04  0.7818609E-02  0.8430536E-01
        2   -1    0    0  501    0  0.00000000000E+00  0.00000000000E+00  0.13130340094E+04  0.13130340094E+04  0.25500000920E-02 0.  1.
       -2   -1    0    0    0  501  0.00000000000E+00  0.00000000000E+00 -0.11188315042E+04  0.11188315042E+04  0.25500000920E-02 0. -1.
    10030    2    1    2    0    0  0.00000000000E+00  0.00000000000E+00  0.19420250518E+03  0.24318655136E+04  0.24240988559E+04 0.  0.
        2    1    3    3  502    0 -0.25585420897E+03  0.86760277745E+03  0.90644989158E+03  0.12805652508E+04  0.25500000920E-02 0.  1.
       -2    1    3    3    0  502  0.25585420897E+03 -0.86760277745E+03 -0.71224738640E+03  0.11513002628E+04  0.25500000920E-02 0. -1.
</event>
<event>
 5   0  0.2441340E-05  0.2360040E+04  0.7818609E-02  0.8454617E-01
       -2   -1    0    0    0  501  0.00000000000E+00  0.00000000000E+00  0.13043406334E+04  0.13043406334E+04  0.25500000920E-02 0. -1.
        2   -1    0    0  501    0  0.00000000000E+00  0.00000000000E+00 -0.10675484213E+04  0.10675484213E+04  0.25500000920E-02 0.  1.
    10030    2    1    2    0    0  0.00000000000E+00  0.00000000000E+00  0.23679221214E+03  0.23718890548E+04  0.23600396472E+04 0.  0.
        3    1    3    3  502    0  0.26436087910E+01  0.80779432109E+03 -0.74610184607E+03  0.10996393176E+04  0.10100000352E+00 0.  1.
       -3    1    3    3    0  502 -0.26436087910E+01 -0.80779432109E+03  0.98289405821E+03  0.12722497372E+04  0.10100000352E+00 0. -1.
</event>
<event>
 5   0  0.2345143E-05  0.2499968E+04  0.7818609E-02  0.8402997E-01
        2   -1    0    0  501    0  0.00000000000E+00  0.00000000000E+00  0.11495089998E+04  0.11495089998E+04  0.25500000920E-02 0. -1.
       -2   -1    0    0    0  501  0.00000000000E+00  0.00000000000E+00 -0.13592414838E+04  0.13592414838E+04  0.25500000920E-02 0.  1.
    10030    2    1    2    0    0  0.00000000000E+00  0.00000000000E+00 -0.20973248396E+03  0.25087504836E+04  0.24999682547E+04 0.  0.
        5    1    3    3  502    0 -0.49144163197E+03 -0.37184112044E+03 -0.11961871516E+04  0.13456100803E+04  0.46999998093E+01 0.  1.
       -5    1    3    3    0  502  0.49144163197E+03  0.37184112044E+03  0.98645466767E+03  0.11631404033E+04  0.46999998093E+01 0. -1.
</event>
<event>
 5   0  0.1010338E-05  0.2503029E+04  0.7818609E-02  0.8401907E-01
       -1   -1    0    0    0  501  0.00000000000E+00  0.00000000000E+00  0.93083064639E+03  0.93083064641E+03  0.50400001928E-02 0. -1.
        1   -1    0    0  501    0  0.00000000000E+00  0.00000000000E+00 -0.16826780642E+04  0.16826780642E+04  0.50400001928E-02 0.  1.
    10030    2    1    2    0    0  0.00000000000E+00  0.00000000000E+00 -0.75184741782E+03  0.26135087106E+04  0.25030288134E+04 0.  0.
        2    1    3    3  502    0  0.52523628056E+03  0.23187137595E+03 -0.15370558548E+04  0.16407858441E+04  0.25500000920E-02 0.  1.
       -2    1    3    3    0  502 -0.52523628056E+03 -0.23187137595E+03  0.78520843703E+03  0.97272286649E+03  0.25500000920E-02 0. -1.
</event>
<event>
 5   0  0.2388326E-05  0.2400502E+04  0.7818609E-02  0.8439316E-01
        2   -1    0    0  501    0  0.00000000000E+00  0.00000000000E+00  0.13357547626E+04  0.13357547626E+04  0.25500000920E-02 0.  1.
       -2   -1    0    0    0  501  0.00000000000E+00  0.00000000000E+00 -0.10784934287E+04  0.10784934287E+04  0.25500000920E-02 0. -1.
    10030    2    1    2    0    0  0.00000000000E+00  0.00000000000E+00  0.25726133383E+03  0.24142481913E+04  0.24005022256E+04 0.  0.
        2    1    3    3  502    0  0.42905558628E+03  0.79459532913E+03 -0.66654992476E+03  0.11223899658E+04  0.25500000920E-02 0. -1.
       -2    1    3    3    0  502 -0.42905558628E+03 -0.79459532913E+03  0.92381125859E+03  0.12918582255E+04  0.25500000920E-02 0.  1.
</event>
<event>
 5   0  0.1010338E-05  0.2483479E+04  0.7818609E-02  0.8408895E-01
       -1   -1    0    0    0  501  0.00000000000E+00  0.00000000000E+00  0.96820371483E+03  0.96820371484E+03  0.50400001928E-02 0.  1.
        1   -1    0    0  501    0  0.00000000000E+00  0.00000000000E+00 -0.15925538038E+04  0.15925538038E+04  0.50400001928E-02 0. -1.
    10030    2    1    2    0    0  0.00000000000E+00  0.00000000000E+00 -0.62435008898E+03  0.25607575187E+04  0.24834786159E+04 0.  0.
        2    1    3    3  502    0  0.76259388599E+03  0.17429468458E+03 -0.13065422805E+04  0.15228200166E+04  0.25500000920E-02 0. -1.
       -2    1    3    3    0  502 -0.76259388599E+03 -0.17429468458E+03  0.68219219156E+03  0.10379375021E+04  0.25500000920E-02 0.  1.
</event>
<event>
 5   0  0.2345143E-05  0.2500148E+04  0.7818609E-02  0.8402933E-01
       -2   -1    0    0    0  501  0.00000000000E+00  0.00000000000E+00  0.12793054358E+04  0.12793054358E+04  0.25500000920E-02 0.  1.
        2   -1    0    0  501    0  0.00000000000E+00  0.00000000000E+00 -0.12215107815E+04  0.12215107815E+04  0.25500000920E-02 0. -1.
    10030    2    1    2    0    0  0.00000000000E+00  0.00000000000E+00  0.57794654291E+02  0.25008162174E+04  0.25001483018E+04 0.  0.
        5    1    3    3  502    0 -0.81289692320E+03  0.10496452727E+02 -0.92096244170E+03  0.12284565488E+04  0.46999998093E+01 0.  1.
       -5    1    3    3    0  502  0.81289692320E+03 -0.10496452727E+02  0.97875709599E+03  0.12723596686E+04  0.46999998093E+01 0. -1.
</event>
<event>
 5   0  0.1008073E-05  0.2525007E+04  0.7818609E-02  0.8394130E-01
        1   -1    0    0  501    0  0.00000000000E+00  0.00000000000E+00  0.13127204360E+04  0.13127204360E+04  0.50400001928E-02 0. -1.
       -1   -1    0    0    0  501  0.00000000000E+00  0.00000000000E+00 -0.12142074858E+04  0.12142074858E+04  0.50400001928E-02 0.  1.
    10030    2    1    2    0    0  0.00000000000E+00  0.00000000000E+00  0.98512950198E+02  0.25269279219E+04  0.25250069150E+04 0.  0.
        1    1    3    3  502    0  0.45428139476E+03  0.92273762685E+03 -0.68348815761E+03  0.12348977185E+04  0.50400001928E-02 0. -1.
       -1    1    3    3    0  502 -0.45428139476E+03 -0.92273762685E+03  0.78200110781E+03  0.12920302033E+04  0.50400001928E-02 0.  1.
</event>
<event>
 5   0  0.1015327E-05  0.2497254E+04  0.7818609E-02  0.8403964E-01
        1   -1    0    0  501    0  0.00000000000E+00  0.00000000000E+00  0.93494641928E+03  0.93494641929E+03  0.50400001928E-02 0.  1.
       -1   -1    0    0    0  501  0.00000000000E+00  0.00000000000E+00 -0.16675494656E+04  0.16675494657E+04  0.50400001928E-02 0. -1.
    10030    2    1    2    0    0  0.00000000000E+00  0.00000000000E+00 -0.73260304637E+03  0.26024958850E+04  0.24972540134E+04 0.  0.
        4    1    3    3  502    0 -0.22075004386E+03 -0.82221854244E+03 -0.13181917316E+04  0.15692052025E+04  0.12699999809E+01 0. -1.
       -4    1    3    3    0  502  0.22075004386E+03  0.82221854244E+03  0.58558868519E+03  0.10332906825E+04  0.12699999809E+01 0.  1.
</event>
<event>
 5   0  0.1008073E-05  0.2510392E+04  0.7818609E-02  0.8399293E-01
       -1   -1    0    0    0  501  0.00000000000E+00  0.00000000000E+00  0.97114644635E+03  0.97114644637E+03  0.50400001928E-02 0. -1.
        1   -1    0    0  501    0  0.00000000000E+00  0.00000000000E+00 -0.16223265086E+04  0.16223265086E+04  0.50400001928E-02 0.  1.
    10030    2    1    2    0    0  0.00000000000E+00  0.00000000000E+00 -0.65118006229E+03  0.25934729550E+04  0.25103917015E+04 0.  0.
        1    1    3    3  502    0 -0.35392923434E+03 -0.10906459079E+04 -0.85311851693E+03  0.14291905413E+04  0.50400001928E-02 0. -1.
       -1    1    3    3    0  502  0.35392923434E+03  0.10906459079E+04  0.20193845464E+03  0.11642824137E+04  0.50400001928E-02 0.  1.
</event>
<event>
 5   0  0.2345143E-05  0.2492428E+04  0.7818609E-02  0.8405688E-01
       -2   -1    0    0    0  501  0.00000000000E+00  0.00000000000E+00  0.86402856071E+03  0.86402856071E+03  0.25500000920E-02 0. -1.
        2   -1    0    0  501    0  0.00000000000E+00  0.00000000000E+00 -0.17974509570E+04  0.17974509570E+04  0.25500000920E-02 0.  1.
    10030    2    1    2    0    0  0.00000000000E+00  0.00000000000E+00 -0.93342239634E+03  0.26614795178E+04  0.24924277028E+04 0.  0.
        5    1    3    3  502    0 -0.98583625523E+03 -0.65547179664E+03 -0.51066841314E+02  0.11849667973E+04  0.46999998093E+01 0. -1.
       -5    1    3    3    0  502  0.98583625523E+03  0.65547179664E+03 -0.88235555502E+03  0.14765127205E+04  0.46999998093E+01 0.  1.
</event>
<event>
 5   0  0.1002753E-05  0.2478609E+04  0.7818609E-02  0.8410646E-01
       -1   -1    0    0    0  501  0.00000000000E+00  0.00000000000E+00  0.11643824152E+04  0.11643824152E+04  0.50400001928E-02 0.  1.
        1   -1    0    0  501    0  0.00000000000E+00  0.00000000000E+00 -0.13190474627E+04  0.13190474628E+04  0.50400001928E-02 0. -1.
    10030    2    1    2    0    0  0.00000000000E+00  0.00000000000E+00 -0.15466504759E+03  0.24834298779E+04  0.24786090215E+04 0.  0.
        5    1    3    3  502    0  0.89909119307E+03 -0.30217636529E+03  0.72182651599E+03  0.11919442682E+04  0.46999998093E+01 0.  1.
       -5    1    3    3    0  502 -0.89909119307E+03  0.30217636529E+03 -0.87649156358E+03  0.12914856098E+04  0.46999998093E+01 0. -1.
</event>
<event>
 5   0  0.1039688E-05  0.2537155E+04  0.7818609E-02  0.8389867E-01
       -1   -1    0    0    0  501  0.00000000000E+00  0.00000000000E+00  0.10015498308E+04  0.10015498308E+04  0.50400001928E-02 0.  1.
        1   -1    0    0  501    0  0.00000000000E+00  0.00000000000E+00 -0.16067988656E+04  0.16067988656E+04  0.50400001928E-02 0. -1.
    10030    2    1    2    0    0  0.00000000000E+00  0.00000000000E+00 -0.60524903483E+03  0.26083486965E+04  0.25371552038E+04 0.  0.
        3    1    3    3  502    0 -0.11470699360E+04  0.44036923542E+03  0.21817097788E+02  0.12288899452E+04  0.10100000352E+00 0.  1.
       -3    1    3    3    0  502  0.11470699360E+04 -0.44036923542E+03 -0.62706613262E+03  0.13794587512E+04  0.10100000352E+00 0. -1.
</event>
<event>
 5   0  0.2452457E-05  0.2484531E+04  0.7818609E-02  0.8408517E-01
        2   -1    0    0  501    0  0.00000000000E+00  0.00000000000E+00  0.94276407645E+03  0.94276407646E+03  0.25500000920E-02 0.  1.
       -2   -1    0    0    0  501  0.00000000000E+00  0.00000000000E+00 -0.16369141648E+04  0.16369141648E+04  0.25500000920E-02 0. -1.
    10030    2    1    2    0    0  0.00000000000E+00  0.00000000000E+00 -0.69415008836E+03  0.25796782413E+04  0.24845312402E+04 0.  0.
        1    1    3    3  502    0 -0.55922545491E+03  0.11060784563E+04 -0.25970253356E+03  0.12663285777E+04  0.50400001928E-02 0.  1.
       -1    1    3    3    0  502  0.55922545491E+03 -0.11060784563E+04 -0.43444755480E+03  0.13133496635E+04  0.50400001928E-02 0. -1.
</event>
<event>
 5   0  0.1039688E-05  0.2497733E+04  0.7818609E-02  0.8403794E-01
       -1   -1    0    0    0  501  0.00000000000E+00  0.00000000000E+00  0.15479637939E+04  0.15479637939E+04  0.50400001928E-02 0. -1.
        1   -1    0    0  501    0  0.00000000000E+00  0.00000000000E+00 -0.10075606356E+04  0.10075606356E+04  0.50400001928E-02 0.  1.
    10030    2    1    2    0    0  0.00000000000E+00  0.00000000000E+00  0.54040315833E+03  0.25555244295E+04  0.24977328793E+04 0.  0.
        3    1    3    3  502    0  0.25317596644E+03 -0.71050127072E+03 -0.74819674332E+03  0.10624069383E+04  0.10100000352E+00 0.  1.
       -3    1    3    3    0  502 -0.25317596644E+03  0.71050127072E+03  0.12885999017E+04  0.14931174912E+04  0.10100000352E+00 0. -1.
</event>
<event>
 5   0  0.2441340E-05  0.2505859E+04  0.7818609E-02  0.8400901E-01
        2   -1    0    0  501    0  0.00000000000E+00  0.00000000000E+00  0.71221251180E+03  0.71221251180E+03  0.25500000920E-02 0. -1.
       -2   -1    0    0    0  501  0.00000000000E+00  0.00000000000E+00 -0.22041634545E+04  0.22041634545E+04  0.25500000920E-02 0.  1.
    10030    2    1    2    0    0  0.00000000000E+00  0.00000000000E+00 -0.14919509427E+04  0.29163759663E+04  0.25058593658E+04 0.  0.
        3    1    3    3  502    0  0.95144708683E+03 -0.74076938830E+03 -0.11420890384E+04  0.16608305836E+04  0.10100000352E+00 0.  1.
       -3    1    3    3    0  502 -0.95144708683E+03  0.74076938830E+03 -0.34986190431E+03  0.12555453827E+04  0.10100000352E+00 0. -1.
</event>
<event>
 5   0  0.1008073E-05  0.2588601E+04  0.7818609E-02  0.8372084E-01
        1   -1    0    0  501    0  0.00000000000E+00  0.00000000000E+00  0.30862496266E+04  0.30862496266E+04  0.50400001928E-02 0. -1.
       -1   -1    0    0    0  501  0.00000000000E+00  0.00000000000E+00 -0.54279899204E+03  0.54279899206E+03  0.50400001928E-02 0.  1.
    10030    2    1    2    0    0  0.00000000000E+00  0.00000000000E+00  0.25434506346E+04  0.36290486187E+04  0.25886005382E+04 0.  0.
        1    1    3    3  502    0 -0.84231414883E+03 -0.61701582266E+03  0.23440096596E+04  0.25660442192E+04  0.50400001928E-02 0. -1.
       -1    1    3    3    0  502  0.84231414883E+03  0.61701582266E+03  0.19944097498E+03  0.10630043995E+04  0.50400001928E-02 0.  1.
</event>
<event>
 5   0  0.1008073E-05  0.2546860E+04  0.7818609E-02  0.8386479E-01
       -1   -1    0    0    0  501  0.00000000000E+00  0.00000000000E+00  0.70066940083E+03  0.70066940085E+03  0.50400001928E-02 0. -1.
        1   -1    0    0  501    0  0.00000000000E+00  0.00000000000E+00 -0.23143921730E+04  0.23143921730E+04  0.50400001928E-02 0.  1.
    10030    2    1    2    0    0  0.00000000000E+00  0.00000000000E+00 -0.16137227722E+04  0.30150615739E+04  0.25468598526E+04 0.  0.
        1    1    3    3  502    0  0.10435525097E+04  0.72176903952E+03 -0.67896671920E+03  0.14390789390E+04  0.50400001928E-02 0.  1.
       -1    1    3    3    0  502 -0.10435525097E+04 -0.72176903952E+03 -0.93475605300E+03  0.15759826349E+04  0.50400001928E-02 0. -1.
</event>
<event>
 5   0  0.2452457E-05  0.2472863E+04  0.7818609E-02  0.8412718E-01
       -2   -1    0    0    0  501  0.00000000000E+00  0.00000000000E+00  0.12493641556E+04  0.12493641556E+04  0.25500000920E-02 0.  1.
        2   -1    0    0  501    0  0.00000000000E+00  0.00000000000E+00 -0.12236323826E+04  0.12236323826E+04  0.25500000920E-02 0. -1.
    10030    2    1    2    0    0  0.00000000000E+00  0.00000000000E+00  0.25731772951E+02  0.24729965382E+04  0.24728626637E+04 0.  0.
        1    1    3    3  502    0  0.74549283755E+03  0.97823909001E+03 -0.11383410697E+03  0.12351799432E+04  0.50400001928E-02 0. -1.
       -1    1    3    3    0  502 -0.74549283755E+03 -0.97823909001E+03  0.13956587992E+03  0.12378165950E+04  0.50400001928E-02 0.  1.
</event>
<event>
 5   0  0.1039688E-05  0.2474518E+04  0.7818609E-02  0.8412120E-01
       -1   -1    0    0    0  501  0.00000000000E+00  0.00000000000E+00  0.14313661290E+04  0.14313661290E+04  0.50400001928E-02 0.  1.
        1   -1    0    0  501    0  0.00000000000E+00  0.00000000000E+00 -0.10694745020E+04  0.10694745020E+04  0.50400001928E-02 0. -1.
    10030    2    1    2    0    0  0.00000000000E+00  0.00000000000E+00  0.36189162698E+03  0.25008406310E+04  0.24745177939E+04 0.  0.
        3    1    3    3  502    0  0.71290144422E+03 -0.11722841689E+03  0.11960398592E+04  0.13973125370E+04  0.10100000352E+00 0.  1.
       -3    1    3    3    0  502 -0.71290144422E+03  0.11722841689E+03 -0.83414823224E+03  0.11035280941E+04  0.10100000352E+00 0. -1.
</event>
<event>
 5   0  0.1039688E-05  0.2592883E+04  0.7818609E-02  0.8370623E-01
       -1   -1    0    0    0  501  0.00000000000E+00  0.00000000000E+00  0.78360374895E+03  0.78360374897E+03  0.50400001928E-02 0. -1.
        1   -1    0    0  501    0  0.00000000000E+00  0.00000000000E+00 -0.21449111313E+04  0.21449111313E+04  0.50400001928E-02 0.  1.
    10030    2    1    2    0    0  0.00000000000E+00  0.00000000000E+00 -0.13613073823E+04  0.29285148802E+04  0.25928828772E+04 0.  0.
        3    1    3    3  502    0  0.57157696408E+03 -0.55554878239E+03  0.47415787569E+03  0.92744831487E+03  0.10100000352E+00 0. -1.
       -3    1    3    3    0  502 -0.57157696408E+03  0.55554878239E+03 -0.18354652580E+04  0.20010665654E+04  0.10100000352E+00 0.  1.
</event>
<event>
 5   0  0.2441340E-05  0.2504927E+04  0.7818609E-02  0.8401232E-01
       -2   -1    0    0    0  501  0.00000000000E+00  0.00000000000E+00  0.20758345664E+04  0.20758345664E+04  0.25500000920E-02 0.  1.
        2   -1    0    0  501    0  0.00000000000E+00  0.00000000000E+00 -0.75567890309E+03  0.75567890309E+03  0.25500000920E-02 0. -1.
    10030    2    1    2    0    0  0.00000000000E+00  0.00000000000E+00  0.13201556633E+04  0.28315134695E+04  0.25049266561E+04 0.  0.
        3    1    3    3  502    0  0.11828964130E+04  0.28583175714E+03  0.99486944069E+03  0.15718488895E+04  0.10100000352E+00 0.  1.
       -3    1    3    3    0  502 -0.11828964130E+04 -0.28583175714E+03  0.32528622263E+03  0.12596645800E+04  0.10100000352E+00 0. -1.
</event>
<event>
 5   0  0.2345143E-05  0.2424694E+04  0.7818609E-02  0.8430316E-01
        2   -1    0    0  501    0  0.00000000000E+00  0.00000000000E+00  0.15109070816E+04  0.15109070816E+04  0.25500000920E-02 0. -1.
       -2   -1    0    0    0  501  0.00000000000E+00  0.00000000000E+00 -0.97278327894E+03  0.97278327895E+03  0.25500000920E-02 0.  1.
    10030    2    1    2    0    0  0.00000000000E+00  0.00000000000E+00  0.53812380266E+03  0.24836903606E+04  0.24246939147E+04 0.  0.
        5    1    3    3  502    0  0.71756465763E+03 -0.73479789326E+02  0.12671754464E+04  0.14580994545E+04  0.46999998093E+01 0. -1.
       -5    1    3    3    0  502 -0.71756465763E+03  0.73479789326E+02 -0.72905164374E+03  0.10255909060E+04  0.46999998093E+01 0.  1.
</event>
<event>
 5   0  0.2388326E-05  0.2517435E+04  0.7818609E-02  0.8396800E-01
        2   -1    0    0  501    0  0.00000000000E+00  0.00000000000E+00  0.14423825180E+04  0.14423825180E+04  0.25500000920E-02 0.  1.
       -2   -1    0    0    0  501  0.00000000000E+00  0.00000000000E+00 -0.10984397505E+04  0.10984397505E+04  0.25500000920E-02 0. -1.
    10030    2    1    2    0    0  0.00000000000E+00  0.00000000000E+00  0.34394276746E+03  0.25408222685E+04  0.25174354357E+04 0.  0.
        2    1    3    3  502    0  0.31049306516E+03 -0.11918363059E+04  0.43417428506E+03  0.13059046800E+04  0.25500000920E-02 0.  1.
       -2    1    3    3    0  502 -0.31049306516E+03  0.11918363059E+04 -0.90231517606E+02  0.12349175885E+04  0.25500000920E-02 0. -1.
</event>
<event>
 5   0  0.2388326E-05  0.2478438E+04  0.7818609E-02  0.8410707E-01
        2   -1    0    0  501    0  0.00000000000E+00  0.00000000000E+00  0.12315231982E+04  0.12315231982E+04  0.25500000920E-02 0. -1.
       -2   -1    0    0    0  501  0.00000000000E+00  0.00000000000E+00 -0.12469632658E+04  0.12469632658E+04  0.25500000920E-02 0.  1.
    10030    2    1    2    0    0  0.00000000000E+00  0.00000000000E+00 -0.15440067661E+02  0.24784864640E+04  0.24784383706E+04 0.  0.
        2    1    3    3  502    0 -0.12309071432E+04  0.36390271992E+02  0.13087393305E+03  0.12383798421E+04  0.25500000920E-02 0. -1.
       -2    1    3    3    0  502  0.12309071432E+04 -0.36390271992E+02 -0.14631400071E+03  0.12401066219E+04  0.25500000920E-02 0.  1.
</event>
<event>
 5   0  0.2441340E-05  0.2510157E+04  0.7818609E-02  0.8399376E-01
       -2   -1    0    0    0  501  0.00000000000E+00  0.00000000000E+00  0.14244187175E+04  0.14244187175E+04  0.25500000920E-02 0.  1.
        2   -1    0    0  501    0  0.00000000000E+00  0.00000000000E+00 -0.11058698130E+04  0.11058698130E+04  0.25500000920E-02 0. -1.
    10030    2    1    2    0    0  0.00000000000E+00  0.00000000000E+00  0.31854890454E+03  0.25302885304E+04  0.25101566969E+04 0.  0.
        3    1    3    3  502    0  0.10902066677E+04 -0.61764534823E+03  0.86687929660E+02  0.12560060357E+04  0.10100000352E+00 0. -1.
       -3    1    3    3    0  502 -0.10902066677E+04  0.61764534823E+03  0.23186097488E+03  0.12742824947E+04  0.10100000352E+00 0.  1.
</event>
<event>
 5   0  0.1010338E-05  0.2491120E+04  0.7818609E-02  0.8406156E-01
        1   -1    0    0  501    0  0.00000000000E+00  0.00000000000E+00  0.12275186965E+04  0.12275186965E+04  0.50400001928E-02 0. -1.
       -1   -1    0    0    0  501  0.00000000000E+00  0.00000000000E+00 -0.12638665233E+04  0.12638665233E+04  0.50400001928E-02 0.  1.
    10030    2    1    2    0    0  0.00000000000E+00  0.00000000000E+00 -0.36347826726E+02  0.24913852198E+04  0.24911200591E+04 0.  0.
        2    1    3    3  502    0 -0.41577590688E+03  0.11741166131E+04 -0.17572741391E+02  0.12456838392E+04  0.25500000920E-02 0.  1.
       -2    1    3    3    0  502  0.41577590688E+03 -0.11741166131E+04 -0.18775085335E+02  0.12457013806E+04  0.25500000920E-02 0. -1.
</event>
<event>
 5   0  0.2452457E-05  0.2546058E+04  0.7818609E-02  0.8386758E-01
       -2   -1    0    0    0  501  0.00000000000E+00  0.00000000000E+00  0.74396037714E+03  0.74396037714E+03  0.25500000920E-02 0. -1.
        2   -1    0    0  501    0  0.00000000000E+00  0.00000000000E+00 -0.21783458904E+04  0.21783458904E+04  0.25500000920E-02 0.  1.
    10030    2    1    2    0    0  0.00000000000E+00  0.00000000000E+00 -0.14343855132E+04  0.29223062675E+04  0.25460581534E+04 0.  0.
        1    1    3    3  502    0 -0.61812329406E+03 -0.11030616834E+04 -0.54779729795E+03  0.13780070260E+04  0.50400001928E-02 0. -1.
       -1    1    3    3    0  502  0.61812329406E+03  0.11030616834E+04 -0.88658821527E+03  0.15442992415E+04  0.50400001928E-02 0.  1.
</event>
<event>
 5   0  0.1039688E-05  0.2507187E+04  0.7818609E-02  0.8400430E-01
       -1   -1    0    0    0  501  0.00000000000E+00  0.00000000000E+00  0.12890637382E+04  0.12890637382E+04  0.50400001928E-02 0. -1.
        1   -1    0    0  501    0  0.00000000000E+00  0.00000000000E+00 -0.12190987982E+04  0.12190987982E+04  0.50400001928E-02 0.  1.
    10030    2    1    2    0    0  0.00000000000E+00  0.00000000000E+00  0.69964940016E+02  0.25081625364E+04  0.25071865140E+04 0.  0.
        3    1    3    3  502    0 -0.73553525792E+03  0.77367486843E+03 -0.62247282800E+03  0.12357416192E+04  0.10100000352E+00 0.  1.
       -3    1    3    3    0  502  0.73553525792E+03 -0.77367486843E+03  0.69243776802E+03  0.12724209172E+04  0.10100000352E+00 0. -1.
</event>
<event>
 5   0  0.1039688E-05  0.2502548E+04  0.7818609E-02  0.8402078E-01
       -1   -1    0    0    0  501  0.00000000000E+00  0.00000000000E+00  0.11185893276E+04  0.11185893276E+04  0.50400001928E-02 0.  1.
        1   -1    0    0  501    0  0.00000000000E+00  0.00000000000E+00 -0.13996971925E+04  0.13996971925E+04  0.50400001928E-02 0. -1.
    10030    2    1    2    0    0  0.00000000000E+00  0.00000000000E+00 -0.28110786486E+03  0.25182865201E+04  0.25025477749E+04 0.  0.
        3    1    3    3  502    0  0.72072852281E+03 -0.96624508133E+03  0.19712641546E+03  0.12214491372E+04  0.10100000352E+00 0.  1.
       -3    1    3    3    0  502 -0.72072852281E+03  0.96624508133E+03 -0.47823428033E+03  0.12968373830E+04  0.10100000352E+00 0. -1.
</event>
<event>
 5   0  0.1015327E-05  0.2507547E+04  0.7818609E-02  0.8400302E-01
       -1   -1    0    0    0  501  0.00000000000E+00  0.00000000000E+00  0.99328492284E+03  0.99328492285E+03  0.50400001928E-02 0.  1.
        1   -1    0    0  501    0  0.00000000000E+00  0.00000000000E+00 -0.15825751217E+04  0.15825751217E+04  0.50400001928E-02 0. -1.
    10030    2    1    2    0    0  0.00000000000E+00  0.00000000000E+00 -0.58929019884E+03  0.25758600445E+04  0.25075470146E+04 0.  0.
        4    1    3    3  502    0  0.39088143653E+03 -0.95968085058E+03 -0.10196856482E+04  0.14538005594E+04  0.12699999809E+01 0. -1.
       -4    1    3    3    0  502 -0.39088143653E+03  0.95968085058E+03  0.43039544941E+03  0.11220594851E+04  0.12699999809E+01 0.  1.
</event>
<event>
 5   0  0.2432309E-05  0.2502762E+04  0.7818609E-02  0.8402002E-01
        2   -1    0    0  501    0  0.00000000000E+00  0.00000000000E+00  0.20321643752E+04  0.20321643752E+04  0.25500000920E-02 0. -1.
       -2   -1    0    0    0  501  0.00000000000E+00  0.00000000000E+00 -0.77058480570E+03  0.77058480571E+03  0.25500000920E-02 0.  1.
    10030    2    1    2    0    0  0.00000000000E+00  0.00000000000E+00  0.12615795695E+04  0.28027491809E+04  0.25027624659E+04 0.  0.
        4    1    3    3  502    0  0.35592611208E+03  0.11255566180E+04  0.10957582587E+04  0.16106672133E+04  0.12699999809E+01 0. -1.
       -4    1    3    3    0  502 -0.35592611208E+03 -0.11255566180E+04  0.16582131077E+03  0.11920819676E+04  0.12699999809E+01 0.  1.
</event>
<event>
 5   0  0.1039688E-05  0.2516611E+04  0.7818609E-02  0.8397092E-01
        1   -1    0    0  501    0  0.00000000000E+00  0.00000000000E+00  0.11149422474E+04  0.11149422474E+04  0.50400001928E-02 0.  1.
       -1   -1    0    0    0  501  0.00000000000E+00  0.00000000000E+00 -0.14201025496E+04  0.14201025496E+04  0.50400001928E-02 0. -1.
    10030    2    1    2    0    0  0.00000000000E+00  0.00000000000E+00 -0.30516030224E+03  0.25350447970E+04  0.25166106796E+04 0.  0.
        3    1    3    3  502    0  0.49162361138E+01 -0.66493095341E+03  0.92350273076E+03  0.11379871028E+04  0.10100000352E+00 0.  1.
       -3    1    3    3    0  502 -0.49162361138E+01  0.66493095341E+03 -0.12286630330E+04  0.13970576942E+04  0.10100000352E+00 0. -1.
</event>
<event>
 5   0  0.2345143E-05  0.2679808E+04  0.7818609E-02  0.8341586E-01
        2   -1    0    0  501    0  0.00000000000E+00  0.00000000000E+00  0.68770245942E+03  0.68770245942E+03  0.25500000920E-02 0.  1.
       -2   -1    0    0    0  501  0.00000000000E+00  0.00000000000E+00 -0.26106395398E+04  0.26106395398E+04  0.25500000920E-02 0. -1.
    10030    2    1    2    0    0  0.00000000000E+00  0.00000000000E+00 -0.19229370803E+04  0.32983419992E+04  0.26798083754E+04 0.  0.
        5    1    3    3  502    0  0.43424384813E+03  0.42019217972E+03 -0.24334051599E+04  0.25073116978E+04  0.46999998093E+01 0. -1.
       -5    1    3    3    0  502 -0.43424384813E+03 -0.42019217972E+03  0.51046807955E+03  0.79103030143E+03  0.46999998093E+01 0.  1.
</event>
<event>
 5   0  0.1039688E-05  0.2680591E+04  0.7818609E-02  0.8341330E-01
        1   -1    0    0  501    0  0.00000000000E+00  0.00000000000E+00  0.13338295252E+04  0.13338295252E+04  0.50400001928E-02 0.  1.
       -1   -1    0    0    0  501  0.00000000000E+00  0.00000000000E+00 -0.13467925384E+04  0.13467925384E+04  0.50400001928E-02 0. -1.
    10030    2    1    2    0    0  0.00000000000E+00  0.00000000000E+00 -0.12963013202E+02  0.26806220636E+04  0.26805907200E+04 0.  0.
        3    1    3    3  502    0  0.76950440776E+03 -0.80813142058E+03 -0.74890396388E+03  0.13439012552E+04  0.10100000352E+00 0. -1.
       -3    1    3    3    0  502 -0.76950440776E+03  0.80813142058E+03  0.73594095068E+03  0.13367208084E+04  0.10100000352E+00 0.  1.
</event>
<event>
 5   0  0.2452457E-05  0.2468492E+04  0.7818609E-02  0.8414297E-01
        2   -1    0    0  501    0  0.00000000000E+00  0.00000000000E+00  0.12778554978E+04  0.12778554978E+04  0.25500000920E-02 0.  1.
       -2   -1    0    0    0  501  0.00000000000E+00  0.00000000000E+00 -0.11921243758E+04  0.11921243758E+04  0.25500000920E-02 0. -1.
    10030    2    1    2    0    0  0.00000000000E+00  0.00000000000E+00  0.85731122007E+02  0.24699798735E+04  0.24684915941E+04 0.  0.
        1    1    3    3  502    0 -0.35345708620E+03 -0.11748225954E+04  0.17793822648E+03  0.12396782062E+04  0.50400001928E-02 0. -1.
       -1    1    3    3    0  502  0.35345708620E+03  0.11748225954E+04 -0.92207104469E+02  0.12303016673E+04  0.50400001928E-02 0.  1.
</event>
<event>
 5   0  0.1039688E-05  0.2552521E+04  0.7818609E-02  0.8384510E-01
       -1   -1    0    0    0  501  0.00000000000E+00  0.00000000000E+00  0.10683071068E+04  0.10683071068E+04  0.50400001928E-02 0.  1.
        1   -1    0    0  501    0  0.00000000000E+00  0.00000000000E+00 -0.15246929433E+04  0.15246929433E+04  0.50400001928E-02 0. -1.
    10030    2    1    2    0    0  0.00000000000E+00  0.00000000000E+00 -0.45638583654E+03  0.25930000501E+04  0.25525205637E+04 0.  0.
        3    1    3    3  502    0 -0.36520646319E+03 -0.12112360624E+04 -0.57082583676E+02  0.12663834297E+04  0.10100000352E+00 0.  1.
       -3    1    3    3    0  502  0.36520646319E+03  0.12112360624E+04 -0.39930325286E+03  0.13266166204E+04  0.10100000352E+00 0. -1.
</event>
<event>
 5   0  0.2345143E-05  0.2482475E+04  0.7818609E-02  0.8409256E-01
        2   -1    0    0  501    0  0.00000000000E+00  0.00000000000E+00  0.15356745197E+04  0.15356745197E+04  0.25500000920E-02 0. -1.
       -2   -1    0    0    0  501  0.00000000000E+00  0.00000000000E+00 -0.10032533376E+04  0.10032533376E+04  0.25500000920E-02 0.  1.
    10030    2    1    2    0    0  0.00000000000E+00  0.00000000000E+00  0.53242118208E+03  0.25389278573E+04  0.24824750451E+04 0.  0.
        5    1    3    3  502    0 -0.11255517443E+04  0.52314758507E+03  0.27635442783E+03  0.12715911232E+04  0.46999998093E+01 0.  1.
       -5    1    3    3    0  502  0.11255517443E+04 -0.52314758507E+03  0.25606675425E+03  0.12673367341E+04  0.46999998093E+01 0. -1.
</event>
<event>
 5   0  0.2441340E-05  0.2532329E+04  0.7818609E-02  0.8391558E-01
       -2   -1    0    0    0  501  0.00000000000E+00  0.00000000000E+00  0.75995178499E+03  0.75995178500E+03  0.25500000920E-02 0. -1.
        2   -1    0    0  501    0  0.00000000000E+00  0.00000000000E+00 -0.21095707431E+04  0.21095707431E+04  0.25500000920E-02 0.  1.
    10030    2    1    2    0    0  0.00000000000E+00  0.00000000000E+00 -0.13496189581E+04  0.28695225281E+04  0.25323286136E+04 0.  0.
        3    1    3    3  502    0 -0.56431111156E+03 -0.30305812640E+03 -0.19124316978E+04  0.20168505814E+04  0.10100000352E+00 0.  1.
       -3    1    3    3    0  502  0.56431111156E+03  0.30305812640E+03  0.56281273969E+03  0.85267194674E+03  0.10100000352E+00 0. -1.
</event>
<event>
 5   0  0.2441340E-05  0.2417177E+04  0.7818609E-02  0.8433101E-01
        2   -1    0    0  501    0  0.00000000000E+00  0.00000000000E+00  0.12583606655E+04  0.12583606655E+04  0.25500000920E-02 0.  1.
       -2   -1    0    0    0  501  0.00000000000E+00  0.00000000000E+00 -0.11607851822E+04  0.11607851822E+04  0.25500000920E-02 0. -1.
    10030    2    1    2    0    0  0.00000000000E+00  0.00000000000E+00  0.97575483295E+02  0.24191458477E+04  0.24171772086E+04 0.  0.
        3    1    3    3  502    0  0.20709592531E+03  0.11750272472E+04  0.24158068821E+03  0.12173491664E+04  0.10100000352E+00 0. -1.
       -3    1    3    3    0  502 -0.20709592531E+03 -0.11750272472E+04 -0.14400520492E+03  0.12017966813E+04  0.10100000352E+00 0.  1.
</event>
<event>
 5   0  0.1008073E-05  0.2586206E+04  0.7818609E-02  0.8372902E-01
        1   -1    0    0  501    0  0.00000000000E+00  0.00000000000E+00  0.23096236075E+04  0.23096236075E+04  0.50400001928E-02 0.  1.
       -1   -1    0    0    0  501  0.00000000000E+00  0.00000000000E+00 -0.72397758906E+03  0.72397758908E+03  0.50400001928E-02 0. -1.
    10030    2    1    2    0    0  0.00000000000E+00  0.00000000000E+00  0.15856460184E+04  0.30336011966E+04  0.25862062803E+04 0.  0.
        1    1    3    3  502    0  0.54562201639E+03 -0.10712165139E+04  0.13515758909E+04  0.18088575381E+04  0.50400001928E-02 0.  1.
       -1    1    3    3    0  502 -0.54562201639E+03  0.10712165139E+04  0.23407012757E+03  0.12247436585E+04  0.50400001928E-02 0. -1.
</event>
<event>
 5   0  0.1015327E-05  0.2440026E+04  0.7818609E-02  0.8424669E-01
       -1   -1    0    0    0  501  0.00000000000E+00  0.00000000000E+00  0.14293011845E+04  0.14293011846E+04  0.50400001928E-02 0. -1.
        1   -1    0    0  501    0  0.00000000000E+00  0.00000000000E+00 -0.10413702950E+04  0.10413702950E+04  0.50400001928E-02 0.  1.
    10030    2    1    2    0    0  0.00000000000E+00  0.00000000000E+00  0.38793088959E+03  0.24706714795E+04  0.24400260623E+04 0.  0.
        4    1    3    3  502    0 -0.84656853663E+03 -0.72766642963E+03 -0.30440873509E+03  0.11570838392E+04  0.12699999809E+01 0.  1.
       -4    1    3    3    0  502  0.84656853663E+03  0.72766642963E+03  0.69233962468E+03  0.13135876403E+04  0.12699999809E+01 0. -1.
</event>
<event>
 5   0  0.1008073E-05  0.2491127E+04  0.7818609E-02  0.8406153E-01
       -1   -1    0    0    0  501  0.00000000000E+00  0.00000000000E+00  0.84002535864E+03  0.84002535866E+03  0.50400001928E-02 0. -1.
        1   -1    0    0  501    0  0.00000000000E+00  0.00000000000E+00 -0.18468831826E+04  0.18468831826E+04  0.50400001928E-02 0.  1.
    10030    2    1    2    0    0  0.00000000000E+00  0.00000000000E+00 -0.10068578239E+04  0.26869085412E+04  0.24911272210E+04 0.  0.
        1    1    3    3  502    0  0.82115831007E+03  0.71336791978E+03  0.15108501042E+03  0.10981900744E+04  0.50400001928E-02 0. -1.
       -1    1    3    3    0  502 -0.82115831007E+03 -0.71336791978E+03 -0.11579428344E+04  0.15887184668E+04  0.50400001928E-02 0.  1.
</event>
<event>
 5   0  0.8166500E-06  0.2491711E+04  0.7818609E-02  0.8405944E-01
       -3   -1    0    0    0  501  0.00000000000E+00  0.00000000000E+00  0.96651337258E+03  0.96651337785E+03  0.10100000352E+00 0.  1.
        3   -1    0    0  501    0  0.00000000000E+00  0.00000000000E+00 -0.16059336146E+04  0.16059336177E+04  0.10100000352E+00 0. -1.
    10030    2    1    2    0    0  0.00000000000E+00  0.00000000000E+00 -0.63942024198E+03  0.25724469956E+04  0.24917113194E+04 0.  0.
        5    1    3    3  502    0  0.68596767040E+03 -0.95951985567E+03 -0.73383607508E+03  0.13891607082E+04  0.46999998093E+01 0. -1.
       -5    1    3    3    0  502 -0.68596767040E+03  0.95951985567E+03  0.94415833101E+02  0.11832862873E+04  0.46999998093E+01 0.  1.
</event>
<event>
 5   0  0.1002753E-05  0.2511167E+04  0.7818609E-02  0.8399018E-01
       -1   -1    0    0    0  501  0.00000000000E+00  0.00000000000E+00  0.11224544310E+04  0.11224544310E+04  0.50400001928E-02 0. -1.
        1   -1    0    0  501    0  0.00000000000E+00  0.00000000000E+00 -0.14045026093E+04  0.14045026093E+04  0.50400001928E-02 0.  1.
    10030    2    1    2    0    0  0.00000000000E+00  0.00000000000E+00 -0.28204817828E+03  0.25269570403E+04  0.25111672004E+04 0.  0.
        5    1    3    3  502    0 -0.68359180913E+03  0.93852452272E+03 -0.62188023642E+03  0.13171496345E+04  0.46999998093E+01 0.  1.
       -5    1    3    3    0  502  0.68359180913E+03 -0.93852452272E+03  0.33983205813E+03  0.12098074057E+04  0.46999998093E+01 0. -1.
</event>
<event>
 5   0  0.1015327E-05  0.2570302E+04  0.7818609E-02  0.8378360E-01
       -1   -1    0    0    0  501  0.00000000000E+00  0.00000000000E+00  0.64187341982E+03  0.64187341984E+03  0.50400001928E-02 0. -1.
        1   -1    0    0  501    0  0.00000000000E+00  0.00000000000E+00 -0.25731126881E+04  0.25731126881E+04  0.50400001928E-02 0.  1.
    10030    2    1    2    0    0  0.00000000000E+00  0.00000000000E+00 -0.19312392683E+04  0.32149861080E+04  0.25703016483E+04 0.  0.
        4    1    3    3  502    0  0.91701355665E+03  0.56684415941E+03 -0.18406442536E+04  0.21331195572E+04  0.12699999809E+01 0.  1.
       -4    1    3    3    0  502 -0.91701355665E+03 -0.56684415941E+03 -0.90595014731E+02  0.10818665508E+04  0.12699999809E+01 0. -1.
</event>
<event>
 5   0  0.1010338E-05  0.2473694E+04  0.7818609E-02  0.8412418E-01
       -1   -1    0    0    0  501  0.00000000000E+00  0.00000000000E+00  0.67373945264E+03  0.67373945265E+03  0.50400001928E-02 0. -1.
        1   -1    0    0  501    0  0.00000000000E+00  0.00000000000E+00 -0.22705960966E+04  0.22705960966E+04  0.50400001928E-02 0.  1.
    10030    2    1    2    0    0  0.00000000000E+00  0.00000000000E+00 -0.15968566439E+04  0.29443355492E+04  0.24736937331E+04 0.  0.
        2    1    3    3  502    0  0.69865047086E+03 -0.91274649929E+03 -0.25484155511E+03  0.11773541823E+04  0.25500000920E-02 0. -1.
       -2    1    3    3    0  502 -0.69865047086E+03  0.91274649929E+03 -0.13420150888E+04  0.17669813669E+04  0.25500000920E-02 0.  1.
</event>
<event>
 5   0  0.2388326E-05  0.2505740E+04  0.7818609E-02  0.8400944E-01
       -2   -1    0    0    0  501  0.00000000000E+00  0.00000000000E+00  0.65481453966E+03  0.65481453967E+03  0.25500000920E-02 0.  1.
        2   -1    0    0  501    0  0.00000000000E+00  0.00000000000E+00 -0.23971411969E+04  0.23971411969E+04  0.25500000920E-02 0. -1.
    10030    2    1    2    0    0  0.00000000000E+00  0.00000000000E+00 -0.17423266572E+04  0.30519557366E+04  0.25057397386E+04 0.  0.
        2    1    3    3  502    0  0.48010668253E+02  0.11758007252E+03  0.64695380138E+03  0.65930214533E+03  0.25500000920E-02 0.  1.
       -2    1    3    3    0  502 -0.48010668253E+02 -0.11758007252E+03 -0.23892804586E+04  0.23926535912E+04  0.25500000920E-02 0. -1.
</event>
<event>
 5   0  0.1002753E-05  0.2513204E+04  0.7818609E-02  0.8398297E-01
        1   -1    0    0  501    0  0.00000000000E+00  0.00000000000E+00  0.11184007392E+04  0.11184007392E+04  0.50400001928E-02 0.  1.
       -1   -1    0    0    0  501  0.00000000000E+00  0.00000000000E+00 -0.14118807267E+04  0.14118807267E+04  0.50400001928E-02 0. -1.
    10030    2    1    2    0    0  0.00000000000E+00  0.00000000000E+00 -0.29347998746E+03  0.25302814659E+04  0.25132038902E+04 0.  0.
        5    1    3    3  502    0 -0.24829790378E+03 -0.12307831553E+04 -0.95925914499E+02  0.12592469557E+04  0.46999998093E+01 0. -1.
       -5    1    3    3    0  502  0.24829790378E+03  0.12307831553E+04 -0.19755407296E+03  0.12710345102E+04  0.46999998093E+01 0.  1.
</event>
<event>
 5   0  0.1039688E-05  0.2178808E+04  0.7818609E-02  0.8527301E-01
        1   -1    0    0  501    0  0.00000000000E+00  0.00000000000E+00  0.11737554003E+04  0.11737554003E+04  0.50400001928E-02 0.  1.
       -1   -1    0    0    0  501  0.00000000000E+00  0.00000000000E+00 -0.10111142714E+04  0.10111142715E+04  0.50400001928E-02 0. -1.
    10030    2    1    2    0    0  0.00000000000E+00  0.00000000000E+00  0.16264112882E+03  0.21848696717E+04  0.21788077808E+04 0.  0.
        3    1    3    3  502    0 -0.76471092201E+03 -0.49194274092E+02 -0.69517090759E+03  0.10346330131E+04  0.10100000352E+00 0. -1.
       -3    1    3    3    0  502  0.76471092201E+03  0.49194274092E+02  0.85781203641E+03  0.11502366586E+04  0.10100000352E+00 0.  1.
</event>
<event>
 5   0  0.2388326E-05  0.2474379E+04  0.7818609E-02  0.8412171E-01
       -2   -1    0    0    0  501  0.00000000000E+00  0.00000000000E+00  0.81682750370E+03  0.81682750370E+03  0.25500000920E-02 0.  1.
        2   -1    0    0  501    0  0.00000000000E+00  0.00000000000E+00 -0.18738807002E+04  0.18738807002E+04  0.25500000920E-02 0. -1.
    10030    2    1    2    0    0  0.00000000000E+00  0.00000000000E+00 -0.10570531965E+04  0.26907082039E+04  0.24743785438E+04 0.  0.
        2    1    3    3  502    0  0.37662740783E+03  0.83561368350E+03 -0.14321646784E+04  0.17003511691E+04  0.25500000920E-02 0. -1.
       -2    1    3    3    0  502 -0.37662740783E+03 -0.83561368350E+03  0.37511148190E+03  0.99035703474E+03  0.25500000920E-02 0.  1.
</event>
<event>
 5   0  0.1010338E-05  0.2505856E+04  0.7818609E-02  0.8400902E-01
        1   -1    0    0  501    0  0.00000000000E+00  0.00000000000E+00  0.12199422122E+04  0.12199422122E+04  0.50400001928E-02 0. -1.
       -1   -1    0    0    0  501  0.00000000000E+00  0.00000000000E+00 -0.12868061170E+04  0.12868061171E+04  0.50400001928E-02 0.  1.
    10030    2    1    2    0    0  0.00000000000E+00  0.00000000000E+00 -0.66863904894E+02  0.25067483292E+04  0.25058564213E+04 0.  0.
        2    1    3    3  502    0 -0.10890825137E+04 -0.29825761945E+03 -0.57655315847E+03  0.12678611413E+04  0.25500000920E-02 0.  1.
       -2    1    3    3    0  502  0.10890825137E+04  0.29825761945E+03  0.50968925358E+03  0.12388871879E+04  0.25500000920E-02 0. -1.
</event>
<event>
 5   0  0.1002753E-05  0.2451734E+04  0.7818609E-02  0.8420385E-01
        1   -1    0    0  501    0  0.00000000000E+00  0.00000000000E+00  0.12487893497E+04  0.12487893497E+04  0.50400001928E-02 0.  1.
       -1   -1    0    0    0  501  0.00000000000E+00  0.00000000000E+00 -0.12033656941E+04  0.12033656941E+04  0.50400001928E-02 0. -1.
    10030    2    1    2    0    0  0.00000000000E+00  0.00000000000E+00  0.45423655620E+02  0.24521550438E+04  0.24517342944E+04 0.  0.
        5    1    3    3  502    0 -0.99049476054E+02  0.41437430804E+03 -0.11269249929E+04  0.12047816796E+04  0.46999998093E+01 0. -1.
       -5    1    3    3    0  502  0.99049476054E+02 -0.41437430804E+03  0.11723486486E+04  0.12473733642E+04  0.46999998093E+01 0.  1.
</event>
<event>
 5   0  0.2452457E-05  0.2512914E+04  0.7818609E-02  0.8398399E-01
       -2   -1    0    0    0  501  0.00000000000E+00  0.00000000000E+00  0.11044817657E+04  0.11044817657E+04  0.25500000920E-02 0.  1.
        2   -1    0    0  501    0  0.00000000000E+00  0.00000000000E+00 -0.14293440783E+04  0.14293440783E+04  0.25500000920E-02 0. -1.
    10030    2    1    2    0    0  0.00000000000E+00  0.00000000000E+00 -0.32486231259E+03  0.25338258440E+04  0.25129142217E+04 0.  0.
        1    1    3    3  502    0  0.53293990454E+03  0.16551228925E+03 -0.12975278371E+04  0.14124438920E+04  0.50400001928E-02 0. -1.
       -1    1    3    3    0  502 -0.53293990454E+03 -0.16551228925E+03  0.97266552454E+03  0.11213819521E+04  0.50400001928E-02 0.  1.
</event>
<event>
 5   0  0.2388326E-05  0.2391554E+04  0.7818609E-02  0.8442672E-01
       -2   -1    0    0    0  501  0.00000000000E+00  0.00000000000E+00  0.89804692439E+03  0.89804692439E+03  0.25500000920E-02 0. -1.
        2   -1    0    0  501    0  0.00000000000E+00  0.00000000000E+00 -0.15922143634E+04  0.15922143634E+04  0.25500000920E-02 0.  1.
    10030    2    1    2    0    0  0.00000000000E+00  0.00000000000E+00 -0.69416743900E+03  0.24902612878E+04  0.23915544836E+04 0.  0.
        2    1    3    3  502    0  0.10913123682E+04  0.36689976754E+03 -0.10791062728E+02  0.11513881063E+04  0.25500000920E-02 0. -1.
       -2    1    3    3    0  502 -0.10913123682E+04 -0.36689976754E+03 -0.68337637628E+03  0.13388731815E+04  0.25500000920E-02 0.  1.
</event>
<event>
 5   0  0.2432309E-05  0.2500666E+04  0.7818609E-02  0.8402748E-01
       -2   -1    0    0    0  501  0.00000000000E+00  0.00000000000E+00  0.61212743851E+03  0.61212743852E+03  0.25500000920E-02 0.  1.
        2   -1    0    0  501    0  0.00000000000E+00  0.00000000000E+00 -0.25539338973E+04  0.25539338973E+04  0.25500000920E-02 0. -1.
    10030    2    1    2    0    0  0.00000000000E+00  0.00000000000E+00 -0.19418064588E+04  0.31660613358E+04  0.25006663230E+04 0.  0.
        4    1    3    3  502    0  0.12139636991E+04  0.25121376066E+03 -0.76474014018E+03  0.14565868705E+04  0.12699999809E+01 0. -1.
       -4    1    3    3    0  502 -0.12139636991E+04 -0.25121376066E+03 -0.11770663186E+04  0.17094744653E+04  0.12699999809E+01 0.  1.
</event>
<event>
 5   0  0.2345143E-05  0.2512070E+04  0.7818609E-02  0.8398698E-01
       -2   -1    0    0    0  501  0.00000000000E+00  0.00000000000E+00  0.11343995555E+04  0.11343995555E+04  0.25500000920E-02 0. -1.
        2   -1    0    0  501    0  0.00000000000E+00  0.00000000000E+00 -0.13907129478E+04  0.13907129478E+04  0.25500000920E-02 0.  1.
    10030    2    1    2    0    0  0.00000000000E+00  0.00000000000E+00 -0.25631339230E+03  0.25251125032E+04  0.25120701819E+04 0.  0.
        5    1    3    3  502    0  0.92658446507E+03 -0.71873475743E+03 -0.58045241935E+03  0.13084668599E+04  0.46999998093E+01 0. -1.
       -5    1    3    3    0  502 -0.92658446507E+03  0.71873475743E+03  0.32413902706E+03  0.12166456433E+04  0.46999998093E+01 0.  1.
</event>
<event>
 5   0  0.2432309E-05  0.2513073E+04  0.7818609E-02  0.8398343E-01
       -2   -1    0    0    0  501  0.00000000000E+00  0.00000000000E+00  0.15499569374E+04  0.15499569374E+04  0.25500000920E-02 0.  1.
        2   -1    0    0  501    0  0.00000000000E+00  0.00000000000E+00 -0.10186628637E+04  0.10186628637E+04  0.25500000920E-02 0. -1.
    10030    2    1    2    0    0  0.00000000000E+00  0.00000000000E+00  0.53129407366E+03  0.25686198011E+04  0.25130726790E+04 0.  0.
        4    1    3    3  502    0  0.33899660954E+03  0.76462117338E+03  0.12240931265E+04  0.14825551711E+04  0.12699999809E+01 0.  1.
       -4    1    3    3    0  502 -0.33899660954E+03 -0.76462117338E+03 -0.69279905285E+03  0.10860646300E+04  0.12699999809E+01 0. -1.
</event>
<event>
 5   0  0.2452457E-05  0.2513911E+04  0.7818609E-02  0.8398046E-01
       -2   -1    0    0    0  501  0.00000000000E+00  0.00000000000E+00  0.13749286643E+04  0.13749286643E+04  0.25500000920E-02 0. -1.
        2   -1    0    0  501    0  0.00000000000E+00  0.00000000000E+00 -0.11491047218E+04  0.11491047218E+04  0.25500000920E-02 0.  1.
    10030    2    1    2    0    0  0.00000000000E+00  0.00000000000E+00  0.22582394254E+03  0.25240333861E+04  0.25139109135E+04 0.  0.
        1    1    3    3  502    0  0.71078318381E+03 -0.53295581833E+03 -0.77987170838E+03  0.11821398057E+04  0.50400001928E-02 0.  1.
       -1    1    3    3    0  502 -0.71078318381E+03  0.53295581833E+03  0.10056956509E+04  0.13418935804E+04  0.50400001928E-02 0. -1.
</event>
<event>
 5   0  0.1015327E-05  0.2501001E+04  0.7818609E-02  0.8402629E-01
        1   -1    0    0  501    0  0.00000000000E+00  0.00000000000E+00  0.13664472096E+04  0.13664472096E+04  0.50400001928E-02 0.  1.
       -1   -1    0    0    0  501  0.00000000000E+00  0.00000000000E+00 -0.11443921800E+04  0.11443921800E+04  0.50400001928E-02 0. -1.
    10030    2    1    2    0    0  0.00000000000E+00  0.00000000000E+00  0.22205502960E+03  0.25108393896E+04  0.25010010004E+04 0.  0.
        4    1    3    3  502    0 -0.52107378188E+02  0.55095958652E+03 -0.10147570957E+04  0.11558569207E+04  0.12699999809E+01 0. -1.
       -4    1    3    3    0  502  0.52107378188E+02 -0.55095958652E+03  0.12368121253E+04  0.13549824689E+04  0.12699999809E+01 0.  1.
</event>
<event>
 5   0  0.2388326E-05  0.2515550E+04  0.7818609E-02  0.8397466E-01
        2   -1    0    0  501    0  0.00000000000E+00  0.00000000000E+00  0.16294760666E+04  0.16294760666E+04  0.25500000920E-02 0.  1.
       -2   -1    0    0    0  501  0.00000000000E+00  0.00000000000E+00 -0.97086330347E+03  0.97086330347E+03  0.25500000920E-02 0. -1.
    10030    2    1    2    0    0  0.00000000000E+00  0.00000000000E+00  0.65861276309E+03  0.26003393700E+04  0.25155504502E+04 0.  0.
        2    1    3    3  502    0  0.10425148753E+04  0.58268741298E+03 -0.78498959615E+02  0.11968809352E+04  0.25500000920E-02 0. -1.
       -2    1    3    3    0  502 -0.10425148753E+04 -0.58268741298E+03  0.73711172271E+03  0.14034584348E+04  0.25500000920E-02 0.  1.
</event>
<event>
 5   0  0.2441340E-05  0.2457481E+04  0.7818609E-02  0.8418292E-01
        2   -1    0    0  501    0  0.00000000000E+00  0.00000000000E+00  0.12270239877E+04  0.12270239877E+04  0.25500000920E-02 0.  1.
       -2   -1    0    0    0  501  0.00000000000E+00  0.00000000000E+00 -0.12304590077E+04  0.12304590077E+04  0.25500000920E-02 0. -1.
    10030    2    1    2    0    0  0.00000000000E+00  0.00000000000E+00 -0.34350199684E+01  0.24574829954E+04  0.24574805947E+04 0.  0.
        3    1    3    3  502    0 -0.32222549282E+03  0.81298939736E+03 -0.86486473686E+03  0.12299479874E+04  0.10100000352E+00 0. -1.
       -3    1    3    3    0  502  0.32222549282E+03 -0.81298939736E+03  0.86142971689E+03  0.12275350080E+04  0.10100000352E+00 0.  1.
</event>
<event>
 5   0  0.8166500E-06  0.2456944E+04  0.7818609E-02  0.8418487E-01
        4   -1    0    0  501    0  0.00000000000E+00  0.00000000000E+00  0.18139404486E+04  0.18139408932E+04  0.12699999809E+01 0. -1.
       -4   -1    0    0    0  501  0.00000000000E+00  0.00000000000E+00 -0.83196841817E+03  0.83196938750E+03  0.12699999809E+01 0.  1.
    10030    2    1    2    0    0  0.00000000000E+00  0.00000000000E+00  0.98197203044E+03  0.26459102807E+04  0.24569436593E+04 0.  0.
        3    1    3    3  502    0  0.94323457969E+03  0.11212301788E+02 -0.35651361140E+03  0.10084240940E+04  0.10100000352E+00 0.  1.
       -3    1    3    3    0  502 -0.94323457969E+03 -0.11212301788E+02  0.13384856418E+04  0.16374861867E+04  0.10100000352E+00 0. -1.
</event>
<event>
 5   0  0.2452457E-05  0.2500515E+04  0.7818609E-02  0.8402802E-01
       -2   -1    0    0    0  501  0.00000000000E+00  0.00000000000E+00  0.98671927568E+03  0.98671927568E+03  0.25500000920E-02 0. -1.
        2   -1    0    0  501    0  0.00000000000E+00  0.00000000000E+00 -0.15841823348E+04  0.15841823348E+04  0.25500000920E-02 0.  1.
    10030    2    1    2    0    0  0.00000000000E+00  0.00000000000E+00 -0.59746305915E+03  0.25709016105E+04  0.25005145438E+04 0.  0.
        1    1    3    3  502    0  0.33499265136E+03 -0.82562766241E+03 -0.12004962671E+04  0.14950158530E+04  0.50400001928E-02 0.  1.
       -1    1    3    3    0  502 -0.33499265136E+03  0.82562766241E+03  0.60303320791E+03  0.10758857575E+04  0.50400001928E-02 0. -1.
</event>
<event>
 5   0  0.1008073E-05  0.2463090E+04  0.7818609E-02  0.8416254E-01
        1   -1    0    0  501    0  0.00000000000E+00  0.00000000000E+00  0.13618594407E+04  0.13618594407E+04  0.50400001928E-02 0.  1.
       -1   -1    0    0    0  501  0.00000000000E+00  0.00000000000E+00 -0.11137003866E+04  0.11137003867E+04  0.50400001928E-02 0. -1.
    10030    2    1    2    0    0  0.00000000000E+00  0.00000000000E+00  0.24815905402E+03  0.24755598273E+04  0.24630902425E+04 0.  0.
        1    1    3    3  502    0 -0.97915843460E+03  0.17598235190E+03  0.85369013664E+03  0.13109187151E+04  0.50400001928E-02 0.  1.
       -1    1    3    3    0  502  0.97915843460E+03 -0.17598235190E+03 -0.60553108262E+03  0.11646411122E+04  0.50400001928E-02 0. -1.
</event>
<event>
 5   0  0.2388326E-05  0.2513815E+04  0.7818609E-02  0.8398080E-01
        2   -1    0    0  501    0  0.00000000000E+00  0.00000000000E+00  0.17468244687E+04  0.17468244687E+04  0.25500000920E-02 0.  1.
       -2   -1    0    0    0  501  0.00000000000E+00  0.00000000000E+00 -0.90439347820E+03  0.90439347821E+03  0.25500000920E-02 0. -1.
    10030    2    1    2    0    0  0.00000000000E+00  0.00000000000E+00  0.84243099052E+03  0.26512179469E+04  0.25138151540E+04 0.  0.
        2    1    3    3  502    0 -0.18396975056E+03  0.10027931537E+04 -0.35406845210E+03  0.10792606020E+04  0.25500000920E-02 0. -1.
       -2    1    3    3    0  502  0.18396975056E+03 -0.10027931537E+04  0.11964994426E+04  0.15719573450E+04  0.25500000920E-02 0.  1.
</event>
<event>
 5   0  0.1002753E-05  0.2509417E+04  0.7818609E-02  0.8399638E-01
       -1   -1    0    0    0  501  0.00000000000E+00  0.00000000000E+00  0.11353457861E+04  0.11353457861E+04  0.50400001928E-02 0.  1.
        1   -1    0    0  501    0  0.00000000000E+00  0.00000000000E+00 -0.13866197915E+04  0.13866197915E+04  0.50400001928E-02 0. -1.
    10030    2    1    2    0    0  0.00000000000E+00  0.00000000000E+00 -0.25127400540E+03  0.25219655776E+04  0.25094166152E+04 0.  0.
        5    1    3    3  502    0 -0.68262156740E+03  0.10412475684E+04 -0.28166201537E+03  0.12765282150E+04  0.46999998093E+01 0.  1.
       -5    1    3    3    0  502  0.68262156740E+03 -0.10412475684E+04  0.30388009967E+02  0.12454373625E+04  0.46999998093E+01 0. -1.
</event>
<event>
 5   0  0.2345143E-05  0.2491061E+04  0.7818609E-02  0.8406177E-01
       -2   -1    0    0    0  501  0.00000000000E+00  0.00000000000E+00  0.10686809809E+04  0.10686809809E+04  0.25500000920E-02 0. -1.
        2   -1    0    0  501    0  0.00000000000E+00  0.00000000000E+00 -0.14516461453E+04  0.14516461453E+04  0.25500000920E-02 0.  1.
    10030    2    1    2    0    0  0.00000000000E+00  0.00000000000E+00 -0.38296516434E+03  0.25203271262E+04  0.24910613212E+04 0.  0.
        5    1    3    3  502    0  0.44828852331E+03  0.43259073456E+03 -0.12826836149E+04  0.14259721911E+04  0.46999998093E+01 0.  1.
       -5    1    3    3    0  502 -0.44828852331E+03 -0.43259073456E+03  0.89971845058E+03  0.10943549351E+04  0.46999998093E+01 0. -1.
</event>
<event>
 5   0  0.1015327E-05  0.2515332E+04  0.7818609E-02  0.8397544E-01
        1   -1    0    0  501    0  0.00000000000E+00  0.00000000000E+00  0.21224706688E+04  0.21224706688E+04  0.50400001928E-02 0. -1.
       -1   -1    0    0    0  501  0.00000000000E+00  0.00000000000E+00 -0.74522777515E+03  0.74522777517E+03  0.50400001928E-02 0.  1.
    10030    2    1    2    0    0  0.00000000000E+00  0.00000000000E+00  0.13772428936E+04  0.28676984440E+04  0.25153322598E+04 0.  0.
        4    1    3    3  502    0 -0.11994666330E+04  0.36876342191E+03  0.59312719559E+03  0.13879870850E+04  0.12699999809E+01 0. -1.
       -4    1    3    3    0  502  0.11994666330E+04 -0.36876342191E+03  0.78411569805E+03  0.14797113590E+04  0.12699999809E+01 0.  1.
</event>
<event>
 5   0  0.2432309E-05  0.2501524E+04  0.7818609E-02  0.8402443E-01
        2   -1    0    0  501    0  0.00000000000E+00  0.00000000000E+00  0.12010734180E+04  0.12010734180E+04  0.25500000920E-02 0.  1.
       -2   -1    0    0    0  501  0.00000000000E+00  0.00000000000E+00 -0.13025064851E+04  0.13025064851E+04  0.25500000920E-02 0. -1.
    10030    2    1    2    0    0  0.00000000000E+00  0.00000000000E+00 -0.10143306704E+03  0.25035799031E+04  0.25015242682E+04 0.  0.
        4    1    3    3  502    0 -0.43994071395E+03  0.11419679601E+04  0.20788629761E+03  0.12413126034E+04  0.12699999809E+01 0.  1.
       -4    1    3    3    0  502  0.43994071395E+03 -0.11419679601E+04 -0.30931936465E+03  0.12622672997E+04  0.12699999809E+01 0. -1.
</event>
<event>
 5   0  0.1008073E-05  0.2493094E+04  0.7818609E-02  0.8405450E-01
       -1   -1    0    0    0  501  0.00000000000E+00  0.00000000000E+00  0.16791190783E+04  0.16791190783E+04  0.50400001928E-02 0. -1.
        1   -1    0    0  501    0  0.00000000000E+00  0.00000000000E+00 -0.92541357429E+03  0.92541357430E+03  0.50400001928E-02 0.  1.
    10030    2    1    2    0    0  0.00000000000E+00  0.00000000000E+00  0.75370550405E+03  0.26045326526E+04  0.24930941322E+04 0.  0.
        1    1    3    3  502    0 -0.10727610555E+04  0.32331317820E+03  0.94765608258E+03  0.14674466751E+04  0.50400001928E-02 0. -1.
       -1    1    3    3    0  502  0.10727610555E+04 -0.32331317820E+03 -0.19395057854E+03  0.11370859775E+04  0.50400001928E-02 0.  1.
</event>
<event>
 5   0  0.2452457E-05  0.2377416E+04  0.7818609E-02  0.8448007E-01
       -2   -1    0    0    0  501  0.00000000000E+00  0.00000000000E+00  0.12176504285E+04  0.12176504285E+04  0.25500000920E-02 0.  1.
        2   -1    0    0  501    0  0.00000000000E+00  0.00000000000E+00 -0.11604539898E+04  0.11604539899E+04  0.25500000920E-02 0. -1.
    10030    2    1    2    0    0  0.00000000000E+00  0.00000000000E+00  0.57196438643E+02  0.23781044183E+04  0.23774164953E+04 0.  0.
        1    1    3    3  502    0 -0.11241989545E+04 -0.32182870092E+03 -0.18507608094E+03  0.11839130702E+04  0.50400001928E-02 0. -1.
       -1    1    3    3    0  502  0.11241989545E+04  0.32182870092E+03  0.24227251959E+03  0.11941913481E+04  0.50400001928E-02 0.  1.
</event>
<event>
 5   0  0.1015327E-05  0.2438489E+04  0.7818609E-02  0.8425233E-01
        1   -1    0    0  501    0  0.00000000000E+00  0.00000000000E+00  0.12223581374E+04  0.12223581374E+04  0.50400001928E-02 0. -1.
       -1   -1    0    0    0  501  0.00000000000E+00  0.00000000000E+00 -0.12161385553E+04  0.12161385553E+04  0.50400001928E-02 0.  1.
    10030    2    1    2    0    0  0.00000000000E+00  0.00000000000E+00  0.62195820387E+01  0.24384966927E+04  0.24384887609E+04 0.  0.
        4    1    3    3  502    0  0.53437044686E+03 -0.85498445891E+03 -0.68246157984E+03  0.12174997414E+04  0.12699999809E+01 0.  1.
       -4    1    3    3    0  502 -0.53437044686E+03  0.85498445891E+03  0.68868116188E+03  0.12209969513E+04  0.12699999809E+01 0. -1.
</event>
<event>
 5   0  0.2441340E-05  0.2486168E+04  0.7818609E-02  0.8407930E-01
       -2   -1    0    0    0  501  0.00000000000E+00  0.00000000000E+00  0.13102219638E+04  0.13102219638E+04  0.25500000920E-02 0.  1.
        2   -1    0    0  501    0  0.00000000000E+00  0.00000000000E+00 -0.11793865231E+04  0.11793865231E+04  0.25500000920E-02 0. -1.
    10030    2    1    2    0    0  0.00000000000E+00  0.00000000000E+00  0.13083544072E+03  0.24896084868E+04  0.24861682375E+04 0.  0.
        3    1    3    3  502    0 -0.92409254974E+02 -0.11673107897E+04  0.48325301641E+03  0.12667625816E+04  0.10100000352E+00 0. -1.
       -3    1    3    3    0  502  0.92409254974E+02  0.11673107897E+04 -0.35241757570E+03  0.12228459052E+04  0.10100000352E+00 0.  1.
</event>
<event>
 5   0  0.1039688E-05  0.2483441E+04  0.7818609E-02  0.8408908E-01
        1   -1    0    0  501    0  0.00000000000E+00  0.00000000000E+00  0.15445183997E+04  0.15445183997E+04  0.50400001928E-02 0. -1.
       -1   -1    0    0    0  501  0.00000000000E+00  0.00000000000E+00 -0.99828543188E+03  0.99828543190E+03  0.50400001928E-02 0.  1.
    10030    2    1    2    0    0  0.00000000000E+00  0.00000000000E+00  0.54623296781E+03  0.25428038316E+04  0.24834413363E+04 0.  0.
        3    1    3    3  502    0 -0.16182712891E+03  0.11694442367E+04  0.66712954879E+03  0.13560419195E+04  0.10100000352E+00 0. -1.
       -3    1    3    3    0  502  0.16182712891E+03 -0.11694442367E+04 -0.12089658098E+03  0.11867619121E+04  0.10100000352E+00 0.  1.
</event>
<event>
 5   0  0.2452457E-05  0.2525244E+04  0.7818609E-02  0.8394047E-01
        2   -1    0    0  501    0  0.00000000000E+00  0.00000000000E+00  0.15182812098E+04  0.15182812098E+04  0.25500000920E-02 0.  1.
       -2   -1    0    0    0  501  0.00000000000E+00  0.00000000000E+00 -0.10500125413E+04  0.10500125413E+04  0.25500000920E-02 0. -1.
    10030    2    1    2    0    0  0.00000000000E+00  0.00000000000E+00  0.46826866854E+03  0.25682937511E+04  0.25252439974E+04 0.  0.
        1    1    3    3  502    0  0.21514690417E+03 -0.14510445582E+03 -0.10225971491E+04  0.10550111008E+04  0.50400001928E-02 0. -1.
       -1    1    3    3    0  502 -0.21514690417E+03  0.14510445582E+03  0.14908658176E+04  0.15132826503E+04  0.50400001928E-02 0.  1.
</event>
<event>
 5   0  0.1015327E-05  0.2414804E+04  0.7818609E-02  0.8433982E-01
        1   -1    0    0  501    0  0.00000000000E+00  0.00000000000E+00  0.14813130827E+04  0.14813130827E+04  0.50400001928E-02 0.  1.
       -1   -1    0    0    0  501  0.00000000000E+00  0.00000000000E+00 -0.98414044127E+03  0.98414044128E+03  0.50400001928E-02 0. -1.
    10030    2    1    2    0    0  0.00000000000E+00  0.00000000000E+00  0.49717264139E+03  0.24654535239E+04  0.24148044317E+04 0.  0.
        4    1    3    3  502    0 -0.20385509232E+03  0.72243659957E+03 -0.71694835000E+03  0.10380212370E+04  0.12699999809E+01 0. -1.
       -4    1    3    3    0  502  0.20385509232E+03 -0.72243659957E+03  0.12141209914E+04  0.14274322869E+04  0.12699999809E+01 0.  1.
</event>
<event>
 5   0  0.2441340E-05  0.2482269E+04  0.7818609E-02  0.8409330E-01
       -2   -1    0    0    0  501  0.00000000000E+00  0.00000000000E+00  0.64567856114E+03  0.64567856114E+03  0.25500000920E-02 0. -1.
        2   -1    0    0  501    0  0.00000000000E+00  0.00000000000E+00 -0.23857303248E+04  0.23857303248E+04  0.25500000920E-02 0.  1.
    10030    2    1    2    0    0  0.00000000000E+00  0.00000000000E+00 -0.17400517637E+04  0.30314088859E+04  0.24822690615E+04 0.  0.
        3    1    3    3  502    0 -0.59654059710E+03 -0.20378045147E+03 -0.21756677053E+04  0.22651527830E+04  0.10100000352E+00 0.  1.
       -3    1    3    3    0  502  0.59654059710E+03  0.20378045147E+03  0.43561594166E+03  0.76625610289E+03  0.10100000352E+00 0. -1.
</event>
<event>
 5   0  0.1015327E-05  0.2499292E+04  0.7818609E-02  0.8403238E-01
       -1   -1    0    0    0  501  0.00000000000E+00  0.00000000000E+00  0.11233125452E+04  0.11233125452E+04  0.50400001928E-02 0. -1.
        1   -1    0    0  501    0  0.00000000000E+00  0.00000000000E+00 -0.13901876360E+04  0.13901876360E+04  0.50400001928E-02 0.  1.
    10030    2    1    2    0    0  0.00000000000E+00  0.00000000000E+00 -0.26687509087E+03  0.25135001812E+04  0.24992920691E+04 0.  0.
        4    1    3    3  502    0 -0.50463081005E+03  0.94253267309E+03  0.51722851243E+03  0.11876645323E+04  0.12699999809E+01 0. -1.
       -4    1    3    3    0  502  0.50463081005E+03 -0.94253267309E+03 -0.78410360330E+03  0.13258356489E+04  0.12699999809E+01 0.  1.
</event>
<event>
 5   0  0.8166500E-06  0.2482459E+04  0.7818609E-02  0.8409261E-01
        3   -1    0    0  501    0  0.00000000000E+00  0.00000000000E+00  0.22435242489E+04  0.22435242512E+04  0.10100000352E+00 0. -1.
       -3   -1    0    0    0  501  0.00000000000E+00  0.00000000000E+00 -0.68671010874E+03  0.68671011617E+03  0.10100000352E+00 0.  1.
    10030    2    1    2    0    0  0.00000000000E+00  0.00000000000E+00  0.15568141402E+04  0.29302343674E+04  0.24824590995E+04 0.  0.
        5    1    3    3  502    0 -0.60959534708E+03 -0.91617521789E+03  0.10069748804E+03  0.11050545648E+04  0.46999998093E+01 0.  1.
       -5    1    3    3    0  502  0.60959534708E+03  0.91617521789E+03  0.14561166522E+04  0.18251798026E+04  0.46999998093E+01 0. -1.
</event>
<event>
 5   0  0.1015327E-05  0.2532510E+04  0.7818609E-02  0.8391495E-01
        1   -1    0    0  501    0  0.00000000000E+00  0.00000000000E+00  0.20376184395E+04  0.20376184395E+04  0.50400001928E-02 0. -1.
       -1   -1    0    0    0  501  0.00000000000E+00  0.00000000000E+00 -0.78689968164E+03  0.78689968165E+03  0.50400001928E-02 0.  1.
    10030    2    1    2    0    0  0.00000000000E+00  0.00000000000E+00  0.12507187578E+04  0.28245181211E+04  0.25325096654E+04 0.  0.
        4    1    3    3  502    0 -0.31677314883E+03  0.88057448288E+03  0.15767359319E+04  0.18335360535E+04  0.12699999809E+01 0. -1.
       -4    1    3    3    0  502  0.31677314883E+03 -0.88057448288E+03 -0.32601717404E+03  0.99098206764E+03  0.12699999809E+01 0.  1.
</event>
<event>
 5   0  0.1002753E-05  0.2513189E+04  0.7818609E-02  0.8398302E-01
       -1   -1    0    0    0  501  0.00000000000E+00  0.00000000000E+00  0.12293150441E+04  0.12293150442E+04  0.50400001928E-02 0.  1.
        1   -1    0    0  501    0  0.00000000000E+00  0.00000000000E+00 -0.12844788274E+04  0.12844788274E+04  0.50400001928E-02 0. -1.
    10030    2    1    2    0    0  0.00000000000E+00  0.00000000000E+00 -0.55163783252E+02  0.25137938716E+04  0.25131885297E+04 0.  0.
        5    1    3    3  502    0  0.87711346710E+03  0.39879975482E+03 -0.83439739018E+03  0.12746020451E+04  0.46999998093E+01 0. -1.
       -5    1    3    3    0  502 -0.87711346710E+03 -0.39879975482E+03  0.77923360693E+03  0.12391918265E+04  0.46999998093E+01 0.  1.
</event>
<event>
 5   0  0.2388326E-05  0.2492198E+04  0.7818609E-02  0.8405770E-01
       -2   -1    0    0    0  501  0.00000000000E+00  0.00000000000E+00  0.78248999183E+03  0.78248999184E+03  0.25500000920E-02 0. -1.
        2   -1    0    0  501    0  0.00000000000E+00  0.00000000000E+00 -0.19843866423E+04  0.19843866423E+04  0.25500000920E-02 0.  1.
    10030    2    1    2    0    0  0.00000000000E+00  0.00000000000E+00 -0.12018966505E+04  0.27668766342E+04  0.24921979757E+04 0.  0.
        2    1    3    3  502    0  0.59843921293E+03 -0.98984554793E+03 -0.86355407153E+02  0.11599055809E+04  0.25500000920E-02 0. -1.
       -2    1    3    3    0  502 -0.59843921293E+03  0.98984554793E+03 -0.11155412434E+04  0.16069710532E+04  0.25500000920E-02 0.  1.
</event>
<event>
 5   0  0.2432309E-05  0.2502338E+04  0.7818609E-02  0.8402153E-01
       -2   -1    0    0    0  501  0.00000000000E+00  0.00000000000E+00  0.10375389487E+04  0.10375389487E+04  0.25500000920E-02 0.  1.
        2   -1    0    0  501    0  0.00000000000E+00  0.00000000000E+00 -0.15087857193E+04  0.15087857193E+04  0.25500000920E-02 0. -1.
    10030    2    1    2    0    0  0.00000000000E+00  0.00000000000E+00 -0.47124677056E+03  0.25463246680E+04  0.25023380659E+04 0.  0.
        4    1    3    3  502    0 -0.38799989442E+03  0.65712636263E+03 -0.12445476107E+04  0.14598833319E+04  0.12699999809E+01 0. -1.
       -4    1    3    3    0  502  0.38799989442E+03 -0.65712636263E+03  0.77330084014E+03  0.10864413361E+04  0.12699999809E+01 0.  1.
</event>
<event>
 5   0  0.2345143E-05  0.2493023E+04  0.7818609E-02  0.8405475E-01
       -2   -1    0    0    0  501  0.00000000000E+00  0.00000000000E+00  0.13899919651E+04  0.13899919651E+04  0.25500000920E-02 0. -1.
        2   -1    0    0  501    0  0.00000000000E+00  0.00000000000E+00 -0.11178416048E+04  0.11178416048E+04  0.25500000920E-02 0.  1.
    10030    2    1    2    0    0  0.00000000000E+00  0.00000000000E+00  0.27215036031E+03  0.25078335699E+04  0.24930229433E+04 0.  0.
        5    1    3    3  502    0 -0.92725160406E+03  0.87829484211E+02 -0.69725388032E+03  0.11634838285E+04  0.46999998093E+01 0.  1.
       -5    1    3    3    0  502  0.92725160406E+03 -0.87829484211E+02  0.96940424062E+03  0.13443497414E+04  0.46999998093E+01 0. -1.
</event>
<event>
 5   0  0.8166500E-06  0.2502109E+04  0.7818609E-02  0.8402234E-01
       -4   -1    0    0    0  501  0.00000000000E+00  0.00000000000E+00  0.93310751092E+03  0.93310837518E+03  0.12699999809E+01 0.  1.
        4   -1    0    0  501    0  0.00000000000E+00  0.00000000000E+00 -0.16773373265E+04  0.16773378073E+04  0.12699999809E+01 0. -1.
    10030    2    1    2    0    0  0.00000000000E+00  0.00000000000E+00 -0.74422981563E+03  0.26104461825E+04  0.25021093608E+04 0.  0.
        2    1    3    3  502    0 -0.19283854272E+02  0.10303917849E+04  0.36786136673E+03  0.10942582340E+04  0.25500000920E-02 0.  1.
       -2    1    3    3    0  502  0.19283854272E+02 -0.10303917849E+04 -0.11120911824E+04  0.15161879486E+04  0.25500000920E-02 0. -1.
</event>
<event>
 5   0  0.1015327E-05  0.2516155E+04  0.7818609E-02  0.8397253E-01
        1   -1    0    0  501    0  0.00000000000E+00  0.00000000000E+00  0.17241528504E+04  0.17241528504E+04  0.50400001928E-02 0.  1.
       -1   -1    0    0    0  501  0.00000000000E+00  0.00000000000E+00 -0.91799223993E+03  0.91799223995E+03  0.50400001928E-02 0. -1.
    10030    2    1    2    0    0  0.00000000000E+00  0.00000000000E+00  0.80616061043E+03  0.26421450903E+04  0.25161549532E+04 0.  0.
        4    1    3    3  502    0 -0.81986721329E+02  0.76696443797E+03 -0.64056763937E+03  0.10026389106E+04  0.12699999809E+01 0. -1.
       -4    1    3    3    0  502  0.81986721329E+02 -0.76696443797E+03  0.14467282498E+04  0.16395061797E+04  0.12699999809E+01 0.  1.
</event>
<event>
 5   0  0.1008073E-05  0.2623021E+04  0.7818609E-02  0.8360423E-01
       -1   -1    0    0    0  501  0.00000000000E+00  0.00000000000E+00  0.14218739627E+04  0.14218739627E+04  0.50400001928E-02 0. -1.
        1   -1    0    0  501    0  0.00000000000E+00  0.00000000000E+00 -0.12097132931E+04  0.12097132931E+04  0.50400001928E-02 0.  1.
    10030    2    1    2    0    0  0.00000000000E+00  0.00000000000E+00  0.21216066954E+03  0.26315872558E+04  0.26230210322E+04 0.  0.
        1    1    3    3  502    0 -0.11739196068E+04  0.49536948882E+03  0.41787116217E+03  0.13409304538E+04  0.50400001928E-02 0.  1.
       -1    1    3    3    0  502  0.11739196068E+04 -0.49536948882E+03 -0.20571049263E+03  0.12906568020E+04  0.50400001928E-02 0. -1.
</event>
<event>
 5   0  0.2441340E-05  0.2485594E+04  0.7818609E-02  0.8408136E-01
        2   -1    0    0  501    0  0.00000000000E+00  0.00000000000E+00  0.20976694741E+04  0.20976694741E+04  0.25500000920E-02 0. -1.
       -2   -1    0    0    0  501  0.00000000000E+00  0.00000000000E+00 -0.73631436751E+03  0.73631436752E+03  0.25500000920E-02 0.  1.
    10030    2    1    2    0    0  0.00000000000E+00  0.00000000000E+00  0.13613551066E+04  0.28339838416E+04  0.24855938301E+04 0.  0.
        3    1    3    3  502    0  0.52842792812E+03  0.21579029191E+03  0.19393803869E+04  0.20216324643E+04  0.10100000352E+00 0. -1.
       -3    1    3    3    0  502 -0.52842792812E+03 -0.21579029191E+03 -0.57802528034E+03  0.81235137731E+03  0.10100000352E+00 0.  1.
</event>
<event>
 5   0  0.2452457E-05  0.2474488E+04  0.7818609E-02  0.8412131E-01
       -2   -1    0    0    0  501  0.00000000000E+00  0.00000000000E+00  0.18167377225E+04  0.18167377225E+04  0.25500000920E-02 0. -1.
        2   -1    0    0  501    0  0.00000000000E+00  0.00000000000E+00 -0.84259433335E+03  0.84259433336E+03  0.25500000920E-02 0.  1.
    10030    2    1    2    0    0  0.00000000000E+00  0.00000000000E+00  0.97414338912E+03  0.26593320558E+04  0.24744881573E+04 0.  0.
        1    1    3    3  502    0  0.10571789263E+04  0.54360725347E+01  0.11778254222E+04  0.15826969256E+04  0.50400001928E-02 0. -1.
       -1    1    3    3    0  502 -0.10571789263E+04 -0.54360725347E+01 -0.20368203312E+03  0.10766351302E+04  0.50400001928E-02 0.  1.
</event>
<event>
 5   0  0.2345143E-05  0.2513937E+04  0.7818609E-02  0.8398037E-01
        2   -1    0    0  501    0  0.00000000000E+00  0.00000000000E+00  0.17282941184E+04  0.17282941184E+04  0.25500000920E-02 0.  1.
       -2   -1    0    0    0  501  0.00000000000E+00  0.00000000000E+00 -0.91417881511E+03  0.91417881511E+03  0.25500000920E-02 0. -1.
    10030    2    1    2    0    0  0.00000000000E+00  0.00000000000E+00  0.81411530329E+03  0.26424729335E+04  0.25139370472E+04 0.  0.
        5    1    3    3  502    0 -0.10313048201E+04  0.18880151592E+03  0.11358414215E+04  0.15457663048E+04  0.46999998093E+01 0.  1.
       -5    1    3    3    0  502  0.10313048201E+04 -0.18880151592E+03 -0.32172611819E+03  0.10967066287E+04  0.46999998093E+01 0. -1.
</event>
<event>
 5   0  0.1002753E-05  0.2496387E+04  0.7818609E-02  0.8404274E-01
        1   -1    0    0  501    0  0.00000000000E+00  0.00000000000E+00  0.22415475882E+04  0.22415475882E+04  0.50400001928E-02 0.  1.
       -1   -1    0    0    0  501  0.00000000000E+00  0.00000000000E+00 -0.69504967507E+03  0.69504967508E+03  0.50400001928E-02 0. -1.
    10030    2    1    2    0    0  0.00000000000E+00  0.00000000000E+00  0.15464979132E+04  0.29365972633E+04  0.24963869275E+04 0.  0.
        5    1    3    3  502    0 -0.12953345560E+03  0.96943980815E+03 -0.13898078432E+03  0.98789179881E+03  0.46999998093E+01 0. -1.
       -5    1    3    3    0  502  0.12953345560E+03 -0.96943980815E+03  0.16854786975E+04  0.19487054645E+04  0.46999998093E+01 0.  1.
</event>
<event>
 5   0  0.2388326E-05  0.2505169E+04  0.7818609E-02  0.8401146E-01
       -2   -1    0    0    0  501  0.00000000000E+00  0.00000000000E+00  0.62186789907E+03  0.62186789907E+03  0.25500000920E-02 0. -1.
        2   -1    0    0  501    0  0.00000000000E+00  0.00000000000E+00 -0.25229915750E+04  0.25229915750E+04  0.25500000920E-02 0.  1.
    10030    2    1    2    0    0  0.00000000000E+00  0.00000000000E+00 -0.19011236759E+04  0.31448594741E+04  0.25051686331E+04 0.  0.
        2    1    3    3  502    0  0.14204845650E+01  0.49726460639E+03 -0.23937721835E+04  0.24448761468E+04  0.25500000920E-02 0.  1.
       -2    1    3    3    0  502 -0.14204845650E+01 -0.49726460639E+03  0.49264850755E+03  0.69998332733E+03  0.25500000920E-02 0. -1.
</event>
<event>
 5   0  0.1008073E-05  0.2515393E+04  0.7818609E-02  0.8397522E-01
       -1   -1    0    0    0  501  0.00000000000E+00  0.00000000000E+00  0.81270959663E+03  0.81270959665E+03  0.50400001928E-02 0.  1.
        1   -1    0    0  501    0  0.00000000000E+00  0.00000000000E+00 -0.19463288932E+04  0.19463288932E+04  0.50400001928E-02 0. -1.
    10030    2    1    2    0    0  0.00000000000E+00  0.00000000000E+00 -0.11336192965E+04  0.27590384898E+04  0.25153927484E+04 0.  0.
        1    1    3    3  502    0  0.54868209164E+03  0.67105307851E+03  0.43274147556E+03  0.96882890985E+03  0.50400001928E-02 0.  1.
       -1    1    3    3    0  502 -0.54868209164E+03 -0.67105307851E+03 -0.15663607721E+04  0.17902095800E+04  0.50400001928E-02 0. -1.
</event>
<event>
 5   0  0.2441340E-05  0.2522257E+04  0.7818609E-02  0.8395099E-01
        2   -1    0    0  501    0  0.00000000000E+00  0.00000000000E+00  0.15311886998E+04  0.15311886998E+04  0.25500000920E-02 0.  1.
       -2   -1    0    0    0  501  0.00000000000E+00  0.00000000000E+00 -0.10386997306E+04  0.10386997306E+04  0.25500000920E-02 0. -1.
    10030    2    1    2    0    0  0.00000000000E+00  0.00000000000E+00  0.49248896923E+03  0.25698884304E+04  0.25222571558E+04 0.  0.
        3    1    3    3  502    0 -0.61089522611E+03 -0.41089364068E+03 -0.79701487462E+03  0.10850157980E+04  0.10100000352E+00 0. -1.
       -3    1    3    3    0  502  0.61089522611E+03  0.41089364068E+03  0.12895038438E+04  0.14848726325E+04  0.10100000352E+00 0.  1.
</event>
<event>
 5   0  0.2388326E-05  0.2506749E+04  0.7818609E-02  0.8400585E-01
       -2   -1    0    0    0  501  0.00000000000E+00  0.00000000000E+00  0.93386361260E+03  0.93386361260E+03  0.25500000920E-02 0.  1.
        2   -1    0    0  501    0  0.00000000000E+00  0.00000000000E+00 -0.16822025322E+04  0.16822025322E+04  0.25500000920E-02 0. -1.
    10030    2    1    2    0    0  0.00000000000E+00  0.00000000000E+00 -0.74833891960E+03  0.26160661448E+04  0.25067490771E+04 0.  0.
        2    1    3    3  502    0 -0.19878212972E+03 -0.97291789064E+03  0.42394534613E+03  0.10797283054E+04  0.25500000920E-02 0.  1.
       -2    1    3    3    0  502  0.19878212972E+03  0.97291789064E+03 -0.11722842657E+04  0.15363378394E+04  0.25500000920E-02 0. -1.
</event>
<event>
 5   0  0.1039688E-05  0.2456263E+04  0.7818609E-02  0.8418735E-01
        1   -1    0    0  501    0  0.00000000000E+00  0.00000000000E+00  0.11784367528E+04  0.11784367529E+04  0.50400001928E-02 0.  1.
       -1   -1    0    0    0  501  0.00000000000E+00  0.00000000000E+00 -0.12799217639E+04  0.12799217639E+04  0.50400001928E-02 0. -1.
    10030    2    1    2    0    0  0.00000000000E+00  0.00000000000E+00 -0.10148501103E+03  0.24583585167E+04  0.24562628909E+04 0.  0.
        3    1    3    3  502    0 -0.99206341030E+03  0.93823784770E+02  0.66772378277E+03  0.11995198093E+04  0.10100000352E+00 0.  1.
       -3    1    3    3    0  502  0.99206341030E+03 -0.93823784770E+02 -0.76920879381E+03  0.12588387074E+04  0.10100000352E+00 0. -1.
</event>
<event>
 5   0  0.2345143E-05  0.2502866E+04  0.7818609E-02  0.8401965E-01
        2   -1    0    0  501    0  0.00000000000E+00  0.00000000000E+00  0.18462121347E+04  0.18462121347E+04  0.25500000920E-02 0.  1.
       -2   -1    0    0    0  501  0.00000000000E+00  0.00000000000E+00 -0.84826919054E+03  0.84826919054E+03  0.25500000920E-02 0. -1.
    10030    2    1    2    0    0  0.00000000000E+00  0.00000000000E+00  0.99794294415E+03  0.26944813252E+04  0.25028662554E+04 0.  0.
        5    1    3    3  502    0  0.74777705170E+03 -0.60892884611E+03 -0.35964560943E+03  0.10292385113E+04  0.46999998093E+01 0. -1.
       -5    1    3    3    0  502 -0.74777705170E+03  0.60892884611E+03  0.13575885536E+04  0.16652428140E+04  0.46999998093E+01 0.  1.
</event>
<event>
 5   0  0.2388326E-05  0.2486123E+04  0.7818609E-02  0.8407946E-01
        2   -1    0    0  501    0  0.00000000000E+00  0.00000000000E+00  0.17148577203E+04  0.17148577203E+04  0.25500000920E-02 0. -1.
       -2   -1    0    0    0  501  0.00000000000E+00  0.00000000000E+00 -0.90106709806E+03  0.90106709807E+03  0.25500000920E-02 0.  1.
    10030    2    1    2    0    0  0.00000000000E+00  0.00000000000E+00  0.81379062227E+03  0.26159248184E+04  0.24861229814E+04 0.  0.
        2    1    3    3  502    0  0.84826162466E+03 -0.84535401972E+03  0.75750517063E+03  0.14170339749E+04  0.25500000920E-02 0. -1.
       -2    1    3    3    0  502 -0.84826162466E+03  0.84535401972E+03  0.56285451642E+02  0.11988908435E+04  0.25500000920E-02 0.  1.
</event>
<event>
 5   0  0.2345143E-05  0.2435601E+04  0.7818609E-02  0.8426294E-01
        2   -1    0    0  501    0  0.00000000000E+00  0.00000000000E+00  0.13172139763E+04  0.13172139763E+04  0.25500000920E-02 0. -1.
       -2   -1    0    0    0  501  0.00000000000E+00  0.00000000000E+00 -0.11258898022E+04  0.11258898022E+04  0.25500000920E-02 0.  1.
    10030    2    1    2    0    0  0.00000000000E+00  0.00000000000E+00  0.19132417403E+03  0.24431037785E+04  0.24356007745E+04 0.  0.
        5    1    3    3  502    0  0.11548595158E+04  0.13892327473E+03 -0.26602533292E+03  0.11932274491E+04  0.46999998093E+01 0.  1.
       -5    1    3    3    0  502 -0.11548595158E+04 -0.13892327473E+03  0.45734950696E+03  0.12498763295E+04  0.46999998093E+01 0. -1.
</event>
<event>
 5   0  0.1008073E-05  0.2223204E+04  0.7818609E-02  0.8508832E-01
       -1   -1    0    0    0  501  0.00000000000E+00  0.00000000000E+00  0.84745821573E+03  0.84745821575E+03  0.50400001928E-02 0.  1.
        1   -1    0    0  501    0  0.00000000000E+00  0.00000000000E+00 -0.14580760144E+04  0.14580760144E+04  0.50400001928E-02 0. -1.
    10030    2    1    2    0    0  0.00000000000E+00  0.00000000000E+00 -0.61061779866E+03  0.23055342301E+04  0.22232035423E+04 0.  0.
        1    1    3    3  502    0 -0.40855784626E+03  0.75701823021E+03  0.42479611143E+03  0.95939973469E+03  0.50400001928E-02 0.  1.
       -1    1    3    3    0  502  0.40855784626E+03 -0.75701823021E+03 -0.10354139101E+04  0.13461344955E+04  0.50400001928E-02 0. -1.
</event>
<event>
 5   0  0.2432309E-05  0.2563894E+04  0.7818609E-02  0.8380570E-01
       -2   -1    0    0    0  501  0.00000000000E+00  0.00000000000E+00  0.16001363648E+04  0.16001363648E+04  0.25500000920E-02 0.  1.
        2   -1    0    0  501    0  0.00000000000E+00  0.00000000000E+00 -0.10270298524E+04  0.10270298524E+04  0.25500000920E-02 0. -1.
    10030    2    1    2    0    0  0.00000000000E+00  0.00000000000E+00  0.57310651233E+03  0.26271662172E+04  0.25638937689E+04 0.  0.
        4    1    3    3  502    0  0.88765506547E+03 -0.43561236739E+03  0.11225906017E+04  0.14959615376E+04  0.12699999809E+01 0.  1.
       -4    1    3    3    0  502 -0.88765506547E+03  0.43561236739E+03 -0.54948408938E+03  0.11312046797E+04  0.12699999809E+01 0. -1.
</event>
<event>
 5   0  0.2441340E-05  0.2482530E+04  0.7818609E-02  0.8409236E-01
       -2   -1    0    0    0  501  0.00000000000E+00  0.00000000000E+00  0.22585662650E+04  0.22585662650E+04  0.25500000920E-02 0. -1.
        2   -1    0    0  501    0  0.00000000000E+00  0.00000000000E+00 -0.68217584516E+03  0.68217584516E+03  0.25500000920E-02 0.  1.
    10030    2    1    2    0    0  0.00000000000E+00  0.00000000000E+00  0.15763904198E+04  0.29407421102E+04  0.24825304435E+04 0.  0.
        3    1    3    3  502    0 -0.10874420113E+04  0.14945842756E+03  0.14747083653E+04  0.18383777421E+04  0.10100000352E+00 0. -1.
       -3    1    3    3    0  502  0.10874420113E+04 -0.14945842756E+03  0.10168205451E+03  0.11023643681E+04  0.10100000352E+00 0.  1.
</event>
<event>
 5   0  0.2345143E-05  0.2481986E+04  0.7818609E-02  0.8409431E-01
        2   -1    0    0  501    0  0.00000000000E+00  0.00000000000E+00  0.13985410481E+04  0.13985410481E+04  0.25500000920E-02 0. -1.
       -2   -1    0    0    0  501  0.00000000000E+00  0.00000000000E+00 -0.11011929950E+04  0.11011929950E+04  0.25500000920E-02 0.  1.
    10030    2    1    2    0    0  0.00000000000E+00  0.00000000000E+00  0.29734805301E+03  0.24997340431E+04  0.24819859834E+04 0.  0.
        5    1    3    3  502    0  0.99995508041E+03 -0.77406661650E+02 -0.58740060954E+03  0.11623095630E+04  0.46999998093E+01 0.  1.
       -5    1    3    3    0  502 -0.99995508041E+03  0.77406661650E+02  0.88474866256E+03  0.13374244801E+04  0.46999998093E+01 0. -1.
</event>
<event>
 5   0  0.2441340E-05  0.2358092E+04  0.7818609E-02  0.8455362E-01
        2   -1    0    0  501    0  0.00000000000E+00  0.00000000000E+00  0.11030577534E+04  0.11030577534E+04  0.25500000920E-02 0. -1.
       -2   -1    0    0    0  501  0.00000000000E+00  0.00000000000E+00 -0.12602691904E+04  0.12602691904E+04  0.25500000920E-02 0.  1.
    10030    2    1    2    0    0  0.00000000000E+00  0.00000000000E+00 -0.15721143701E+03  0.23633269437E+04  0.23580921965E+04 0.  0.
        3    1    3    3  502    0 -0.49407462175E+03 -0.35813862376E+03  0.93248302255E+03  0.11144045958E+04  0.10100000352E+00 0. -1.
       -3    1    3    3    0  502  0.49407462175E+03  0.35813862376E+03 -0.10896944596E+04  0.12489223479E+04  0.10100000352E+00 0.  1.
</event>
<event>
 5   0  0.1039688E-05  0.2476388E+04  0.7818609E-02  0.8411446E-01
       -1   -1    0    0    0  501  0.00000000000E+00  0.00000000000E+00  0.66795447122E+03  0.66795447123E+03  0.50400001928E-02 0.  1.
        1   -1    0    0  501    0  0.00000000000E+00  0.00000000000E+00 -0.22952532174E+04  0.22952532174E+04  0.50400001928E-02 0. -1.
    10030    2    1    2    0    0  0.00000000000E+00  0.00000000000E+00 -0.16272987462E+04  0.29632076887E+04  0.24763882161E+04 0.  0.
        3    1    3    3  502    0 -0.46605012124E+03 -0.98365531145E+03 -0.10741699420E+03  0.10937636436E+04  0.10100000352E+00 0.  1.
       -3    1    3    3    0  502  0.46605012124E+03  0.98365531145E+03 -0.15198817520E+04  0.18694440451E+04  0.10100000352E+00 0. -1.
</event>
<event>
 5   0  0.1039688E-05  0.2433882E+04  0.7818609E-02  0.8426927E-01
       -1   -1    0    0    0  501  0.00000000000E+00  0.00000000000E+00  0.19940022903E+04  0.19940022903E+04  0.50400001928E-02 0.  1.
        1   -1    0    0  501    0  0.00000000000E+00  0.00000000000E+00 -0.74269993257E+03  0.74269993259E+03  0.50400001928E-02 0. -1.
    10030    2    1    2    0    0  0.00000000000E+00  0.00000000000E+00  0.12513023577E+04  0.27367022229E+04  0.24338819746E+04 0.  0.
        3    1    3    3  502    0  0.43231986448E+03  0.28683271462E+02  0.19043392090E+04  0.19530056396E+04  0.10100000352E+00 0.  1.
       -3    1    3    3    0  502 -0.43231986448E+03 -0.28683271462E+02 -0.65303685128E+03  0.78369658326E+03  0.10100000352E+00 0. -1.
</event>
<event>
 5   0  0.2432309E-05  0.2480943E+04  0.7818609E-02  0.8409806E-01
        2   -1    0    0  501    0  0.00000000000E+00  0.00000000000E+00  0.15909608982E+04  0.15909608982E+04  0.25500000920E-02 0.  1.
       -2   -1    0    0    0  501  0.00000000000E+00  0.00000000000E+00 -0.96719504180E+03  0.96719504181E+03  0.25500000920E-02 0. -1.
    10030    2    1    2    0    0  0.00000000000E+00  0.00000000000E+00  0.62376585644E+03  0.25581559400E+04  0.24809429598E+04 0.  0.
        4    1    3    3  502    0 -0.15609859642E+03  0.66038004087E+03  0.13826127502E+04  0.15401584984E+04  0.12699999809E+01 0.  1.
       -4    1    3    3    0  502  0.15609859642E+03 -0.66038004087E+03 -0.75884689376E+03  0.10179974417E+04  0.12699999809E+01 0. -1.
</event>
<event>
 5   0  0.1002753E-05  0.2496657E+04  0.7818609E-02  0.8404177E-01
       -1   -1    0    0    0  501  0.00000000000E+00  0.00000000000E+00  0.11079574537E+04  0.11079574537E+04  0.50400001928E-02 0. -1.
        1   -1    0    0  501    0  0.00000000000E+00  0.00000000000E+00 -0.14064836577E+04  0.14064836577E+04  0.50400001928E-02 0.  1.
    10030    2    1    2    0    0  0.00000000000E+00  0.00000000000E+00 -0.29852620398E+03  0.25144411114E+04  0.24966570065E+04 0.  0.
        5    1    3    3  502    0  0.75837503143E+02 -0.12421484790E+04 -0.50494191951E+02  0.12454942489E+04  0.46999998093E+01 0. -1.
       -5    1    3    3    0  502 -0.75837503143E+02  0.12421484790E+04 -0.24803201203E+03  0.12689468624E+04  0.46999998093E+01 0.  1.
</event>
<event>
 5   0  0.1002753E-05  0.2501072E+04  0.7818609E-02  0.8402604E-01
        1   -1    0    0  501    0  0.00000000000E+00  0.00000000000E+00  0.12111357059E+04  0.12111357059E+04  0.50400001928E-02 0.  1.
       -1   -1    0    0    0  501  0.00000000000E+00  0.00000000000E+00 -0.12912180135E+04  0.12912180135E+04  0.50400001928E-02 0. -1.
    10030    2    1    2    0    0  0.00000000000E+00  0.00000000000E+00 -0.80082307565E+02  0.25023537194E+04  0.25010719624E+04 0.  0.
        5    1    3    3  502    0 -0.92367615906E+03 -0.63224068718E+03 -0.59792194132E+03  0.12690306030E+04  0.46999998093E+01 0. -1.
       -5    1    3    3    0  502  0.92367615906E+03  0.63224068718E+03  0.51783963375E+03  0.12333231165E+04  0.46999998093E+01 0.  1.
</event>
<event>
 5   0  0.1039688E-05  0.2291141E+04  0.7818609E-02  0.8481422E-01
       -1   -1    0    0    0  501  0.00000000000E+00  0.00000000000E+00  0.61423334437E+03  0.61423334439E+03  0.50400001928E-02 0.  1.
        1   -1    0    0  501    0  0.00000000000E+00  0.00000000000E+00 -0.21365364461E+04  0.21365364461E+04  0.50400001928E-02 0. -1.
    10030    2    1    2    0    0  0.00000000000E+00  0.00000000000E+00 -0.15223031018E+04  0.27507697905E+04  0.22911411364E+04 0.  0.
        3    1    3    3  502    0  0.98373104180E+02  0.35071449520E+03 -0.20651579543E+04  0.20970348856E+04  0.10100000352E+00 0. -1.
       -3    1    3    3    0  502 -0.98373104180E+02 -0.35071449520E+03  0.54285485259E+03  0.65373490495E+03  0.10100000352E+00 0.  1.
</event>
<event>
 5   0  0.2452457E-05  0.2456618E+04  0.7818609E-02  0.8418605E-01
       -2   -1    0    0    0  501  0.00000000000E+00  0.00000000000E+00  0.12844467249E+04  0.12844467249E+04  0.25500000920E-02 0.  1.
        2   -1    0    0  501    0  0.00000000000E+00  0.00000000000E+00 -0.11746252310E+04  0.11746252310E+04  0.25500000920E-02 0. -1.
    10030    2    1    2    0    0  0.00000000000E+00  0.00000000000E+00  0.10982149390E+03  0.24590719558E+04  0.24566184326E+04 0.  0.
        1    1    3    3  502    0  0.33781249934E+02 -0.36056564819E+02  0.12834515861E+04  0.12844022822E+04  0.50400001928E-02 0.  1.
       -1    1    3    3    0  502 -0.33781249934E+02  0.36056564819E+02 -0.11736300922E+04  0.11746696736E+04  0.50400001928E-02 0. -1.
</event>
<event>
 5   0  0.1010338E-05  0.2501372E+04  0.7818609E-02  0.8402497E-01
        1   -1    0    0  501    0  0.00000000000E+00  0.00000000000E+00  0.24108354553E+04  0.24108354553E+04  0.50400001928E-02 0. -1.
       -1   -1    0    0    0  501  0.00000000000E+00  0.00000000000E+00 -0.64882696857E+03  0.64882696859E+03  0.50400001928E-02 0.  1.
    10030    2    1    2    0    0  0.00000000000E+00  0.00000000000E+00  0.17620084868E+04  0.30596624239E+04  0.25013716719E+04 0.  0.
        2    1    3    3  502    0  0.11044963050E+04  0.53543064351E+03  0.11746140798E+04  0.16989162128E+04  0.25500000920E-02 0.  1.
       -2    1    3    3    0  502 -0.11044963050E+04 -0.53543064351E+03  0.58739440695E+03  0.13607462111E+04  0.25500000920E-02 0. -1.
</event>
<event>
 5   0  0.1039688E-05  0.2496388E+04  0.7818609E-02  0.8404274E-01
       -1   -1    0    0    0  501  0.00000000000E+00  0.00000000000E+00  0.99862087141E+03  0.99862087142E+03  0.50400001928E-02 0.  1.
        1   -1    0    0  501    0  0.00000000000E+00  0.00000000000E+00 -0.15601395581E+04  0.15601395581E+04  0.50400001928E-02 0. -1.
    10030    2    1    2    0    0  0.00000000000E+00  0.00000000000E+00 -0.56151868667E+03  0.25587604295E+04  0.24963877303E+04 0.  0.
        3    1    3    3  502    0  0.38138596984E+03  0.62703294071E+03  0.75410132360E+03  0.10522805630E+04  0.10100000352E+00 0.  1.
       -3    1    3    3    0  502 -0.38138596984E+03 -0.62703294071E+03 -0.13156200103E+04  0.15064798666E+04  0.10100000352E+00 0. -1.
</event>
<event>
 5   0  0.1010338E-05  0.2502366E+04  0.7818609E-02  0.8402143E-01
       -1   -1    0    0    0  501  0.00000000000E+00  0.00000000000E+00  0.17398801260E+04  0.17398801260E+04  0.50400001928E-02 0.  1.
        1   -1    0    0  501    0  0.00000000000E+00  0.00000000000E+00 -0.89975074491E+03  0.89975074492E+03  0.50400001928E-02 0. -1.
    10030    2    1    2    0    0  0.00000000000E+00  0.00000000000E+00  0.84012938107E+03  0.26396308709E+04  0.25023656323E+04 0.  0.
        2    1    3    3  502    0  0.21195186190E+03 -0.26334573824E+03  0.16907957739E+04  0.17242577877E+04  0.25500000920E-02 0.  1.
       -2    1    3    3    0  502 -0.21195186190E+03  0.26334573824E+03 -0.85066639279E+03  0.91537308319E+03  0.25500000920E-02 0. -1.
</event>
<event>
 5   0  0.1039688E-05  0.2505072E+04  0.7818609E-02  0.8401181E-01
        1   -1    0    0  501    0  0.00000000000E+00  0.00000000000E+00  0.22152007007E+04  0.22152007007E+04  0.50400001928E-02 0. -1.
       -1   -1    0    0    0  501  0.00000000000E+00  0.00000000000E+00 -0.70821844967E+03  0.70821844969E+03  0.50400001928E-02 0.  1.
    10030    2    1    2    0    0  0.00000000000E+00  0.00000000000E+00  0.15069822510E+04  0.29234191504E+04  0.25050716604E+04 0.  0.
        3    1    3    3  502    0 -0.16209352793E+03 -0.12065042323E+04  0.10975468971E+04  0.16390655801E+04  0.10100000352E+00 0.  1.
       -3    1    3    3    0  502  0.16209352793E+03  0.12065042323E+04  0.40943535386E+03  0.12843535703E+04  0.10100000352E+00 0. -1.
</event>
<event>
 5   0  0.2345143E-05  0.2480347E+04  0.7818609E-02  0.8410021E-01
        2   -1    0    0  501    0  0.00000000000E+00  0.00000000000E+00  0.27133493396E+04  0.27133493396E+04  0.25500000920E-02 0.  1.
       -2   -1    0    0    0  501  0.00000000000E+00  0.00000000000E+00 -0.56683815086E+03  0.56683815087E+03  0.25500000920E-02 0. -1.
    10030    2    1    2    0    0  0.00000000000E+00  0.00000000000E+00  0.21465111888E+04  0.32801874905E+04  0.24803466873E+04 0.  0.
        5    1    3    3  502    0 -0.84896073827E+03 -0.25365273253E+03  0.22207872465E+04  0.23910232387E+04  0.46999998093E+01 0.  1.
       -5    1    3    3    0  502  0.84896073827E+03  0.25365273253E+03 -0.74276057767E+02  0.88916425175E+03  0.46999998093E+01 0. -1.
</event>
<event>
 5   0  0.2452457E-05  0.2495700E+04  0.7818609E-02  0.8404519E-01
       -2   -1    0    0    0  501  0.00000000000E+00  0.00000000000E+00  0.93640855219E+03  0.93640855220E+03  0.25500000920E-02 0. -1.
        2   -1    0    0  501    0  0.00000000000E+00  0.00000000000E+00 -0.16628746794E+04  0.16628746794E+04  0.25500000920E-02 0.  1.
    10030    2    1    2    0    0  0.00000000000E+00  0.00000000000E+00 -0.72646612723E+03  0.25992832316E+04  0.24957003595E+04 0.  0.
        1    1    3    3  502    0  0.60324792450E+03  0.15779228378E+03 -0.14889850961E+04  0.16142747844E+04  0.50400001928E-02 0.  1.
       -1    1    3    3    0  502 -0.60324792450E+03 -0.15779228378E+03  0.76251896883E+03  0.98500844722E+03  0.50400001928E-02 0. -1.
</event>
<event>
 5   0  0.1008073E-05  0.2497935E+04  0.7818609E-02  0.8403721E-01
        1   -1    0    0  501    0  0.00000000000E+00  0.00000000000E+00  0.10641196596E+04  0.10641196596E+04  0.50400001928E-02 0. -1.
       -1   -1    0    0    0  501  0.00000000000E+00  0.00000000000E+00 -0.14659256555E+04  0.14659256555E+04  0.50400001928E-02 0.  1.
    10030    2    1    2    0    0  0.00000000000E+00  0.00000000000E+00 -0.40180599590E+03  0.25300453152E+04  0.24979353952E+04 0.  0.
        1    1    3    3  502    0  0.28571031754E+03 -0.10527652881E+03 -0.14277566499E+04  0.14598638924E+04  0.50400001928E-02 0.  1.
       -1    1    3    3    0  502 -0.28571031754E+03  0.10527652881E+03  0.10259506540E+04  0.10701814227E+04  0.50400001928E-02 0. -1.
</event>
<event>
 5   0  0.2388326E-05  0.2493894E+04  0.7818609E-02  0.8405164E-01
       -2   -1    0    0    0  501  0.00000000000E+00  0.00000000000E+00  0.11486639703E+04  0.11486639703E+04  0.25500000920E-02 0. -1.
        2   -1    0    0  501    0  0.00000000000E+00  0.00000000000E+00 -0.13536397069E+04  0.13536397069E+04  0.25500000920E-02 0.  1.
    10030    2    1    2    0    0  0.00000000000E+00  0.00000000000E+00 -0.20497573659E+03  0.25023036772E+04  0.24938942720E+04 0.  0.
        2    1    3    3  502    0 -0.48897604055E+03  0.11216206476E+04  0.13862790253E+03  0.12314008854E+04  0.25500000920E-02 0. -1.
       -2    1    3    3    0  502  0.48897604055E+03 -0.11216206476E+04 -0.34360363912E+03  0.12709027917E+04  0.25500000920E-02 0.  1.
</event>
<event>
 5   0  0.2345143E-05  0.2424513E+04  0.7818609E-02  0.8430383E-01
        2   -1    0    0  501    0  0.00000000000E+00  0.00000000000E+00  0.22489799317E+04  0.22489799317E+04  0.25500000920E-02 0. -1.
       -2   -1    0    0    0  501  0.00000000000E+00  0.00000000000E+00 -0.65343684650E+03  0.65343684651E+03  0.25500000920E-02 0.  1.
    10030    2    1    2    0    0  0.00000000000E+00  0.00000000000E+00  0.15955430852E+04  0.29024167782E+04  0.24245134393E+04 0.  0.
        5    1    3    3  502    0 -0.45156587233E+03 -0.25919202041E+03  0.21082971359E+04  0.21716424990E+04  0.46999998093E+01 0. -1.
       -5    1    3    3    0  502  0.45156587233E+03  0.25919202041E+03 -0.51275405072E+03  0.73077427912E+03  0.46999998093E+01 0.  1.
</event>
<event>
 5   0  0.1010338E-05  0.2514803E+04  0.7818609E-02  0.8397731E-01
        1   -1    0    0  501    0  0.00000000000E+00  0.00000000000E+00  0.10591390206E+04  0.10591390206E+04  0.50400001928E-02 0.  1.
       -1   -1    0    0    0  501  0.00000000000E+00  0.00000000000E+00 -0.14927769127E+04  0.14927769127E+04  0.50400001928E-02 0. -1.
    10030    2    1    2    0    0  0.00000000000E+00  0.00000000000E+00 -0.43363789209E+03  0.25519159332E+04  0.25148027972E+04 0.  0.
        2    1    3    3  502    0  0.37787945330E+03 -0.68723473375E+03  0.78052534521E+03  0.11064828399E+04  0.25500000920E-02 0.  1.
       -2    1    3    3    0  502 -0.37787945330E+03  0.68723473375E+03 -0.12141632373E+04  0.14454330933E+04  0.25500000920E-02 0. -1.
</event>
<event>
 5   0  0.2388326E-05  0.2466439E+04  0.7818609E-02  0.8415040E-01
       -2   -1    0    0    0  501  0.00000000000E+00  0.00000000000E+00  0.80719631798E+03  0.80719631798E+03  0.25500000920E-02 0. -1.
        2   -1    0    0  501    0  0.00000000000E+00  0.00000000000E+00 -0.18840892634E+04  0.18840892634E+04  0.25500000920E-02 0.  1.
    10030    2    1    2    0    0  0.00000000000E+00  0.00000000000E+00 -0.10768929455E+04  0.26912855814E+04  0.24664386602E+04 0.  0.
        2    1    3    3  502    0  0.44538518758E+03 -0.68852967372E+03 -0.15434947856E+04  0.17478035444E+04  0.25500000920E-02 0.  1.
       -2    1    3    3    0  502 -0.44538518758E+03  0.68852967372E+03  0.46660184010E+03  0.94348203698E+03  0.25500000920E-02 0. -1.
</event>
<event>
 5   0  0.2441340E-05  0.2504443E+04  0.7818609E-02  0.8401404E-01
        2   -1    0    0  501    0  0.00000000000E+00  0.00000000000E+00  0.12619813845E+04  0.12619813845E+04  0.25500000920E-02 0.  1.
       -2   -1    0    0    0  501  0.00000000000E+00  0.00000000000E+00 -0.12425375084E+04  0.12425375084E+04  0.25500000920E-02 0. -1.
    10030    2    1    2    0    0  0.00000000000E+00  0.00000000000E+00  0.19443876035E+02  0.25045188929E+04  0.25044434153E+04 0.  0.
        3    1    3    3  502    0  0.12286636527E+04 -0.23462603912E+03 -0.48550267786E+02  0.12518070492E+04  0.10100000352E+00 0.  1.
       -3    1    3    3    0  502 -0.12286636527E+04  0.23462603912E+03  0.67994143821E+02  0.12527118437E+04  0.10100000352E+00 0. -1.
</event>
<event>
 5   0  0.8166500E-06  0.2528785E+04  0.7818609E-02  0.8392802E-01
       -3   -1    0    0    0  501  0.00000000000E+00  0.00000000000E+00  0.13326380590E+04  0.13326380628E+04  0.10100000352E+00 0. -1.
        3   -1    0    0  501    0  0.00000000000E+00  0.00000000000E+00 -0.11996416033E+04  0.11996416076E+04  0.10100000352E+00 0.  1.
    10030    2    1    2    0    0  0.00000000000E+00  0.00000000000E+00  0.13299645564E+03  0.25322796704E+04  0.25287847421E+04 0.  0.
        5    1    3    3  502    0  0.20383918844E+03  0.47670569071E+03 -0.10882942628E+04  0.12054896195E+04  0.46999998093E+01 0.  1.
       -5    1    3    3    0  502 -0.20383918844E+03 -0.47670569071E+03  0.12212907184E+04  0.13267900509E+04  0.46999998093E+01 0. -1.
</event>
<event>
 5   0  0.1002753E-05  0.2505599E+04  0.7818609E-02  0.8400994E-01
       -1   -1    0    0    0  501  0.00000000000E+00  0.00000000000E+00  0.12025013532E+04  0.12025013532E+04  0.50400001928E-02 0.  1.
        1   -1    0    0  501    0  0.00000000000E+00  0.00000000000E+00 -0.13052014742E+04  0.13052014742E+04  0.50400001928E-02 0. -1.
    10030    2    1    2    0    0  0.00000000000E+00  0.00000000000E+00 -0.10270012101E+03  0.25077028275E+04  0.25055989615E+04 0.  0.
        5    1    3    3  502    0 -0.44042129149E+03  0.10548436372E+04  0.46173860707E+03  0.12328384501E+04  0.46999998093E+01 0.  1.
       -5    1    3    3    0  502  0.44042129149E+03 -0.10548436372E+04 -0.56443872808E+03  0.12748643773E+04  0.46999998093E+01 0. -1.
</event>
<event>
 5   0  0.2452457E-05  0.2477321E+04  0.7818609E-02  0.8411110E-01
       -2   -1    0    0    0  501  0.00000000000E+00  0.00000000000E+00  0.10282585823E+04  0.10282585823E+04  0.25500000920E-02 0. -1.
        2   -1    0    0  501    0  0.00000000000E+00  0.00000000000E+00 -0.14921144592E+04  0.14921144592E+04  0.25500000920E-02 0.  1.
    10030    2    1    2    0    0  0.00000000000E+00  0.00000000000E+00 -0.46385587690E+03  0.25203730416E+04  0.24773207290E+04 0.  0.
        1    1    3    3  502    0 -0.51904664129E+03 -0.10303921330E+04  0.22664030199E+03  0.11757904533E+04  0.50400001928E-02 0. -1.
       -1    1    3    3    0  502  0.51904664129E+03  0.10303921330E+04 -0.69049617889E+03  0.13445825883E+04  0.50400001928E-02 0.  1.
</event>
<event>
 5   0  0.1015327E-05  0.2498032E+04  0.7818609E-02  0.8403687E-01
       -1   -1    0    0    0  501  0.00000000000E+00  0.00000000000E+00  0.15099120877E+04  0.15099120877E+04  0.50400001928E-02 0.  1.
        1   -1    0    0  501    0  0.00000000000E+00  0.00000000000E+00 -0.10331997547E+04  0.10331997547E+04  0.50400001928E-02 0. -1.
    10030    2    1    2    0    0  0.00000000000E+00  0.00000000000E+00  0.47671233300E+03  0.25431118424E+04  0.24980318642E+04 0.  0.
        4    1    3    3  502    0 -0.89674659031E+03  0.86941388521E+03  0.23626119320E+03  0.12711632135E+04  0.12699999809E+01 0.  1.
       -4    1    3    3    0  502  0.89674659031E+03 -0.86941388521E+03  0.24045113981E+03  0.12719486289E+04  0.12699999809E+01 0. -1.
</event>
<event>
 5   0  0.1010338E-05  0.2584987E+04  0.7818609E-02  0.8373319E-01
        1   -1    0    0  501    0  0.00000000000E+00  0.00000000000E+00  0.20371003115E+04  0.20371003115E+04  0.50400001928E-02 0.  1.
       -1   -1    0    0    0  501  0.00000000000E+00  0.00000000000E+00 -0.82005731547E+03  0.82005731548E+03  0.50400001928E-02 0. -1.
    10030    2    1    2    0    0  0.00000000000E+00  0.00000000000E+00  0.12170429960E+04  0.28571576270E+04  0.25849866636E+04 0.  0.
        2    1    3    3  502    0  0.11695819092E+04 -0.16218548748E+03  0.11895221006E+04  0.16760634841E+04  0.25500000920E-02 0.  1.
       -2    1    3    3    0  502 -0.11695819092E+04  0.16218548748E+03  0.27520895357E+02  0.11810941429E+04  0.25500000920E-02 0. -1.
</event>
<event>
 5   0  0.2432309E-05  0.2166405E+04  0.7818609E-02  0.8532543E-01
        2   -1    0    0  501    0  0.00000000000E+00  0.00000000000E+00  0.12157526426E+04  0.12157526426E+04  0.25500000920E-02 0. -1.
       -2   -1    0    0    0  501  0.00000000000E+00  0.00000000000E+00 -0.96510402562E+03  0.96510402562E+03  0.25500000920E-02 0.  1.
    10030    2    1    2    0    0  0.00000000000E+00  0.00000000000E+00  0.25064861694E+03  0.21808566682E+04  0.21664051048E+04 0.  0.
        4    1    3    3  502    0  0.58371843302E+03 -0.87279054327E+03 -0.14260072151E+03  0.10596353713E+04  0.12699999809E+01 0.  1.
       -4    1    3    3    0  502 -0.58371843302E+03  0.87279054327E+03  0.39324933844E+03  0.11212212969E+04  0.12699999809E+01 0. -1.
</event>
<event>
 5   0  0.2388326E-05  0.2483664E+04  0.7818609E-02  0.8408829E-01
       -2   -1    0    0    0  501  0.00000000000E+00  0.00000000000E+00  0.87867569993E+03  0.87867569993E+03  0.25500000920E-02 0.  1.
        2   -1    0    0  501    0  0.00000000000E+00  0.00000000000E+00 -0.17550800027E+04  0.17550800027E+04  0.25500000920E-02 0. -1.
    10030    2    1    2    0    0  0.00000000000E+00  0.00000000000E+00 -0.87640430274E+03  0.26337557026E+04  0.24836635439E+04 0.  0.
        2    1    3    3  502    0 -0.76886358716E+03 -0.57777220238E+03  0.39487766655E+03  0.10396635538E+04  0.25500000920E-02 0.  1.
       -2    1    3    3    0  502  0.76886358716E+03  0.57777220238E+03 -0.12712819693E+04  0.15940921488E+04  0.25500000920E-02 0. -1.
</event>
<event>
 5   0  0.2345143E-05  0.2515866E+04  0.7818609E-02  0.8397355E-01
       -2   -1    0    0    0  501  0.00000000000E+00  0.00000000000E+00  0.13985072472E+04  0.13985072472E+04  0.25500000920E-02 0.  1.
        2   -1    0    0  501    0  0.00000000000E+00  0.00000000000E+00 -0.11314888316E+04  0.11314888316E+04  0.25500000920E-02 0. -1.
    10030    2    1    2    0    0  0.00000000000E+00  0.00000000000E+00  0.26701841566E+03  0.25299960788E+04  0.25158659194E+04 0.  0.
        5    1    3    3  502    0 -0.13513639147E+03 -0.99623848747E+03  0.89381126832E+03  0.13452411091E+04  0.46999998093E+01 0. -1.
       -5    1    3    3    0  502  0.13513639147E+03  0.99623848747E+03 -0.62679285266E+03  0.11847549698E+04  0.46999998093E+01 0.  1.
</event>
<event>
 5   0  0.1010338E-05  0.2341166E+04  0.7818609E-02  0.8461865E-01
       -1   -1    0    0    0  501  0.00000000000E+00  0.00000000000E+00  0.96342374333E+03  0.96342374334E+03  0.50400001928E-02 0. -1.
        1   -1    0    0  501    0  0.00000000000E+00  0.00000000000E+00 -0.14222860275E+04  0.14222860275E+04  0.50400001928E-02 0.  1.
    10030    2    1    2    0    0  0.00000000000E+00  0.00000000000E+00 -0.45886228421E+03  0.23857097709E+04  0.23411656317E+04 0.  0.
        2    1    3    3  502    0 -0.84995408958E+03 -0.79668133745E+03 -0.11261576303E+03  0.11703868668E+04  0.25500000920E-02 0. -1.
       -2    1    3    3    0  502  0.84995408958E+03  0.79668133745E+03 -0.34624652118E+03  0.12153229041E+04  0.25500000920E-02 0.  1.
</event>
<event>
 5   0  0.2432309E-05  0.2522590E+04  0.7818609E-02  0.8394982E-01
        2   -1    0    0  501    0  0.00000000000E+00  0.00000000000E+00  0.15761845315E+04  0.15761845315E+04  0.25500000920E-02 0.  1.
       -2   -1    0    0    0  501  0.00000000000E+00  0.00000000000E+00 -0.10093141102E+04  0.10093141102E+04  0.25500000920E-02 0. -1.
    10030    2    1    2    0    0  0.00000000000E+00  0.00000000000E+00  0.56687042121E+03  0.25854986417E+04  0.25225901672E+04 0.  0.
        4    1    3    3  502    0  0.24009012215E+03  0.11523695169E+04 -0.18092496464E+03  0.11909383804E+04  0.12699999809E+01 0. -1.
       -4    1    3    3    0  502 -0.24009012215E+03 -0.11523695169E+04  0.74779538585E+03  0.13945602613E+04  0.12699999809E+01 0.  1.
</event>
<event>
 5   0  0.2441340E-05  0.2342281E+04  0.7818609E-02  0.8461434E-01
        2   -1    0    0  501    0  0.00000000000E+00  0.00000000000E+00  0.13245283104E+04  0.13245283104E+04  0.25500000920E-02 0. -1.
       -2   -1    0    0    0  501  0.00000000000E+00  0.00000000000E+00 -0.10355161179E+04  0.10355161179E+04  0.25500000920E-02 0.  1.
    10030    2    1    2    0    0  0.00000000000E+00  0.00000000000E+00  0.28901219242E+03  0.23600444283E+04  0.23422812931E+04 0.  0.
        3    1    3    3  502    0 -0.31912958751E+03 -0.89073304141E+03 -0.55088825275E+03  0.10948638828E+04  0.10100000352E+00 0.  1.
       -3    1    3    3    0  502  0.31912958751E+03  0.89073304141E+03  0.83990044517E+03  0.12651805455E+04  0.10100000352E+00 0. -1.
</event>
<event>
 5   0  0.1002753E-05  0.2438675E+04  0.7818609E-02  0.8425165E-01
        1   -1    0    0  501    0  0.00000000000E+00  0.00000000000E+00  0.10504637172E+04  0.10504637172E+04  0.50400001928E-02 0. -1.
       -1   -1    0    0    0  501  0.00000000000E+00  0.00000000000E+00 -0.14153592837E+04  0.14153592837E+04  0.50400001928E-02 0.  1.
    10030    2    1    2    0    0  0.00000000000E+00  0.00000000000E+00 -0.36489556644E+03  0.24658230009E+04  0.24386747010E+04 0.  0.
        5    1    3    3  502    0  0.66298979246E+02 -0.10070207497E+04 -0.87437207401E+03  0.13353033209E+04  0.46999998093E+01 0.  1.
       -5    1    3    3    0  502 -0.66298979246E+02  0.10070207497E+04  0.50947650757E+03  0.11305196800E+04  0.46999998093E+01 0. -1.
</event>
<event>
 5   0  0.2441340E-05  0.2537220E+04  0.7818609E-02  0.8389845E-01
       -2   -1    0    0    0  501  0.00000000000E+00  0.00000000000E+00  0.11988775808E+04  0.11988775808E+04  0.25500000920E-02 0. -1.
        2   -1    0    0  501    0  0.00000000000E+00  0.00000000000E+00 -0.13423978740E+04  0.13423978740E+04  0.25500000920E-02 0.  1.
    10030    2    1    2    0    0  0.00000000000E+00  0.00000000000E+00 -0.14352029318E+03  0.25412754548E+04  0.25372195141E+04 0.  0.
        3    1    3    3  502    0  0.19616350986E+03 -0.12457270477E+04 -0.21001959498E+03  0.12784460256E+04  0.10100000352E+00 0. -1.
       -3    1    3    3    0  502 -0.19616350986E+03  0.12457270477E+04  0.66499301799E+02  0.12628294292E+04  0.10100000352E+00 0.  1.
</event>
<event>
 5   0  0.1010338E-05  0.2516809E+04  0.7818609E-02  0.8397022E-01
        1   -1    0    0  501    0  0.00000000000E+00  0.00000000000E+00  0.12775097287E+04  0.12775097287E+04  0.50400001928E-02 0. -1.
       -1   -1    0    0    0  501  0.00000000000E+00  0.00000000000E+00 -0.12395846449E+04  0.12395846449E+04  0.50400001928E-02 0.  1.
    10030    2    1    2    0    0  0.00000000000E+00  0.00000000000E+00  0.37925083763E+02  0.25170943736E+04  0.25168086486E+04 0.  0.
        2    1    3    3  502    0  0.79505749633E+02 -0.98521519789E+03  0.79790351138E+03  0.12702834974E+04  0.25500000920E-02 0. -1.
       -2    1    3    3    0  502 -0.79505749633E+02  0.98521519789E+03 -0.75997842761E+03  0.12468108761E+04  0.25500000920E-02 0.  1.
</event>
<event>
 5   0  0.1008073E-05  0.2536764E+04  0.7818609E-02  0.8390004E-01
       -1   -1    0    0    0  501  0.00000000000E+00  0.00000000000E+00  0.74034917201E+03  0.74034917203E+03  0.50400001928E-02 0. -1.
        1   -1    0    0  501    0  0.00000000000E+00  0.00000000000E+00 -0.21730194053E+04  0.21730194053E+04  0.50400001928E-02 0.  1.
    10030    2    1    2    0    0  0.00000000000E+00  0.00000000000E+00 -0.14326702332E+04  0.29133685773E+04  0.25367641731E+04 0.  0.
        1    1    3    3  502    0  0.27634718276E+03  0.10953552596E+04 -0.13786903268E+04  0.17824022911E+04  0.50400001928E-02 0.  1.
       -1    1    3    3    0  502 -0.27634718276E+03 -0.10953552596E+04 -0.53979906453E+02  0.11309662862E+04  0.50400001928E-02 0. -1.
</event>
<event>
 5   0  0.2432309E-05  0.2501819E+04  0.7818609E-02  0.8402338E-01
        2   -1    0    0  501    0  0.00000000000E+00  0.00000000000E+00  0.12693162896E+04  0.12693162896E+04  0.25500000920E-02 0. -1.
       -2   -1    0    0    0  501  0.00000000000E+00  0.00000000000E+00 -0.12327692526E+04  0.12327692526E+04  0.25500000920E-02 0.  1.
    10030    2    1    2    0    0  0.00000000000E+00  0.00000000000E+00  0.36547037028E+02  0.25020855422E+04  0.25018186135E+04 0.  0.
        4    1    3    3  502    0 -0.12142693685E+03 -0.10645710146E+04 -0.62733120703E+03  0.12416126620E+04  0.12699999809E+01 0.  1.
       -4    1    3    3    0  502  0.12142693685E+03  0.10645710146E+04  0.66387824406E+03  0.12604728803E+04  0.12699999809E+01 0. -1.
</event>
<event>
 5   0  0.2432309E-05  0.2501816E+04  0.7818609E-02  0.8402339E-01
       -2   -1    0    0    0  501  0.00000000000E+00  0.00000000000E+00  0.16564480129E+04  0.16564480129E+04  0.25500000920E-02 0. -1.
        2   -1    0    0  501    0  0.00000000000E+00  0.00000000000E+00 -0.94465425627E+03  0.94465425628E+03  0.25500000920E-02 0.  1.
    10030    2    1    2    0    0  0.00000000000E+00  0.00000000000E+00  0.71179375662E+03  0.26011022692E+04  0.25018158731E+04 0.  0.
        4    1    3    3  502    0 -0.83491548604E+03 -0.92790619328E+03  0.27095206974E+03  0.12773059185E+04  0.12699999809E+01 0.  1.
       -4    1    3    3    0  502  0.83491548604E+03  0.92790619328E+03  0.44084168688E+03  0.13237963507E+04  0.12699999809E+01 0. -1.
</event>
<event>
 5   0  0.2432309E-05  0.2491322E+04  0.7818609E-02  0.8406084E-01
       -2   -1    0    0    0  501  0.00000000000E+00  0.00000000000E+00  0.92526964326E+03  0.92526964326E+03  0.25500000920E-02 0. -1.
        2   -1    0    0  501    0  0.00000000000E+00  0.00000000000E+00 -0.16769933951E+04  0.16769933951E+04  0.25500000920E-02 0.  1.
    10030    2    1    2    0    0  0.00000000000E+00  0.00000000000E+00 -0.75172375189E+03  0.26022630384E+04  0.24913218022E+04 0.  0.
        4    1    3    3  502    0 -0.54917774699E+03 -0.22427417540E+03  0.76825700738E+03  0.97062636777E+03  0.12699999809E+01 0. -1.
       -4    1    3    3    0  502  0.54917774699E+03  0.22427417540E+03 -0.15199807593E+04  0.16316366706E+04  0.12699999809E+01 0.  1.
</event>
<event>
 5   0  0.1039688E-05  0.2500271E+04  0.7818609E-02  0.8402889E-01
        1   -1    0    0  501    0  0.00000000000E+00  0.00000000000E+00  0.18860562739E+04  0.18860562739E+04  0.50400001928E-02 0. -1.
       -1   -1    0    0    0  501  0.00000000000E+00  0.00000000000E+00 -0.82862808837E+03  0.82862808838E+03  0.50400001928E-02 0.  1.
    10030    2    1    2    0    0  0.00000000000E+00  0.00000000000E+00  0.10574281855E+04  0.27146843623E+04  0.25002713491E+04 0.  0.
        3    1    3    3  502    0 -0.69720791678E+03 -0.10206823904E+04  0.32573937248E+03  0.12782791441E+04  0.10100000352E+00 0.  1.
       -3    1    3    3    0  502  0.69720791678E+03  0.10206823904E+04  0.73168881305E+03  0.14364052181E+04  0.10100000352E+00 0. -1.
</event>
<event>
 5   0  0.2441340E-05  0.2487610E+04  0.7818609E-02  0.8407413E-01
       -2   -1    0    0    0  501  0.00000000000E+00  0.00000000000E+00  0.62940242344E+03  0.62940242345E+03  0.25500000920E-02 0.  1.
        2   -1    0    0  501    0  0.00000000000E+00  0.00000000000E+00 -0.24579672994E+04  0.24579672994E+04  0.25500000920E-02 0. -1.
    10030    2    1    2    0    0  0.00000000000E+00  0.00000000000E+00 -0.18285648759E+04  0.30873697228E+04  0.24876097564E+04 0.  0.
        3    1    3    3  502    0 -0.15930920661E+03  0.29061325065E+03  0.57359539005E+03  0.66245540714E+03  0.10100000352E+00 0.  1.
       -3    1    3    3    0  502  0.15930920661E+03 -0.29061325065E+03 -0.24021602660E+04  0.24249143157E+04  0.10100000352E+00 0. -1.
</event>
<event>
 5   0  0.2452457E-05  0.2446018E+04  0.7818609E-02  0.8422473E-01
        2   -1    0    0  501    0  0.00000000000E+00  0.00000000000E+00  0.15698042322E+04  0.15698042322E+04  0.25500000920E-02 0. -1.
       -2   -1    0    0    0  501  0.00000000000E+00  0.00000000000E+00 -0.95282624153E+03  0.95282624154E+03  0.25500000920E-02 0.  1.
    10030    2    1    2    0    0  0.00000000000E+00  0.00000000000E+00  0.61697799066E+03  0.25226304737E+04  0.24460177158E+04 0.  0.
        1    1    3    3  502    0  0.11826840313E+04 -0.27201101546E+03  0.46496175355E+03  0.12995849117E+04  0.50400001928E-02 0. -1.
       -1    1    3    3    0  502 -0.11826840313E+04  0.27201101546E+03  0.15201623711E+03  0.12230455620E+04  0.50400001928E-02 0.  1.
</event>
<event>
 5   0  0.1010338E-05  0.2559710E+04  0.7818609E-02  0.8382017E-01
       -1   -1    0    0    0  501  0.00000000000E+00  0.00000000000E+00  0.20301124313E+04  0.20301124313E+04  0.50400001928E-02 0.  1.
        1   -1    0    0  501    0  0.00000000000E+00  0.00000000000E+00 -0.80686577219E+03  0.80686577221E+03  0.50400001928E-02 0. -1.
    10030    2    1    2    0    0  0.00000000000E+00  0.00000000000E+00  0.12232466591E+04  0.28369782036E+04  0.25597095418E+04 0.  0.
        2    1    3    3  502    0  0.24162038215E+03 -0.11461854304E+04  0.40105187602E+02  0.11720622322E+04  0.25500000920E-02 0. -1.
       -2    1    3    3    0  502 -0.24162038215E+03  0.11461854304E+04  0.11831414715E+04  0.16649159714E+04  0.25500000920E-02 0.  1.
</event>
<event>
 5   0  0.1008073E-05  0.2549791E+04  0.7818609E-02  0.8385459E-01
       -1   -1    0    0    0  501  0.00000000000E+00  0.00000000000E+00  0.77304846871E+03  0.77304846873E+03  0.50400001928E-02 0.  1.
        1   -1    0    0  501    0  0.00000000000E+00  0.00000000000E+00 -0.21025316428E+04  0.21025316428E+04  0.50400001928E-02 0. -1.
    10030    2    1    2    0    0  0.00000000000E+00  0.00000000000E+00 -0.13294831740E+04  0.28755801115E+04  0.25497912596E+04 0.  0.
        1    1    3    3  502    0  0.17124856080E+03 -0.92675106513E+02  0.75617985095E+03  0.78084743193E+03  0.50400001928E-02 0.  1.
       -1    1    3    3    0  502 -0.17124856080E+03  0.92675106513E+02 -0.20856630250E+04  0.20947326796E+04  0.50400001928E-02 0. -1.
</event>
<event>
 5   0  0.1010338E-05  0.2504958E+04  0.7818609E-02  0.8401221E-01
       -1   -1    0    0    0  501  0.00000000000E+00  0.00000000000E+00  0.58578138757E+03  0.58578138760E+03  0.50400001928E-02 0.  1.
        1   -1    0    0  501    0  0.00000000000E+00  0.00000000000E+00 -0.26779672632E+04  0.26779672632E+04  0.50400001928E-02 0. -1.
    10030    2    1    2    0    0  0.00000000000E+00  0.00000000000E+00 -0.20921858757E+04  0.32637486508E+04  0.25049577876E+04 0.  0.
        2    1    3    3  502    0 -0.50868532627E+03 -0.90423694994E+03 -0.19602701647E+04  0.22178963775E+04  0.25500000920E-02 0. -1.
       -2    1    3    3    0  502  0.50868532627E+03  0.90423694994E+03 -0.13191571097E+03  0.10458522733E+04  0.25500000920E-02 0.  1.
</event>
<event>
 5   0  0.2441340E-05  0.2511600E+04  0.7818609E-02  0.8398865E-01
        2   -1    0    0  501    0  0.00000000000E+00  0.00000000000E+00  0.15316103256E+04  0.15316103256E+04  0.25500000920E-02 0. -1.
       -2   -1    0    0    0  501  0.00000000000E+00  0.00000000000E+00 -0.10296568421E+04  0.10296568421E+04  0.25500000920E-02 0.  1.
    10030    2    1    2    0    0  0.00000000000E+00  0.00000000000E+00  0.50195348353E+03  0.25612671677E+04  0.25115995312E+04 0.  0.
        3    1    3    3  502    0  0.10806061760E+04  0.61985742335E+03  0.89413601744E+02  0.12489706703E+04  0.10100000352E+00 0. -1.
       -3    1    3    3    0  502 -0.10806061760E+04 -0.61985742335E+03  0.41253988179E+03  0.13122964974E+04  0.10100000352E+00 0.  1.
</event>
<event>
 5   0  0.1010338E-05  0.2407095E+04  0.7818609E-02  0.8436852E-01
        1   -1    0    0  501    0  0.00000000000E+00  0.00000000000E+00  0.10250561242E+04  0.10250561242E+04  0.50400001928E-02 0. -1.
       -1   -1    0    0    0  501  0.00000000000E+00  0.00000000000E+00 -0.14131189084E+04  0.14131189084E+04  0.50400001928E-02 0.  1.
    10030    2    1    2    0    0  0.00000000000E+00  0.00000000000E+00 -0.38806278419E+03  0.24381750326E+04  0.24070946731E+04 0.  0.
        2    1    3    3  502    0 -0.88358578579E+03  0.13234983042E+03  0.62278391445E+03  0.10890822387E+04  0.25500000920E-02 0. -1.
       -2    1    3    3    0  502  0.88358578579E+03 -0.13234983042E+03 -0.10108466986E+04  0.13490927939E+04  0.25500000920E-02 0.  1.
</event>
<event>
 5   0  0.2432309E-05  0.2493051E+04  0.7818609E-02  0.8405465E-01
       -2   -1    0    0    0  501  0.00000000000E+00  0.00000000000E+00  0.12169895666E+04  0.12169895666E+04  0.25500000920E-02 0. -1.
        2   -1    0    0  501    0  0.00000000000E+00  0.00000000000E+00 -0.12767785052E+04  0.12767785052E+04  0.25500000920E-02 0.  1.
    10030    2    1    2    0    0  0.00000000000E+00  0.00000000000E+00 -0.59788938522E+02  0.24937680718E+04  0.24930512387E+04 0.  0.
        4    1    3    3  502    0  0.80800959172E+03 -0.30838918079E+03  0.86805018227E+03  0.12253555072E+04  0.12699999809E+01 0.  1.
       -4    1    3    3    0  502 -0.80800959172E+03  0.30838918079E+03 -0.92783912079E+03  0.12684125646E+04  0.12699999809E+01 0. -1.
</event>
<event>
 5   0  0.1039688E-05  0.2549625E+04  0.7818609E-02  0.8385516E-01
        1   -1    0    0  501    0  0.00000000000E+00  0.00000000000E+00  0.12793094706E+04  0.12793094706E+04  0.50400001928E-02 0.  1.
       -1   -1    0    0    0  501  0.00000000000E+00  0.00000000000E+00 -0.12703317085E+04  0.12703317085E+04  0.50400001928E-02 0. -1.
    10030    2    1    2    0    0  0.00000000000E+00  0.00000000000E+00  0.89777621009E+01  0.25496411792E+04  0.25496253729E+04 0.  0.
        3    1    3    3  502    0 -0.57643617769E+03  0.26831103845E+03  0.11094291657E+04  0.12787112904E+04  0.10100000352E+00 0.  1.
       -3    1    3    3    0  502  0.57643617769E+03 -0.26831103845E+03 -0.11004514036E+04  0.12709298888E+04  0.10100000352E+00 0. -1.
</event>
<event>
 5   0  0.1008073E-05  0.2469995E+04  0.7818609E-02  0.8413753E-01
       -1   -1    0    0    0  501  0.00000000000E+00  0.00000000000E+00  0.16355386135E+04  0.16355386135E+04  0.50400001928E-02 0. -1.
        1   -1    0    0  501    0  0.00000000000E+00  0.00000000000E+00 -0.93254863671E+03  0.93254863672E+03  0.50400001928E-02 0.  1.
    10030    2    1    2    0    0  0.00000000000E+00  0.00000000000E+00  0.70298997683E+03  0.25680872503E+04  0.24699953881E+04 0.  0.
        1    1    3    3  502    0  0.11528600044E+04 -0.37716449721E+03  0.59283406937E+03  0.13501079518E+04  0.50400001928E-02 0. -1.
       -1    1    3    3    0  502 -0.11528600044E+04  0.37716449721E+03  0.11015590746E+03  0.12179792985E+04  0.50400001928E-02 0.  1.
</event>
<event>
 5   0  0.2432309E-05  0.2541838E+04  0.7818609E-02  0.8388230E-01
       -2   -1    0    0    0  501  0.00000000000E+00  0.00000000000E+00  0.15386424243E+04  0.15386424243E+04  0.25500000920E-02 0. -1.
        2   -1    0    0  501    0  0.00000000000E+00  0.00000000000E+00 -0.10497791550E+04  0.10497791550E+04  0.25500000920E-02 0.  1.
    10030    2    1    2    0    0  0.00000000000E+00  0.00000000000E+00  0.48886326929E+03  0.25884215794E+04  0.25418377164E+04 0.  0.
        4    1    3    3  502    0 -0.28191970799E+03 -0.11868127116E+04 -0.11879856629E+03  0.12256091736E+04  0.12699999809E+01 0.  1.
       -4    1    3    3    0  502  0.28191970799E+03  0.11868127116E+04  0.60766183558E+03  0.13628124058E+04  0.12699999809E+01 0. -1.
</event>
<event>
 5   0  0.2345143E-05  0.2477529E+04  0.7818609E-02  0.8411035E-01
       -2   -1    0    0    0  501  0.00000000000E+00  0.00000000000E+00  0.88229939058E+03  0.88229939059E+03  0.25500000920E-02 0. -1.
        2   -1    0    0  501    0  0.00000000000E+00  0.00000000000E+00 -0.17392477857E+04  0.17392477857E+04  0.25500000920E-02 0.  1.
    10030    2    1    2    0    0  0.00000000000E+00  0.00000000000E+00 -0.85694839507E+03  0.26215471762E+04  0.24775288183E+04 0.  0.
        5    1    3    3  502    0  0.84004804587E+03  0.13690330389E+03  0.52389670382E+03  0.99945639238E+03  0.46999998093E+01 0. -1.
       -5    1    3    3    0  502 -0.84004804587E+03 -0.13690330389E+03 -0.13808450989E+04  0.16220907839E+04  0.46999998093E+01 0.  1.
</event>
<event>
 5   0  0.1010338E-05  0.2479059E+04  0.7818609E-02  0.8410484E-01
        1   -1    0    0  501    0  0.00000000000E+00  0.00000000000E+00  0.10242605682E+04  0.10242605683E+04  0.50400001928E-02 0. -1.
       -1   -1    0    0    0  501  0.00000000000E+00  0.00000000000E+00 -0.15000413486E+04  0.15000413486E+04  0.50400001928E-02 0.  1.
    10030    2    1    2    0    0  0.00000000000E+00  0.00000000000E+00 -0.47578078033E+03  0.25243019168E+04  0.24790588570E+04 0.  0.
        2    1    3    3  502    0 -0.42922814643E+03  0.47986346069E+03 -0.13164318604E+04  0.14654346064E+04  0.25500000920E-02 0.  1.
       -2    1    3    3    0  502  0.42922814643E+03 -0.47986346069E+03  0.84065108009E+03  0.10588673104E+04  0.25500000920E-02 0. -1.
</event>
<event>
 5   0  0.1015327E-05  0.2425583E+04  0.7818609E-02  0.8429987E-01
        1   -1    0    0  501    0  0.00000000000E+00  0.00000000000E+00  0.20754364894E+04  0.20754364894E+04  0.50400001928E-02 0. -1.
       -1   -1    0    0    0  501  0.00000000000E+00  0.00000000000E+00 -0.70870047299E+03  0.70870047301E+03  0.50400001928E-02 0.  1.
    10030    2    1    2    0    0  0.00000000000E+00  0.00000000000E+00  0.13667360164E+04  0.27841369624E+04  0.24255826696E+04 0.  0.
        4    1    3    3  502    0 -0.77482116268E+03 -0.18044673283E+03  0.17340811810E+04  0.19078647784E+04  0.12699999809E+01 0. -1.
       -4    1    3    3    0  502  0.77482116268E+03  0.18044673283E+03 -0.36734516462E+03  0.87627218397E+03  0.12699999809E+01 0.  1.
</event>
<event>
 5   0  0.1008073E-05  0.2522376E+04  0.7818609E-02  0.8395057E-01
        1   -1    0    0  501    0  0.00000000000E+00  0.00000000000E+00  0.19854593086E+04  0.19854593086E+04  0.50400001928E-02 0.  1.
       -1   -1    0    0    0  501  0.00000000000E+00  0.00000000000E+00 -0.80112224211E+03  0.80112224213E+03  0.50400001928E-02 0. -1.
    10030    2    1    2    0    0  0.00000000000E+00  0.00000000000E+00  0.11843370665E+04  0.27865815507E+04  0.25223763502E+04 0.  0.
        1    1    3    3  502    0  0.87626513101E+03  0.34681584499E+03  0.15180959378E+04  0.17868231828E+04  0.50400001928E-02 0.  1.
       -1    1    3    3    0  502 -0.87626513101E+03 -0.34681584499E+03 -0.33375887128E+03  0.99975836798E+03  0.50400001928E-02 0. -1.
</event>
<event>
 5   0  0.1002753E-05  0.2496856E+04  0.7818609E-02  0.8404107E-01
        1   -1    0    0  501    0  0.00000000000E+00  0.00000000000E+00  0.18197669921E+04  0.18197669921E+04  0.50400001928E-02 0.  1.
       -1   -1    0    0    0  501  0.00000000000E+00  0.00000000000E+00 -0.85646795489E+03  0.85646795491E+03  0.50400001928E-02 0. -1.
    10030    2    1    2    0    0  0.00000000000E+00  0.00000000000E+00  0.96329903722E+03  0.26762349470E+04  0.24968557140E+04 0.  0.
        5    1    3    3  502    0  0.30427837546E+03 -0.23913961385E+03  0.17538393152E+04  0.17960366138E+04  0.46999998093E+01 0.  1.
       -5    1    3    3    0  502 -0.30427837546E+03  0.23913961385E+03 -0.79054027797E+03  0.88019833320E+03  0.46999998093E+01 0. -1.
</event>
<event>
 5   0  0.1039688E-05  0.2131614E+04  0.7818609E-02  0.8547444E-01
       -1   -1    0    0    0  501  0.00000000000E+00  0.00000000000E+00  0.88553338002E+03  0.88553338003E+03  0.50400001928E-02 0. -1.
        1   -1    0    0  501    0  0.00000000000E+00  0.00000000000E+00 -0.12827803130E+04  0.12827803130E+04  0.50400001928E-02 0.  1.
    10030    2    1    2    0    0  0.00000000000E+00  0.00000000000E+00 -0.39724693299E+03  0.21683136930E+04  0.21316142113E+04 0.  0.
        3    1    3    3  502    0  0.30742900167E+03 -0.68584920256E+03 -0.96730762864E+03  0.12249839911E+04  0.10100000352E+00 0.  1.
       -3    1    3    3    0  502 -0.30742900167E+03  0.68584920256E+03  0.57006069566E+03  0.94332970199E+03  0.10100000352E+00 0. -1.
</event>
<event>
 5   0  0.2452457E-05  0.2773892E+04  0.7818609E-02  0.8311420E-01
       -2   -1    0    0    0  501  0.00000000000E+00  0.00000000000E+00  0.90387696998E+03  0.90387696999E+03  0.25500000920E-02 0.  1.
        2   -1    0    0  501    0  0.00000000000E+00  0.00000000000E+00 -0.21281863784E+04  0.21281863784E+04  0.25500000920E-02 0. -1.
    10030    2    1    2    0    0  0.00000000000E+00  0.00000000000E+00 -0.12243094084E+04  0.30320633484E+04  0.27738916022E+04 0.  0.
        1    1    3    3  502    0  0.90806060091E+03 -0.35085645792E+03 -0.16919994293E+04  0.19520595221E+04  0.50400001928E-02 0. -1.
       -1    1    3    3    0  502 -0.90806060091E+03  0.35085645792E+03  0.46769002095E+03  0.10800038262E+04  0.50400001928E-02 0.  1.
</event>
<event>
 5   0  0.1002753E-05  0.2500442E+04  0.7818609E-02  0.8402828E-01
        1   -1    0    0  501    0  0.00000000000E+00  0.00000000000E+00  0.13506935809E+04  0.13506935809E+04  0.50400001928E-02 0. -1.
       -1   -1    0    0    0  501  0.00000000000E+00  0.00000000000E+00 -0.11572224110E+04  0.11572224110E+04  0.50400001928E-02 0.  1.
    10030    2    1    2    0    0  0.00000000000E+00  0.00000000000E+00  0.19347116986E+03  0.25079159919E+04  0.25004422667E+04 0.  0.
        5    1    3    3  502    0 -0.48680457176E+03  0.10630994064E+04  0.54063243026E+03  0.12882020625E+04  0.46999998093E+01 0. -1.
       -5    1    3    3    0  502  0.48680457176E+03 -0.10630994064E+04 -0.34716126040E+03  0.12197139295E+04  0.46999998093E+01 0.  1.
</event>
<event>
 5   0  0.1008073E-05  0.2511850E+04  0.7818609E-02  0.8398776E-01
       -1   -1    0    0    0  501  0.00000000000E+00  0.00000000000E+00  0.11755592708E+04  0.11755592708E+04  0.50400001928E-02 0. -1.
        1   -1    0    0  501    0  0.00000000000E+00  0.00000000000E+00 -0.13417846986E+04  0.13417846986E+04  0.50400001928E-02 0.  1.
    10030    2    1    2    0    0  0.00000000000E+00  0.00000000000E+00 -0.16622542785E+03  0.25173439694E+04  0.25118498696E+04 0.  0.
        1    1    3    3  502    0  0.74479327471E+03  0.24020546187E+03 -0.10675706914E+04  0.13236777807E+04  0.50400001928E-02 0.  1.
       -1    1    3    3    0  502 -0.74479327471E+03 -0.24020546187E+03  0.90134526353E+03  0.11936661887E+04  0.50400001928E-02 0. -1.
</event>
<event>
 5   0  0.1039688E-05  0.2507472E+04  0.7818609E-02  0.8400328E-01
        1   -1    0    0  501    0  0.00000000000E+00  0.00000000000E+00  0.28219144036E+04  0.28219144036E+04  0.50400001928E-02 0.  1.
       -1   -1    0    0    0  501  0.00000000000E+00  0.00000000000E+00 -0.55701686885E+03  0.55701686888E+03  0.50400001928E-02 0. -1.
    10030    2    1    2    0    0  0.00000000000E+00  0.00000000000E+00  0.22648975348E+04  0.33789312725E+04  0.25074719742E+04 0.  0.
        3    1    3    3  502    0  0.14739089334E+03 -0.10869129560E+04  0.31415484836E+03  0.11409632459E+04  0.10100000352E+00 0.  1.
       -3    1    3    3    0  502 -0.14739089334E+03  0.10869129560E+04  0.19507426864E+04  0.22379680266E+04  0.10100000352E+00 0. -1.
</event>
<event>
 5   0  0.1015327E-05  0.2524962E+04  0.7818609E-02  0.8394146E-01
        1   -1    0    0  501    0  0.00000000000E+00  0.00000000000E+00  0.12902868026E+04  0.12902868026E+04  0.50400001928E-02 0.  1.
       -1   -1    0    0    0  501  0.00000000000E+00  0.00000000000E+00 -0.12352741398E+04  0.12352741398E+04  0.50400001928E-02 0. -1.
    10030    2    1    2    0    0  0.00000000000E+00  0.00000000000E+00  0.55012662790E+02  0.25255609424E+04  0.25249617187E+04 0.  0.
        4    1    3    3  502    0  0.88007102244E+03  0.79819227464E+03 -0.39946778349E+03  0.12534799698E+04  0.12699999809E+01 0. -1.
       -4    1    3    3    0  502 -0.88007102244E+03 -0.79819227464E+03  0.45448044628E+03  0.12720809726E+04  0.12699999809E+01 0.  1.
</event>
<event>
 5   0  0.1039688E-05  0.2491026E+04  0.7818609E-02  0.8406189E-01
        1   -1    0    0  501    0  0.00000000000E+00  0.00000000000E+00  0.16242021555E+04  0.16242021555E+04  0.50400001928E-02 0.  1.
       -1   -1    0    0    0  501  0.00000000000E+00  0.00000000000E+00 -0.95511683321E+03  0.95511683323E+03  0.50400001928E-02 0. -1.
    10030    2    1    2    0    0  0.00000000000E+00  0.00000000000E+00  0.66908532225E+03  0.25793189887E+04  0.24910261494E+04 0.  0.
        3    1    3    3  502    0 -0.10056566231E+04  0.58328482846E+03  0.79730216839E+03  0.14097011004E+04  0.10100000352E+00 0.  1.
       -3    1    3    3    0  502  0.10056566231E+04 -0.58328482846E+03 -0.12821684614E+03  0.11696178883E+04  0.10100000352E+00 0. -1.
</event>
<event>
 5   0  0.2452457E-05  0.2429647E+04  0.7818609E-02  0.8428487E-01
        2   -1    0    0  501    0  0.00000000000E+00  0.00000000000E+00  0.20604156205E+04  0.20604156205E+04  0.25500000920E-02 0. -1.
       -2   -1    0    0    0  501  0.00000000000E+00  0.00000000000E+00 -0.71626137343E+03  0.71626137344E+03  0.25500000920E-02 0.  1.
    10030    2    1    2    0    0  0.00000000000E+00  0.00000000000E+00  0.13441542470E+04  0.27766769939E+04  0.24296469885E+04 0.  0.
        1    1    3    3  502    0  0.89059613724E+03  0.29174390055E+03 -0.21132503805E+03  0.96069467309E+03  0.50400001928E-02 0.  1.
       -1    1    3    3    0  502 -0.89059613724E+03 -0.29174390055E+03  0.15554792851E+04  0.18159823208E+04  0.50400001928E-02 0. -1.
</event>
<event>
 5   0  0.2345143E-05  0.2507610E+04  0.7818609E-02  0.8400279E-01
        2   -1    0    0  501    0  0.00000000000E+00  0.00000000000E+00  0.97595045426E+03  0.97595045427E+03  0.25500000920E-02 0.  1.
       -2   -1    0    0    0  501  0.00000000000E+00  0.00000000000E+00 -0.16107652029E+04  0.16107652029E+04  0.25500000920E-02 0. -1.
    10030    2    1    2    0    0  0.00000000000E+00  0.00000000000E+00 -0.63481474865E+03  0.25867156572E+04  0.25076100427E+04 0.  0.
        5    1    3    3  502    0 -0.11219715374E+04  0.34370065176E+03  0.13817495494E+03  0.11815518088E+04  0.46999998093E+01 0.  1.
       -5    1    3    3    0  502  0.11219715374E+04 -0.34370065176E+03 -0.77298970359E+03  0.14051638483E+04  0.46999998093E+01 0. -1.
</event>
<event>
 5   0  0.1039688E-05  0.2374733E+04  0.7818609E-02  0.8449024E-01
        1   -1    0    0  501    0  0.00000000000E+00  0.00000000000E+00  0.15124944915E+04  0.15124944915E+04  0.50400001928E-02 0. -1.
       -1   -1    0    0    0  501  0.00000000000E+00  0.00000000000E+00 -0.93212833653E+03  0.93212833654E+03  0.50400001928E-02 0.  1.
    10030    2    1    2    0    0  0.00000000000E+00  0.00000000000E+00  0.58036615495E+03  0.24446228280E+04  0.23747328055E+04 0.  0.
        3    1    3    3  502    0 -0.47354197021E+03  0.10413128323E+04  0.61776945499E+03  0.13000821213E+04  0.10100000352E+00 0.  1.
       -3    1    3    3    0  502  0.47354197021E+03 -0.10413128323E+04 -0.37403300039E+02  0.11445407068E+04  0.10100000352E+00 0. -1.
</event>
<event>
 5   0  0.8166500E-06  0.2502463E+04  0.7818609E-02  0.8402109E-01
       -4   -1    0    0    0  501  0.00000000000E+00  0.00000000000E+00  0.17290122135E+04  0.17290126799E+04  0.12699999809E+01 0.  1.
        4   -1    0    0  501    0  0.00000000000E+00  0.00000000000E+00 -0.90547574951E+03  0.90547664015E+03  0.12699999809E+01 0. -1.
    10030    2    1    2    0    0  0.00000000000E+00  0.00000000000E+00  0.82353646400E+03  0.26344893201E+04  0.25024631206E+04 0.  0.
        5    1    3    3  502    0  0.25002121623E+03 -0.25441104223E+03  0.16743424883E+04  0.17119230255E+04  0.46999998093E+01 0.  1.
       -5    1    3    3    0  502 -0.25002121623E+03  0.25441104223E+03 -0.85080602431E+03  0.92256629462E+03  0.46999998093E+01 0. -1.
</event>
<event>
 5   0  0.1015327E-05  0.2389125E+04  0.7818609E-02  0.8443586E-01
        1   -1    0    0  501    0  0.00000000000E+00  0.00000000000E+00  0.12948913868E+04  0.12948913868E+04  0.50400001928E-02 0.  1.
       -1   -1    0    0    0  501  0.00000000000E+00  0.00000000000E+00 -0.11020073551E+04  0.11020073551E+04  0.50400001928E-02 0. -1.
    10030    2    1    2    0    0  0.00000000000E+00  0.00000000000E+00  0.19288403176E+03  0.23968987419E+04  0.23891252226E+04 0.  0.
        4    1    3    3  502    0  0.81959989742E+03  0.81057915696E+03 -0.21793943667E+03  0.11731503623E+04  0.12699999809E+01 0. -1.
       -4    1    3    3    0  502 -0.81959989742E+03 -0.81057915696E+03  0.41082346843E+03  0.12237483796E+04  0.12699999809E+01 0.  1.
</event>
<event>
 5   0  0.1010338E-05  0.2402363E+04  0.7818609E-02  0.8438619E-01
        1   -1    0    0  501    0  0.00000000000E+00  0.00000000000E+00  0.57775286647E+03  0.57775286650E+03  0.50400001928E-02 0.  1.
       -1   -1    0    0    0  501  0.00000000000E+00  0.00000000000E+00 -0.24973258111E+04  0.24973258111E+04  0.50400001928E-02 0. -1.
    10030    2    1    2    0    0  0.00000000000E+00  0.00000000000E+00 -0.19195729447E+04  0.30750786776E+04  0.24023631249E+04 0.  0.
        2    1    3    3  502    0 -0.11373408418E+04  0.24540983862E+03 -0.13417975086E+04  0.17760041479E+04  0.25500000920E-02 0. -1.
       -2    1    3    3    0  502  0.11373408418E+04 -0.24540983862E+03 -0.57777543609E+03  0.12990745297E+04  0.25500000920E-02 0.  1.
</event>
<event>
 5   0  0.1008073E-05  0.2564252E+04  0.7818609E-02  0.8380446E-01
        1   -1    0    0  501    0  0.00000000000E+00  0.00000000000E+00  0.24615200945E+04  0.24615200946E+04  0.50400001928E-02 0.  1.
       -1   -1    0    0    0  501  0.00000000000E+00  0.00000000000E+00 -0.66781802697E+03  0.66781802699E+03  0.50400001928E-02 0. -1.
    10030    2    1    2    0    0  0.00000000000E+00  0.00000000000E+00  0.17937020676E+04  0.31293381215E+04  0.25642523222E+04 0.  0.
        1    1    3    3  502    0 -0.10183037827E+04  0.18852041341E+02  0.18472913663E+04  0.21094509678E+04  0.50400001928E-02 0.  1.
       -1    1    3    3    0  502  0.10183037827E+04 -0.18852041341E+02 -0.53589298759E+02  0.10198871537E+04  0.50400001928E-02 0. -1.
</event>
<event>
 5   0  0.1002753E-05  0.2490822E+04  0.7818609E-02  0.8406263E-01
       -1   -1    0    0    0  501  0.00000000000E+00  0.00000000000E+00  0.17055266234E+04  0.17055266234E+04  0.50400001928E-02 0. -1.
        1   -1    0    0  501    0  0.00000000000E+00  0.00000000000E+00 -0.90942506333E+03  0.90942506334E+03  0.50400001928E-02 0.  1.
    10030    2    1    2    0    0  0.00000000000E+00  0.00000000000E+00  0.79610156004E+03  0.26149516867E+04  0.24908220791E+04 0.  0.
        5    1    3    3  502    0 -0.10812442116E+04  0.50004723516E+03  0.77931615487E+03  0.14235491006E+04  0.46999998093E+01 0. -1.
       -5    1    3    3    0  502  0.10812442116E+04 -0.50004723516E+03  0.16785405161E+02  0.11914025861E+04  0.46999998093E+01 0.  1.
</event>
<event>
 5   0  0.2345143E-05  0.2545457E+04  0.7818609E-02  0.8386968E-01
       -2   -1    0    0    0  501  0.00000000000E+00  0.00000000000E+00  0.10839231267E+04  0.10839231267E+04  0.25500000920E-02 0. -1.
        2   -1    0    0  501    0  0.00000000000E+00  0.00000000000E+00 -0.14944209560E+04  0.14944209560E+04  0.25500000920E-02 0.  1.
    10030    2    1    2    0    0  0.00000000000E+00  0.00000000000E+00 -0.41049782927E+03  0.25783440827E+04  0.25454566861E+04 0.  0.
        5    1    3    3  502    0 -0.11332692998E+04 -0.37067483768E+03 -0.65610212013E+03  0.13609523221E+04  0.46999998093E+01 0. -1.
       -5    1    3    3    0  502  0.11332692998E+04  0.37067483768E+03  0.24560429086E+03  0.12173917606E+04  0.46999998093E+01 0.  1.
</event>
<event>
 5   0  0.2432309E-05  0.2481576E+04  0.7818609E-02  0.8409579E-01
        2   -1    0    0  501    0  0.00000000000E+00  0.00000000000E+00  0.88207504426E+03  0.88207504426E+03  0.25500000920E-02 0.  1.
       -2   -1    0    0    0  501  0.00000000000E+00  0.00000000000E+00 -0.17453779872E+04  0.17453779872E+04  0.25500000920E-02 0. -1.
    10030    2    1    2    0    0  0.00000000000E+00  0.00000000000E+00 -0.86330294299E+03  0.26274530315E+04  0.24815756006E+04 0.  0.
        4    1    3    3  502    0  0.89419736369E+03  0.45103757242E+02  0.47787403055E+03  0.10148834791E+04  0.12699999809E+01 0.  1.
       -4    1    3    3    0  502 -0.89419736369E+03 -0.45103757242E+02 -0.13411769735E+04  0.16125695524E+04  0.12699999809E+01 0. -1.
</event>
<event>
 5   0  0.1002753E-05  0.2520701E+04  0.7818609E-02  0.8395647E-01
        1   -1    0    0  501    0  0.00000000000E+00  0.00000000000E+00  0.13721267170E+04  0.13721267170E+04  0.50400001928E-02 0.  1.
       -1   -1    0    0    0  501  0.00000000000E+00  0.00000000000E+00 -0.11576801879E+04  0.11576801879E+04  0.50400001928E-02 0. -1.
    10030    2    1    2    0    0  0.00000000000E+00  0.00000000000E+00  0.21444652911E+03  0.25298069049E+04  0.25207014226E+04 0.  0.
        5    1    3    3  502    0  0.10671735194E+03  0.30751308251E+03  0.13292047535E+04  0.13684883104E+04  0.46999998093E+01 0.  1.
       -5    1    3    3    0  502 -0.10671735194E+03 -0.30751308251E+03 -0.11147582243E+04  0.11613185945E+04  0.46999998093E+01 0. -1.
</event>
<event>
 5   0  0.2441340E-05  0.2478263E+04  0.7818609E-02  0.8410771E-01
        2   -1    0    0  501    0  0.00000000000E+00  0.00000000000E+00  0.11069416216E+04  0.11069416216E+04  0.25500000920E-02 0.  1.
       -2   -1    0    0    0  501  0.00000000000E+00  0.00000000000E+00 -0.13871069646E+04  0.13871069646E+04  0.25500000920E-02 0. -1.
    10030    2    1    2    0    0  0.00000000000E+00  0.00000000000E+00 -0.28016534295E+03  0.24940485862E+04  0.24782626437E+04 0.  0.
        3    1    3    3  502    0 -0.72249703171E+03 -0.84155614775E+03 -0.69607597341E+03  0.13094809970E+04  0.10100000352E+00 0.  1.
       -3    1    3    3    0  502  0.72249703171E+03  0.84155614775E+03  0.41591063046E+03  0.11845675892E+04  0.10100000352E+00 0. -1.
</event>
<event>
 5   0  0.2432309E-05  0.2484753E+04  0.7818609E-02  0.8408438E-01
       -2   -1    0    0    0  501  0.00000000000E+00  0.00000000000E+00  0.16706022382E+04  0.16706022382E+04  0.25500000920E-02 0. -1.
        2   -1    0    0  501    0  0.00000000000E+00  0.00000000000E+00 -0.92391774743E+03  0.92391774743E+03  0.25500000920E-02 0.  1.
    10030    2    1    2    0    0  0.00000000000E+00  0.00000000000E+00  0.74668449074E+03  0.25945199856E+04  0.24847527497E+04 0.  0.
        4    1    3    3  502    0 -0.28088503325E+02  0.95122236712E+03 -0.46061706429E+03  0.10572524053E+04  0.12699999809E+01 0.  1.
       -4    1    3    3    0  502  0.28088503325E+02 -0.95122236712E+03  0.12073015550E+04  0.15372675803E+04  0.12699999809E+01 0. -1.
</event>
<event>
 5   0  0.2432309E-05  0.2490004E+04  0.7818609E-02  0.8406555E-01
       -2   -1    0    0    0  501  0.00000000000E+00  0.00000000000E+00  0.84464485927E+03  0.84464485927E+03  0.25500000920E-02 0.  1.
        2   -1    0    0  501    0  0.00000000000E+00  0.00000000000E+00 -0.18351269066E+04  0.18351269066E+04  0.25500000920E-02 0. -1.
    10030    2    1    2    0    0  0.00000000000E+00  0.00000000000E+00 -0.99048204728E+03  0.26797717658E+04  0.24900044239E+04 0.  0.
        4    1    3    3  502    0 -0.29208658660E+03 -0.14396068409E+03 -0.17884828058E+04  0.18178865785E+04  0.12699999809E+01 0. -1.
       -4    1    3    3    0  502  0.29208658660E+03  0.14396068409E+03  0.79800075854E+03  0.86188518734E+03  0.12699999809E+01 0.  1.
</event>
<event>
 5   0  0.1008073E-05  0.2484649E+04  0.7818609E-02  0.8408475E-01
        1   -1    0    0  501    0  0.00000000000E+00  0.00000000000E+00  0.79314907779E+03  0.79314907781E+03  0.50400001928E-02 0.  1.
       -1   -1    0    0    0  501  0.00000000000E+00  0.00000000000E+00 -0.19458759646E+04  0.19458759646E+04  0.50400001928E-02 0. -1.
    10030    2    1    2    0    0  0.00000000000E+00  0.00000000000E+00 -0.11527268868E+04  0.27390250424E+04  0.24846486487E+04 0.  0.
        1    1    3    3  502    0  0.92989868509E+03 -0.50027223142E+03  0.14515690007E+03  0.10658585252E+04  0.50400001928E-02 0.  1.
       -1    1    3    3    0  502 -0.92989868509E+03  0.50027223142E+03 -0.12978837868E+04  0.16731665172E+04  0.50400001928E-02 0. -1.
</event>
<event>
 5   0  0.1002753E-05  0.2512264E+04  0.7818609E-02  0.8398629E-01
        1   -1    0    0  501    0  0.00000000000E+00  0.00000000000E+00  0.11295476903E+04  0.11295476903E+04  0.50400001928E-02 0. -1.
       -1   -1    0    0    0  501  0.00000000000E+00  0.00000000000E+00 -0.13969024138E+04  0.13969024139E+04  0.50400001928E-02 0.  1.
    10030    2    1    2    0    0  0.00000000000E+00  0.00000000000E+00 -0.26735472353E+03  0.25264501042E+04  0.25122642339E+04 0.  0.
        5    1    3    3  502    0  0.75678905464E+03 -0.17052556244E+03 -0.11272018761E+04  0.13683620866E+04  0.46999998093E+01 0.  1.
       -5    1    3    3    0  502 -0.75678905464E+03  0.17052556244E+03  0.85984715254E+03  0.11580880176E+04  0.46999998093E+01 0. -1.
</event>
<event>
 5   0  0.1039688E-05  0.2507013E+04  0.7818609E-02  0.8400491E-01
        1   -1    0    0  501    0  0.00000000000E+00  0.00000000000E+00  0.21251437696E+04  0.21251437696E+04  0.50400001928E-02 0. -1.
       -1   -1    0    0    0  501  0.00000000000E+00  0.00000000000E+00 -0.73937501154E+03  0.73937501155E+03  0.50400001928E-02 0.  1.
    10030    2    1    2    0    0  0.00000000000E+00  0.00000000000E+00  0.13857687581E+04  0.28645187812E+04  0.25070127237E+04 0.  0.
        3    1    3    3  502    0  0.57773578562E+02  0.72036641026E+02  0.21212521619E+04  0.21232611259E+04  0.10100000352E+00 0. -1.
       -3    1    3    3    0  502 -0.57773578562E+02 -0.72036641026E+02 -0.73548340383E+03  0.74125765530E+03  0.10100000352E+00 0.  1.
</event>
<event>
 5   0  0.2432309E-05  0.2533870E+04  0.7818609E-02  0.8391018E-01
        2   -1    0    0  501    0  0.00000000000E+00  0.00000000000E+00  0.18690324500E+04  0.18690324500E+04  0.25500000920E-02 0. -1.
       -2   -1    0    0    0  501  0.00000000000E+00  0.00000000000E+00 -0.85879926982E+03  0.85879926982E+03  0.25500000920E-02 0.  1.
    10030    2    1    2    0    0  0.00000000000E+00  0.00000000000E+00  0.10102331802E+04  0.27278317198E+04  0.25338695336E+04 0.  0.
        4    1    3    3  502    0 -0.17203805952E+03 -0.41652457669E+03 -0.76959616303E+03  0.89183500938E+03  0.12699999809E+01 0.  1.
       -4    1    3    3    0  502  0.17203805952E+03  0.41652457669E+03  0.17798293432E+04  0.18359967104E+04  0.12699999809E+01 0. -1.
</event>
<event>
 5   0  0.1015327E-05  0.2502942E+04  0.7818609E-02  0.8401938E-01
       -1   -1    0    0    0  501  0.00000000000E+00  0.00000000000E+00  0.16769667116E+04  0.16769667116E+04  0.50400001928E-02 0. -1.
        1   -1    0    0  501    0  0.00000000000E+00  0.00000000000E+00 -0.93393612990E+03  0.93393612991E+03  0.50400001928E-02 0.  1.
    10030    2    1    2    0    0  0.00000000000E+00  0.00000000000E+00  0.74303058168E+03  0.26109028415E+04  0.25029421093E+04 0.  0.
        4    1    3    3  502    0  0.73533458286E+03 -0.92657662742E+03  0.79769246116E+03  0.14267361602E+04  0.12699999809E+01 0. -1.
       -4    1    3    3    0  502 -0.73533458286E+03  0.92657662742E+03 -0.54661879479E+02  0.11841666813E+04  0.12699999809E+01 0.  1.
</event>
<event>
 5   0  0.2441340E-05  0.2481546E+04  0.7818609E-02  0.8409589E-01
        2   -1    0    0  501    0  0.00000000000E+00  0.00000000000E+00  0.17298289506E+04  0.17298289506E+04  0.25500000920E-02 0.  1.
       -2   -1    0    0    0  501  0.00000000000E+00  0.00000000000E+00 -0.88998289691E+03  0.88998289691E+03  0.25500000920E-02 0. -1.
    10030    2    1    2    0    0  0.00000000000E+00  0.00000000000E+00  0.83984605367E+03  0.26198118475E+04  0.24815464377E+04 0.  0.
        3    1    3    3  502    0 -0.16687522201E+03 -0.10346491760E+04 -0.28129265997E+03  0.10851137396E+04  0.10100000352E+00 0. -1.
       -3    1    3    3    0  502  0.16687522201E+03  0.10346491760E+04  0.11211387136E+04  0.15346981079E+04  0.10100000352E+00 0.  1.
</event>
<event>
 5   0  0.1002753E-05  0.2464465E+04  0.7818609E-02  0.8415756E-01
       -1   -1    0    0    0  501  0.00000000000E+00  0.00000000000E+00  0.10324315500E+04  0.10324315501E+04  0.50400001928E-02 0.  1.
        1   -1    0    0  501    0  0.00000000000E+00  0.00000000000E+00 -0.14706993235E+04  0.14706993235E+04  0.50400001928E-02 0. -1.
    10030    2    1    2    0    0  0.00000000000E+00  0.00000000000E+00 -0.43826777349E+03  0.25031308736E+04  0.24644645522E+04 0.  0.
        5    1    3    3  502    0  0.17950626351E+03 -0.11785575037E+04  0.97451841552E+02  0.11961351260E+04  0.46999998093E+01 0. -1.
       -5    1    3    3    0  502 -0.17950626351E+03  0.11785575037E+04 -0.53571961504E+03  0.13069957476E+04  0.46999998093E+01 0.  1.
</event>
<event>
 5   0  0.2441340E-05  0.2485886E+04  0.7818609E-02  0.8408031E-01
        2   -1    0    0  501    0  0.00000000000E+00  0.00000000000E+00  0.14828646268E+04  0.14828646268E+04  0.25500000920E-02 0.  1.
       -2   -1    0    0    0  501  0.00000000000E+00  0.00000000000E+00 -0.10418399438E+04  0.10418399438E+04  0.25500000920E-02 0. -1.
    10030    2    1    2    0    0  0.00000000000E+00  0.00000000000E+00  0.44102468299E+03  0.25247045707E+04  0.24858862400E+04 0.  0.
        3    1    3    3  502    0 -0.23821307237E+03 -0.96552125038E+03 -0.53673838385E+03  0.11300729426E+04  0.10100000352E+00 0. -1.
       -3    1    3    3    0  502  0.23821307237E+03  0.96552125038E+03  0.97776306684E+03  0.13946316280E+04  0.10100000352E+00 0.  1.
</event>
<event>
 5   0  0.2452457E-05  0.2509341E+04  0.7818609E-02  0.8399665E-01
       -2   -1    0    0    0  501  0.00000000000E+00  0.00000000000E+00  0.16379840189E+04  0.16379840189E+04  0.25500000920E-02 0. -1.
        2   -1    0    0  501    0  0.00000000000E+00  0.00000000000E+00 -0.96105809488E+03  0.96105809489E+03  0.25500000920E-02 0.  1.
    10030    2    1    2    0    0  0.00000000000E+00  0.00000000000E+00  0.67692592400E+03  0.25990421138E+04  0.25093407904E+04 0.  0.
        1    1    3    3  502    0  0.78886305605E+03 -0.66993238872E+03 -0.39617555731E+03  0.11081829266E+04  0.50400001928E-02 0.  1.
       -1    1    3    3    0  502 -0.78886305605E+03  0.66993238872E+03  0.10731014813E+04  0.14908591871E+04  0.50400001928E-02 0. -1.
</event>
<event>
 5   0  0.1002753E-05  0.2488871E+04  0.7818609E-02  0.8406961E-01
       -1   -1    0    0    0  501  0.00000000000E+00  0.00000000000E+00  0.18760637171E+04  0.18760637171E+04  0.50400001928E-02 0.  1.
        1   -1    0    0  501    0  0.00000000000E+00  0.00000000000E+00 -0.82546245471E+03  0.82546245472E+03  0.50400001928E-02 0. -1.
    10030    2    1    2    0    0  0.00000000000E+00  0.00000000000E+00  0.10506012624E+04  0.27015261719E+04  0.24888713596E+04 0.  0.
        5    1    3    3  502    0 -0.12319970875E+04 -0.17543231034E+03  0.52766680852E+03  0.13516832728E+04  0.46999998093E+01 0.  1.
       -5    1    3    3    0  502  0.12319970875E+04  0.17543231034E+03  0.52293445391E+03  0.13498428991E+04  0.46999998093E+01 0. -1.
</event>
<event>
 5   0  0.1010338E-05  0.2541856E+04  0.7818609E-02  0.8388224E-01
        1   -1    0    0  501    0  0.00000000000E+00  0.00000000000E+00  0.12493818399E+04  0.12493818399E+04  0.50400001928E-02 0.  1.
       -1   -1    0    0    0  501  0.00000000000E+00  0.00000000000E+00 -0.12928452796E+04  0.12928452796E+04  0.50400001928E-02 0. -1.
    10030    2    1    2    0    0  0.00000000000E+00  0.00000000000E+00 -0.43463439672E+02  0.25422271195E+04  0.25418555539E+04 0.  0.
        2    1    3    3  502    0  0.16769652991E+03  0.12508361935E+04 -0.17190061313E+03  0.12736809372E+04  0.25500000920E-02 0. -1.
       -2    1    3    3    0  502 -0.16769652991E+03 -0.12508361935E+04  0.12843717346E+03  0.12685461823E+04  0.25500000920E-02 0.  1.
</event>
<event>
 5   0  0.2388326E-05  0.2504250E+04  0.7818609E-02  0.8401473E-01
        2   -1    0    0  501    0  0.00000000000E+00  0.00000000000E+00  0.11636686888E+04  0.11636686888E+04  0.25500000920E-02 0.  1.
       -2   -1    0    0    0  501  0.00000000000E+00  0.00000000000E+00 -0.13473055474E+04  0.13473055474E+04  0.25500000920E-02 0. -1.
    10030    2    1    2    0    0  0.00000000000E+00  0.00000000000E+00 -0.18363685853E+03  0.25109742362E+04  0.25042502110E+04 0.  0.
        2    1    3    3  502    0  0.43976088254E+03 -0.12011838723E+03  0.10775028880E+04  0.11699703134E+04  0.25500000920E-02 0.  1.
       -2    1    3    3    0  502 -0.43976088254E+03  0.12011838723E+03 -0.12611397465E+04  0.13410039228E+04  0.25500000920E-02 0. -1.
</event>
<event>
 5   0  0.2388326E-05  0.2538926E+04  0.7818609E-02  0.8389248E-01
        2   -1    0    0  501    0  0.00000000000E+00  0.00000000000E+00  0.23149325639E+04  0.23149325639E+04  0.25500000920E-02 0.  1.
       -2   -1    0    0    0  501  0.00000000000E+00  0.00000000000E+00 -0.69614821556E+03  0.69614821556E+03  0.25500000920E-02 0. -1.
    10030    2    1    2    0    0  0.00000000000E+00  0.00000000000E+00  0.16187843483E+04  0.30110807794E+04  0.25389258937E+04 0.  0.
        2    1    3    3  502    0  0.67343772042E+02  0.41291117087E+03  0.22308239062E+04  0.22697149863E+04  0.25500000920E-02 0.  1.
       -2    1    3    3    0  502 -0.67343772042E+02 -0.41291117087E+03 -0.61203955793E+03  0.74136579307E+03  0.25500000920E-02 0. -1.
</event>
<event>
 5   0  0.1039688E-05  0.2417893E+04  0.7818609E-02  0.8432835E-01
        1   -1    0    0  501    0  0.00000000000E+00  0.00000000000E+00  0.87040920760E+03  0.87040920762E+03  0.50400001928E-02 0.  1.
       -1   -1    0    0    0  501  0.00000000000E+00  0.00000000000E+00 -0.16791552298E+04  0.16791552298E+04  0.50400001928E-02 0. -1.
    10030    2    1    2    0    0  0.00000000000E+00  0.00000000000E+00 -0.80874602223E+03  0.25495644375E+04  0.24178934411E+04 0.  0.
        3    1    3    3  502    0 -0.10947503010E+04 -0.43193781913E+02 -0.94329049188E+03  0.14457319553E+04  0.10100000352E+00 0. -1.
       -3    1    3    3    0  502  0.10947503010E+04  0.43193781913E+02  0.13454446964E+03  0.11038324822E+04  0.10100000352E+00 0.  1.
</event>
<event>
 5   0  0.1010338E-05  0.2834486E+04  0.7818609E-02  0.8292641E-01
       -1   -1    0    0    0  501  0.00000000000E+00  0.00000000000E+00  0.21519666655E+04  0.21519666655E+04  0.50400001928E-02 0. -1.
        1   -1    0    0  501    0  0.00000000000E+00  0.00000000000E+00 -0.93336854522E+03  0.93336854524E+03  0.50400001928E-02 0.  1.
    10030    2    1    2    0    0  0.00000000000E+00  0.00000000000E+00  0.12185981203E+04  0.30853352108E+04  0.28344861940E+04 0.  0.
        2    1    3    3  502    0  0.85960549650E+03  0.44933907130E+03 -0.51546895856E+03  0.10984240792E+04  0.25500000920E-02 0.  1.
       -2    1    3    3    0  502 -0.85960549650E+03 -0.44933907130E+03  0.17340670789E+04  0.19869111315E+04  0.25500000920E-02 0. -1.
</event>
<event>
 5   0  0.2452457E-05  0.2484607E+04  0.7818609E-02  0.8408490E-01
        2   -1    0    0  501    0  0.00000000000E+00  0.00000000000E+00  0.13844202574E+04  0.13844202574E+04  0.25500000920E-02 0.  1.
       -2   -1    0    0    0  501  0.00000000000E+00  0.00000000000E+00 -0.11147757587E+04  0.11147757587E+04  0.25500000920E-02 0. -1.
    10030    2    1    2    0    0  0.00000000000E+00  0.00000000000E+00  0.26964449866E+03  0.24991960161E+04  0.24846071261E+04 0.  0.
        1    1    3    3  502    0 -0.12728145373E+03 -0.76593318572E+03 -0.84064718363E+03  0.11443521752E+04  0.50400001928E-02 0. -1.
       -1    1    3    3    0  502  0.12728145373E+03  0.76593318572E+03  0.11102916823E+04  0.13548438409E+04  0.50400001928E-02 0.  1.
</event>
<event>
 5   0  0.1015327E-05  0.2491696E+04  0.7818609E-02  0.8405950E-01
       -1   -1    0    0    0  501  0.00000000000E+00  0.00000000000E+00  0.15746650364E+04  0.15746650364E+04  0.50400001928E-02 0.  1.
        1   -1    0    0  501    0  0.00000000000E+00  0.00000000000E+00 -0.98569381271E+03  0.98569381272E+03  0.50400001928E-02 0. -1.
    10030    2    1    2    0    0  0.00000000000E+00  0.00000000000E+00  0.58897122371E+03  0.25603588491E+04  0.24916962764E+04 0.  0.
        4    1    3    3  502    0  0.51950767135E+03  0.88184906748E+03 -0.43543401741E+03  0.11122726261E+04  0.12699999809E+01 0. -1.
       -4    1    3    3    0  502 -0.51950767135E+03 -0.88184906748E+03  0.10244052411E+04  0.14480862230E+04  0.12699999809E+01 0.  1.
</event>
<event>
 5   0  0.2452457E-05  0.2493917E+04  0.7818609E-02  0.8405156E-01
        2   -1    0    0  501    0  0.00000000000E+00  0.00000000000E+00  0.22167336011E+04  0.22167336011E+04  0.25500000920E-02 0.  1.
       -2   -1    0    0    0  501  0.00000000000E+00  0.00000000000E+00 -0.70144019742E+03  0.70144019742E+03  0.25500000920E-02 0. -1.
    10030    2    1    2    0    0  0.00000000000E+00  0.00000000000E+00  0.15152934037E+04  0.29181737985E+04  0.24939174443E+04 0.  0.
        1    1    3    3  502    0 -0.11533295905E+04  0.12449042849E+03  0.22240438246E+03  0.11811565182E+04  0.50400001928E-02 0.  1.
       -1    1    3    3    0  502  0.11533295905E+04 -0.12449042849E+03  0.12928890212E+04  0.17370172804E+04  0.50400001928E-02 0. -1.
</event>
<event>
 5   0  0.1008073E-05  0.2494697E+04  0.7818609E-02  0.8404877E-01
       -1   -1    0    0    0  501  0.00000000000E+00  0.00000000000E+00  0.74006849231E+03  0.74006849233E+03  0.50400001928E-02 0.  1.
        1   -1    0    0  501    0  0.00000000000E+00  0.00000000000E+00 -0.21023442081E+04  0.21023442081E+04  0.50400001928E-02 0. -1.
    10030    2    1    2    0    0  0.00000000000E+00  0.00000000000E+00 -0.13622757157E+04  0.28424127004E+04  0.24946973431E+04 0.  0.
        1    1    3    3  502    0  0.54362095537E+03 -0.66050739202E+03 -0.17154586665E+04  0.19169225844E+04  0.50400001928E-02 0. -1.
       -1    1    3    3    0  502 -0.54362095537E+03  0.66050739202E+03  0.35318295078E+03  0.92549011598E+03  0.50400001928E-02 0.  1.
</event>
<event>
 5   0  0.2432309E-05  0.2573546E+04  0.7818609E-02  0.8377243E-01
       -2   -1    0    0    0  501  0.00000000000E+00  0.00000000000E+00  0.66834675950E+03  0.66834675951E+03  0.25500000920E-02 0.  1.
        2   -1    0    0  501    0  0.00000000000E+00  0.00000000000E+00 -0.24774341995E+04  0.24774341995E+04  0.25500000920E-02 0. -1.
    10030    2    1    2    0    0  0.00000000000E+00  0.00000000000E+00 -0.18090874400E+04  0.31457809590E+04  0.25735462841E+04 0.  0.
        4    1    3    3  502    0  0.10538322172E+04 -0.31225802962E+03 -0.86648168927E+02  0.11025320572E+04  0.12699999809E+01 0.  1.
       -4    1    3    3    0  502 -0.10538322172E+04  0.31225802962E+03 -0.17224392711E+04  0.20432489018E+04  0.12699999809E+01 0. -1.
</event>
<event>
 5   0  0.2441340E-05  0.2531685E+04  0.7818609E-02  0.8391784E-01
       -2   -1    0    0    0  501  0.00000000000E+00  0.00000000000E+00  0.81793992422E+03  0.81793992423E+03  0.25500000920E-02 0.  1.
        2   -1    0    0  501    0  0.00000000000E+00  0.00000000000E+00 -0.19590154131E+04  0.19590154131E+04  0.25500000920E-02 0. -1.
    10030    2    1    2    0    0  0.00000000000E+00  0.00000000000E+00 -0.11410754889E+04  0.27769553373E+04  0.25316847502E+04 0.  0.
        3    1    3    3  502    0 -0.28449830881E+03  0.79386731933E+03  0.46495004504E+03  0.96298658506E+03  0.10100000352E+00 0.  1.
       -3    1    3    3    0  502  0.28449830881E+03 -0.79386731933E+03 -0.16060255339E+04  0.18139687523E+04  0.10100000352E+00 0. -1.
</event>
<event>
 5   0  0.2388326E-05  0.2520517E+04  0.7818609E-02  0.8395712E-01
        2   -1    0    0  501    0  0.00000000000E+00  0.00000000000E+00  0.16142894342E+04  0.16142894342E+04  0.25500000920E-02 0.  1.
       -2   -1    0    0    0  501  0.00000000000E+00  0.00000000000E+00 -0.98387071830E+03  0.98387071830E+03  0.25500000920E-02 0. -1.
    10030    2    1    2    0    0  0.00000000000E+00  0.00000000000E+00  0.63041871591E+03  0.25981601525E+04  0.25205174907E+04 0.  0.
        2    1    3    3  502    0  0.11244242791E+04  0.53414244461E+03  0.11265174633E+03  0.12499314088E+04  0.25500000920E-02 0. -1.
       -2    1    3    3    0  502 -0.11244242791E+04 -0.53414244461E+03  0.51776696958E+03  0.13482287437E+04  0.25500000920E-02 0.  1.
</event>
<event>
 5   0  0.2452457E-05  0.2487800E+04  0.7818609E-02  0.8407345E-01
       -2   -1    0    0    0  501  0.00000000000E+00  0.00000000000E+00  0.73715574477E+03  0.73715574478E+03  0.25500000920E-02 0.  1.
        2   -1    0    0  501    0  0.00000000000E+00  0.00000000000E+00 -0.20989958989E+04  0.20989958989E+04  0.25500000920E-02 0. -1.
    10030    2    1    2    0    0  0.00000000000E+00  0.00000000000E+00 -0.13618401541E+04  0.28361516437E+04  0.24877997388E+04 0.  0.
        1    1    3    3  502    0  0.91183550354E+03 -0.38981163185E+03  0.17515360560E+03  0.10070133462E+04  0.50400001928E-02 0.  1.
       -1    1    3    3    0  502 -0.91183550354E+03  0.38981163185E+03 -0.15369937597E+04  0.18291382975E+04  0.50400001928E-02 0. -1.
</event>
<event>
 5   0  0.1015327E-05  0.2481033E+04  0.7818609E-02  0.8409774E-01
        1   -1    0    0  501    0  0.00000000000E+00  0.00000000000E+00  0.15484886969E+04  0.15484886969E+04  0.50400001928E-02 0. -1.
       -1   -1    0    0    0  501  0.00000000000E+00  0.00000000000E+00 -0.99379523937E+03  0.99379523938E+03  0.50400001928E-02 0.  1.
    10030    2    1    2    0    0  0.00000000000E+00  0.00000000000E+00  0.55469345749E+03  0.25422839363E+04  0.24810326037E+04 0.  0.
        4    1    3    3  502    0  0.30236282334E+03 -0.14924906208E+03  0.15006285477E+04  0.15380462316E+04  0.12699999809E+01 0. -1.
       -4    1    3    3    0  502 -0.30236282334E+03  0.14924906208E+03 -0.94593509026E+03  0.10042377046E+04  0.12699999809E+01 0.  1.
</event>
<event>
 5   0  0.2388326E-05  0.2483450E+04  0.7818609E-02  0.8408905E-01
        2   -1    0    0  501    0  0.00000000000E+00  0.00000000000E+00  0.19417109677E+04  0.19417109678E+04  0.25500000920E-02 0. -1.
       -2   -1    0    0    0  501  0.00000000000E+00  0.00000000000E+00 -0.79408388137E+03  0.79408388137E+03  0.25500000920E-02 0.  1.
    10030    2    1    2    0    0  0.00000000000E+00  0.00000000000E+00  0.11476270864E+04  0.27357948491E+04  0.24834503271E+04 0.  0.
        2    1    3    3  502    0  0.77283515690E+03  0.63447810452E+03  0.13848597839E+04  0.17081198043E+04  0.25500000920E-02 0. -1.
       -2    1    3    3    0  502 -0.77283515690E+03 -0.63447810452E+03 -0.23723269754E+03  0.10276750448E+04  0.25500000920E-02 0.  1.
</event>
<event>
 5   0  0.1002753E-05  0.2520685E+04  0.7818609E-02  0.8395653E-01
       -1   -1    0    0    0  501  0.00000000000E+00  0.00000000000E+00  0.90510083096E+03  0.90510083097E+03  0.50400001928E-02 0. -1.
        1   -1    0    0  501    0  0.00000000000E+00  0.00000000000E+00 -0.17550122688E+04  0.17550122688E+04  0.50400001928E-02 0.  1.
    10030    2    1    2    0    0  0.00000000000E+00  0.00000000000E+00 -0.84991143786E+03  0.26601130998E+04  0.25206848775E+04 0.  0.
        5    1    3    3  502    0  0.13037094187E+03 -0.65136115706E+03 -0.15552616611E+04  0.16911915515E+04  0.46999998093E+01 0.  1.
       -5    1    3    3    0  502 -0.13037094187E+03  0.65136115706E+03  0.70535022321E+03  0.96892154832E+03  0.46999998093E+01 0. -1.
</event>
<event>
 5   0  0.1015327E-05  0.2507008E+04  0.7818609E-02  0.8400493E-01
       -1   -1    0    0    0  501  0.00000000000E+00  0.00000000000E+00  0.99519320158E+03  0.99519320159E+03  0.50400001928E-02 0. -1.
        1   -1    0    0  501    0  0.00000000000E+00  0.00000000000E+00 -0.15788618925E+04  0.15788618925E+04  0.50400001928E-02 0.  1.
    10030    2    1    2    0    0  0.00000000000E+00  0.00000000000E+00 -0.58366869092E+03  0.25740550941E+04  0.25070082742E+04 0.  0.
        4    1    3    3  502    0  0.32252228535E+03 -0.31962135969E+03  0.90778406539E+03  0.10150132809E+04  0.12699999809E+01 0. -1.
       -4    1    3    3    0  502 -0.32252228535E+03  0.31962135969E+03 -0.14914527563E+04  0.15590418132E+04  0.12699999809E+01 0.  1.
</event>
<event>
 5   0  0.1010338E-05  0.2454235E+04  0.7818609E-02  0.8419473E-01
       -1   -1    0    0    0  501  0.00000000000E+00  0.00000000000E+00  0.12094162880E+04  0.12094162880E+04  0.50400001928E-02 0. -1.
        1   -1    0    0  501    0  0.00000000000E+00  0.00000000000E+00 -0.12450781195E+04  0.12450781195E+04  0.50400001928E-02 0.  1.
    10030    2    1    2    0    0  0.00000000000E+00  0.00000000000E+00 -0.35661831523E+02  0.24544944075E+04  0.24542353249E+04 0.  0.
        2    1    3    3  502    0 -0.15575747999E+03  0.11831002960E+04 -0.30392239176E+03  0.12314038830E+04  0.25500000920E-02 0.  1.
       -2    1    3    3    0  502  0.15575747999E+03 -0.11831002960E+04  0.26826056024E+03  0.12230905245E+04  0.25500000920E-02 0. -1.
</event>
<event>
 5   0  0.1002753E-05  0.2495579E+04  0.7818609E-02  0.8404562E-01
        1   -1    0    0  501    0  0.00000000000E+00  0.00000000000E+00  0.16860126013E+04  0.16860126014E+04  0.50400001928E-02 0. -1.
       -1   -1    0    0    0  501  0.00000000000E+00  0.00000000000E+00 -0.92346783574E+03  0.92346783575E+03  0.50400001928E-02 0.  1.
    10030    2    1    2    0    0  0.00000000000E+00  0.00000000000E+00  0.76254476561E+03  0.26094804371E+04  0.24955788170E+04 0.  0.
        5    1    3    3  502    0  0.11563768001E+04 -0.41179644686E+03  0.14705641871E+03  0.12362974148E+04  0.46999998093E+01 0.  1.
       -5    1    3    3    0  502 -0.11563768001E+04  0.41179644686E+03  0.61548834690E+03  0.13731830223E+04  0.46999998093E+01 0. -1.
</event>
<event>
 5   0  0.2441340E-05  0.2500633E+04  0.7818609E-02  0.8402760E-01
        2   -1    0    0  501    0  0.00000000000E+00  0.00000000000E+00  0.13664531613E+04  0.13664531613E+04  0.25500000920E-02 0. -1.
       -2   -1    0    0    0  501  0.00000000000E+00  0.00000000000E+00 -0.11440506023E+04  0.11440506023E+04  0.25500000920E-02 0.  1.
    10030    2    1    2    0    0  0.00000000000E+00  0.00000000000E+00  0.22240255901E+03  0.25105037636E+04  0.25006331696E+04 0.  0.
        3    1    3    3  502    0  0.69908823229E+03  0.98849581214E+03 -0.20218985991E+03  0.12274889314E+04  0.10100000352E+00 0.  1.
       -3    1    3    3    0  502 -0.69908823229E+03 -0.98849581214E+03  0.42459241892E+03  0.12830148322E+04  0.10100000352E+00 0. -1.
</event>
<event>
 5   0  0.2432309E-05  0.2495015E+04  0.7818609E-02  0.8404764E-01
        2   -1    0    0  501    0  0.00000000000E+00  0.00000000000E+00  0.22707276169E+04  0.22707276169E+04  0.25500000920E-02 0.  1.
       -2   -1    0    0    0  501  0.00000000000E+00  0.00000000000E+00 -0.68536378849E+03  0.68536378849E+03  0.25500000920E-02 0. -1.
    10030    2    1    2    0    0  0.00000000000E+00  0.00000000000E+00  0.15853638284E+04  0.29560914054E+04  0.24950146149E+04 0.  0.
        4    1    3    3  502    0  0.32202692432E+03 -0.11470874741E+04  0.12308363956E+04  0.17130297309E+04  0.12699999809E+01 0.  1.
       -4    1    3    3    0  502 -0.32202692432E+03  0.11470874741E+04  0.35452743278E+03  0.12430616745E+04  0.12699999809E+01 0. -1.
</event>
<event>
 5   0  0.2345143E-05  0.2463068E+04  0.7818609E-02  0.8416262E-01
       -2   -1    0    0    0  501  0.00000000000E+00  0.00000000000E+00  0.85771406825E+03  0.85771406825E+03  0.25500000920E-02 0. -1.
        2   -1    0    0  501    0  0.00000000000E+00  0.00000000000E+00 -0.17682775824E+04  0.17682775824E+04  0.25500000920E-02 0.  1.
    10030    2    1    2    0    0  0.00000000000E+00  0.00000000000E+00 -0.91056351411E+03  0.26259916506E+04  0.24630684594E+04 0.  0.
        5    1    3    3  502    0 -0.71610585084E+03  0.78569604992E+03  0.20755666209E+03  0.10831563740E+04  0.46999998093E+01 0. -1.
       -5    1    3    3    0  502  0.71610585084E+03 -0.78569604992E+03 -0.11181201762E+04  0.15428352767E+04  0.46999998093E+01 0.  1.
</event>
<event>
 5   0  0.1010338E-05  0.2447823E+04  0.7818609E-02  0.8421813E-01
        1   -1    0    0  501    0  0.00000000000E+00  0.00000000000E+00  0.10333009999E+04  0.10333009999E+04  0.50400001928E-02 0. -1.
       -1   -1    0    0    0  501  0.00000000000E+00  0.00000000000E+00 -0.14496834253E+04  0.14496834253E+04  0.50400001928E-02 0.  1.
    10030    2    1    2    0    0  0.00000000000E+00  0.00000000000E+00 -0.41638242539E+03  0.24829844252E+04  0.24478229780E+04 0.  0.
        2    1    3    3  502    0 -0.25694143200E+03 -0.55717763212E+03 -0.12824090818E+04  0.14216324653E+04  0.25500000920E-02 0.  1.
       -2    1    3    3    0  502  0.25694143200E+03  0.55717763212E+03  0.86602665641E+03  0.10613519599E+04  0.25500000920E-02 0. -1.
</event>
<event>
 5   0  0.1010338E-05  0.2555392E+04  0.7818609E-02  0.8383513E-01
       -1   -1    0    0    0  501  0.00000000000E+00  0.00000000000E+00  0.94537116987E+03  0.94537116989E+03  0.50400001928E-02 0. -1.
        1   -1    0    0  501    0  0.00000000000E+00  0.00000000000E+00 -0.17268429990E+04  0.17268429990E+04  0.50400001928E-02 0.  1.
    10030    2    1    2    0    0  0.00000000000E+00  0.00000000000E+00 -0.78147182914E+03  0.26722141689E+04  0.25553924052E+04 0.  0.
        2    1    3    3  502    0 -0.11524701540E+04  0.55113692394E+03 -0.36580877312E+03  0.13288173024E+04  0.25500000920E-02 0. -1.
       -2    1    3    3    0  502  0.11524701540E+04 -0.55113692394E+03 -0.41566305602E+03  0.13433968665E+04  0.25500000920E-02 0.  1.
</event>
<event>
 5   0  0.1015327E-05  0.2509068E+04  0.7818609E-02  0.8399762E-01
       -1   -1    0    0    0  501  0.00000000000E+00  0.00000000000E+00  0.67663092885E+03  0.67663092887E+03  0.50400001928E-02 0.  1.
        1   -1    0    0  501    0  0.00000000000E+00  0.00000000000E+00 -0.23260185747E+04  0.23260185747E+04  0.50400001928E-02 0. -1.
    10030    2    1    2    0    0  0.00000000000E+00  0.00000000000E+00 -0.16493876458E+04  0.30026495035E+04  0.25090684397E+04 0.  0.
        4    1    3    3  502    0  0.77213722818E+03  0.97046646679E+03 -0.10512925725E+04  0.16257978805E+04  0.12699999809E+01 0. -1.
       -4    1    3    3    0  502 -0.77213722818E+03 -0.97046646679E+03 -0.59809507333E+03  0.13768516231E+04  0.12699999809E+01 0.  1.
</event>
<event>
 5   0  0.1039688E-05  0.2470252E+04  0.7818609E-02  0.8413661E-01
        1   -1    0    0  501    0  0.00000000000E+00  0.00000000000E+00  0.20154946414E+04  0.20154946414E+04  0.50400001928E-02 0.  1.
       -1   -1    0    0    0  501  0.00000000000E+00  0.00000000000E+00 -0.75690422895E+03  0.75690422897E+03  0.50400001928E-02 0. -1.
    10030    2    1    2    0    0  0.00000000000E+00  0.00000000000E+00  0.12585904124E+04  0.27723988703E+04  0.24702521471E+04 0.  0.
        3    1    3    3  502    0 -0.10465219087E+04 -0.25121304681E+03 -0.50812619959E+02  0.10774497821E+04  0.10100000352E+00 0. -1.
       -3    1    3    3    0  502  0.10465219087E+04  0.25121304681E+03  0.13094030324E+04  0.16949490883E+04  0.10100000352E+00 0.  1.
</event>
<event>
 5   0  0.2432309E-05  0.2480086E+04  0.7818609E-02  0.8410115E-01
        2   -1    0    0  501    0  0.00000000000E+00  0.00000000000E+00  0.93718930482E+03  0.93718930482E+03  0.25500000920E-02 0. -1.
       -2   -1    0    0    0  501  0.00000000000E+00  0.00000000000E+00 -0.16407638134E+04  0.16407638134E+04  0.25500000920E-02 0.  1.
    10030    2    1    2    0    0  0.00000000000E+00  0.00000000000E+00 -0.70357450857E+03  0.25779531182E+04  0.24800857224E+04 0.  0.
        4    1    3    3  502    0  0.62759039229E+03 -0.17058173442E+03  0.74568740997E+03  0.98945396806E+03  0.12699999809E+01 0. -1.
       -4    1    3    3    0  502 -0.62759039229E+03  0.17058173442E+03 -0.14492619185E+04  0.15884991502E+04  0.12699999809E+01 0.  1.
</event>
<event>
 5   0  0.2345143E-05  0.2600346E+04  0.7818609E-02  0.8368084E-01
       -2   -1    0    0    0  501  0.00000000000E+00  0.00000000000E+00  0.11225936296E+04  0.11225936296E+04  0.25500000920E-02 0. -1.
        2   -1    0    0  501    0  0.00000000000E+00  0.00000000000E+00 -0.15058433318E+04  0.15058433318E+04  0.25500000920E-02 0.  1.
    10030    2    1    2    0    0  0.00000000000E+00  0.00000000000E+00 -0.38324970218E+03  0.26284369615E+04  0.26003462320E+04 0.  0.
        5    1    3    3  502    0  0.11825402114E+04  0.52314887137E+03 -0.32852033506E+03  0.13341790711E+04  0.46999998093E+01 0. -1.
       -5    1    3    3    0  502 -0.11825402114E+04 -0.52314887137E+03 -0.54729367124E+02  0.12942578904E+04  0.46999998093E+01 0.  1.
</event>
<event>
 5   0  0.1002753E-05  0.2474640E+04  0.7818609E-02  0.8412076E-01
        1   -1    0    0  501    0  0.00000000000E+00  0.00000000000E+00  0.20707760883E+04  0.20707760883E+04  0.50400001928E-02 0. -1.
       -1   -1    0    0    0  501  0.00000000000E+00  0.00000000000E+00 -0.73931714284E+03  0.73931714286E+03  0.50400001928E-02 0.  1.
    10030    2    1    2    0    0  0.00000000000E+00  0.00000000000E+00  0.13314589454E+04  0.28100932312E+04  0.24746395787E+04 0.  0.
        5    1    3    3  502    0 -0.29989706619E+03 -0.80490210124E+02 -0.69434367628E+03  0.76062615983E+03  0.46999998093E+01 0.  1.
       -5    1    3    3    0  502  0.29989706619E+03  0.80490210124E+02  0.20258026217E+04  0.20494670713E+04  0.46999998093E+01 0. -1.
</event>
<event>
 5   0  0.2452457E-05  0.2500183E+04  0.7818609E-02  0.8402921E-01
        2   -1    0    0  501    0  0.00000000000E+00  0.00000000000E+00  0.19410455103E+04  0.19410455103E+04  0.25500000920E-02 0. -1.
       -2   -1    0    0    0  501  0.00000000000E+00  0.00000000000E+00 -0.80509610980E+03  0.80509610980E+03  0.25500000920E-02 0.  1.
    10030    2    1    2    0    0  0.00000000000E+00  0.00000000000E+00  0.11359494005E+04  0.27461416201E+04  0.25001825447E+04 0.  0.
        1    1    3    3  502    0  0.40195762204E+03  0.52883049798E+03  0.17311634287E+04  0.18542271820E+04  0.50400001928E-02 0. -1.
       -1    1    3    3    0  502 -0.40195762204E+03 -0.52883049798E+03 -0.59521402821E+03  0.89191443811E+03  0.50400001928E-02 0.  1.
</event>
<event>
 5   0  0.2388326E-05  0.2362653E+04  0.7818609E-02  0.8453620E-01
       -2   -1    0    0    0  501  0.00000000000E+00  0.00000000000E+00  0.66214191665E+03  0.66214191666E+03  0.25500000920E-02 0. -1.
        2   -1    0    0  501    0  0.00000000000E+00  0.00000000000E+00 -0.21076025630E+04  0.21076025630E+04  0.25500000920E-02 0.  1.
    10030    2    1    2    0    0  0.00000000000E+00  0.00000000000E+00 -0.14454606463E+04  0.27697444796E+04  0.23626527469E+04 0.  0.
        2    1    3    3  502    0 -0.32668902888E+03  0.26249195802E+03 -0.20175302981E+04  0.20605960917E+04  0.25500000920E-02 0.  1.
       -2    1    3    3    0  502  0.32668902888E+03 -0.26249195802E+03  0.57206965175E+03  0.70914838791E+03  0.25500000920E-02 0. -1.
</event>
<event>
 5   0  0.2388326E-05  0.2491211E+04  0.7818609E-02  0.8406124E-01
        2   -1    0    0  501    0  0.00000000000E+00  0.00000000000E+00  0.16989936863E+04  0.16989936863E+04  0.25500000920E-02 0. -1.
       -2   -1    0    0    0  501  0.00000000000E+00  0.00000000000E+00 -0.91320676596E+03  0.91320676596E+03  0.25500000920E-02 0.  1.
    10030    2    1    2    0    0  0.00000000000E+00  0.00000000000E+00  0.78578692036E+03  0.26122004523E+04  0.24912105729E+04 0.  0.
        2    1    3    3  502    0 -0.64419285318E+03  0.94500418275E+03 -0.12454546038E+03  0.11504472649E+04  0.25500000920E-02 0.  1.
       -2    1    3    3    0  502  0.64419285318E+03 -0.94500418275E+03  0.91033238074E+03  0.14617531874E+04  0.25500000920E-02 0. -1.
</event>
<event>
 5   0  0.1015327E-05  0.2519435E+04  0.7818609E-02  0.8396094E-01
        1   -1    0    0  501    0  0.00000000000E+00  0.00000000000E+00  0.21311727318E+04  0.21311727318E+04  0.50400001928E-02 0.  1.
       -1   -1    0    0    0  501  0.00000000000E+00  0.00000000000E+00 -0.74460813772E+03  0.74460813773E+03  0.50400001928E-02 0. -1.
    10030    2    1    2    0    0  0.00000000000E+00  0.00000000000E+00  0.13865645941E+04  0.28757808695E+04  0.25194353010E+04 0.  0.
        4    1    3    3  502    0  0.86766341380E+03 -0.62520658939E+03  0.14531443416E+04  0.18042597289E+04  0.12699999809E+01 0.  1.
       -4    1    3    3    0  502 -0.86766341380E+03  0.62520658939E+03 -0.66579747520E+02  0.10715211406E+04  0.12699999809E+01 0. -1.
</event>
<event>
 5   0  0.1008073E-05  0.2451052E+04  0.7818609E-02  0.8420634E-01
        1   -1    0    0  501    0  0.00000000000E+00  0.00000000000E+00  0.25023065104E+04  0.25023065104E+04  0.50400001928E-02 0.  1.
       -1   -1    0    0    0  501  0.00000000000E+00  0.00000000000E+00 -0.60021203901E+03  0.60021203903E+03  0.50400001928E-02 0. -1.
    10030    2    1    2    0    0  0.00000000000E+00  0.00000000000E+00  0.19020944714E+04  0.31025185494E+04  0.24510524212E+04 0.  0.
        1    1    3    3  502    0 -0.47072790243E+03 -0.59671149521E+03 -0.26586727702E+03  0.80519238425E+03  0.50400001928E-02 0. -1.
       -1    1    3    3    0  502  0.47072790243E+03  0.59671149521E+03  0.21679617484E+04  0.22973261652E+04  0.50400001928E-02 0.  1.
</event>
<event>
 5   0  0.2345143E-05  0.2213490E+04  0.7818609E-02  0.8512834E-01
       -2   -1    0    0    0  501  0.00000000000E+00  0.00000000000E+00  0.93920652094E+03  0.93920652094E+03  0.25500000920E-02 0.  1.
        2   -1    0    0  501    0  0.00000000000E+00  0.00000000000E+00 -0.13041689240E+04  0.13041689240E+04  0.25500000920E-02 0. -1.
    10030    2    1    2    0    0  0.00000000000E+00  0.00000000000E+00 -0.36496240308E+03  0.22433754450E+04  0.22134895146E+04 0.  0.
        5    1    3    3  502    0 -0.91183245702E+03  0.48694121736E+03 -0.58318201200E+03  0.11868755318E+04  0.46999998093E+01 0. -1.
       -5    1    3    3    0  502  0.91183245702E+03 -0.48694121736E+03  0.21821960891E+03  0.10564999132E+04  0.46999998093E+01 0.  1.
</event>
<event>
 5   0  0.1002753E-05  0.2512632E+04  0.7818609E-02  0.8398499E-01
       -1   -1    0    0    0  501  0.00000000000E+00  0.00000000000E+00  0.14615545421E+04  0.14615545421E+04  0.50400001928E-02 0.  1.
        1   -1    0    0  501    0  0.00000000000E+00  0.00000000000E+00 -0.10798979033E+04  0.10798979033E+04  0.50400001928E-02 0. -1.
    10030    2    1    2    0    0  0.00000000000E+00  0.00000000000E+00  0.38165663886E+03  0.25414524454E+04  0.25126318358E+04 0.  0.
        5    1    3    3  502    0  0.89244883796E+03 -0.55869096701E+03 -0.50238464860E+03  0.11666245969E+04  0.46999998093E+01 0. -1.
       -5    1    3    3    0  502 -0.89244883796E+03  0.55869096701E+03  0.88404128746E+03  0.13748278485E+04  0.46999998093E+01 0.  1.
</event>
<event>
 5   0  0.2388326E-05  0.2159380E+04  0.7818609E-02  0.8535528E-01
       -2   -1    0    0    0  501  0.00000000000E+00  0.00000000000E+00  0.12122627943E+04  0.12122627943E+04  0.25500000920E-02 0. -1.
        2   -1    0    0  501    0  0.00000000000E+00  0.00000000000E+00 -0.96161525348E+03  0.96161525348E+03  0.25500000920E-02 0.  1.
    10030    2    1    2    0    0  0.00000000000E+00  0.00000000000E+00  0.25064754078E+03  0.21738780477E+04  0.21593799056E+04 0.  0.
        2    1    3    3  502    0 -0.54317669016E+03 -0.82813063927E+03 -0.30755052839E+03  0.10370287363E+04  0.25500000920E-02 0.  1.
       -2    1    3    3    0  502  0.54317669016E+03  0.82813063927E+03  0.55819806917E+03  0.11368493114E+04  0.25500000920E-02 0. -1.
</event>
<event>
 5   0  0.2432309E-05  0.2556340E+04  0.7818609E-02  0.8383185E-01
       -2   -1    0    0    0  501  0.00000000000E+00  0.00000000000E+00  0.12744936844E+04  0.12744936844E+04  0.25500000920E-02 0. -1.
        2   -1    0    0  501    0  0.00000000000E+00  0.00000000000E+00 -0.12818570948E+04  0.12818570948E+04  0.25500000920E-02 0.  1.
    10030    2    1    2    0    0  0.00000000000E+00  0.00000000000E+00 -0.73634104134E+01  0.25563507792E+04  0.25563401743E+04 0.  0.
        4    1    3    3  502    0  0.12470720088E+04  0.13684680554E+03 -0.24822620355E+03  0.12788797849E+04  0.12699999809E+01 0.  1.
       -4    1    3    3    0  502 -0.12470720088E+04 -0.13684680554E+03  0.24086279314E+03  0.12774709943E+04  0.12699999809E+01 0. -1.
</event>
<event>
 5   0  0.1015327E-05  0.2329453E+04  0.7818609E-02  0.8466398E-01
       -1   -1    0    0    0  501  0.00000000000E+00  0.00000000000E+00  0.73555210627E+03  0.73555210629E+03  0.50400001928E-02 0.  1.
        1   -1    0    0  501    0  0.00000000000E+00  0.00000000000E+00 -0.18443119505E+04  0.18443119505E+04  0.50400001928E-02 0. -1.
    10030    2    1    2    0    0  0.00000000000E+00  0.00000000000E+00 -0.11087598443E+04  0.25798640568E+04  0.23294527597E+04 0.  0.
        4    1    3    3  502    0  0.44006108094E+03  0.25012799515E+03  0.60736804596E+03  0.79064234966E+03  0.12699999809E+01 0.  1.
       -4    1    3    3    0  502 -0.44006108094E+03 -0.25012799515E+03 -0.17161278902E+04  0.17892217072E+04  0.12699999809E+01 0. -1.
</event>
<event>
 5   0  0.2345143E-05  0.2508864E+04  0.7818609E-02  0.8399834E-01
        2   -1    0    0  501    0  0.00000000000E+00  0.00000000000E+00  0.18514916317E+04  0.18514916317E+04  0.25500000920E-02 0.  1.
       -2   -1    0    0    0  501  0.00000000000E+00  0.00000000000E+00 -0.84990915196E+03  0.84990915197E+03  0.25500000920E-02 0. -1.
    10030    2    1    2    0    0  0.00000000000E+00  0.00000000000E+00  0.10015824797E+04  0.27014007837E+04  0.25088640318E+04 0.  0.
        5    1    3    3  502    0 -0.46063340082E+03  0.64167654716E+03  0.15500743752E+04  0.17397369284E+04  0.46999998093E+01 0.  1.
       -5    1    3    3    0  502  0.46063340082E+03 -0.64167654716E+03 -0.54849189552E+03  0.96166385529E+03  0.46999998093E+01 0. -1.
</event>
<event>
 5   0  0.2441340E-05  0.2775011E+04  0.7818609E-02  0.8311069E-01
       -2   -1    0    0    0  501  0.00000000000E+00  0.00000000000E+00  0.84754109260E+03  0.84754109261E+03  0.25500000920E-02 0.  1.
        2   -1    0    0  501    0  0.00000000000E+00  0.00000000000E+00 -0.22714791015E+04  0.22714791015E+04  0.25500000920E-02 0. -1.
    10030    2    1    2    0    0  0.00000000000E+00  0.00000000000E+00 -0.14239380089E+04  0.31190201941E+04  0.27750112645E+04 0.  0.
        3    1    3    3  502    0 -0.12595139389E+04  0.45890709495E+03 -0.30953119280E+03  0.13757836507E+04  0.10100000352E+00 0.  1.
       -3    1    3    3    0  502  0.12595139389E+04 -0.45890709495E+03 -0.11144068161E+04  0.17432365433E+04  0.10100000352E+00 0. -1.
</event>
<event>
 5   0  0.2432309E-05  0.2504031E+04  0.7818609E-02  0.8401551E-01
        2   -1    0    0  501    0  0.00000000000E+00  0.00000000000E+00  0.16700456354E+04  0.16700456354E+04  0.25500000920E-02 0. -1.
       -2   -1    0    0    0  501  0.00000000000E+00  0.00000000000E+00 -0.93862275673E+03  0.93862275674E+03  0.25500000920E-02 0.  1.
    10030    2    1    2    0    0  0.00000000000E+00  0.00000000000E+00  0.73142287863E+03  0.26086683921E+04  0.25040310207E+04 0.  0.
        4    1    3    3  502    0  0.14193448417E+03 -0.69128556187E+03  0.14431031918E+04  0.16064151272E+04  0.12699999809E+01 0. -1.
       -4    1    3    3    0  502 -0.14193448417E+03  0.69128556187E+03 -0.71168031320E+03  0.10022532649E+04  0.12699999809E+01 0.  1.
</event>
<event>
 5   0  0.1010338E-05  0.2518889E+04  0.7818609E-02  0.8396287E-01
       -1   -1    0    0    0  501  0.00000000000E+00  0.00000000000E+00  0.77891852012E+03  0.77891852013E+03  0.50400001928E-02 0.  1.
        1   -1    0    0  501    0  0.00000000000E+00  0.00000000000E+00 -0.20364134494E+04  0.20364134494E+04  0.50400001928E-02 0. -1.
    10030    2    1    2    0    0  0.00000000000E+00  0.00000000000E+00 -0.12574949293E+04  0.28153319695E+04  0.25188887632E+04 0.  0.
        2    1    3    3  502    0  0.39432960715E+02 -0.45806914366E+03  0.68177118095E+03  0.82231030757E+03  0.25500000920E-02 0.  1.
       -2    1    3    3    0  502 -0.39432960715E+02  0.45806914366E+03 -0.19392661102E+04  0.19930216620E+04  0.25500000920E-02 0. -1.
</event>
<event>
 5   0  0.2345143E-05  0.2531088E+04  0.7818609E-02  0.8391993E-01
       -2   -1    0    0    0  501  0.00000000000E+00  0.00000000000E+00  0.10818467675E+04  0.10818467675E+04  0.25500000920E-02 0.  1.
        2   -1    0    0  501    0  0.00000000000E+00  0.00000000000E+00 -0.14804327164E+04  0.14804327164E+04  0.25500000920E-02 0. -1.
    10030    2    1    2    0    0  0.00000000000E+00  0.00000000000E+00 -0.39858594888E+03  0.25622794839E+04  0.25310877889E+04 0.  0.
        5    1    3    3  502    0  0.49699831582E+03 -0.98979157641E+03 -0.81911652331E+03  0.13775589495E+04  0.46999998093E+01 0. -1.
       -5    1    3    3    0  502 -0.49699831582E+03  0.98979157641E+03  0.42053057443E+03  0.11847205344E+04  0.46999998093E+01 0.  1.
</event>
<event>
 5   0  0.1002753E-05  0.2484009E+04  0.7818609E-02  0.8408705E-01
        1   -1    0    0  501    0  0.00000000000E+00  0.00000000000E+00  0.90593582864E+03  0.90593582865E+03  0.50400001928E-02 0. -1.
       -1   -1    0    0    0  501  0.00000000000E+00  0.00000000000E+00 -0.17027421676E+04  0.17027421676E+04  0.50400001928E-02 0.  1.
    10030    2    1    2    0    0  0.00000000000E+00  0.00000000000E+00 -0.79680633897E+03  0.26086779963E+04  0.24840089666E+04 0.  0.
        5    1    3    3  502    0  0.37345155734E+03  0.60021435772E+03 -0.14708456605E+04  0.16319106556E+04  0.46999998093E+01 0.  1.
       -5    1    3    3    0  502 -0.37345155734E+03 -0.60021435772E+03  0.67403932150E+03  0.97676734068E+03  0.46999998093E+01 0. -1.
</event>
<event>
 5   0  0.2432309E-05  0.2509833E+04  0.7818609E-02  0.8399491E-01
       -2   -1    0    0    0  501  0.00000000000E+00  0.00000000000E+00  0.14637548923E+04  0.14637548923E+04  0.25500000920E-02 0.  1.
        2   -1    0    0  501    0  0.00000000000E+00  0.00000000000E+00 -0.10758740846E+04  0.10758740846E+04  0.25500000920E-02 0. -1.
    10030    2    1    2    0    0  0.00000000000E+00  0.00000000000E+00  0.38788080774E+03  0.25396289769E+04  0.25098334246E+04 0.  0.
        4    1    3    3  502    0  0.50887735903E+03 -0.89437409823E+03 -0.53288568598E+03  0.11588054027E+04  0.12699999809E+01 0. -1.
       -4    1    3    3    0  502 -0.50887735903E+03  0.89437409823E+03  0.92076649372E+03  0.13808235742E+04  0.12699999809E+01 0.  1.
</event>
<event>
 5   0  0.1008073E-05  0.2268408E+04  0.7818609E-02  0.8490482E-01
       -1   -1    0    0    0  501  0.00000000000E+00  0.00000000000E+00  0.11626234807E+04  0.11626234807E+04  0.50400001928E-02 0. -1.
        1   -1    0    0  501    0  0.00000000000E+00  0.00000000000E+00 -0.11064796224E+04  0.11064796225E+04  0.50400001928E-02 0.  1.
    10030    2    1    2    0    0  0.00000000000E+00  0.00000000000E+00  0.56143858278E+02  0.22691031032E+04  0.22684084200E+04 0.  0.
        1    1    3    3  502    0  0.91920806744E+03  0.64586618788E+03  0.18410875727E+03  0.11384123323E+04  0.50400001928E-02 0.  1.
       -1    1    3    3    0  502 -0.91920806744E+03 -0.64586618788E+03 -0.12796489899E+03  0.11306907708E+04  0.50400001928E-02 0. -1.
</event>
<event>
 5   0  0.2345143E-05  0.2109378E+04  0.7818609E-02  0.8557123E-01
        2   -1    0    0  501    0  0.00000000000E+00  0.00000000000E+00  0.12015100566E+04  0.12015100566E+04  0.25500000920E-02 0.  1.
       -2   -1    0    0    0  501  0.00000000000E+00  0.00000000000E+00 -0.92580923910E+03  0.92580923911E+03  0.25500000920E-02 0. -1.
    10030    2    1    2    0    0  0.00000000000E+00  0.00000000000E+00  0.27570081751E+03  0.21273192957E+04  0.21093782129E+04 0.  0.
        5    1    3    3  502    0 -0.31583900974E+02 -0.63371345032E+02 -0.92339897911E+03  0.92612160907E+03  0.46999998093E+01 0. -1.
       -5    1    3    3    0  502  0.31583900974E+02  0.63371345032E+02  0.11990997966E+04  0.12011976867E+04  0.46999998093E+01 0.  1.
</event>
<event>
 5   0  0.1002753E-05  0.2469113E+04  0.7818609E-02  0.8414073E-01
       -1   -1    0    0    0  501  0.00000000000E+00  0.00000000000E+00  0.13198145918E+04  0.13198145919E+04  0.50400001928E-02 0.  1.
        1   -1    0    0  501    0  0.00000000000E+00  0.00000000000E+00 -0.11548058249E+04  0.11548058249E+04  0.50400001928E-02 0. -1.
    10030    2    1    2    0    0  0.00000000000E+00  0.00000000000E+00  0.16500876691E+03  0.24746204168E+04  0.24691128597E+04 0.  0.
        5    1    3    3  502    0  0.29057713953E+03 -0.16528734713E+03 -0.11085708740E+04  0.11578887916E+04  0.46999998093E+01 0. -1.
       -5    1    3    3    0  502 -0.29057713953E+03  0.16528734713E+03  0.12735796409E+04  0.13167316252E+04  0.46999998093E+01 0.  1.
</event>
<event>
 5   0  0.1002753E-05  0.2418935E+04  0.7818609E-02  0.8432448E-01
        1   -1    0    0  501    0  0.00000000000E+00  0.00000000000E+00  0.21504431708E+04  0.21504431708E+04  0.50400001928E-02 0. -1.
       -1   -1    0    0    0  501  0.00000000000E+00  0.00000000000E+00 -0.68023730815E+03  0.68023730816E+03  0.50400001928E-02 0.  1.
    10030    2    1    2    0    0  0.00000000000E+00  0.00000000000E+00  0.14702058627E+04  0.28306804790E+04  0.24189350333E+04 0.  0.
        5    1    3    3  502    0 -0.11624496583E+04 -0.97478444333E+02  0.11088374167E+04  0.16094513854E+04  0.46999998093E+01 0. -1.
       -5    1    3    3    0  502  0.11624496583E+04  0.97478444333E+02  0.36136844595E+03  0.12212290936E+04  0.46999998093E+01 0.  1.
</event>
<event>
 5   0  0.2345143E-05  0.2533002E+04  0.7818609E-02  0.8391322E-01
        2   -1    0    0  501    0  0.00000000000E+00  0.00000000000E+00  0.11236408633E+04  0.11236408633E+04  0.25500000920E-02 0.  1.
       -2   -1    0    0    0  501  0.00000000000E+00  0.00000000000E+00 -0.14275246718E+04  0.14275246718E+04  0.25500000920E-02 0. -1.
    10030    2    1    2    0    0  0.00000000000E+00  0.00000000000E+00 -0.30388380854E+03  0.25511655351E+04  0.25330022145E+04 0.  0.
        5    1    3    3  502    0 -0.60830766688E+02 -0.93720427737E+03  0.70382768272E+03  0.11736471943E+04  0.46999998093E+01 0.  1.
       -5    1    3    3    0  502  0.60830766688E+02  0.93720427737E+03 -0.10077114913E+04  0.13775183408E+04  0.46999998093E+01 0. -1.
</event>
<event>
 5   0  0.1008073E-05  0.2463859E+04  0.7818609E-02  0.8415975E-01
        1   -1    0    0  501    0  0.00000000000E+00  0.00000000000E+00  0.10865982491E+04  0.10865982492E+04  0.50400001928E-02 0.  1.
       -1   -1    0    0    0  501  0.00000000000E+00  0.00000000000E+00 -0.13966981932E+04  0.13966981933E+04  0.50400001928E-02 0. -1.
    10030    2    1    2    0    0  0.00000000000E+00  0.00000000000E+00 -0.31009994410E+03  0.24832964424E+04  0.24638586091E+04 0.  0.
        1    1    3    3  502    0  0.10038442373E+03  0.59527017750E+03  0.92730579074E+03  0.11064897859E+04  0.50400001928E-02 0.  1.
       -1    1    3    3    0  502 -0.10038442373E+03 -0.59527017750E+03 -0.12374057348E+04  0.13768066565E+04  0.50400001928E-02 0. -1.
</event>
<event>
 5   0  0.1015327E-05  0.2514739E+04  0.7818609E-02  0.8397753E-01
       -1   -1    0    0    0  501  0.00000000000E+00  0.00000000000E+00  0.91706653749E+03  0.91706653750E+03  0.50400001928E-02 0. -1.
        1   -1    0    0  501    0  0.00000000000E+00  0.00000000000E+00 -0.17239518235E+04  0.17239518235E+04  0.50400001928E-02 0.  1.
    10030    2    1    2    0    0  0.00000000000E+00  0.00000000000E+00 -0.80688528598E+03  0.26410183610E+04  0.25147393738E+04 0.  0.
        4    1    3    3  502    0  0.15002098726E+03  0.62493104108E+03 -0.15384199628E+04  0.16672680341E+04  0.12699999809E+01 0.  1.
       -4    1    3    3    0  502 -0.15002098726E+03 -0.62493104108E+03  0.73153467683E+03  0.97375032685E+03  0.12699999809E+01 0. -1.
</event>
<event>
 5   0  0.1002753E-05  0.2515211E+04  0.7818609E-02  0.8397586E-01
        1   -1    0    0  501    0  0.00000000000E+00  0.00000000000E+00  0.21969355594E+04  0.21969355594E+04  0.50400001928E-02 0. -1.
       -1   -1    0    0    0  501  0.00000000000E+00  0.00000000000E+00 -0.71989922249E+03  0.71989922251E+03  0.50400001928E-02 0.  1.
    10030    2    1    2    0    0  0.00000000000E+00  0.00000000000E+00  0.14770363369E+04  0.29168347820E+04  0.25152114831E+04 0.  0.
        5    1    3    3  502    0 -0.10924707745E+04  0.57163626177E+03  0.45141956601E+03  0.13130354616E+04  0.46999998093E+01 0.  1.
       -5    1    3    3    0  502  0.10924707745E+04 -0.57163626177E+03  0.10256167709E+04  0.16037993203E+04  0.46999998093E+01 0. -1.
</event>
<event>
 5   0  0.1015327E-05  0.2499245E+04  0.7818609E-02  0.8403255E-01
        1   -1    0    0  501    0  0.00000000000E+00  0.00000000000E+00  0.11336842722E+04  0.11336842722E+04  0.50400001928E-02 0.  1.
       -1   -1    0    0    0  501  0.00000000000E+00  0.00000000000E+00 -0.13774170845E+04  0.13774170845E+04  0.50400001928E-02 0. -1.
    10030    2    1    2    0    0  0.00000000000E+00  0.00000000000E+00 -0.24373281233E+03  0.25111013567E+04  0.24992447539E+04 0.  0.
        4    1    3    3  502    0  0.26369455567E+03  0.65977957033E+03 -0.11547074304E+04  0.13558004141E+04  0.12699999809E+01 0. -1.
       -4    1    3    3    0  502 -0.26369455567E+03 -0.65977957033E+03  0.91097461811E+03  0.11553009425E+04  0.12699999809E+01 0.  1.
</event>
<event>
 5   0  0.1015327E-05  0.2441374E+04  0.7818609E-02  0.8424174E-01
        1   -1    0    0  501    0  0.00000000000E+00  0.00000000000E+00  0.12302255951E+04  0.12302255951E+04  0.50400001928E-02 0.  1.
       -1   -1    0    0    0  501  0.00000000000E+00  0.00000000000E+00 -0.12112227044E+04  0.12112227044E+04  0.50400001928E-02 0. -1.
    10030    2    1    2    0    0  0.00000000000E+00  0.00000000000E+00  0.19002890705E+02  0.24414482994E+04  0.24413743443E+04 0.  0.
        4    1    3    3  502    0 -0.75028325084E+03  0.87694412549E+03 -0.38815315783E+03  0.12176290250E+04  0.12699999809E+01 0. -1.
       -4    1    3    3    0  502  0.75028325084E+03 -0.87694412549E+03  0.40715604853E+03  0.12238192744E+04  0.12699999809E+01 0.  1.
</event>
<event>
 5   0  0.1015327E-05  0.2518064E+04  0.7818609E-02  0.8396578E-01
        1   -1    0    0  501    0  0.00000000000E+00  0.00000000000E+00  0.11903827289E+04  0.11903827290E+04  0.50400001928E-02 0. -1.
       -1   -1    0    0    0  501  0.00000000000E+00  0.00000000000E+00 -0.13316399416E+04  0.13316399417E+04  0.50400001928E-02 0.  1.
    10030    2    1    2    0    0  0.00000000000E+00  0.00000000000E+00 -0.14125721270E+03  0.25220226706E+04  0.25180636908E+04 0.  0.
        4    1    3    3  502    0 -0.11649592766E+04  0.28611963633E+03  0.31228781299E+03  0.12395643806E+04  0.12699999809E+01 0. -1.
       -4    1    3    3    0  502  0.11649592766E+04 -0.28611963633E+03 -0.45354502569E+03  0.12824582901E+04  0.12699999809E+01 0.  1.
</event>
<event>
 5   0  0.1039688E-05  0.2499331E+04  0.7818609E-02  0.8403224E-01
       -1   -1    0    0    0  501  0.00000000000E+00  0.00000000000E+00  0.66630379641E+03  0.66630379643E+03  0.50400001928E-02 0. -1.
        1   -1    0    0  501    0  0.00000000000E+00  0.00000000000E+00 -0.23437722976E+04  0.23437722976E+04  0.50400001928E-02 0.  1.
    10030    2    1    2    0    0  0.00000000000E+00  0.00000000000E+00 -0.16774685012E+04  0.30100760940E+04  0.24993314145E+04 0.  0.
        3    1    3    3  502    0  0.53000033734E+03 -0.72448396282E+03  0.20835105450E+03  0.92151372322E+03  0.10100000352E+00 0. -1.
       -3    1    3    3    0  502 -0.53000033734E+03  0.72448396282E+03 -0.18858195557E+04  0.20885623708E+04  0.10100000352E+00 0.  1.
</event>
<event>
 5   0  0.2388326E-05  0.2431720E+04  0.7818609E-02  0.8427723E-01
       -2   -1    0    0    0  501  0.00000000000E+00  0.00000000000E+00  0.17627284391E+04  0.17627284391E+04  0.25500000920E-02 0. -1.
        2   -1    0    0  501    0  0.00000000000E+00  0.00000000000E+00 -0.83865161347E+03  0.83865161347E+03  0.25500000920E-02 0.  1.
    10030    2    1    2    0    0  0.00000000000E+00  0.00000000000E+00  0.92407682559E+03  0.26013800525E+04  0.24317195969E+04 0.  0.
        2    1    3    3  502    0 -0.31676293781E+03 -0.12625549659E+03  0.17105270062E+04  0.17441851530E+04  0.25500000920E-02 0. -1.
       -2    1    3    3    0  502  0.31676293781E+03  0.12625549659E+03 -0.78645018059E+03  0.85719489951E+03  0.25500000920E-02 0.  1.
</event>
<event>
 5   0  0.1039688E-05  0.2487301E+04  0.7818609E-02  0.8407524E-01
       -1   -1    0    0    0  501  0.00000000000E+00  0.00000000000E+00  0.13288193424E+04  0.13288193424E+04  0.50400001928E-02 0. -1.
        1   -1    0    0  501    0  0.00000000000E+00  0.00000000000E+00 -0.11639406253E+04  0.11639406253E+04  0.50400001928E-02 0.  1.
    10030    2    1    2    0    0  0.00000000000E+00  0.00000000000E+00  0.16487871704E+03  0.24927599677E+04  0.24873012012E+04 0.  0.
        3    1    3    3  502    0 -0.61723676721E+03 -0.72743467051E+03 -0.71713637108E+03  0.11934936161E+04  0.10100000352E+00 0.  1.
       -3    1    3    3    0  502  0.61723676721E+03  0.72743467051E+03  0.88201508812E+03  0.12992663517E+04  0.10100000352E+00 0. -1.
</event>
<event>
 5   0  0.1008073E-05  0.2502898E+04  0.7818609E-02  0.8401954E-01
        1   -1    0    0  501    0  0.00000000000E+00  0.00000000000E+00  0.13145434575E+04  0.13145434575E+04  0.50400001928E-02 0.  1.
       -1   -1    0    0    0  501  0.00000000000E+00  0.00000000000E+00 -0.11913831288E+04  0.11913831288E+04  0.50400001928E-02 0. -1.
    10030    2    1    2    0    0  0.00000000000E+00  0.00000000000E+00  0.12316032869E+03  0.25059265864E+04  0.25028982380E+04 0.  0.
        1    1    3    3  502    0 -0.11660430821E+04  0.44944339663E+03 -0.53517591289E+01  0.12496737484E+04  0.50400001928E-02 0. -1.
       -1    1    3    3    0  502  0.11660430821E+04 -0.44944339663E+03  0.12851208782E+03  0.12562528379E+04  0.50400001928E-02 0.  1.
</event>
<event>
 5   0  0.2345143E-05  0.2512742E+04  0.7818609E-02  0.8398460E-01
        2   -1    0    0  501    0  0.00000000000E+00  0.00000000000E+00  0.16625481478E+04  0.16625481478E+04  0.25500000920E-02 0.  1.
       -2   -1    0    0    0  501  0.00000000000E+00  0.00000000000E+00 -0.94942676476E+03  0.94942676476E+03  0.25500000920E-02 0. -1.
    10030    2    1    2    0    0  0.00000000000E+00  0.00000000000E+00  0.71312138306E+03  0.26119749126E+04  0.25127416972E+04 0.  0.
        5    1    3    3  502    0 -0.40681617372E+03  0.18235304867E+03  0.15775517325E+04  0.16393424267E+04  0.46999998093E+01 0.  1.
       -5    1    3    3    0  502  0.40681617372E+03 -0.18235304867E+03 -0.86443034939E+03  0.97263248584E+03  0.46999998093E+01 0. -1.
</event>
<event>
 5   0  0.1010338E-05  0.2504391E+04  0.7818609E-02  0.8401423E-01
        1   -1    0    0  501    0  0.00000000000E+00  0.00000000000E+00  0.15271980983E+04  0.15271980983E+04  0.50400001928E-02 0.  1.
       -1   -1    0    0    0  501  0.00000000000E+00  0.00000000000E+00 -0.10267130287E+04  0.10267130288E+04  0.50400001928E-02 0. -1.
    10030    2    1    2    0    0  0.00000000000E+00  0.00000000000E+00  0.50048506951E+03  0.25539111270E+04  0.25043914910E+04 0.  0.
        2    1    3    3  502    0  0.10242235218E+03  0.42134148774E+03  0.14481939396E+04  0.15117158047E+04  0.25500000920E-02 0.  1.
       -2    1    3    3    0  502 -0.10242235218E+03 -0.42134148774E+03 -0.94770887006E+03  0.10421953223E+04  0.25500000920E-02 0. -1.
</event>
<event>
 5   0  0.1002753E-05  0.2526941E+04  0.7818609E-02  0.8393450E-01
        1   -1    0    0  501    0  0.00000000000E+00  0.00000000000E+00  0.19942114853E+04  0.19942114853E+04  0.50400001928E-02 0.  1.
       -1   -1    0    0    0  501  0.00000000000E+00  0.00000000000E+00 -0.80049540800E+03  0.80049540802E+03  0.50400001928E-02 0. -1.
    10030    2    1    2    0    0  0.00000000000E+00  0.00000000000E+00  0.11937160773E+04  0.27947068933E+04  0.25269405506E+04 0.  0.
        5    1    3    3  502    0 -0.10000648454E+04 -0.69976421757E+03  0.95784223928E+03  0.15515422974E+04  0.46999998093E+01 0.  1.
       -5    1    3    3    0  502  0.10000648454E+04  0.69976421757E+03  0.23587383799E+03  0.12431645959E+04  0.46999998093E+01 0. -1.
</event>
<event>
 5   0  0.1015327E-05  0.2468069E+04  0.7818609E-02  0.8414450E-01
       -1   -1    0    0    0  501  0.00000000000E+00  0.00000000000E+00  0.11170135367E+04  0.11170135367E+04  0.50400001928E-02 0. -1.
        1   -1    0    0  501    0  0.00000000000E+00  0.00000000000E+00 -0.13633152950E+04  0.13633152950E+04  0.50400001928E-02 0.  1.
    10030    2    1    2    0    0  0.00000000000E+00  0.00000000000E+00 -0.24630175830E+03  0.24803288318E+04  0.24680693988E+04 0.  0.
        4    1    3    3  502    0  0.51736837579E+03 -0.82196174820E+03  0.64191164282E+03  0.11641921327E+04  0.12699999809E+01 0. -1.
       -4    1    3    3    0  502 -0.51736837579E+03  0.82196174820E+03 -0.88821340112E+03  0.13161366991E+04  0.12699999809E+01 0.  1.
</event>
<event>
 5   0  0.1015327E-05  0.2527850E+04  0.7818609E-02  0.8393130E-01
       -1   -1    0    0    0  501  0.00000000000E+00  0.00000000000E+00  0.86402300227E+03  0.86402300229E+03  0.50400001928E-02 0. -1.
        1   -1    0    0  501    0  0.00000000000E+00  0.00000000000E+00 -0.18489165879E+04  0.18489165879E+04  0.50400001928E-02 0.  1.
    10030    2    1    2    0    0  0.00000000000E+00  0.00000000000E+00 -0.98489358559E+03  0.27129395902E+04  0.25278500440E+04 0.  0.
        4    1    3    3  502    0 -0.92510554183E+03  0.80818646659E+03 -0.17314040615E+03  0.12405502172E+04  0.12699999809E+01 0. -1.
       -4    1    3    3    0  502  0.92510554183E+03 -0.80818646659E+03 -0.81175317944E+03  0.14723893729E+04  0.12699999809E+01 0.  1.
</event>
<event>
 5   0  0.2432309E-05  0.2498159E+04  0.7818609E-02  0.8403642E-01
        2   -1    0    0  501    0  0.00000000000E+00  0.00000000000E+00  0.12604898355E+04  0.12604898355E+04  0.25500000920E-02 0. -1.
       -2   -1    0    0    0  501  0.00000000000E+00  0.00000000000E+00 -0.12377725683E+04  0.12377725683E+04  0.25500000920E-02 0.  1.
    10030    2    1    2    0    0  0.00000000000E+00  0.00000000000E+00  0.22717267159E+02  0.24982624038E+04  0.24981591150E+04 0.  0.
        4    1    3    3  502    0 -0.29917754682E+03  0.10030293816E+04  0.69301940305E+03  0.12553296980E+04  0.12699999809E+01 0. -1.
       -4    1    3    3    0  502  0.29917754682E+03 -0.10030293816E+04 -0.67030213589E+03  0.12429327058E+04  0.12699999809E+01 0.  1.
</event>
<event>
 5   0  0.1039688E-05  0.2513012E+04  0.7818609E-02  0.8398365E-01
       -1   -1    0    0    0  501  0.00000000000E+00  0.00000000000E+00  0.13426592135E+04  0.13426592135E+04  0.50400001928E-02 0.  1.
        1   -1    0    0  501    0  0.00000000000E+00  0.00000000000E+00 -0.11758804961E+04  0.11758804961E+04  0.50400001928E-02 0. -1.
    10030    2    1    2    0    0  0.00000000000E+00  0.00000000000E+00  0.16677871742E+03  0.25185397096E+04  0.25130115655E+04 0.  0.
        3    1    3    3  502    0  0.53105151348E+03  0.80108018624E+03 -0.72774983228E+03  0.12055558898E+04  0.10100000352E+00 0. -1.
       -3    1    3    3    0  502 -0.53105151348E+03 -0.80108018624E+03  0.89452854970E+03  0.13129838198E+04  0.10100000352E+00 0.  1.
</event>
<event>
 5   0  0.2388326E-05  0.2450244E+04  0.7818609E-02  0.8420929E-01
        2   -1    0    0  501    0  0.00000000000E+00  0.00000000000E+00  0.10701274670E+04  0.10701274670E+04  0.25500000920E-02 0. -1.
       -2   -1    0    0    0  501  0.00000000000E+00  0.00000000000E+00 -0.14025654957E+04  0.14025654957E+04  0.25500000920E-02 0.  1.
    10030    2    1    2    0    0  0.00000000000E+00  0.00000000000E+00 -0.33243802873E+03  0.24726929626E+04  0.24502439561E+04 0.  0.
        2    1    3    3  502    0 -0.29062958581E+03  0.55380346920E+03 -0.12293221624E+04  0.13792740183E+04  0.25500000920E-02 0.  1.
       -2    1    3    3    0  502  0.29062958581E+03 -0.55380346920E+03  0.89688413364E+03  0.10934189443E+04  0.25500000920E-02 0. -1.
</event>
<event>
 5   0  0.2345143E-05  0.2496201E+04  0.7818609E-02  0.8404340E-01
        2   -1    0    0  501    0  0.00000000000E+00  0.00000000000E+00  0.15798240990E+04  0.15798240990E+04  0.25500000920E-02 0.  1.
       -2   -1    0    0    0  501  0.00000000000E+00  0.00000000000E+00 -0.98603021349E+03  0.98603021350E+03  0.25500000920E-02 0. -1.
    10030    2    1    2    0    0  0.00000000000E+00  0.00000000000E+00  0.59379388546E+03  0.25658543125E+04  0.24962005477E+04 0.  0.
        5    1    3    3  502    0  0.82570610181E+03 -0.24710500530E+03 -0.63099958554E+03  0.10681919383E+04  0.46999998093E+01 0. -1.
       -5    1    3    3    0  502 -0.82570610181E+03  0.24710500530E+03  0.12247934710E+04  0.14976623741E+04  0.46999998093E+01 0.  1.
</event>
<event>
 5   0  0.2441340E-05  0.2492122E+04  0.7818609E-02  0.8405798E-01
       -2   -1    0    0    0  501  0.00000000000E+00  0.00000000000E+00  0.64690704515E+03  0.64690704515E+03  0.25500000920E-02 0.  1.
        2   -1    0    0  501    0  0.00000000000E+00  0.00000000000E+00 -0.24001400302E+04  0.24001400302E+04  0.25500000920E-02 0. -1.
    10030    2    1    2    0    0  0.00000000000E+00  0.00000000000E+00 -0.17532329851E+04  0.30470470754E+04  0.24921215820E+04 0.  0.
        3    1    3    3  502    0  0.55274381625E+03 -0.54344207409E+02 -0.22404238312E+04  0.23082413160E+04  0.10100000352E+00 0. -1.
       -3    1    3    3    0  502 -0.55274381625E+03  0.54344207409E+02  0.48719084615E+03  0.73880575935E+03  0.10100000352E+00 0.  1.
</event>
<event>
 5   0  0.1010338E-05  0.2484502E+04  0.7818609E-02  0.8408528E-01
        1   -1    0    0  501    0  0.00000000000E+00  0.00000000000E+00  0.18384481674E+04  0.18384481674E+04  0.50400001928E-02 0.  1.
       -1   -1    0    0    0  501  0.00000000000E+00  0.00000000000E+00 -0.83939690035E+03  0.83939690037E+03  0.50400001928E-02 0. -1.
    10030    2    1    2    0    0  0.00000000000E+00  0.00000000000E+00  0.99905126708E+03  0.26778450678E+04  0.24845021177E+04 0.  0.
        2    1    3    3  502    0 -0.36809022735E+03  0.85455842445E+03 -0.38758417871E+03  0.10079593305E+04  0.25500000920E-02 0. -1.
       -2    1    3    3    0  502  0.36809022735E+03 -0.85455842445E+03  0.13866354458E+04  0.16698857374E+04  0.25500000920E-02 0.  1.
</event>
<event>
 5   0  0.2441340E-05  0.2004104E+04  0.7818609E-02  0.8604704E-01
       -2   -1    0    0    0  501  0.00000000000E+00  0.00000000000E+00  0.85418228958E+03  0.85418228959E+03  0.25500000920E-02 0.  1.
        2   -1    0    0  501    0  0.00000000000E+00  0.00000000000E+00 -0.11755199444E+04  0.11755199444E+04  0.25500000920E-02 0. -1.
    10030    2    1    2    0    0  0.00000000000E+00  0.00000000000E+00 -0.32133765478E+03  0.20297022340E+04  0.20041041066E+04 0.  0.
        3    1    3    3  502    0  0.21446963544E+03 -0.84238359600E+03 -0.66553478425E+03  0.10947803006E+04  0.10100000352E+00 0. -1.
       -3    1    3    3    0  502 -0.21446963544E+03  0.84238359600E+03  0.34419712947E+03  0.93492193335E+03  0.10100000352E+00 0.  1.
</event>
<event>
 5   0  0.1002753E-05  0.2512020E+04  0.7818609E-02  0.8398716E-01
        1   -1    0    0  501    0  0.00000000000E+00  0.00000000000E+00  0.14280206882E+04  0.14280206882E+04  0.50400001928E-02 0.  1.
       -1   -1    0    0    0  501  0.00000000000E+00  0.00000000000E+00 -0.11047182500E+04  0.11047182500E+04  0.50400001928E-02 0. -1.
    10030    2    1    2    0    0  0.00000000000E+00  0.00000000000E+00  0.32330243821E+03  0.25327389383E+04  0.25120195188E+04 0.  0.
        5    1    3    3  502    0  0.26864925114E+03  0.59300757351E+03 -0.92131615746E+03  0.11281294050E+04  0.46999998093E+01 0. -1.
       -5    1    3    3    0  502 -0.26864925114E+03 -0.59300757351E+03  0.12446185957E+04  0.14046095333E+04  0.46999998093E+01 0.  1.
</event>
<event>
 5   0  0.1039688E-05  0.2474390E+04  0.7818609E-02  0.8412167E-01
        1   -1    0    0  501    0  0.00000000000E+00  0.00000000000E+00  0.12289993343E+04  0.12289993343E+04  0.50400001928E-02 0. -1.
       -1   -1    0    0    0  501  0.00000000000E+00  0.00000000000E+00 -0.12454448184E+04  0.12454448184E+04  0.50400001928E-02 0.  1.
    10030    2    1    2    0    0  0.00000000000E+00  0.00000000000E+00 -0.16445484072E+02  0.24744441527E+04  0.24743895027E+04 0.  0.
        3    1    3    3  502    0 -0.36717782885E+03 -0.23148203882E+03  0.11503568372E+04  0.12295220028E+04  0.10100000352E+00 0. -1.
       -3    1    3    3    0  502  0.36717782885E+03  0.23148203882E+03 -0.11668023213E+04  0.12449221499E+04  0.10100000352E+00 0.  1.
</event>
<event>
 5   0  0.1008073E-05  0.2492352E+04  0.7818609E-02  0.8405715E-01
       -1   -1    0    0    0  501  0.00000000000E+00  0.00000000000E+00  0.86303805004E+03  0.86303805005E+03  0.50400001928E-02 0. -1.
        1   -1    0    0  501    0  0.00000000000E+00  0.00000000000E+00 -0.17994039215E+04  0.17994039215E+04  0.50400001928E-02 0.  1.
    10030    2    1    2    0    0  0.00000000000E+00  0.00000000000E+00 -0.93636587145E+03  0.26624419715E+04  0.24923515415E+04 0.  0.
        1    1    3    3  502    0 -0.25556075666E+03 -0.11704647646E+03 -0.17650969348E+04  0.17873383472E+04  0.50400001928E-02 0.  1.
       -1    1    3    3    0  502  0.25556075666E+03  0.11704647646E+03  0.82873106336E+03  0.87510362437E+03  0.50400001928E-02 0. -1.
</event>
<event>
 5   0  0.2432309E-05  0.2509105E+04  0.7818609E-02  0.8399749E-01
        2   -1    0    0  501    0  0.00000000000E+00  0.00000000000E+00  0.11342435875E+04  0.11342435875E+04  0.25500000920E-02 0. -1.
       -2   -1    0    0    0  501  0.00000000000E+00  0.00000000000E+00 -0.13876221446E+04  0.13876221446E+04  0.25500000920E-02 0.  1.
    10030    2    1    2    0    0  0.00000000000E+00  0.00000000000E+00 -0.25337855705E+03  0.25218657321E+04  0.25091046366E+04 0.  0.
        4    1    3    3  502    0  0.38183031471E+02 -0.32914581285E+03 -0.13428453121E+04  0.13831232971E+04  0.12699999809E+01 0.  1.
       -4    1    3    3    0  502 -0.38183031471E+02  0.32914581285E+03  0.10894667550E+04  0.11387424350E+04  0.12699999809E+01 0. -1.
</event>
<event>
 5   0  0.1015327E-05  0.2483744E+04  0.7818609E-02  0.8408800E-01
       -1   -1    0    0    0  501  0.00000000000E+00  0.00000000000E+00  0.79795651566E+03  0.79795651568E+03  0.50400001928E-02 0.  1.
        1   -1    0    0  501    0  0.00000000000E+00  0.00000000000E+00 -0.19327446453E+04  0.19327446453E+04  0.50400001928E-02 0. -1.
    10030    2    1    2    0    0  0.00000000000E+00  0.00000000000E+00 -0.11347881297E+04  0.27307011610E+04  0.24837440954E+04 0.  0.
        4    1    3    3  502    0 -0.77007758144E+02  0.56829020884E+03  0.64365649288E+03  0.86207844771E+03  0.12699999809E+01 0.  1.
       -4    1    3    3    0  502  0.77007758144E+02 -0.56829020884E+03 -0.17784446225E+04  0.18686227133E+04  0.12699999809E+01 0. -1.
</event>
<event>
 5   0  0.8166500E-06  0.2447224E+04  0.7818609E-02  0.8422032E-01
       -4   -1    0    0    0  501  0.00000000000E+00  0.00000000000E+00  0.12453911832E+04  0.12453918308E+04  0.12699999809E+01 0. -1.
        4   -1    0    0  501    0  0.00000000000E+00  0.00000000000E+00 -0.12022127203E+04  0.12022133911E+04  0.12699999809E+01 0.  1.
    10030    2    1    2    0    0  0.00000000000E+00  0.00000000000E+00  0.43178462905E+02  0.24476052219E+04  0.24472243343E+04 0.  0.
        1    1    3    3  502    0  0.94244531031E+03  0.67828796386E+03  0.40758842753E+03  0.12306120636E+04  0.50400001928E-02 0. -1.
       -1    1    3    3    0  502 -0.94244531031E+03 -0.67828796386E+03 -0.36440996463E+03  0.12169931582E+04  0.50400001928E-02 0.  1.
</event>
<event>
 5   0  0.1002753E-05  0.2529907E+04  0.7818609E-02  0.8392408E-01
       -1   -1    0    0    0  501  0.00000000000E+00  0.00000000000E+00  0.97934251005E+03  0.97934251006E+03  0.50400001928E-02 0. -1.
        1   -1    0    0  501    0  0.00000000000E+00  0.00000000000E+00 -0.16338583317E+04  0.16338583317E+04  0.50400001928E-02 0.  1.
    10030    2    1    2    0    0  0.00000000000E+00  0.00000000000E+00 -0.65451582169E+03  0.26132008418E+04  0.25299066542E+04 0.  0.
        5    1    3    3  502    0 -0.92666340795E+03  0.75826581559E+03 -0.74862590021E+03  0.14121384306E+04  0.46999998093E+01 0.  1.
       -5    1    3    3    0  502  0.92666340795E+03 -0.75826581559E+03  0.94110078519E+02  0.12010624112E+04  0.46999998093E+01 0. -1.
</event>
<event>
 5   0  0.2388326E-05  0.2574726E+04  0.7818609E-02  0.8376837E-01
        2   -1    0    0  501    0  0.00000000000E+00  0.00000000000E+00  0.18731964426E+04  0.18731964426E+04  0.25500000920E-02 0. -1.
       -2   -1    0    0    0  501  0.00000000000E+00  0.00000000000E+00 -0.88474602795E+03  0.88474602796E+03  0.25500000920E-02 0.  1.
    10030    2    1    2    0    0  0.00000000000E+00  0.00000000000E+00  0.98845041461E+03  0.27579424705E+04  0.25747257036E+04 0.  0.
        2    1    3    3  502    0  0.21627331104E+03 -0.44611864870E+03  0.17668364935E+04  0.18350768890E+04  0.25500000920E-02 0. -1.
       -2    1    3    3    0  502 -0.21627331104E+03  0.44611864870E+03 -0.77838607888E+03  0.92286558153E+03  0.25500000920E-02 0.  1.
</event>
<event>
 5   0  0.2432309E-05  0.2481354E+04  0.7818609E-02  0.8409659E-01
        2   -1    0    0  501    0  0.00000000000E+00  0.00000000000E+00  0.71002855377E+03  0.71002855377E+03  0.25500000920E-02 0. -1.
       -2   -1    0    0    0  501  0.00000000000E+00  0.00000000000E+00 -0.21679120386E+04  0.21679120386E+04  0.25500000920E-02 0.  1.
    10030    2    1    2    0    0  0.00000000000E+00  0.00000000000E+00 -0.14578834849E+04  0.28779405924E+04  0.24813540251E+04 0.  0.
        4    1    3    3  502    0 -0.14755900744E+03 -0.17518048174E+03  0.68529365390E+03  0.72255855599E+03  0.12699999809E+01 0. -1.
       -4    1    3    3    0  502  0.14755900744E+03  0.17518048174E+03 -0.21431771388E+04  0.21553820364E+04  0.12699999809E+01 0.  1.
</event>
<event>
 5   0  0.2388326E-05  0.2510057E+04  0.7818609E-02  0.8399411E-01
        2   -1    0    0  501    0  0.00000000000E+00  0.00000000000E+00  0.19189535243E+04  0.19189535243E+04  0.25500000920E-02 0.  1.
       -2   -1    0    0    0  501  0.00000000000E+00  0.00000000000E+00 -0.82081046741E+03  0.82081046741E+03  0.25500000920E-02 0. -1.
    10030    2    1    2    0    0  0.00000000000E+00  0.00000000000E+00  0.10981430569E+04  0.27397639917E+04  0.25100574808E+04 0.  0.
        2    1    3    3  502    0 -0.59253638396E+02  0.27885215268E+03  0.18831449422E+04  0.19046008480E+04  0.25500000920E-02 0.  1.
       -2    1    3    3    0  502  0.59253638396E+02 -0.27885215268E+03 -0.78500188532E+03  0.83516314375E+03  0.25500000920E-02 0. -1.
</event>
<event>
 5   0  0.1015327E-05  0.2404064E+04  0.7818609E-02  0.8437984E-01
        1   -1    0    0  501    0  0.00000000000E+00  0.00000000000E+00  0.10554664150E+04  0.10554664151E+04  0.50400001928E-02 0.  1.
       -1   -1    0    0    0  501  0.00000000000E+00  0.00000000000E+00 -0.13689501589E+04  0.13689501589E+04  0.50400001928E-02 0. -1.
    10030    2    1    2    0    0  0.00000000000E+00  0.00000000000E+00 -0.31348374384E+03  0.24244165739E+04  0.24040639897E+04 0.  0.
        4    1    3    3  502    0 -0.10775712302E+04 -0.16784524180E+03 -0.66653861710E+03  0.12781264109E+04  0.12699999809E+01 0. -1.
       -4    1    3    3    0  502  0.10775712302E+04  0.16784524180E+03  0.35305487326E+03  0.11462901630E+04  0.12699999809E+01 0.  1.
</event>
<event>
 5   0  0.2345143E-05  0.2460221E+04  0.7818609E-02  0.8417296E-01
        2   -1    0    0  501    0  0.00000000000E+00  0.00000000000E+00  0.10469012283E+04  0.10469012283E+04  0.25500000920E-02 0. -1.
       -2   -1    0    0    0  501  0.00000000000E+00  0.00000000000E+00 -0.14453815131E+04  0.14453815131E+04  0.25500000920E-02 0.  1.
    10030    2    1    2    0    0  0.00000000000E+00  0.00000000000E+00 -0.39848028473E+03  0.24922827414E+04  0.24602208693E+04 0.  0.
        5    1    3    3  502    0  0.91342290853E+03 -0.82146239141E+03 -0.26337172505E+03  0.12563950915E+04  0.46999998093E+01 0.  1.
       -5    1    3    3    0  502 -0.91342290853E+03  0.82146239141E+03 -0.13510855967E+03  0.12358876499E+04  0.46999998093E+01 0. -1.
</event>
<event>
 5   0  0.1010338E-05  0.2503388E+04  0.7818609E-02  0.8401779E-01
        1   -1    0    0  501    0  0.00000000000E+00  0.00000000000E+00  0.16971862575E+04  0.16971862575E+04  0.50400001928E-02 0. -1.
       -1   -1    0    0    0  501  0.00000000000E+00  0.00000000000E+00 -0.92313879933E+03  0.92313879934E+03  0.50400001928E-02 0.  1.
    10030    2    1    2    0    0  0.00000000000E+00  0.00000000000E+00  0.77404745820E+03  0.26203250569E+04  0.25033884909E+04 0.  0.
        2    1    3    3  502    0  0.90027251569E+03  0.64036309728E+03 -0.22883312304E+03  0.11282376067E+04  0.25500000920E-02 0.  1.
       -2    1    3    3    0  502 -0.90027251569E+03 -0.64036309728E+03  0.10028805812E+04  0.14920874502E+04  0.25500000920E-02 0. -1.
</event>
<event>
 5   0  0.1008073E-05  0.2485771E+04  0.7818609E-02  0.8408072E-01
       -1   -1    0    0    0  501  0.00000000000E+00  0.00000000000E+00  0.82598699166E+03  0.82598699168E+03  0.50400001928E-02 0. -1.
        1   -1    0    0  501    0  0.00000000000E+00  0.00000000000E+00 -0.18702045476E+04  0.18702045476E+04  0.50400001928E-02 0.  1.
    10030    2    1    2    0    0  0.00000000000E+00  0.00000000000E+00 -0.10442175559E+04  0.26961915393E+04  0.24857712108E+04 0.  0.
        1    1    3    3  502    0  0.47619901346E+03  0.29684443583E+03  0.68076871852E+03  0.88222909023E+03  0.50400001928E-02 0. -1.
       -1    1    3    3    0  502 -0.47619901346E+03 -0.29684443583E+03 -0.17249862744E+04  0.18139624490E+04  0.50400001928E-02 0.  1.
</event>
<event>
 5   0  0.1002753E-05  0.2570962E+04  0.7818609E-02  0.8378132E-01
        1   -1    0    0  501    0  0.00000000000E+00  0.00000000000E+00  0.14712463854E+04  0.14712463854E+04  0.50400001928E-02 0. -1.
       -1   -1    0    0    0  501  0.00000000000E+00  0.00000000000E+00 -0.11231706979E+04  0.11231706979E+04  0.50400001928E-02 0.  1.
    10030    2    1    2    0    0  0.00000000000E+00  0.00000000000E+00  0.34807568752E+03  0.25944170834E+04  0.25709615552E+04 0.  0.
        5    1    3    3  502    0 -0.29869367447E+03 -0.59875787226E+02  0.14342852122E+04  0.14662875506E+04  0.46999998093E+01 0. -1.
       -5    1    3    3    0  502  0.29869367447E+03  0.59875787226E+02 -0.10862095247E+04  0.11281295328E+04  0.46999998093E+01 0.  1.
</event>
<event>
 5   0  0.1015327E-05  0.2499393E+04  0.7818609E-02  0.8403202E-01
        1   -1    0    0  501    0  0.00000000000E+00  0.00000000000E+00  0.23781169965E+04  0.23781169965E+04  0.50400001928E-02 0.  1.
       -1   -1    0    0    0  501  0.00000000000E+00  0.00000000000E+00 -0.65671321372E+03  0.65671321374E+03  0.50400001928E-02 0. -1.
    10030    2    1    2    0    0  0.00000000000E+00  0.00000000000E+00  0.17214037828E+04  0.30348302103E+04  0.24993926105E+04 0.  0.
        4    1    3    3  502    0  0.77291889625E+03 -0.57819535982E+02 -0.32960766835E+03  0.84225266213E+03  0.12699999809E+01 0. -1.
       -4    1    3    3    0  502 -0.77291889625E+03  0.57819535982E+02  0.20510114511E+04  0.21925775481E+04  0.12699999809E+01 0.  1.
</event>
<event>
 5   0  0.2452457E-05  0.2487415E+04  0.7818609E-02  0.8407483E-01
        2   -1    0    0  501    0  0.00000000000E+00  0.00000000000E+00  0.18217325326E+04  0.18217325326E+04  0.25500000920E-02 0.  1.
       -2   -1    0    0    0  501  0.00000000000E+00  0.00000000000E+00 -0.84908663459E+03  0.84908663460E+03  0.25500000920E-02 0. -1.
    10030    2    1    2    0    0  0.00000000000E+00  0.00000000000E+00  0.97264589798E+03  0.26708191672E+04  0.24874153213E+04 0.  0.
        1    1    3    3  502    0 -0.80680950307E+03 -0.89216842058E+03  0.14694411812E+03  0.12118162562E+04  0.50400001928E-02 0. -1.
       -1    1    3    3    0  502  0.80680950307E+03  0.89216842058E+03  0.82570177986E+03  0.14590029110E+04  0.50400001928E-02 0.  1.
</event>
<event>
 5   0  0.1008073E-05  0.2525664E+04  0.7818609E-02  0.8393899E-01
        1   -1    0    0  501    0  0.00000000000E+00  0.00000000000E+00  0.26176957781E+04  0.26176957781E+04  0.50400001928E-02 0. -1.
       -1   -1    0    0    0  501  0.00000000000E+00  0.00000000000E+00 -0.60921703114E+03  0.60921703116E+03  0.50400001928E-02 0.  1.
    10030    2    1    2    0    0  0.00000000000E+00  0.00000000000E+00  0.20084787470E+04  0.32269128093E+04  0.25256641506E+04 0.  0.
        1    1    3    3  502    0 -0.56320710703E+03 -0.76762100247E+02  0.24450120392E+04  0.25102148389E+04  0.50400001928E-02 0. -1.
       -1    1    3    3    0  502  0.56320710703E+03  0.76762100247E+02 -0.43653329226E+03  0.71669797036E+03  0.50400001928E-02 0.  1.
</event>
<event>
 5   0  0.2441340E-05  0.2523394E+04  0.7818609E-02  0.8394699E-01
        2   -1    0    0  501    0  0.00000000000E+00  0.00000000000E+00  0.14561294189E+04  0.14561294189E+04  0.25500000920E-02 0.  1.
       -2   -1    0    0    0  501  0.00000000000E+00  0.00000000000E+00 -0.10932261488E+04  0.10932261488E+04  0.25500000920E-02 0. -1.
    10030    2    1    2    0    0  0.00000000000E+00  0.00000000000E+00  0.36290327008E+03  0.25493555677E+04  0.25233935538E+04 0.  0.
        3    1    3    3  502    0 -0.77980916747E+03 -0.70031179870E+03  0.89105962503E+03  0.13756911785E+04  0.10100000352E+00 0.  1.
       -3    1    3    3    0  502  0.77980916747E+03  0.70031179870E+03 -0.52815635496E+03  0.11736643892E+04  0.10100000352E+00 0. -1.
</event>
<event>
 5   0  0.2452457E-05  0.2473419E+04  0.7818609E-02  0.8412517E-01
        2   -1    0    0  501    0  0.00000000000E+00  0.00000000000E+00  0.10544118991E+04  0.10544118991E+04  0.25500000920E-02 0. -1.
       -2   -1    0    0    0  501  0.00000000000E+00  0.00000000000E+00 -0.14505244848E+04  0.14505244848E+04  0.25500000920E-02 0.  1.
    10030    2    1    2    0    0  0.00000000000E+00  0.00000000000E+00 -0.39611258571E+03  0.25049363839E+04  0.24734189105E+04 0.  0.
        1    1    3    3  502    0 -0.86743566152E+03  0.85881287096E+03  0.30849241208E+01  0.12206611696E+04  0.50400001928E-02 0.  1.
       -1    1    3    3    0  502  0.86743566152E+03 -0.85881287096E+03 -0.39919750983E+03  0.12842752143E+04  0.50400001928E-02 0. -1.
</event>
<event>
 5   0  0.2452457E-05  0.2512558E+04  0.7818609E-02  0.8398525E-01
        2   -1    0    0  501    0  0.00000000000E+00  0.00000000000E+00  0.18267568506E+04  0.18267568506E+04  0.25500000920E-02 0.  1.
       -2   -1    0    0    0  501  0.00000000000E+00  0.00000000000E+00 -0.86395532517E+03  0.86395532517E+03  0.25500000920E-02 0. -1.
    10030    2    1    2    0    0  0.00000000000E+00  0.00000000000E+00  0.96280152540E+03  0.26907121757E+04  0.25125575089E+04 0.  0.
        1    1    3    3  502    0  0.70614141502E+03  0.10198343179E+04  0.26845856148E+03  0.12691602472E+04  0.50400001928E-02 0. -1.
       -1    1    3    3    0  502 -0.70614141502E+03 -0.10198343179E+04  0.69434296392E+03  0.14215519285E+04  0.50400001928E-02 0.  1.
</event>
<event>
 5   0  0.2345143E-05  0.2546219E+04  0.7818609E-02  0.8386702E-01
       -2   -1    0    0    0  501  0.00000000000E+00  0.00000000000E+00  0.60222930356E+03  0.60222930356E+03  0.25500000920E-02 0.  1.
        2   -1    0    0  501    0  0.00000000000E+00  0.00000000000E+00 -0.26913461610E+04  0.26913461610E+04  0.25500000920E-02 0. -1.
    10030    2    1    2    0    0  0.00000000000E+00  0.00000000000E+00 -0.20891168574E+04  0.32935754646E+04  0.25462187841E+04 0.  0.
        5    1    3    3  502    0  0.37074743152E+03 -0.54368326915E+03  0.36516086405E+03  0.75260195440E+03  0.46999998093E+01 0.  1.
       -5    1    3    3    0  502 -0.37074743152E+03  0.54368326915E+03 -0.24542777215E+04  0.25409735102E+04  0.46999998093E+01 0. -1.
</event>
<event>
 5   0  0.1002753E-05  0.2490780E+04  0.7818609E-02  0.8406278E-01
        1   -1    0    0  501    0  0.00000000000E+00  0.00000000000E+00  0.17462183878E+04  0.17462183878E+04  0.50400001928E-02 0. -1.
       -1   -1    0    0    0  501  0.00000000000E+00  0.00000000000E+00 -0.88820268994E+03  0.88820268995E+03  0.50400001928E-02 0.  1.
    10030    2    1    2    0    0  0.00000000000E+00  0.00000000000E+00  0.85801569789E+03  0.26344210778E+04  0.24907796926E+04 0.  0.
        5    1    3    3  502    0  0.19715344433E+03 -0.36847185042E+03  0.16698359067E+04  0.17213410558E+04  0.46999998093E+01 0. -1.
       -5    1    3    3    0  502 -0.19715344433E+03  0.36847185042E+03 -0.81182020878E+03  0.91308002199E+03  0.46999998093E+01 0.  1.
</event>
<event>
 5   0  0.2441340E-05  0.2458264E+04  0.7818609E-02  0.8418007E-01
       -2   -1    0    0    0  501  0.00000000000E+00  0.00000000000E+00  0.76642948038E+03  0.76642948038E+03  0.25500000920E-02 0. -1.
        2   -1    0    0  501    0  0.00000000000E+00  0.00000000000E+00 -0.19711736851E+04  0.19711736851E+04  0.25500000920E-02 0.  1.
    10030    2    1    2    0    0  0.00000000000E+00  0.00000000000E+00 -0.12047442047E+04  0.27376031655E+04  0.24582641218E+04 0.  0.
        3    1    3    3  502    0 -0.81742526604E+03 -0.41744781505E+03 -0.15127753812E+04  0.17694451413E+04  0.10100000352E+00 0.  1.
       -3    1    3    3    0  502  0.81742526604E+03  0.41744781505E+03  0.30803117651E+03  0.96815802416E+03  0.10100000352E+00 0. -1.
</event>
<event>
 5   0  0.1015327E-05  0.2495175E+04  0.7818609E-02  0.8404707E-01
        1   -1    0    0  501    0  0.00000000000E+00  0.00000000000E+00  0.23436823870E+04  0.23436823870E+04  0.50400001928E-02 0. -1.
       -1   -1    0    0    0  501  0.00000000000E+00  0.00000000000E+00 -0.66411484337E+03  0.66411484339E+03  0.50400001928E-02 0.  1.
    10030    2    1    2    0    0  0.00000000000E+00  0.00000000000E+00  0.16795675436E+04  0.30077972304E+04  0.24951747525E+04 0.  0.
        4    1    3    3  502    0 -0.73014427717E+03 -0.58415752995E+03 -0.15580182358E+03  0.94795912698E+03  0.12699999809E+01 0.  1.
       -4    1    3    3    0  502  0.73014427717E+03  0.58415752995E+03  0.18353693672E+04  0.20598381034E+04  0.12699999809E+01 0. -1.
</event>
<event>
 5   0  0.1008073E-05  0.2460454E+04  0.7818609E-02  0.8417211E-01
       -1   -1    0    0    0  501  0.00000000000E+00  0.00000000000E+00  0.83890471401E+03  0.83890471402E+03  0.50400001928E-02 0. -1.
        1   -1    0    0  501    0  0.00000000000E+00  0.00000000000E+00 -0.18040880872E+04  0.18040880872E+04  0.50400001928E-02 0.  1.
    10030    2    1    2    0    0  0.00000000000E+00  0.00000000000E+00 -0.96518337318E+03  0.26429928012E+04  0.24604536174E+04 0.  0.
        1    1    3    3  502    0 -0.67335627663E+03  0.27665689210E+03  0.58270420403E+03  0.93246549569E+03  0.50400001928E-02 0. -1.
       -1    1    3    3    0  502  0.67335627663E+03 -0.27665689210E+03 -0.15478875772E+04  0.17105273055E+04  0.50400001928E-02 0.  1.
</event>
<event>
 5   0  0.1039688E-05  0.2509861E+04  0.7818609E-02  0.8399481E-01
        1   -1    0    0  501    0  0.00000000000E+00  0.00000000000E+00  0.17348130862E+04  0.17348130862E+04  0.50400001928E-02 0. -1.
       -1   -1    0    0    0  501  0.00000000000E+00  0.00000000000E+00 -0.90779278851E+03  0.90779278853E+03  0.50400001928E-02 0.  1.
    10030    2    1    2    0    0  0.00000000000E+00  0.00000000000E+00  0.82702029766E+03  0.26426058747E+04  0.25098611986E+04 0.  0.
        3    1    3    3  502    0  0.84584747842E+03 -0.47910593440E+03 -0.42209551990E+03  0.10597948345E+04  0.10100000352E+00 0.  1.
       -3    1    3    3    0  502 -0.84584747842E+03  0.47910593440E+03  0.12491158176E+04  0.15828110402E+04  0.10100000352E+00 0. -1.
</event>
<event>
 5   0  0.1039688E-05  0.2564495E+04  0.7818609E-02  0.8380362E-01
        1   -1    0    0  501    0  0.00000000000E+00  0.00000000000E+00  0.12729271395E+04  0.12729271395E+04  0.50400001928E-02 0.  1.
       -1   -1    0    0    0  501  0.00000000000E+00  0.00000000000E+00 -0.12916365483E+04  0.12916365483E+04  0.50400001928E-02 0. -1.
    10030    2    1    2    0    0  0.00000000000E+00  0.00000000000E+00 -0.18709408812E+02  0.25645636878E+04  0.25644954409E+04 0.  0.
        3    1    3    3  502    0  0.48371414414E+03 -0.23917310881E+03 -0.11725606490E+04  0.12907678470E+04  0.10100000352E+00 0. -1.
       -3    1    3    3    0  502 -0.48371414414E+03  0.23917310881E+03  0.11538512402E+04  0.12737958407E+04  0.10100000352E+00 0.  1.
</event>
<event>
 5   0  0.2388326E-05  0.2521377E+04  0.7818609E-02  0.8395409E-01
       -2   -1    0    0    0  501  0.00000000000E+00  0.00000000000E+00  0.14871266818E+04  0.14871266818E+04  0.25500000920E-02 0. -1.
        2   -1    0    0  501    0  0.00000000000E+00  0.00000000000E+00 -0.10687293219E+04  0.10687293219E+04  0.25500000920E-02 0.  1.
    10030    2    1    2    0    0  0.00000000000E+00  0.00000000000E+00  0.41839735984E+03  0.25558560037E+04  0.25213773143E+04 0.  0.
        2    1    3    3  502    0  0.26977657287E+03 -0.10311194267E+04  0.89171804332E+03  0.13896574183E+04  0.25500000920E-02 0. -1.
       -2    1    3    3    0  502 -0.26977657287E+03  0.10311194267E+04 -0.47332068347E+03  0.11661985855E+04  0.25500000920E-02 0.  1.
</event>
<event>
 5   0  0.1002753E-05  0.2309891E+04  0.7818609E-02  0.8474031E-01
       -1   -1    0    0    0  501  0.00000000000E+00  0.00000000000E+00  0.95894728504E+03  0.95894728505E+03  0.50400001928E-02 0. -1.
        1   -1    0    0  501    0  0.00000000000E+00  0.00000000000E+00 -0.13910038358E+04  0.13910038358E+04  0.50400001928E-02 0.  1.
    10030    2    1    2    0    0  0.00000000000E+00  0.00000000000E+00 -0.43205655076E+03  0.23499511209E+04  0.23098912112E+04 0.  0.
        5    1    3    3  502    0  0.50882237751E+03 -0.99460881249E+03 -0.51390366717E+03  0.12297422376E+04  0.46999998093E+01 0.  1.
       -5    1    3    3    0  502 -0.50882237751E+03  0.99460881249E+03  0.81847116410E+02  0.11202088833E+04  0.46999998093E+01 0. -1.
</event>
<event>
 5   0  0.2345143E-05  0.2501455E+04  0.7818609E-02  0.8402467E-01
        2   -1    0    0  501    0  0.00000000000E+00  0.00000000000E+00  0.10316496465E+04  0.10316496465E+04  0.25500000920E-02 0.  1.
       -2   -1    0    0    0  501  0.00000000000E+00  0.00000000000E+00 -0.15163279974E+04  0.15163279974E+04  0.25500000920E-02 0. -1.
    10030    2    1    2    0    0  0.00000000000E+00  0.00000000000E+00 -0.48467835081E+03  0.25479776439E+04  0.25014549706E+04 0.  0.
        5    1    3    3  502    0  0.12253951153E+04 -0.10788837676E+03 -0.47251547470E+03  0.13177731422E+04  0.46999998093E+01 0. -1.
       -5    1    3    3    0  502 -0.12253951153E+04  0.10788837676E+03 -0.12162876113E+02  0.12302045017E+04  0.46999998093E+01 0.  1.
</event>
<event>
 5   0  0.1010338E-05  0.2482163E+04  0.7818609E-02  0.8409368E-01
       -1   -1    0    0    0  501  0.00000000000E+00  0.00000000000E+00  0.64424314269E+03  0.64424314271E+03  0.50400001928E-02 0. -1.
        1   -1    0    0  501    0  0.00000000000E+00  0.00000000000E+00 -0.23908421850E+04  0.23908421850E+04  0.50400001928E-02 0.  1.
    10030    2    1    2    0    0  0.00000000000E+00  0.00000000000E+00 -0.17465990423E+04  0.30350853278E+04  0.24821633170E+04 0.  0.
        2    1    3    3  502    0 -0.30874882765E+03 -0.28430653301E+03 -0.23014305546E+04  0.23393885186E+04  0.25500000920E-02 0.  1.
       -2    1    3    3    0  502  0.30874882765E+03  0.28430653301E+03  0.55483151225E+03  0.69569680916E+03  0.25500000920E-02 0. -1.
</event>
<event>
 5   0  0.1010338E-05  0.2402953E+04  0.7818609E-02  0.8438399E-01
        1   -1    0    0  501    0  0.00000000000E+00  0.00000000000E+00  0.14109754055E+04  0.14109754055E+04  0.50400001928E-02 0. -1.
       -1   -1    0    0    0  501  0.00000000000E+00  0.00000000000E+00 -0.10230837263E+04  0.10230837263E+04  0.50400001928E-02 0.  1.
    10030    2    1    2    0    0  0.00000000000E+00  0.00000000000E+00  0.38789167919E+03  0.24340591318E+04  0.24029531628E+04 0.  0.
        2    1    3    3  502    0  0.45109264762E+03  0.94047903951E+03 -0.41006206012E+03  0.11207748631E+04  0.25500000920E-02 0. -1.
       -2    1    3    3    0  502 -0.45109264762E+03 -0.94047903951E+03  0.79795373931E+03  0.13132842688E+04  0.25500000920E-02 0.  1.
</event>
<event>
 5   0  0.1008073E-05  0.2477584E+04  0.7818609E-02  0.8411015E-01
       -1   -1    0    0    0  501  0.00000000000E+00  0.00000000000E+00  0.78984246802E+03  0.78984246804E+03  0.50400001928E-02 0. -1.
        1   -1    0    0  501    0  0.00000000000E+00  0.00000000000E+00 -0.19429255286E+04  0.19429255286E+04  0.50400001928E-02 0.  1.
    10030    2    1    2    0    0  0.00000000000E+00  0.00000000000E+00 -0.11530830606E+04  0.27327679966E+04  0.24775835766E+04 0.  0.
        1    1    3    3  502    0  0.10680858752E+04 -0.56284607926E+03 -0.88261473335E+03  0.14955306460E+04  0.50400001928E-02 0.  1.
       -1    1    3    3    0  502 -0.10680858752E+04  0.56284607926E+03 -0.27046832721E+03  0.12372373506E+04  0.50400001928E-02 0. -1.
</event>
<event>
 5   0  0.1010338E-05  0.2493767E+04  0.7818609E-02  0.8405209E-01
        1   -1    0    0  501    0  0.00000000000E+00  0.00000000000E+00  0.16280233499E+04  0.16280233499E+04  0.50400001928E-02 0.  1.
       -1   -1    0    0    0  501  0.00000000000E+00  0.00000000000E+00 -0.95497322483E+03  0.95497322484E+03  0.50400001928E-02 0. -1.
    10030    2    1    2    0    0  0.00000000000E+00  0.00000000000E+00  0.67305012507E+03  0.25829965748E+04  0.24937671973E+04 0.  0.
        2    1    3    3  502    0 -0.24928251104E+03  0.11801804398E+04  0.93902981629E+01  0.12062569455E+04  0.25500000920E-02 0. -1.
       -2    1    3    3    0  502  0.24928251104E+03 -0.11801804398E+04  0.66365982691E+03  0.13767396292E+04  0.25500000920E-02 0.  1.
</event>
<event>
 5   0  0.2452457E-05  0.2489181E+04  0.7818609E-02  0.8406850E-01
       -2   -1    0    0    0  501  0.00000000000E+00  0.00000000000E+00  0.13911906148E+04  0.13911906148E+04  0.25500000920E-02 0. -1.
        2   -1    0    0  501    0  0.00000000000E+00  0.00000000000E+00 -0.11134382949E+04  0.11134382949E+04  0.25500000920E-02 0.  1.
    10030    2    1    2    0    0  0.00000000000E+00  0.00000000000E+00  0.27775231981E+03  0.25046289097E+04  0.24891805126E+04 0.  0.
        1    1    3    3  502    0  0.68179653071E+03 -0.55525136962E+03  0.10251686845E+04  0.13506003940E+04  0.50400001928E-02 0. -1.
       -1    1    3    3    0  502 -0.68179653071E+03  0.55525136962E+03 -0.74741636466E+03  0.11540285157E+04  0.50400001928E-02 0.  1.
</event>
<event>
 5   0  0.2452457E-05  0.2533112E+04  0.7818609E-02  0.8391283E-01
       -2   -1    0    0    0  501  0.00000000000E+00  0.00000000000E+00  0.13440154026E+04  0.13440154026E+04  0.25500000920E-02 0. -1.
        2   -1    0    0  501    0  0.00000000000E+00  0.00000000000E+00 -0.11935603951E+04  0.11935603951E+04  0.25500000920E-02 0.  1.
    10030    2    1    2    0    0  0.00000000000E+00  0.00000000000E+00  0.15045500747E+03  0.25375757977E+04  0.25331115687E+04 0.  0.
        1    1    3    3  502    0  0.17327683825E+03 -0.31123566608E+03 -0.11423449079E+04  0.11965970045E+04  0.50400001928E-02 0.  1.
       -1    1    3    3    0  502 -0.17327683825E+03  0.31123566608E+03  0.12927999154E+04  0.13409787932E+04  0.50400001928E-02 0. -1.
</event>
<event>
 5   0  0.1015327E-05  0.2499977E+04  0.7818609E-02  0.8402994E-01
        1   -1    0    0  501    0  0.00000000000E+00  0.00000000000E+00  0.14266340036E+04  0.14266340036E+04  0.50400001928E-02 0.  1.
       -1   -1    0    0    0  501  0.00000000000E+00  0.00000000000E+00 -0.10952147870E+04  0.10952147870E+04  0.50400001928E-02 0. -1.
    10030    2    1    2    0    0  0.00000000000E+00  0.00000000000E+00  0.33141921665E+03  0.25218487906E+04  0.24999765250E+04 0.  0.
        4    1    3    3  502    0 -0.27109491148E+03  0.11103343002E+04 -0.34481538878E+03  0.11938316357E+04  0.12699999809E+01 0. -1.
       -4    1    3    3    0  502  0.27109491148E+03 -0.11103343002E+04  0.67623460543E+03  0.13280171549E+04  0.12699999809E+01 0.  1.
</event>
<event>
 5   0  0.2345143E-05  0.2332340E+04  0.7818609E-02  0.8465278E-01
        2   -1    0    0  501    0  0.00000000000E+00  0.00000000000E+00  0.15417633101E+04  0.15417633101E+04  0.25500000920E-02 0. -1.
       -2   -1    0    0    0  501  0.00000000000E+00  0.00000000000E+00 -0.88207576529E+03  0.88207576529E+03  0.25500000920E-02 0.  1.
    10030    2    1    2    0    0  0.00000000000E+00  0.00000000000E+00  0.65968754480E+03  0.24238390754E+04  0.23323396422E+04 0.  0.
        5    1    3    3  502    0  0.11481510326E+04 -0.20026664148E+03  0.37105343667E+03  0.12231354235E+04  0.46999998093E+01 0. -1.
       -5    1    3    3    0  502 -0.11481510326E+04  0.20026664148E+03  0.28863410813E+03  0.12007036519E+04  0.46999998093E+01 0.  1.
</event>
<event>
 5   0  0.1002753E-05  0.2479490E+04  0.7818609E-02  0.8410329E-01
       -1   -1    0    0    0  501  0.00000000000E+00  0.00000000000E+00  0.78946316155E+03  0.78946316157E+03  0.50400001928E-02 0.  1.
        1   -1    0    0  501    0  0.00000000000E+00  0.00000000000E+00 -0.19468520448E+04  0.19468520448E+04  0.50400001928E-02 0. -1.
    10030    2    1    2    0    0  0.00000000000E+00  0.00000000000E+00 -0.11573888833E+04  0.27363152064E+04  0.24794902463E+04 0.  0.
        5    1    3    3  502    0 -0.21662454105E+03 -0.38816025762E+03  0.69848221434E+03  0.82794569335E+03  0.46999998093E+01 0.  1.
       -5    1    3    3    0  502  0.21662454105E+03  0.38816025762E+03 -0.18558710976E+04  0.19083695131E+04  0.46999998093E+01 0. -1.
</event>
<event>
 5   0  0.1010338E-05  0.2500658E+04  0.7818609E-02  0.8402751E-01
       -1   -1    0    0    0  501  0.00000000000E+00  0.00000000000E+00  0.10619549799E+04  0.10619549799E+04  0.50400001928E-02 0.  1.
        1   -1    0    0  501    0  0.00000000000E+00  0.00000000000E+00 -0.14721177576E+04  0.14721177576E+04  0.50400001928E-02 0. -1.
    10030    2    1    2    0    0  0.00000000000E+00  0.00000000000E+00 -0.41016277768E+03  0.25340727375E+04  0.25006581403E+04 0.  0.
        2    1    3    3  502    0 -0.42904692509E+03  0.11580161781E+04 -0.69177429285E+01  0.12349617759E+04  0.25500000920E-02 0.  1.
       -2    1    3    3    0  502  0.42904692509E+03 -0.11580161781E+04 -0.40324503475E+03  0.12991109617E+04  0.25500000920E-02 0. -1.
</event>
<event>
 5   0  0.2345143E-05  0.2503283E+04  0.7818609E-02  0.8401817E-01
       -2   -1    0    0    0  501  0.00000000000E+00  0.00000000000E+00  0.12982730320E+04  0.12982730320E+04  0.25500000920E-02 0. -1.
        2   -1    0    0  501    0  0.00000000000E+00  0.00000000000E+00 -0.12066852552E+04  0.12066852552E+04  0.25500000920E-02 0.  1.
    10030    2    1    2    0    0  0.00000000000E+00  0.00000000000E+00  0.91587776845E+02  0.25049582872E+04  0.25032833838E+04 0.  0.
        5    1    3    3  502    0 -0.55752854322E+03  0.10964249744E+04  0.27746344269E+03  0.12609495838E+04  0.46999998093E+01 0. -1.
       -5    1    3    3    0  502  0.55752854322E+03 -0.10964249744E+04 -0.18587566585E+03  0.12440087034E+04  0.46999998093E+01 0.  1.
</event>
<event>
 5   0  0.2452457E-05  0.2430680E+04  0.7818609E-02  0.8428106E-01
        2   -1    0    0  501    0  0.00000000000E+00  0.00000000000E+00  0.16833262203E+04  0.16833262203E+04  0.25500000920E-02 0. -1.
       -2   -1    0    0    0  501  0.00000000000E+00  0.00000000000E+00 -0.87745969913E+03  0.87745969914E+03  0.25500000920E-02 0.  1.
    10030    2    1    2    0    0  0.00000000000E+00  0.00000000000E+00  0.80586652121E+03  0.25607859195E+04  0.24306796735E+04 0.  0.
        1    1    3    3  502    0  0.93971647417E+03 -0.25345010706E+02  0.12144507904E+04  0.15357734676E+04  0.50400001928E-02 0. -1.
       -1    1    3    3    0  502 -0.93971647417E+03  0.25345010706E+02 -0.40858426923E+03  0.10250124519E+04  0.50400001928E-02 0.  1.
</event>
<event>
 5   0  0.1015327E-05  0.2221980E+04  0.7818609E-02  0.8509335E-01
       -1   -1    0    0    0  501  0.00000000000E+00  0.00000000000E+00  0.60144884519E+03  0.60144884521E+03  0.50400001928E-02 0.  1.
        1   -1    0    0  501    0  0.00000000000E+00  0.00000000000E+00 -0.20522096894E+04  0.20522096894E+04  0.50400001928E-02 0. -1.
    10030    2    1    2    0    0  0.00000000000E+00  0.00000000000E+00 -0.14507608443E+04  0.26536585347E+04  0.22219803310E+04 0.  0.
        4    1    3    3  502    0 -0.14779744319E+02  0.64600180623E+03  0.35394463730E+03  0.73675992947E+03  0.12699999809E+01 0.  1.
       -4    1    3    3    0  502  0.14779744319E+02 -0.64600180623E+03 -0.18047054816E+04  0.19168986052E+04  0.12699999809E+01 0. -1.
</event>
<event>
 5   0  0.8166500E-06  0.2523986E+04  0.7818609E-02  0.8394490E-01
       -3   -1    0    0    0  501  0.00000000000E+00  0.00000000000E+00  0.13859495770E+04  0.13859495807E+04  0.10100000352E+00 0.  1.
        3   -1    0    0  501    0  0.00000000000E+00  0.00000000000E+00 -0.11491224456E+04  0.11491224500E+04  0.10100000352E+00 0. -1.
    10030    2    1    2    0    0  0.00000000000E+00  0.00000000000E+00  0.23682713144E+03  0.25350720308E+04  0.25239855608E+04 0.  0.
        4    1    3    3  502    0 -0.18360068683E+03  0.27740027486E+02  0.13721534290E+04  0.13846607407E+04  0.12699999809E+01 0.  1.
       -4    1    3    3    0  502  0.18360068683E+03 -0.27740027486E+02 -0.11353262976E+04  0.11504112900E+04  0.12699999809E+01 0. -1.
</event>
<event>
 5   0  0.1002753E-05  0.2503299E+04  0.7818609E-02  0.8401811E-01
        1   -1    0    0  501    0  0.00000000000E+00  0.00000000000E+00  0.11619342330E+04  0.11619342330E+04  0.50400001928E-02 0.  1.
       -1   -1    0    0    0  501  0.00000000000E+00  0.00000000000E+00 -0.13482923820E+04  0.13482923820E+04  0.50400001928E-02 0. -1.
    10030    2    1    2    0    0  0.00000000000E+00  0.00000000000E+00 -0.18635814906E+03  0.25102266150E+04  0.25032994824E+04 0.  0.
        5    1    3    3  502    0  0.12416971088E+04  0.10589172199E+03  0.23677591085E+02  0.12464379187E+04  0.46999998093E+01 0. -1.
       -5    1    3    3    0  502 -0.12416971088E+04 -0.10589172199E+03 -0.21003574014E+03  0.12637886963E+04  0.46999998093E+01 0.  1.
</event>
<event>
 5   0  0.1039688E-05  0.2510251E+04  0.7818609E-02  0.8399343E-01
        1   -1    0    0  501    0  0.00000000000E+00  0.00000000000E+00  0.16528541496E+04  0.16528541496E+04  0.50400001928E-02 0.  1.
       -1   -1    0    0    0  501  0.00000000000E+00  0.00000000000E+00 -0.95310297923E+03  0.95310297924E+03  0.50400001928E-02 0. -1.
    10030    2    1    2    0    0  0.00000000000E+00  0.00000000000E+00  0.69975117032E+03  0.26059571288E+04  0.25102511541E+04 0.  0.
        3    1    3    3  502    0  0.18124218996E+01 -0.69671311077E+03  0.14336750904E+04  0.15940002254E+04  0.10100000352E+00 0.  1.
       -3    1    3    3    0  502 -0.18124218996E+01  0.69671311077E+03 -0.73392392009E+03  0.10119569034E+04  0.10100000352E+00 0. -1.
</event>
<event>
 5   0  0.1002753E-05  0.2485114E+04  0.7818609E-02  0.8408308E-01
       -1   -1    0    0    0  501  0.00000000000E+00  0.00000000000E+00  0.12076061634E+04  0.12076061634E+04  0.50400001928E-02 0. -1.
        1   -1    0    0  501    0  0.00000000000E+00  0.00000000000E+00 -0.12785189937E+04  0.12785189937E+04  0.50400001928E-02 0.  1.
    10030    2    1    2    0    0  0.00000000000E+00  0.00000000000E+00 -0.70912830352E+02  0.24861251571E+04  0.24851136125E+04 0.  0.
        5    1    3    3  502    0  0.47525592836E+03  0.74110367584E+03 -0.91263854212E+03  0.12680828263E+04  0.46999998093E+01 0.  1.
       -5    1    3    3    0  502 -0.47525592836E+03 -0.74110367584E+03  0.84172571176E+03  0.12180423308E+04  0.46999998093E+01 0. -1.
</event>
<event>
 5   0  0.1015327E-05  0.2495102E+04  0.7818609E-02  0.8404733E-01
        1   -1    0    0  501    0  0.00000000000E+00  0.00000000000E+00  0.22113145527E+04  0.22113145527E+04  0.50400001928E-02 0.  1.
       -1   -1    0    0    0  501  0.00000000000E+00  0.00000000000E+00 -0.70382731334E+03  0.70382731335E+03  0.50400001928E-02 0. -1.
    10030    2    1    2    0    0  0.00000000000E+00  0.00000000000E+00  0.15074872394E+04  0.29151418661E+04  0.24951020665E+04 0.  0.
        4    1    3    3  502    0  0.18211798165E+03 -0.10386633372E+04  0.15325961195E+04  0.18603335631E+04  0.12699999809E+01 0.  1.
       -4    1    3    3    0  502 -0.18211798165E+03  0.10386633372E+04 -0.25108880146E+02  0.10548083030E+04  0.12699999809E+01 0. -1.
</event>
<event>
 5   0  0.1002753E-05  0.2569466E+04  0.7818609E-02  0.8378647E-01
        1   -1    0    0  501    0  0.00000000000E+00  0.00000000000E+00  0.53734784585E+03  0.53734784587E+03  0.50400001928E-02 0.  1.
       -1   -1    0    0    0  501  0.00000000000E+00  0.00000000000E+00 -0.30716399230E+04  0.30716399230E+04  0.50400001928E-02 0. -1.
    10030    2    1    2    0    0  0.00000000000E+00  0.00000000000E+00 -0.25342920771E+04  0.36089877689E+04  0.25694661670E+04 0.  0.
        5    1    3    3  502    0  0.54441517995E+03 -0.17161621053E+03 -0.28837271630E+04  0.29396844138E+04  0.46999998093E+01 0. -1.
       -5    1    3    3    0  502 -0.54441517995E+03  0.17161621053E+03  0.34943508588E+03  0.66930335508E+03  0.46999998093E+01 0.  1.
</event>
<event>
 5   0  0.2432309E-05  0.2494724E+04  0.7818609E-02  0.8404868E-01
        2   -1    0    0  501    0  0.00000000000E+00  0.00000000000E+00  0.19040510849E+04  0.19040510849E+04  0.25500000920E-02 0. -1.
       -2   -1    0    0    0  501  0.00000000000E+00  0.00000000000E+00 -0.81715854288E+03  0.81715854289E+03  0.25500000920E-02 0.  1.
    10030    2    1    2    0    0  0.00000000000E+00  0.00000000000E+00  0.10868925421E+04  0.27212096278E+04  0.24947237203E+04 0.  0.
        4    1    3    3  502    0  0.32610158911E+03  0.13251798901E+03  0.18487514841E+04  0.18819635827E+04  0.12699999809E+01 0. -1.
       -4    1    3    3    0  502 -0.32610158911E+03 -0.13251798901E+03 -0.76185894202E+03  0.83924604513E+03  0.12699999809E+01 0.  1.
</event>
<event>
 5   0  0.1002753E-05  0.2512098E+04  0.7818609E-02  0.8398688E-01
       -1   -1    0    0    0  501  0.00000000000E+00  0.00000000000E+00  0.13559279826E+04  0.13559279826E+04  0.50400001928E-02 0. -1.
        1   -1    0    0  501    0  0.00000000000E+00  0.00000000000E+00 -0.11635268182E+04  0.11635268183E+04  0.50400001928E-02 0.  1.
    10030    2    1    2    0    0  0.00000000000E+00  0.00000000000E+00  0.19240116433E+03  0.25194548008E+04  0.25120975868E+04 0.  0.
        5    1    3    3  502    0  0.52427936807E+03 -0.10515823130E+04 -0.34888090331E+03  0.12257382231E+04  0.46999998093E+01 0.  1.
       -5    1    3    3    0  502 -0.52427936807E+03  0.10515823130E+04  0.54128206764E+03  0.12937165778E+04  0.46999998093E+01 0. -1.
</event>
<event>
 5   0  0.2441340E-05  0.2534431E+04  0.7818609E-02  0.8390821E-01
       -2   -1    0    0    0  501  0.00000000000E+00  0.00000000000E+00  0.90971765853E+03  0.90971765854E+03  0.25500000920E-02 0. -1.
        2   -1    0    0  501    0  0.00000000000E+00  0.00000000000E+00 -0.17652023295E+04  0.17652023295E+04  0.25500000920E-02 0.  1.
    10030    2    1    2    0    0  0.00000000000E+00  0.00000000000E+00 -0.85548467097E+03  0.26749199880E+04  0.25344314787E+04 0.  0.
        3    1    3    3  502    0  0.25207878670E+03 -0.92833845973E+03 -0.12983807631E+04  0.16159048941E+04  0.10100000352E+00 0.  1.
       -3    1    3    3    0  502 -0.25207878670E+03  0.92833845973E+03  0.44289609217E+03  0.10590150939E+04  0.10100000352E+00 0. -1.
</event>
<event>
 5   0  0.2441340E-05  0.2480504E+04  0.7818609E-02  0.8409964E-01
        2   -1    0    0  501    0  0.00000000000E+00  0.00000000000E+00  0.15482066018E+04  0.15482066018E+04  0.25500000920E-02 0.  1.
       -2   -1    0    0    0  501  0.00000000000E+00  0.00000000000E+00 -0.99355249562E+03  0.99355249562E+03  0.25500000920E-02 0. -1.
    10030    2    1    2    0    0  0.00000000000E+00  0.00000000000E+00  0.55465410621E+03  0.25417590974E+04  0.24805036045E+04 0.  0.
        3    1    3    3  502    0  0.80881889953E+03 -0.86049510014E+03  0.66561024978E+03  0.13556093996E+04  0.10100000352E+00 0.  1.
       -3    1    3    3    0  502 -0.80881889953E+03  0.86049510014E+03 -0.11095614357E+03  0.11861496978E+04  0.10100000352E+00 0. -1.
</event>
<event>
 5   0  0.1010338E-05  0.2495538E+04  0.7818609E-02  0.8404577E-01
       -1   -1    0    0    0  501  0.00000000000E+00  0.00000000000E+00  0.53263735139E+03  0.53263735141E+03  0.50400001928E-02 0. -1.
        1   -1    0    0  501    0  0.00000000000E+00  0.00000000000E+00 -0.29230537628E+04  0.29230537628E+04  0.50400001928E-02 0.  1.
    10030    2    1    2    0    0  0.00000000000E+00  0.00000000000E+00 -0.23904164114E+04  0.34556911142E+04  0.24955381097E+04 0.  0.
        2    1    3    3  502    0 -0.51646029496E+03 -0.11245547560E+04 -0.14166509060E+04  0.18810248337E+04  0.25500000920E-02 0.  1.
       -2    1    3    3    0  502  0.51646029496E+03  0.11245547560E+04 -0.97376550547E+03  0.15746662806E+04  0.25500000920E-02 0. -1.
</event>
<event>
 5   0  0.2345143E-05  0.2552961E+04  0.7818609E-02  0.8384357E-01
        2   -1    0    0  501    0  0.00000000000E+00  0.00000000000E+00  0.18333449120E+04  0.18333449120E+04  0.25500000920E-02 0. -1.
       -2   -1    0    0    0  501  0.00000000000E+00  0.00000000000E+00 -0.88875917732E+03  0.88875917732E+03  0.25500000920E-02 0.  1.
    10030    2    1    2    0    0  0.00000000000E+00  0.00000000000E+00  0.94458573473E+03  0.27221040894E+04  0.25529607249E+04 0.  0.
        5    1    3    3  502    0 -0.11764909560E+04 -0.14659140908E+03  0.97666587396E+03  0.15360723714E+04  0.46999998093E+01 0. -1.
       -5    1    3    3    0  502  0.11764909560E+04  0.14659140908E+03 -0.32080139233E+02  0.11860317180E+04  0.46999998093E+01 0.  1.
</event>
<event>
 5   0  0.1002753E-05  0.2606609E+04  0.7818609E-02  0.8365960E-01
        1   -1    0    0  501    0  0.00000000000E+00  0.00000000000E+00  0.17333021397E+04  0.17333021397E+04  0.50400001928E-02 0. -1.
       -1   -1    0    0    0  501  0.00000000000E+00  0.00000000000E+00 -0.97998084382E+03  0.97998084384E+03  0.50400001928E-02 0.  1.
    10030    2    1    2    0    0  0.00000000000E+00  0.00000000000E+00  0.75332129588E+03  0.27132829835E+04  0.26066092101E+04 0.  0.
        5    1    3    3  502    0 -0.53636576345E+01 -0.12703333396E+04  0.67979175931E+03  0.14408034178E+04  0.46999998093E+01 0. -1.
       -5    1    3    3    0  502  0.53636576345E+01  0.12703333396E+04  0.73529536573E+02  0.12724795658E+04  0.46999998093E+01 0.  1.
</event>
<event>
 5   0  0.1010338E-05  0.2509745E+04  0.7818609E-02  0.8399522E-01
       -1   -1    0    0    0  501  0.00000000000E+00  0.00000000000E+00  0.67059317072E+03  0.67059317073E+03  0.50400001928E-02 0. -1.
        1   -1    0    0  501    0  0.00000000000E+00  0.00000000000E+00 -0.23482273904E+04  0.23482273904E+04  0.50400001928E-02 0.  1.
    10030    2    1    2    0    0  0.00000000000E+00  0.00000000000E+00 -0.16776342197E+04  0.30188205611E+04  0.25097452072E+04 0.  0.
        2    1    3    3  502    0  0.24456312641E+03 -0.18383986655E+03  0.62504247803E+03  0.69590683189E+03  0.25500000920E-02 0. -1.
       -2    1    3    3    0  502 -0.24456312641E+03  0.18383986655E+03 -0.23026766977E+04  0.23229137292E+04  0.25500000920E-02 0.  1.
</event>
<event>
 5   0  0.2345143E-05  0.2567002E+04  0.7818609E-02  0.8379497E-01
       -2   -1    0    0    0  501  0.00000000000E+00  0.00000000000E+00  0.84416931275E+03  0.84416931275E+03  0.25500000920E-02 0.  1.
        2   -1    0    0  501    0  0.00000000000E+00  0.00000000000E+00 -0.19514745214E+04  0.19514745214E+04  0.25500000920E-02 0. -1.
    10030    2    1    2    0    0  0.00000000000E+00  0.00000000000E+00 -0.11073052087E+04  0.27956438342E+04  0.25670020690E+04 0.  0.
        5    1    3    3  502    0  0.28754623272E+02 -0.39156020446E+03 -0.18844611229E+04  0.19249316964E+04  0.46999998093E+01 0. -1.
       -5    1    3    3    0  502 -0.28754623272E+02  0.39156020446E+03  0.77715591416E+03  0.87071213784E+03  0.46999998093E+01 0.  1.
</event>
<event>
 5   0  0.2452457E-05  0.2379563E+04  0.7818609E-02  0.8447195E-01
        2   -1    0    0  501    0  0.00000000000E+00  0.00000000000E+00  0.12648268762E+04  0.12648268762E+04  0.25500000920E-02 0. -1.
       -2   -1    0    0    0  501  0.00000000000E+00  0.00000000000E+00 -0.11191886423E+04  0.11191886423E+04  0.25500000920E-02 0.  1.
    10030    2    1    2    0    0  0.00000000000E+00  0.00000000000E+00  0.14563823393E+03  0.23840155185E+04  0.23795628795E+04 0.  0.
        1    1    3    3  502    0 -0.17689868106E+03  0.76856435096E+03  0.96532586808E+03  0.12465305197E+04  0.50400001928E-02 0. -1.
       -1    1    3    3    0  502  0.17689868106E+03 -0.76856435096E+03 -0.81968763415E+03  0.11374849988E+04  0.50400001928E-02 0.  1.
</event>
<event>
 5   0  0.1010338E-05  0.2464095E+04  0.7818609E-02  0.8415890E-01
        1   -1    0    0  501    0  0.00000000000E+00  0.00000000000E+00  0.24178018826E+04  0.24178018826E+04  0.50400001928E-02 0. -1.
       -1   -1    0    0    0  501  0.00000000000E+00  0.00000000000E+00 -0.62781875086E+03  0.62781875088E+03  0.50400001928E-02 0.  1.
    10030    2    1    2    0    0  0.00000000000E+00  0.00000000000E+00  0.17899831317E+04  0.30456206335E+04  0.24640952561E+04 0.  0.
        2    1    3    3  502    0 -0.69389371431E+03 -0.28021097619E+02  0.21528406188E+04  0.22620778940E+04  0.25500000920E-02 0. -1.
       -2    1    3    3    0  502  0.69389371431E+03  0.28021097619E+02 -0.36285748704E+03  0.78354273947E+03  0.25500000920E-02 0.  1.
</event>
<event>
 5   0  0.2452457E-05  0.2487617E+04  0.7818609E-02  0.8407410E-01
       -2   -1    0    0    0  501  0.00000000000E+00  0.00000000000E+00  0.12916698676E+04  0.12916698676E+04  0.25500000920E-02 0. -1.
        2   -1    0    0  501    0  0.00000000000E+00  0.00000000000E+00 -0.11977202654E+04  0.11977202654E+04  0.25500000920E-02 0.  1.
    10030    2    1    2    0    0  0.00000000000E+00  0.00000000000E+00  0.93949602177E+02  0.24893901330E+04  0.24876166719E+04 0.  0.
        1    1    3    3  502    0 -0.28070312571E+03 -0.72278313615E+03 -0.92626647042E+03  0.12079649337E+04  0.50400001928E-02 0.  1.
       -1    1    3    3    0  502  0.28070312571E+03  0.72278313615E+03  0.10202160726E+04  0.12814251993E+04  0.50400001928E-02 0. -1.
</event>
<event>
 5   0  0.1015327E-05  0.2504961E+04  0.7818609E-02  0.8401220E-01
       -1   -1    0    0    0  501  0.00000000000E+00  0.00000000000E+00  0.11416293541E+04  0.11416293541E+04  0.50400001928E-02 0. -1.
        1   -1    0    0  501    0  0.00000000000E+00  0.00000000000E+00 -0.13740953515E+04  0.13740953515E+04  0.50400001928E-02 0.  1.
    10030    2    1    2    0    0  0.00000000000E+00  0.00000000000E+00 -0.23246599740E+03  0.25157247056E+04  0.25049611483E+04 0.  0.
        4    1    3    3  502    0 -0.86052598487E+02 -0.12207215937E+04  0.15163336750E+03  0.12331101127E+04  0.12699999809E+01 0. -1.
       -4    1    3    3    0  502  0.86052598487E+02  0.12207215937E+04 -0.38409936490E+03  0.12826145929E+04  0.12699999809E+01 0.  1.
</event>
<event>
 5   0  0.2441340E-05  0.2484025E+04  0.7818609E-02  0.8408699E-01
       -2   -1    0    0    0  501  0.00000000000E+00  0.00000000000E+00  0.85569228313E+03  0.85569228313E+03  0.25500000920E-02 0.  1.
        2   -1    0    0  501    0  0.00000000000E+00  0.00000000000E+00 -0.18027452273E+04  0.18027452273E+04  0.25500000920E-02 0. -1.
    10030    2    1    2    0    0  0.00000000000E+00  0.00000000000E+00 -0.94705294421E+03  0.26584375105E+04  0.24840251041E+04 0.  0.
        3    1    3    3  502    0  0.78208621708E+03  0.94460155256E+03 -0.68396494020E+03  0.14041862390E+04  0.10100000352E+00 0.  1.
       -3    1    3    3    0  502 -0.78208621708E+03 -0.94460155256E+03 -0.26308800401E+03  0.12542512715E+04  0.10100000352E+00 0. -1.
</event>
<event>
 5   0  0.1015327E-05  0.2478644E+04  0.7818609E-02  0.8410634E-01
        1   -1    0    0  501    0  0.00000000000E+00  0.00000000000E+00  0.16889013724E+04  0.16889013724E+04  0.50400001928E-02 0.  1.
       -1   -1    0    0    0  501  0.00000000000E+00  0.00000000000E+00 -0.90941866818E+03  0.90941866820E+03  0.50400001928E-02 0. -1.
    10030    2    1    2    0    0  0.00000000000E+00  0.00000000000E+00  0.77948270423E+03  0.25983200406E+04  0.24786435297E+04 0.  0.
        4    1    3    3  502    0  0.13981217261E+03  0.11008304698E+04 -0.18875673033E+03  0.11256135585E+04  0.12699999809E+01 0. -1.
       -4    1    3    3    0  502 -0.13981217261E+03 -0.11008304698E+04  0.96823943456E+03  0.14727064821E+04  0.12699999809E+01 0.  1.
</event>
<event>
 5   0  0.2441340E-05  0.2490119E+04  0.7818609E-02  0.8406514E-01
        2   -1    0    0  501    0  0.00000000000E+00  0.00000000000E+00  0.68307958892E+03  0.68307958893E+03  0.25500000920E-02 0.  1.
       -2   -1    0    0    0  501  0.00000000000E+00  0.00000000000E+00 -0.22693895725E+04  0.22693895725E+04  0.25500000920E-02 0. -1.
    10030    2    1    2    0    0  0.00000000000E+00  0.00000000000E+00 -0.15863099836E+04  0.29524691614E+04  0.24901194319E+04 0.  0.
        3    1    3    3  502    0 -0.39678860672E+03  0.29720267833E+02 -0.21919732224E+04  0.22277951231E+04  0.10100000352E+00 0. -1.
       -3    1    3    3    0  502  0.39678860672E+03 -0.29720267833E+02  0.60566323881E+03  0.72467403831E+03  0.10100000352E+00 0.  1.
</event>
<event>
 5   0  0.2432309E-05  0.2528132E+04  0.7818609E-02  0.8393031E-01
       -2   -1    0    0    0  501  0.00000000000E+00  0.00000000000E+00  0.68893678162E+03  0.68893678162E+03  0.25500000920E-02 0.  1.
        2   -1    0    0  501    0  0.00000000000E+00  0.00000000000E+00 -0.23193169378E+04  0.23193169378E+04  0.25500000920E-02 0. -1.
    10030    2    1    2    0    0  0.00000000000E+00  0.00000000000E+00 -0.16303801562E+04  0.30082537194E+04  0.25281319164E+04 0.  0.
        4    1    3    3  502    0 -0.74219074938E+03  0.99991238592E+03 -0.55670454054E+03  0.13640357203E+04  0.12699999809E+01 0.  1.
       -4    1    3    3    0  502  0.74219074938E+03 -0.99991238592E+03 -0.10736756156E+04  0.16442179991E+04  0.12699999809E+01 0. -1.
</event>
<event>
 5   0  0.2388326E-05  0.2460527E+04  0.7818609E-02  0.8417185E-01
       -2   -1    0    0    0  501  0.00000000000E+00  0.00000000000E+00  0.11313896703E+04  0.11313896703E+04  0.25500000920E-02 0.  1.
        2   -1    0    0  501    0  0.00000000000E+00  0.00000000000E+00 -0.13377779577E+04  0.13377779577E+04  0.25500000920E-02 0. -1.
    10030    2    1    2    0    0  0.00000000000E+00  0.00000000000E+00 -0.20638828738E+03  0.24691676280E+04  0.24605269050E+04 0.  0.
        2    1    3    3  502    0  0.10277843478E+04  0.12709237958E+03 -0.76964609359E+03  0.12902899860E+04  0.25500000920E-02 0.  1.
       -2    1    3    3    0  502 -0.10277843478E+04 -0.12709237958E+03  0.56325780621E+03  0.11788776420E+04  0.25500000920E-02 0. -1.
</event>
<event>
 5   0  0.2388326E-05  0.2496457E+04  0.7818609E-02  0.8404249E-01
        2   -1    0    0  501    0  0.00000000000E+00  0.00000000000E+00  0.64276445072E+03  0.64276445073E+03  0.25500000920E-02 0. -1.
       -2   -1    0    0    0  501  0.00000000000E+00  0.00000000000E+00 -0.24240214487E+04  0.24240214487E+04  0.25500000920E-02 0.  1.
    10030    2    1    2    0    0  0.00000000000E+00  0.00000000000E+00 -0.17812569980E+04  0.30667858995E+04  0.24964573419E+04 0.  0.
        2    1    3    3  502    0 -0.79708971799E+03  0.10218398721E+03  0.28271096474E+03  0.85189146924E+03  0.25500000920E-02 0. -1.
       -2    1    3    3    0  502  0.79708971799E+03 -0.10218398721E+03 -0.20639679627E+04  0.22148944302E+04  0.25500000920E-02 0.  1.
</event>
<event>
 5   0  0.1015327E-05  0.2529590E+04  0.7818609E-02  0.8392519E-01
       -1   -1    0    0    0  501  0.00000000000E+00  0.00000000000E+00  0.14192554531E+04  0.14192554531E+04  0.50400001928E-02 0. -1.
        1   -1    0    0  501    0  0.00000000000E+00  0.00000000000E+00 -0.11271448119E+04  0.11271448119E+04  0.50400001928E-02 0.  1.
    10030    2    1    2    0    0  0.00000000000E+00  0.00000000000E+00  0.29211064121E+03  0.25464002651E+04  0.25295900228E+04 0.  0.
        4    1    3    3  502    0  0.40653411737E+03 -0.10556760674E+04  0.71548472436E+03  0.13385223015E+04  0.12699999809E+01 0. -1.
       -4    1    3    3    0  502 -0.40653411737E+03  0.10556760674E+04 -0.42337408315E+03  0.12078779636E+04  0.12699999809E+01 0.  1.
</event>
<event>
 5   0  0.2388326E-05  0.2470351E+04  0.7818609E-02  0.8413625E-01
        2   -1    0    0  501    0  0.00000000000E+00  0.00000000000E+00  0.18099880370E+04  0.18099880370E+04  0.25500000920E-02 0. -1.
       -2   -1    0    0    0  501  0.00000000000E+00  0.00000000000E+00 -0.84291057621E+03  0.84291057621E+03  0.25500000920E-02 0.  1.
    10030    2    1    2    0    0  0.00000000000E+00  0.00000000000E+00  0.96707746076E+03  0.26528986132E+04  0.24703506303E+04 0.  0.
        2    1    3    3  502    0 -0.89013673674E+03  0.21678561237E+03 -0.40612308877E+03  0.10021354075E+04  0.25500000920E-02 0.  1.
       -2    1    3    3    0  502  0.89013673674E+03 -0.21678561237E+03  0.13732005495E+04  0.16507632056E+04  0.25500000920E-02 0. -1.
</event>
<event>
 5   0  0.2345143E-05  0.2480950E+04  0.7818609E-02  0.8409804E-01
       -2   -1    0    0    0  501  0.00000000000E+00  0.00000000000E+00  0.11391278652E+04  0.11391278652E+04  0.25500000920E-02 0. -1.
        2   -1    0    0  501    0  0.00000000000E+00  0.00000000000E+00 -0.13508388460E+04  0.13508388460E+04  0.25500000920E-02 0.  1.
    10030    2    1    2    0    0  0.00000000000E+00  0.00000000000E+00 -0.21171098080E+03  0.24899667112E+04  0.24809499559E+04 0.  0.
        5    1    3    3  502    0  0.76048976432E+03  0.72553144280E+03 -0.76704837180E+03  0.13012016949E+04  0.46999998093E+01 0.  1.
       -5    1    3    3    0  502 -0.76048976432E+03 -0.72553144280E+03  0.55533739100E+03  0.11887650163E+04  0.46999998093E+01 0. -1.
</event>
<event>
 5   0  0.2345143E-05  0.2500264E+04  0.7818609E-02  0.8402892E-01
       -2   -1    0    0    0  501  0.00000000000E+00  0.00000000000E+00  0.16336120268E+04  0.16336120268E+04  0.25500000920E-02 0. -1.
        2   -1    0    0  501    0  0.00000000000E+00  0.00000000000E+00 -0.95667142345E+03  0.95667142345E+03  0.25500000920E-02 0.  1.
    10030    2    1    2    0    0  0.00000000000E+00  0.00000000000E+00  0.67694060331E+03  0.25902834502E+04  0.25002639405E+04 0.  0.
        5    1    3    3  502    0  0.46863090857E+03 -0.16318772781E+03  0.15271975152E+04  0.16058018256E+04  0.46999998093E+01 0. -1.
       -5    1    3    3    0  502 -0.46863090857E+03  0.16318772781E+03 -0.85025691184E+03  0.98448162456E+03  0.46999998093E+01 0.  1.
</event>
<event>
 5   0  0.2441340E-05  0.2492335E+04  0.7818609E-02  0.8405721E-01
        2   -1    0    0  501    0  0.00000000000E+00  0.00000000000E+00  0.24902027267E+04  0.24902027267E+04  0.25500000920E-02 0. -1.
       -2   -1    0    0    0  501  0.00000000000E+00  0.00000000000E+00 -0.62361740542E+03  0.62361740543E+03  0.25500000920E-02 0.  1.
    10030    2    1    2    0    0  0.00000000000E+00  0.00000000000E+00  0.18665853213E+04  0.31138201322E+04  0.24923352611E+04 0.  0.
        3    1    3    3  502    0  0.44290638515E+03 -0.11062615044E+04  0.47774228368E+03  0.12838295378E+04  0.10100000352E+00 0. -1.
       -3    1    3    3    0  502 -0.44290638515E+03  0.11062615044E+04  0.13888430376E+04  0.18299905944E+04  0.10100000352E+00 0.  1.
</event>
<event>
 5   0  0.1002753E-05  0.2499156E+04  0.7818609E-02  0.8403286E-01
        1   -1    0    0  501    0  0.00000000000E+00  0.00000000000E+00  0.17473726229E+04  0.17473726229E+04  0.50400001928E-02 0.  1.
       -1   -1    0    0    0  501  0.00000000000E+00  0.00000000000E+00 -0.89359615552E+03  0.89359615553E+03  0.50400001928E-02 0. -1.
    10030    2    1    2    0    0  0.00000000000E+00  0.00000000000E+00  0.85377646734E+03  0.26409687784E+04  0.24991562241E+04 0.  0.
        5    1    3    3  502    0  0.10748368687E+04  0.36469939773E+03 -0.12539929411E+03  0.11419400239E+04  0.46999998093E+01 0.  1.
       -5    1    3    3    0  502 -0.10748368687E+04 -0.36469939773E+03  0.97917576145E+03  0.14990287545E+04  0.46999998093E+01 0. -1.
</event>
<event>
 5   0  0.1008073E-05  0.2504156E+04  0.7818609E-02  0.8401506E-01
        1   -1    0    0  501    0  0.00000000000E+00  0.00000000000E+00  0.27136376004E+04  0.27136376004E+04  0.50400001928E-02 0. -1.
       -1   -1    0    0    0  501  0.00000000000E+00  0.00000000000E+00 -0.57771151633E+03  0.57771151635E+03  0.50400001928E-02 0.  1.
    10030    2    1    2    0    0  0.00000000000E+00  0.00000000000E+00  0.21359260841E+04  0.32913491168E+04  0.25041562994E+04 0.  0.
        1    1    3    3  502    0 -0.84746207900E+03 -0.82308602646E+03  0.52280353711E+03  0.12918924571E+04  0.50400001928E-02 0. -1.
       -1    1    3    3    0  502  0.84746207900E+03  0.82308602646E+03  0.16131225470E+04  0.19994566597E+04  0.50400001928E-02 0.  1.
</event>
<event>
 5   0  0.2441340E-05  0.2513228E+04  0.7818609E-02  0.8398288E-01
        2   -1    0    0  501    0  0.00000000000E+00  0.00000000000E+00  0.21223781579E+04  0.21223781579E+04  0.25500000920E-02 0. -1.
       -2   -1    0    0    0  501  0.00000000000E+00  0.00000000000E+00 -0.74401362224E+03  0.74401362224E+03  0.25500000920E-02 0.  1.
    10030    2    1    2    0    0  0.00000000000E+00  0.00000000000E+00  0.13783645357E+04  0.28663917802E+04  0.25132276149E+04 0.  0.
        3    1    3    3  502    0 -0.31435822145E+03  0.62991148319E+03 -0.49798498420E+03  0.86232164691E+03  0.10100000352E+00 0.  1.
       -3    1    3    3    0  502  0.31435822145E+03 -0.62991148319E+03  0.18763495199E+04  0.20040701333E+04  0.10100000352E+00 0. -1.
</event>
<event>
 5   0  0.1010338E-05  0.2501186E+04  0.7818609E-02  0.8402563E-01
        1   -1    0    0  501    0  0.00000000000E+00  0.00000000000E+00  0.45610123999E+03  0.45610124002E+03  0.50400001928E-02 0.  1.
       -1   -1    0    0    0  501  0.00000000000E+00  0.00000000000E+00 -0.34290256672E+04  0.34290256672E+04  0.50400001928E-02 0. -1.
    10030    2    1    2    0    0  0.00000000000E+00  0.00000000000E+00 -0.29729244272E+04  0.38851269073E+04  0.25011860058E+04 0.  0.
        2    1    3    3  502    0 -0.64765987289E+03  0.57938547967E+03 -0.89488012875E+02  0.87358969170E+03  0.25500000920E-02 0. -1.
       -2    1    3    3    0  502  0.64765987289E+03 -0.57938547967E+03 -0.28834364144E+04  0.30115372155E+04  0.25500000920E-02 0.  1.
</event>
<event>
 5   0  0.2432309E-05  0.2471261E+04  0.7818609E-02  0.8413296E-01
        2   -1    0    0  501    0  0.00000000000E+00  0.00000000000E+00  0.14316189870E+04  0.14316189870E+04  0.25500000920E-02 0.  1.
       -2   -1    0    0    0  501  0.00000000000E+00  0.00000000000E+00 -0.10664726840E+04  0.10664726840E+04  0.25500000920E-02 0. -1.
    10030    2    1    2    0    0  0.00000000000E+00  0.00000000000E+00  0.36514630296E+03  0.24980916710E+04  0.24712608470E+04 0.  0.
        4    1    3    3  502    0  0.59369848889E+03 -0.10314933256E+04 -0.15318446522E+03  0.11999681119E+04  0.12699999809E+01 0.  1.
       -4    1    3    3    0  502 -0.59369848889E+03  0.10314933256E+04  0.51833076818E+03  0.12981235590E+04  0.12699999809E+01 0. -1.
</event>
<event>
 5   0  0.1015327E-05  0.2503684E+04  0.7818609E-02  0.8401674E-01
       -1   -1    0    0    0  501  0.00000000000E+00  0.00000000000E+00  0.94627539874E+03  0.94627539875E+03  0.50400001928E-02 0.  1.
        1   -1    0    0  501    0  0.00000000000E+00  0.00000000000E+00 -0.16560801846E+04  0.16560801846E+04  0.50400001928E-02 0. -1.
    10030    2    1    2    0    0  0.00000000000E+00  0.00000000000E+00 -0.70980478589E+03  0.26023555834E+04  0.25036836358E+04 0.  0.
        4    1    3    3  502    0 -0.11341848847E+04 -0.12863407440E+03  0.17934282743E+03  0.11554598826E+04  0.12699999809E+01 0.  1.
       -4    1    3    3    0  502  0.11341848847E+04  0.12863407440E+03 -0.88914761332E+03  0.14468957008E+04  0.12699999809E+01 0. -1.
</event>
<event>
 5   0  0.2432309E-05  0.2494673E+04  0.7818609E-02  0.8404886E-01
        2   -1    0    0  501    0  0.00000000000E+00  0.00000000000E+00  0.11909349550E+04  0.11909349550E+04  0.25500000920E-02 0.  1.
       -2   -1    0    0    0  501  0.00000000000E+00  0.00000000000E+00 -0.13064090293E+04  0.13064090293E+04  0.25500000920E-02 0. -1.
    10030    2    1    2    0    0  0.00000000000E+00  0.00000000000E+00 -0.11547407434E+03  0.24973439843E+04  0.24946728671E+04 0.  0.
        4    1    3    3  502    0  0.12464194976E+04 -0.43529876506E+02 -0.77510437701E+02  0.12495862896E+04  0.12699999809E+01 0. -1.
       -4    1    3    3    0  502 -0.12464194976E+04  0.43529876506E+02 -0.37963636636E+02  0.12477576947E+04  0.12699999809E+01 0.  1.
</event>
<event>
 5   0  0.2452457E-05  0.2494118E+04  0.7818609E-02  0.8405084E-01
        2   -1    0    0  501    0  0.00000000000E+00  0.00000000000E+00  0.16553606122E+04  0.16553606122E+04  0.25500000920E-02 0. -1.
       -2   -1    0    0    0  501  0.00000000000E+00  0.00000000000E+00 -0.93946695067E+03  0.93946695068E+03  0.25500000920E-02 0.  1.
    10030    2    1    2    0    0  0.00000000000E+00  0.00000000000E+00  0.71589366158E+03  0.25948275629E+04  0.24941183506E+04 0.  0.
        1    1    3    3  502    0  0.57948753614E+03  0.11035882407E+04  0.31841549265E+03  0.12865073787E+04  0.50400001928E-02 0. -1.
       -1    1    3    3    0  502 -0.57948753614E+03 -0.11035882407E+04  0.39747816893E+03  0.13083201842E+04  0.50400001928E-02 0.  1.
</event>
<event>
 5   0  0.2388326E-05  0.2510292E+04  0.7818609E-02  0.8399328E-01
        2   -1    0    0  501    0  0.00000000000E+00  0.00000000000E+00  0.15954916506E+04  0.15954916506E+04  0.25500000920E-02 0.  1.
       -2   -1    0    0    0  501  0.00000000000E+00  0.00000000000E+00 -0.98740222562E+03  0.98740222562E+03  0.25500000920E-02 0. -1.
    10030    2    1    2    0    0  0.00000000000E+00  0.00000000000E+00  0.60808942503E+03  0.25828938763E+04  0.25102924187E+04 0.  0.
        2    1    3    3  502    0  0.88886965280E+03  0.38886432261E+03 -0.51528135160E+03  0.10985534090E+04  0.25500000920E-02 0. -1.
       -2    1    3    3    0  502 -0.88886965280E+03 -0.38886432261E+03  0.11233707766E+04  0.14843404673E+04  0.25500000920E-02 0.  1.
</event>
<event>
 5   0  0.1039688E-05  0.2500960E+04  0.7818609E-02  0.8402644E-01
       -1   -1    0    0    0  501  0.00000000000E+00  0.00000000000E+00  0.12918711019E+04  0.12918711020E+04  0.50400001928E-02 0. -1.
        1   -1    0    0  501    0  0.00000000000E+00  0.00000000000E+00 -0.12104150932E+04  0.12104150933E+04  0.50400001928E-02 0.  1.
    10030    2    1    2    0    0  0.00000000000E+00  0.00000000000E+00  0.81456008695E+02  0.25022861952E+04  0.25009600399E+04 0.  0.
        3    1    3    3  502    0  0.11936754177E+03 -0.84861190451E+03  0.95187520738E+03  0.12808033398E+04  0.10100000352E+00 0.  1.
       -3    1    3    3    0  502 -0.11936754177E+03  0.84861190451E+03 -0.87041919869E+03  0.12214828554E+04  0.10100000352E+00 0. -1.
</event>
<event>
 5   0  0.1008073E-05  0.2519070E+04  0.7818609E-02  0.8396223E-01
        1   -1    0    0  501    0  0.00000000000E+00  0.00000000000E+00  0.25612586706E+04  0.25612586706E+04  0.50400001928E-02 0. -1.
       -1   -1    0    0    0  501  0.00000000000E+00  0.00000000000E+00 -0.61939427563E+03  0.61939427565E+03  0.50400001928E-02 0.  1.
    10030    2    1    2    0    0  0.00000000000E+00  0.00000000000E+00  0.19418643949E+04  0.31806529462E+04  0.25190704309E+04 0.  0.
        1    1    3    3  502    0  0.33604064116E+03 -0.92053340433E+03  0.19700256528E+04  0.22002968285E+04  0.50400001928E-02 0.  1.
       -1    1    3    3    0  502 -0.33604064116E+03  0.92053340433E+03 -0.28161257865E+02  0.98035611768E+03  0.50400001928E-02 0. -1.
</event>
<event>
 5   0  0.1010338E-05  0.2490591E+04  0.7818609E-02  0.8406345E-01
        1   -1    0    0  501    0  0.00000000000E+00  0.00000000000E+00  0.14301518855E+04  0.14301518855E+04  0.50400001928E-02 0.  1.
       -1   -1    0    0    0  501  0.00000000000E+00  0.00000000000E+00 -0.10843333978E+04  0.10843333978E+04  0.50400001928E-02 0. -1.
    10030    2    1    2    0    0  0.00000000000E+00  0.00000000000E+00  0.34581848775E+03  0.25144852833E+04  0.24905914586E+04 0.  0.
        2    1    3    3  502    0 -0.12240408648E+04 -0.11176618435E+03 -0.28993669234E+02  0.12294748275E+04  0.25500000920E-02 0. -1.
       -2    1    3    3    0  502  0.12240408648E+04  0.11176618435E+03  0.37481215698E+03  0.12850104558E+04  0.25500000920E-02 0.  1.
</event>
<event>
 5   0  0.2388326E-05  0.2363304E+04  0.7818609E-02  0.8453371E-01
       -2   -1    0    0    0  501  0.00000000000E+00  0.00000000000E+00  0.46018252104E+03  0.46018252105E+03  0.25500000920E-02 0. -1.
        2   -1    0    0  501    0  0.00000000000E+00  0.00000000000E+00 -0.30342352394E+04  0.30342352394E+04  0.25500000920E-02 0.  1.
    10030    2    1    2    0    0  0.00000000000E+00  0.00000000000E+00 -0.25740527183E+04  0.34944177604E+04  0.23633044847E+04 0.  0.
        2    1    3    3  502    0  0.48756047018E+03 -0.81582037619E+03 -0.23252457637E+04  0.25119804856E+04  0.25500000920E-02 0.  1.
       -2    1    3    3    0  502 -0.48756047018E+03  0.81582037619E+03 -0.24880695460E+03  0.98243727481E+03  0.25500000920E-02 0. -1.
</event>
<event>
 5   0  0.2345143E-05  0.2212989E+04  0.7818609E-02  0.8513041E-01
       -2   -1    0    0    0  501  0.00000000000E+00  0.00000000000E+00  0.58689771962E+03  0.58689771962E+03  0.25500000920E-02 0. -1.
        2   -1    0    0  501    0  0.00000000000E+00  0.00000000000E+00 -0.20861052333E+04  0.20861052333E+04  0.25500000920E-02 0.  1.
    10030    2    1    2    0    0  0.00000000000E+00  0.00000000000E+00 -0.14992075137E+04  0.26730029529E+04  0.22129892944E+04 0.  0.
        5    1    3    3  502    0 -0.18064709274E+03  0.45595559200E+03  0.44842983816E+03  0.66456021830E+03  0.46999998093E+01 0. -1.
       -5    1    3    3    0  502  0.18064709274E+03 -0.45595559200E+03 -0.19476373519E+04  0.20084427346E+04  0.46999998093E+01 0.  1.
</event>
<event>
 5   0  0.1008073E-05  0.2527894E+04  0.7818609E-02  0.8393115E-01
        1   -1    0    0  501    0  0.00000000000E+00  0.00000000000E+00  0.18264541721E+04  0.18264541721E+04  0.50400001928E-02 0.  1.
       -1   -1    0    0    0  501  0.00000000000E+00  0.00000000000E+00 -0.87467980532E+03  0.87467980533E+03  0.50400001928E-02 0. -1.
    10030    2    1    2    0    0  0.00000000000E+00  0.00000000000E+00  0.95177436682E+03  0.27011339775E+04  0.25278944438E+04 0.  0.
        1    1    3    3  502    0 -0.15104470327E+03 -0.23457959276E+03  0.17931397407E+04  0.18147154646E+04  0.50400001928E-02 0.  1.
       -1    1    3    3    0  502  0.15104470327E+03  0.23457959276E+03 -0.84136537384E+03  0.88641851292E+03  0.50400001928E-02 0. -1.
</event>
<event>
 5   0  0.2452457E-05  0.2474062E+04  0.7818609E-02  0.8412285E-01
       -2   -1    0    0    0  501  0.00000000000E+00  0.00000000000E+00  0.23315142728E+04  0.23315142728E+04  0.25500000920E-02 0. -1.
        2   -1    0    0  501    0  0.00000000000E+00  0.00000000000E+00 -0.65633141574E+03  0.65633141574E+03  0.25500000920E-02 0.  1.
    10030    2    1    2    0    0  0.00000000000E+00  0.00000000000E+00  0.16751828571E+04  0.29878456886E+04  0.24740622979E+04 0.  0.
        1    1    3    3  502    0 -0.31522152454E+02 -0.55217276591E+03 -0.49870153971E+03  0.74470909438E+03  0.50400001928E-02 0.  1.
       -1    1    3    3    0  502  0.31522152454E+02  0.55217276591E+03  0.21738843968E+04  0.22431365942E+04  0.50400001928E-02 0. -1.
</event>
<event>
 5   0  0.1008073E-05  0.2503571E+04  0.7818609E-02  0.8401714E-01
        1   -1    0    0  501    0  0.00000000000E+00  0.00000000000E+00  0.94479055020E+03  0.94479055021E+03  0.50400001928E-02 0.  1.
       -1   -1    0    0    0  501  0.00000000000E+00  0.00000000000E+00 -0.16585337808E+04  0.16585337808E+04  0.50400001928E-02 0. -1.
    10030    2    1    2    0    0  0.00000000000E+00  0.00000000000E+00 -0.71374323057E+03  0.26033243310E+04  0.25035710841E+04 0.  0.
        1    1    3    3  502    0  0.76761098135E+03 -0.26400191798E+03 -0.13477529700E+04  0.15733282237E+04  0.50400001928E-02 0. -1.
       -1    1    3    3    0  502 -0.76761098135E+03  0.26400191798E+03  0.63400973939E+03  0.10299961073E+04  0.50400001928E-02 0.  1.
</event>
<event>
 5   0  0.2345143E-05  0.2488539E+04  0.7818609E-02  0.8407080E-01
        2   -1    0    0  501    0  0.00000000000E+00  0.00000000000E+00  0.22805558548E+04  0.22805558548E+04  0.25500000920E-02 0.  1.
       -2   -1    0    0    0  501  0.00000000000E+00  0.00000000000E+00 -0.67887259759E+03  0.67887259760E+03  0.25500000920E-02 0. -1.
    10030    2    1    2    0    0  0.00000000000E+00  0.00000000000E+00  0.16016832572E+04  0.29594284524E+04  0.24885392318E+04 0.  0.
        5    1    3    3  502    0  0.50792417731E+03 -0.82914729249E+03 -0.12240659958E+03  0.98003962581E+03  0.46999998093E+01 0. -1.
       -5    1    3    3    0  502 -0.50792417731E+03  0.82914729249E+03  0.17240898568E+04  0.19793888266E+04  0.46999998093E+01 0.  1.
</event>
<event>
 5   0  0.2452457E-05  0.2467504E+04  0.7818609E-02  0.8414655E-01
       -2   -1    0    0    0  501  0.00000000000E+00  0.00000000000E+00  0.11495121988E+04  0.11495121988E+04  0.25500000920E-02 0.  1.
        2   -1    0    0  501    0  0.00000000000E+00  0.00000000000E+00 -0.13241648104E+04  0.13241648104E+04  0.25500000920E-02 0. -1.
    10030    2    1    2    0    0  0.00000000000E+00  0.00000000000E+00 -0.17465261159E+03  0.24736770092E+04  0.24675036800E+04 0.  0.
        1    1    3    3  502    0  0.73143522101E+03 -0.98289659429E+03 -0.23281141483E+03  0.12471104011E+04  0.50400001928E-02 0. -1.
       -1    1    3    3    0  502 -0.73143522101E+03  0.98289659429E+03  0.58158803245E+02  0.12265666081E+04  0.50400001928E-02 0.  1.
</event>
<event>
 5   0  0.2345143E-05  0.2492443E+04  0.7818609E-02  0.8405683E-01
       -2   -1    0    0    0  501  0.00000000000E+00  0.00000000000E+00  0.16206151834E+04  0.16206151834E+04  0.25500000920E-02 0.  1.
        2   -1    0    0  501    0  0.00000000000E+00  0.00000000000E+00 -0.95832010169E+03  0.95832010169E+03  0.25500000920E-02 0. -1.
    10030    2    1    2    0    0  0.00000000000E+00  0.00000000000E+00  0.66229508167E+03  0.25789352851E+04  0.24924430644E+04 0.  0.
        5    1    3    3  502    0  0.36291672390E+03  0.10569923328E+04 -0.23944586414E+03  0.11429338354E+04  0.46999998093E+01 0. -1.
       -5    1    3    3    0  502 -0.36291672390E+03 -0.10569923328E+04  0.90174094581E+03  0.14360014497E+04  0.46999998093E+01 0.  1.
</event>
<event>
 5   0  0.2345143E-05  0.2492109E+04  0.7818609E-02  0.8405802E-01
       -2   -1    0    0    0  501  0.00000000000E+00  0.00000000000E+00  0.45068137961E+03  0.45068137962E+03  0.25500000920E-02 0.  1.
        2   -1    0    0  501    0  0.00000000000E+00  0.00000000000E+00 -0.34451219952E+04  0.34451219952E+04  0.25500000920E-02 0. -1.
    10030    2    1    2    0    0  0.00000000000E+00  0.00000000000E+00 -0.29944406156E+04  0.38958033748E+04  0.24921094147E+04 0.  0.
        5    1    3    3  502    0 -0.11035599655E+04  0.37742219245E+03 -0.81163322902E+03  0.14209372601E+04  0.46999998093E+01 0.  1.
       -5    1    3    3    0  502  0.11035599655E+04 -0.37742219245E+03 -0.21828073865E+04  0.24748661147E+04  0.46999998093E+01 0. -1.
</event>
<event>
 5   0  0.1010338E-05  0.2502183E+04  0.7818609E-02  0.8402208E-01
       -1   -1    0    0    0  501  0.00000000000E+00  0.00000000000E+00  0.15544898997E+04  0.15544898997E+04  0.50400001928E-02 0.  1.
        1   -1    0    0  501    0  0.00000000000E+00  0.00000000000E+00 -0.10069094099E+04  0.10069094099E+04  0.50400001928E-02 0. -1.
    10030    2    1    2    0    0  0.00000000000E+00  0.00000000000E+00  0.54758048975E+03  0.25613993096E+04  0.25021834526E+04 0.  0.
        2    1    3    3  502    0 -0.46731912376E+03  0.78863677787E+03  0.11453472651E+04  0.14670226612E+04  0.25500000920E-02 0.  1.
       -2    1    3    3    0  502  0.46731912376E+03 -0.78863677787E+03 -0.59776677532E+03  0.10943766484E+04  0.25500000920E-02 0. -1.
</event>
<event>
 5   0  0.2441340E-05  0.2532816E+04  0.7818609E-02  0.8391387E-01
       -2   -1    0    0    0  501  0.00000000000E+00  0.00000000000E+00  0.98998966894E+03  0.98998966894E+03  0.25500000920E-02 0.  1.
        2   -1    0    0  501    0  0.00000000000E+00  0.00000000000E+00 -0.16200056703E+04  0.16200056703E+04  0.25500000920E-02 0. -1.
    10030    2    1    2    0    0  0.00000000000E+00  0.00000000000E+00 -0.63001600135E+03  0.26099953392E+04  0.25328157274E+04 0.  0.
        3    1    3    3  502    0  0.31056155422E+02 -0.62705217175E+03  0.81833770732E+03  0.10314240274E+04  0.10100000352E+00 0.  1.
       -3    1    3    3    0  502 -0.31056155422E+02  0.62705217175E+03 -0.14483537087E+04  0.15785713118E+04  0.10100000352E+00 0. -1.
</event>
<event>
 5   0  0.1010338E-05  0.2503888E+04  0.7818609E-02  0.8401602E-01
        1   -1    0    0  501    0  0.00000000000E+00  0.00000000000E+00  0.21011125509E+04  0.21011125509E+04  0.50400001928E-02 0.  1.
       -1   -1    0    0    0  501  0.00000000000E+00  0.00000000000E+00 -0.74596847216E+03  0.74596847218E+03  0.50400001928E-02 0. -1.
    10030    2    1    2    0    0  0.00000000000E+00  0.00000000000E+00  0.13551440787E+04  0.28470810230E+04  0.25038879523E+04 0.  0.
        2    1    3    3  502    0  0.39910644136E+03 -0.32501724890E+03 -0.62009734424E+03  0.80588018958E+03  0.25500000920E-02 0. -1.
       -2    1    3    3    0  502 -0.39910644136E+03  0.32501724890E+03  0.19752414229E+04  0.20412008335E+04  0.25500000920E-02 0.  1.
</event>
<event>
 5   0  0.2432309E-05  0.2548962E+04  0.7818609E-02  0.8385747E-01
       -2   -1    0    0    0  501  0.00000000000E+00  0.00000000000E+00  0.12388608849E+04  0.12388608849E+04  0.25500000920E-02 0. -1.
        2   -1    0    0  501    0  0.00000000000E+00  0.00000000000E+00 -0.13111249245E+04  0.13111249245E+04  0.25500000920E-02 0.  1.
    10030    2    1    2    0    0  0.00000000000E+00  0.00000000000E+00 -0.72264039572E+02  0.25499858095E+04  0.25489616586E+04 0.  0.
        4    1    3    3  502    0  0.10959372110E+04 -0.13176911223E+03 -0.67345808101E+03  0.12930540859E+04  0.12699999809E+01 0. -1.
       -4    1    3    3    0  502 -0.10959372110E+04  0.13176911223E+03  0.60119404144E+03  0.12569317236E+04  0.12699999809E+01 0.  1.
</event>
<event>
 5   0  0.1039688E-05  0.2518651E+04  0.7818609E-02  0.8396371E-01
        1   -1    0    0  501    0  0.00000000000E+00  0.00000000000E+00  0.15943331395E+04  0.15943331395E+04  0.50400001928E-02 0.  1.
       -1   -1    0    0    0  501  0.00000000000E+00  0.00000000000E+00 -0.99471137174E+03  0.99471137175E+03  0.50400001928E-02 0. -1.
    10030    2    1    2    0    0  0.00000000000E+00  0.00000000000E+00  0.59962176779E+03  0.25890445113E+04  0.25186514680E+04 0.  0.
        3    1    3    3  502    0 -0.80068844151E+03  0.10052599569E+03  0.12936272237E+04  0.15246897587E+04  0.10100000352E+00 0.  1.
       -3    1    3    3    0  502  0.80068844151E+03 -0.10052599569E+03 -0.69400545595E+03  0.10643547525E+04  0.10100000352E+00 0. -1.
</event>
<event>
 5   0  0.2441340E-05  0.2510638E+04  0.7818609E-02  0.8399206E-01
       -2   -1    0    0    0  501  0.00000000000E+00  0.00000000000E+00  0.70344033439E+03  0.70344033439E+03  0.25500000920E-02 0.  1.
        2   -1    0    0  501    0  0.00000000000E+00  0.00000000000E+00 -0.22401689765E+04  0.22401689765E+04  0.25500000920E-02 0. -1.
    10030    2    1    2    0    0  0.00000000000E+00  0.00000000000E+00 -0.15367286421E+04  0.29436093109E+04  0.25106375397E+04 0.  0.
        3    1    3    3  502    0  0.59458701086E+03  0.66488329634E+03  0.26726696099E+03  0.93114722245E+03  0.10100000352E+00 0. -1.
       -3    1    3    3    0  502 -0.59458701086E+03 -0.66488329634E+03 -0.18039956031E+04  0.20124620885E+04  0.10100000352E+00 0.  1.
</event>
<event>
 5   0  0.1015327E-05  0.2502020E+04  0.7818609E-02  0.8402266E-01
       -1   -1    0    0    0  501  0.00000000000E+00  0.00000000000E+00  0.12203458159E+04  0.12203458159E+04  0.50400001928E-02 0. -1.
        1   -1    0    0  501    0  0.00000000000E+00  0.00000000000E+00 -0.12824443359E+04  0.12824443359E+04  0.50400001928E-02 0.  1.
    10030    2    1    2    0    0  0.00000000000E+00  0.00000000000E+00 -0.62098519975E+02  0.25027901518E+04  0.25020196477E+04 0.  0.
        4    1    3    3  502    0  0.15113210382E+03 -0.92953413230E+03  0.79270257820E+03  0.12309563787E+04  0.12699999809E+01 0. -1.
       -4    1    3    3    0  502 -0.15113210382E+03  0.92953413230E+03 -0.85480109817E+03  0.12718337730E+04  0.12699999809E+01 0.  1.
</event>
<event>
 5   0  0.2452457E-05  0.2456727E+04  0.7818609E-02  0.8418566E-01
        2   -1    0    0  501    0  0.00000000000E+00  0.00000000000E+00  0.80368995883E+03  0.80368995884E+03  0.25500000920E-02 0. -1.
       -2   -1    0    0    0  501  0.00000000000E+00  0.00000000000E+00 -0.18774372729E+04  0.18774372729E+04  0.25500000920E-02 0.  1.
    10030    2    1    2    0    0  0.00000000000E+00  0.00000000000E+00 -0.10737473140E+04  0.26811272317E+04  0.24567274855E+04 0.  0.
        1    1    3    3  502    0 -0.12202694566E+04 -0.67369697062E+02 -0.67178238457E+03  0.13945923401E+04  0.50400001928E-02 0.  1.
       -1    1    3    3    0  502  0.12202694566E+04  0.67369697062E+02 -0.40196492945E+03  0.12865348916E+04  0.50400001928E-02 0. -1.
</event>
<event>
 5   0  0.1002753E-05  0.2521391E+04  0.7818609E-02  0.8395404E-01
       -1   -1    0    0    0  501  0.00000000000E+00  0.00000000000E+00  0.11092738035E+04  0.11092738035E+04  0.50400001928E-02 0. -1.
        1   -1    0    0  501    0  0.00000000000E+00  0.00000000000E+00 -0.14327875335E+04  0.14327875336E+04  0.50400001928E-02 0.  1.
    10030    2    1    2    0    0  0.00000000000E+00  0.00000000000E+00 -0.32351373004E+03  0.25420613371E+04  0.25213914230E+04 0.  0.
        5    1    3    3  502    0 -0.91543426642E+03 -0.65573576912E+02  0.70962694040E+03  0.11601345933E+04  0.46999998093E+01 0. -1.
       -5    1    3    3    0  502  0.91543426642E+03  0.65573576912E+02 -0.10331406704E+04  0.13819267437E+04  0.46999998093E+01 0.  1.
</event>
<event>
 5   0  0.1015327E-05  0.2464077E+04  0.7818609E-02  0.8415896E-01
       -1   -1    0    0    0  501  0.00000000000E+00  0.00000000000E+00  0.85449933057E+03  0.85449933059E+03  0.50400001928E-02 0. -1.
        1   -1    0    0  501    0  0.00000000000E+00  0.00000000000E+00 -0.17763831960E+04  0.17763831960E+04  0.50400001928E-02 0.  1.
    10030    2    1    2    0    0  0.00000000000E+00  0.00000000000E+00 -0.92188386544E+03  0.26308825266E+04  0.24640765020E+04 0.  0.
        4    1    3    3  502    0 -0.87137986223E+02 -0.12250136881E+04 -0.35597563729E+03  0.12786601706E+04  0.12699999809E+01 0. -1.
       -4    1    3    3    0  502  0.87137986223E+02  0.12250136881E+04 -0.56590822815E+03  0.13522223560E+04  0.12699999809E+01 0.  1.
</event>
<event>
 5   0  0.2441340E-05  0.2500898E+04  0.7818609E-02  0.8402666E-01
        2   -1    0    0  501    0  0.00000000000E+00  0.00000000000E+00  0.14411025628E+04  0.14411025628E+04  0.25500000920E-02 0.  1.
       -2   -1    0    0    0  501  0.00000000000E+00  0.00000000000E+00 -0.10850184049E+04  0.10850184049E+04  0.25500000920E-02 0. -1.
    10030    2    1    2    0    0  0.00000000000E+00  0.00000000000E+00  0.35608415791E+03  0.25261209677E+04  0.25008980819E+04 0.  0.
        3    1    3    3  502    0  0.92353049234E+03  0.83491181217E+03  0.29599520091E+03  0.12796872561E+04  0.10100000352E+00 0. -1.
       -3    1    3    3    0  502 -0.92353049234E+03 -0.83491181217E+03  0.60088956999E+02  0.12464337116E+04  0.10100000352E+00 0.  1.
</event>
<event>
 5   0  0.8166500E-06  0.2491472E+04  0.7818609E-02  0.8406030E-01
       -3   -1    0    0    0  501  0.00000000000E+00  0.00000000000E+00  0.11102107701E+04  0.11102107747E+04  0.10100000352E+00 0. -1.
        3   -1    0    0  501    0  0.00000000000E+00  0.00000000000E+00 -0.13978053080E+04  0.13978053116E+04  0.10100000352E+00 0.  1.
    10030    2    1    2    0    0  0.00000000000E+00  0.00000000000E+00 -0.28759453789E+03  0.25080160863E+04  0.24914722698E+04 0.  0.
        2    1    3    3  502    0 -0.29103820361E+03  0.11062093727E+04 -0.64048632970E+03  0.13109634438E+04  0.25500000920E-02 0.  1.
       -2    1    3    3    0  502  0.29103820361E+03 -0.11062093727E+04  0.35289179181E+03  0.11970526426E+04  0.25500000920E-02 0. -1.
</event>
<event>
 5   0  0.1039688E-05  0.2532466E+04  0.7818609E-02  0.8391510E-01
        1   -1    0    0  501    0  0.00000000000E+00  0.00000000000E+00  0.19398665828E+04  0.19398665828E+04  0.50400001928E-02 0. -1.
       -1   -1    0    0    0  501  0.00000000000E+00  0.00000000000E+00 -0.82652362546E+03  0.82652362547E+03  0.50400001928E-02 0.  1.
    10030    2    1    2    0    0  0.00000000000E+00  0.00000000000E+00  0.11133429574E+04  0.27663902083E+04  0.25324656451E+04 0.  0.
        3    1    3    3  502    0 -0.50560289551E+03 -0.58695074245E+03 -0.53744524712E+03  0.94286418209E+03  0.10100000352E+00 0.  1.
       -3    1    3    3    0  502  0.50560289551E+03  0.58695074245E+03  0.16507882045E+04  0.18235260262E+04  0.10100000352E+00 0. -1.
</event>
<event>
 5   0  0.1010338E-05  0.2481348E+04  0.7818609E-02  0.8409661E-01
       -1   -1    0    0    0  501  0.00000000000E+00  0.00000000000E+00  0.71766971800E+03  0.71766971802E+03  0.50400001928E-02 0.  1.
        1   -1    0    0  501    0  0.00000000000E+00  0.00000000000E+00 -0.21448201571E+04  0.21448201571E+04  0.50400001928E-02 0. -1.
    10030    2    1    2    0    0  0.00000000000E+00  0.00000000000E+00 -0.14271504391E+04  0.28624898752E+04  0.24813484055E+04 0.  0.
        2    1    3    3  502    0  0.34365319546E+03  0.11902083685E+04 -0.63551290063E+03  0.13923254383E+04  0.25500000920E-02 0.  1.
       -2    1    3    3    0  502 -0.34365319546E+03 -0.11902083685E+04 -0.79163753851E+03  0.14701644369E+04  0.25500000920E-02 0. -1.
</event>
<event>
 5   0  0.2388326E-05  0.2511067E+04  0.7818609E-02  0.8399054E-01
        2   -1    0    0  501    0  0.00000000000E+00  0.00000000000E+00  0.12218463647E+04  0.12218463647E+04  0.25500000920E-02 0. -1.
       -2   -1    0    0    0  501  0.00000000000E+00  0.00000000000E+00 -0.12901491029E+04  0.12901491029E+04  0.25500000920E-02 0.  1.
    10030    2    1    2    0    0  0.00000000000E+00  0.00000000000E+00 -0.68302738289E+02  0.25119954676E+04  0.25110666987E+04 0.  0.
        2    1    3    3  502    0 -0.27624887076E+03  0.94928981788E+03 -0.80832351181E+03  0.12770479618E+04  0.25500000920E-02 0.  1.
       -2    1    3    3    0  502  0.27624887076E+03 -0.94928981788E+03  0.74002077352E+03  0.12349475058E+04  0.25500000920E-02 0. -1.
</event>
<event>
 5   0  0.1015327E-05  0.2467882E+04  0.7818609E-02  0.8414518E-01
        1   -1    0    0  501    0  0.00000000000E+00  0.00000000000E+00  0.12747203396E+04  0.12747203396E+04  0.50400001928E-02 0. -1.
       -1   -1    0    0    0  501  0.00000000000E+00  0.00000000000E+00 -0.11944665361E+04  0.11944665361E+04  0.50400001928E-02 0.  1.
    10030    2    1    2    0    0  0.00000000000E+00  0.00000000000E+00  0.80253803489E+02  0.24691868757E+04  0.24678823218E+04 0.  0.
        4    1    3    3  502    0 -0.25131032445E+03 -0.79702211360E+02  0.12462100308E+04  0.12737936942E+04  0.12699999809E+01 0. -1.
       -4    1    3    3    0  502  0.25131032445E+03  0.79702211360E+02 -0.11659562273E+04  0.11953931815E+04  0.12699999809E+01 0.  1.
</event>
<event>
 5   0  0.1010338E-05  0.2475706E+04  0.7818609E-02  0.8411692E-01
       -1   -1    0    0    0  501  0.00000000000E+00  0.00000000000E+00  0.13416462548E+04  0.13416462549E+04  0.50400001928E-02 0.  1.
        1   -1    0    0  501    0  0.00000000000E+00  0.00000000000E+00 -0.11420892379E+04  0.11420892379E+04  0.50400001928E-02 0. -1.
    10030    2    1    2    0    0  0.00000000000E+00  0.00000000000E+00  0.19955701692E+03  0.24837354928E+04  0.24757057570E+04 0.  0.
        2    1    3    3  502    0  0.11277184909E+04 -0.18875524266E+03 -0.37599820364E+03  0.12036412196E+04  0.25500000920E-02 0. -1.
       -2    1    3    3    0  502 -0.11277184909E+04  0.18875524266E+03  0.57555522056E+03  0.12800942732E+04  0.25500000920E-02 0.  1.
</event>
<event>
 5   0  0.1039688E-05  0.2571014E+04  0.7818609E-02  0.8378114E-01
        1   -1    0    0  501    0  0.00000000000E+00  0.00000000000E+00  0.13632983482E+04  0.13632983482E+04  0.50400001928E-02 0. -1.
       -1   -1    0    0    0  501  0.00000000000E+00  0.00000000000E+00 -0.12121546452E+04  0.12121546452E+04  0.50400001928E-02 0.  1.
    10030    2    1    2    0    0  0.00000000000E+00  0.00000000000E+00  0.15114370298E+03  0.25754529934E+04  0.25710141388E+04 0.  0.
        3    1    3    3  502    0 -0.22863687299E+03  0.48278028542E+03 -0.10957102353E+04  0.12189883321E+04  0.10100000352E+00 0.  1.
       -3    1    3    3    0  502  0.22863687299E+03 -0.48278028542E+03  0.12468539383E+04  0.13564646613E+04  0.10100000352E+00 0. -1.
</event>
<event>
 5   0  0.2452457E-05  0.2508544E+04  0.7818609E-02  0.8399948E-01
        2   -1    0    0  501    0  0.00000000000E+00  0.00000000000E+00  0.15667475070E+04  0.15667475070E+04  0.25500000920E-02 0.  1.
       -2   -1    0    0    0  501  0.00000000000E+00  0.00000000000E+00 -0.10041172280E+04  0.10041172280E+04  0.25500000920E-02 0. -1.
    10030    2    1    2    0    0  0.00000000000E+00  0.00000000000E+00  0.56263027900E+03  0.25708647349E+04  0.25085439311E+04 0.  0.
        1    1    3    3  502    0  0.10392235172E+04 -0.22848757004E+03  0.96189611053E+03  0.14343765948E+04  0.50400001928E-02 0.  1.
       -1    1    3    3    0  502 -0.10392235172E+04  0.22848757004E+03 -0.39926583153E+03  0.11364881401E+04  0.50400001928E-02 0. -1.
</event>
<event>
 5   0  0.2432309E-05  0.2497472E+04  0.7818609E-02  0.8403887E-01
       -2   -1    0    0    0  501  0.00000000000E+00  0.00000000000E+00  0.67467811361E+03  0.67467811362E+03  0.25500000920E-02 0.  1.
        2   -1    0    0  501    0  0.00000000000E+00  0.00000000000E+00 -0.23112375436E+04  0.23112375436E+04  0.25500000920E-02 0. -1.
    10030    2    1    2    0    0  0.00000000000E+00  0.00000000000E+00 -0.16365594299E+04  0.29859156572E+04  0.24974718305E+04 0.  0.
        4    1    3    3  502    0  0.75808417290E+03  0.59686513122E+02  0.36593487122E+03  0.84389811940E+03  0.12699999809E+01 0.  1.
       -4    1    3    3    0  502 -0.75808417290E+03 -0.59686513122E+02 -0.20024943012E+04  0.21420175378E+04  0.12699999809E+01 0. -1.
</event>
<event>
 5   0  0.1008073E-05  0.2528602E+04  0.7818609E-02  0.8392866E-01
        1   -1    0    0  501    0  0.00000000000E+00  0.00000000000E+00  0.16210991718E+04  0.16210991718E+04  0.50400001928E-02 0. -1.
       -1   -1    0    0    0  501  0.00000000000E+00  0.00000000000E+00 -0.98603267162E+03  0.98603267163E+03  0.50400001928E-02 0.  1.
    10030    2    1    2    0    0  0.00000000000E+00  0.00000000000E+00  0.63506650021E+03  0.26071318435E+04  0.25286017855E+04 0.  0.
        1    1    3    3  502    0  0.18636050638E+03  0.76682822633E+03  0.13359860924E+04  0.15516489958E+04  0.50400001928E-02 0. -1.
       -1    1    3    3    0  502 -0.18636050638E+03 -0.76682822633E+03 -0.70091959218E+03  0.10554828477E+04  0.50400001928E-02 0.  1.
</event>
<event>
 5   0  0.2452457E-05  0.2485759E+04  0.7818609E-02  0.8408076E-01
       -2   -1    0    0    0  501  0.00000000000E+00  0.00000000000E+00  0.11088982205E+04  0.11088982205E+04  0.25500000920E-02 0. -1.
        2   -1    0    0  501    0  0.00000000000E+00  0.00000000000E+00 -0.13930491995E+04  0.13930491995E+04  0.25500000920E-02 0.  1.
    10030    2    1    2    0    0  0.00000000000E+00  0.00000000000E+00 -0.28415097902E+03  0.25019474201E+04  0.24857592631E+04 0.  0.
        1    1    3    3  502    0 -0.11631857820E+04  0.34332573184E+03 -0.41564706115E+03  0.12820437594E+04  0.50400001928E-02 0.  1.
       -1    1    3    3    0  502  0.11631857820E+04 -0.34332573184E+03  0.13149608213E+03  0.12199036606E+04  0.50400001928E-02 0. -1.
</event>
<event>
 5   0  0.2432309E-05  0.2488659E+04  0.7818609E-02  0.8407037E-01
       -2   -1    0    0    0  501  0.00000000000E+00  0.00000000000E+00  0.75407685299E+03  0.75407685299E+03  0.25500000920E-02 0. -1.
        2   -1    0    0  501    0  0.00000000000E+00  0.00000000000E+00 -0.20533132471E+04  0.20533132471E+04  0.25500000920E-02 0.  1.
    10030    2    1    2    0    0  0.00000000000E+00  0.00000000000E+00 -0.12992363941E+04  0.28073901001E+04  0.24886590699E+04 0.  0.
        4    1    3    3  502    0 -0.79236486158E+03 -0.16491883761E+02 -0.17317695043E+04  0.19045055225E+04  0.12699999809E+01 0.  1.
       -4    1    3    3    0  502  0.79236486158E+03  0.16491883761E+02  0.43253311025E+03  0.90288457760E+03  0.12699999809E+01 0. -1.
</event>
<event>
 5   0  0.2345143E-05  0.2494279E+04  0.7818609E-02  0.8405026E-01
        2   -1    0    0  501    0  0.00000000000E+00  0.00000000000E+00  0.14757310702E+04  0.14757310702E+04  0.25500000920E-02 0. -1.
       -2   -1    0    0    0  501  0.00000000000E+00  0.00000000000E+00 -0.10539570333E+04  0.10539570333E+04  0.25500000920E-02 0.  1.
    10030    2    1    2    0    0  0.00000000000E+00  0.00000000000E+00  0.42177403693E+03  0.25296881035E+04  0.24942791670E+04 0.  0.
        5    1    3    3  502    0  0.70761985168E+03 -0.36957192024E+03  0.11826254083E+04  0.14268616629E+04  0.46999998093E+01 0. -1.
       -5    1    3    3    0  502 -0.70761985168E+03  0.36957192024E+03 -0.76085137138E+03  0.11028264406E+04  0.46999998093E+01 0.  1.
</event>
<event>
 5   0  0.2452457E-05  0.2462873E+04  0.7818609E-02  0.8416333E-01
       -2   -1    0    0    0  501  0.00000000000E+00  0.00000000000E+00  0.10461733919E+04  0.10461733919E+04  0.25500000920E-02 0. -1.
        2   -1    0    0  501    0  0.00000000000E+00  0.00000000000E+00 -0.14495075350E+04  0.14495075350E+04  0.25500000920E-02 0.  1.
    10030    2    1    2    0    0  0.00000000000E+00  0.00000000000E+00 -0.40333414310E+03  0.24956809269E+04  0.24628732931E+04 0.  0.
        1    1    3    3  502    0 -0.11005806268E+04  0.35079042971E+03  0.23075456529E+03  0.11779555641E+04  0.50400001928E-02 0. -1.
       -1    1    3    3    0  502  0.11005806268E+04 -0.35079042971E+03 -0.63408870840E+03  0.13177253628E+04  0.50400001928E-02 0.  1.
</event>
<event>
 5   0  0.2345143E-05  0.2514139E+04  0.7818609E-02  0.8397966E-01
        2   -1    0    0  501    0  0.00000000000E+00  0.00000000000E+00  0.15073971828E+04  0.15073971828E+04  0.25500000920E-02 0. -1.
       -2   -1    0    0    0  501  0.00000000000E+00  0.00000000000E+00 -0.10483130817E+04  0.10483130817E+04  0.25500000920E-02 0.  1.
    10030    2    1    2    0    0  0.00000000000E+00  0.00000000000E+00  0.45908410109E+03  0.25557102646E+04  0.25141393646E+04 0.  0.
        5    1    3    3  502    0 -0.34912927737E+02  0.71261636347E+03  0.12816242338E+04  0.14668414231E+04  0.46999998093E+01 0. -1.
       -5    1    3    3    0  502  0.34912927737E+02 -0.71261636347E+03 -0.82254013268E+03  0.10888688414E+04  0.46999998093E+01 0.  1.
</event>
<event>
 5   0  0.2452457E-05  0.2481650E+04  0.7818609E-02  0.8409552E-01
       -2   -1    0    0    0  501  0.00000000000E+00  0.00000000000E+00  0.46170041895E+03  0.46170041895E+03  0.25500000920E-02 0.  1.
        2   -1    0    0  501    0  0.00000000000E+00  0.00000000000E+00 -0.33347313072E+04  0.33347313072E+04  0.25500000920E-02 0. -1.
    10030    2    1    2    0    0  0.00000000000E+00  0.00000000000E+00 -0.28730308883E+04  0.37964317262E+04  0.24816501298E+04 0.  0.
        1    1    3    3  502    0  0.92907963838E+03  0.75437228403E+03 -0.19378150882E+04  0.22775850881E+04  0.50400001928E-02 0. -1.
       -1    1    3    3    0  502 -0.92907963838E+03 -0.75437228403E+03 -0.93521580011E+03  0.15188466381E+04  0.50400001928E-02 0.  1.
</event>
<event>
 5   0  0.1015327E-05  0.2529545E+04  0.7818609E-02  0.8392535E-01
       -1   -1    0    0    0  501  0.00000000000E+00  0.00000000000E+00  0.23671275729E+04  0.23671275729E+04  0.50400001928E-02 0.  1.
        1   -1    0    0  501    0  0.00000000000E+00  0.00000000000E+00 -0.67577654379E+03  0.67577654381E+03  0.50400001928E-02 0. -1.
    10030    2    1    2    0    0  0.00000000000E+00  0.00000000000E+00  0.16913510291E+04  0.30429041167E+04  0.25295448523E+04 0.  0.
        4    1    3    3  502    0  0.83433401347E+03 -0.64538056702E+03  0.16851713537E+04  0.19880727920E+04  0.12699999809E+01 0.  1.
       -4    1    3    3    0  502 -0.83433401347E+03  0.64538056702E+03  0.61796754871E+01  0.10548313247E+04  0.12699999809E+01 0. -1.
</event>
<event>
 5   0  0.1039688E-05  0.2491130E+04  0.7818609E-02  0.8406152E-01
       -1   -1    0    0    0  501  0.00000000000E+00  0.00000000000E+00  0.57422050917E+03  0.57422050920E+03  0.50400001928E-02 0.  1.
        1   -1    0    0  501    0  0.00000000000E+00  0.00000000000E+00 -0.27018066125E+04  0.27018066125E+04  0.50400001928E-02 0. -1.
    10030    2    1    2    0    0  0.00000000000E+00  0.00000000000E+00 -0.21275861033E+04  0.32760271217E+04  0.24911304813E+04 0.  0.
        3    1    3    3  502    0 -0.79644931533E+03  0.54842406399E+03 -0.20962179614E+04  0.23085125552E+04  0.10100000352E+00 0.  1.
       -3    1    3    3    0  502  0.79644931533E+03 -0.54842406399E+03 -0.31368141981E+02  0.96751456650E+03  0.10100000352E+00 0. -1.
</event>
<event>
 5   0  0.2452457E-05  0.2512257E+04  0.7818609E-02  0.8398632E-01
       -2   -1    0    0    0  501  0.00000000000E+00  0.00000000000E+00  0.99298016258E+03  0.99298016259E+03  0.25500000920E-02 0.  1.
        2   -1    0    0  501    0  0.00000000000E+00  0.00000000000E+00 -0.15890133439E+04  0.15890133439E+04  0.25500000920E-02 0. -1.
    10030    2    1    2    0    0  0.00000000000E+00  0.00000000000E+00 -0.59603318134E+03  0.25819935065E+04  0.25122569364E+04 0.  0.
        1    1    3    3  502    0  0.24486832309E+03  0.12200000846E+04 -0.12149917038E+03  0.12502490754E+04  0.50400001928E-02 0. -1.
       -1    1    3    3    0  502 -0.24486832309E+03 -0.12200000846E+04 -0.47453401096E+03  0.13317444311E+04  0.50400001928E-02 0.  1.
</event>
<event>
 5   0  0.1010338E-05  0.2511628E+04  0.7818609E-02  0.8398855E-01
       -1   -1    0    0    0  501  0.00000000000E+00  0.00000000000E+00  0.15188899587E+04  0.15188899587E+04  0.50400001928E-02 0. -1.
        1   -1    0    0  501    0  0.00000000000E+00  0.00000000000E+00 -0.10383039265E+04  0.10383039265E+04  0.50400001928E-02 0.  1.
    10030    2    1    2    0    0  0.00000000000E+00  0.00000000000E+00  0.48058603212E+03  0.25571938852E+04  0.25116284821E+04 0.  0.
        2    1    3    3  502    0  0.49505763372E+03  0.16786081640E+03 -0.92226712093E+03  0.10601112945E+04  0.25500000920E-02 0.  1.
       -2    1    3    3    0  502 -0.49505763372E+03 -0.16786081640E+03  0.14028531530E+04  0.14970825907E+04  0.25500000920E-02 0. -1.
</event>
<event>
 5   0  0.2388326E-05  0.2481863E+04  0.7818609E-02  0.8409476E-01
       -2   -1    0    0    0  501  0.00000000000E+00  0.00000000000E+00  0.81533778053E+03  0.81533778054E+03  0.25500000920E-02 0.  1.
        2   -1    0    0  501    0  0.00000000000E+00  0.00000000000E+00 -0.18886778296E+04  0.18886778296E+04  0.25500000920E-02 0. -1.
    10030    2    1    2    0    0  0.00000000000E+00  0.00000000000E+00 -0.10733400490E+04  0.27040156101E+04  0.24818625181E+04 0.  0.
        2    1    3    3  502    0  0.45489214296E+03 -0.44595013654E+03 -0.16969410518E+04  0.18125692592E+04  0.25500000920E-02 0. -1.
       -2    1    3    3    0  502 -0.45489214296E+03  0.44595013654E+03  0.62360100274E+03  0.89144635096E+03  0.25500000920E-02 0.  1.
</event>
<event>
 5   0  0.1015327E-05  0.2528484E+04  0.7818609E-02  0.8392908E-01
        1   -1    0    0  501    0  0.00000000000E+00  0.00000000000E+00  0.10789811565E+04  0.10789811565E+04  0.50400001928E-02 0.  1.
       -1   -1    0    0    0  501  0.00000000000E+00  0.00000000000E+00 -0.14813119820E+04  0.14813119821E+04  0.50400001928E-02 0. -1.
    10030    2    1    2    0    0  0.00000000000E+00  0.00000000000E+00 -0.40233082553E+03  0.25602931386E+04  0.25284839059E+04 0.  0.
        4    1    3    3  502    0 -0.60068825780E+03 -0.67456625260E+03  0.69451906100E+03  0.11393964855E+04  0.12699999809E+01 0.  1.
       -4    1    3    3    0  502  0.60068825780E+03  0.67456625260E+03 -0.10968498865E+04  0.14208966531E+04  0.12699999809E+01 0. -1.
</event>
<event>
 5   0  0.2345143E-05  0.2466945E+04  0.7818609E-02  0.8414857E-01
        2   -1    0    0  501    0  0.00000000000E+00  0.00000000000E+00  0.11680290621E+04  0.11680290621E+04  0.25500000920E-02 0.  1.
       -2   -1    0    0    0  501  0.00000000000E+00  0.00000000000E+00 -0.13025824631E+04  0.13025824631E+04  0.25500000920E-02 0. -1.
    10030    2    1    2    0    0  0.00000000000E+00  0.00000000000E+00 -0.13455340105E+03  0.24706115252E+04  0.24669448091E+04 0.  0.
        5    1    3    3  502    0  0.94426504895E+03  0.22694312294E+03  0.69430899635E+03  0.11938286042E+04  0.46999998093E+01 0.  1.
       -5    1    3    3    0  502 -0.94426504895E+03 -0.22694312294E+03 -0.82886239741E+03  0.12767829211E+04  0.46999998093E+01 0. -1.
</event>
<event>
 5   0  0.1008073E-05  0.2497122E+04  0.7818609E-02  0.8404011E-01
       -1   -1    0    0    0  501  0.00000000000E+00  0.00000000000E+00  0.12142806745E+04  0.12142806745E+04  0.50400001928E-02 0.  1.
        1   -1    0    0  501    0  0.00000000000E+00  0.00000000000E+00 -0.12838094041E+04  0.12838094041E+04  0.50400001928E-02 0. -1.
    10030    2    1    2    0    0  0.00000000000E+00  0.00000000000E+00 -0.69528729623E+02  0.24980900786E+04  0.24971223031E+04 0.  0.
        1    1    3    3  502    0  0.11789624550E+04 -0.34743417927E+03 -0.25449003483E+03  0.12551606101E+04  0.50400001928E-02 0. -1.
       -1    1    3    3    0  502 -0.11789624550E+04  0.34743417927E+03  0.18496130521E+03  0.12429294685E+04  0.50400001928E-02 0.  1.
</event>
<event>
 5   0  0.2452457E-05  0.2505259E+04  0.7818609E-02  0.8401114E-01
       -2   -1    0    0    0  501  0.00000000000E+00  0.00000000000E+00  0.13152909347E+04  0.13152909347E+04  0.25500000920E-02 0.  1.
        2   -1    0    0  501    0  0.00000000000E+00  0.00000000000E+00 -0.11929534631E+04  0.11929534631E+04  0.25500000920E-02 0. -1.
    10030    2    1    2    0    0  0.00000000000E+00  0.00000000000E+00  0.12233747161E+03  0.25082443979E+04  0.25052591687E+04 0.  0.
        1    1    3    3  502    0 -0.15190755443E+03  0.67227046556E+03  0.11083870845E+04  0.13051993767E+04  0.50400001928E-02 0.  1.
       -1    1    3    3    0  502  0.15190755443E+03 -0.67227046556E+03 -0.98604961284E+03  0.12030450212E+04  0.50400001928E-02 0. -1.
</event>
<event>
 5   0  0.1010338E-05  0.2493736E+04  0.7818609E-02  0.8405221E-01
        1   -1    0    0  501    0  0.00000000000E+00  0.00000000000E+00  0.20942763594E+04  0.20942763595E+04  0.50400001928E-02 0. -1.
       -1   -1    0    0    0  501  0.00000000000E+00  0.00000000000E+00 -0.74234692418E+03  0.74234692420E+03  0.50400001928E-02 0.  1.
    10030    2    1    2    0    0  0.00000000000E+00  0.00000000000E+00  0.13519294353E+04  0.28366232837E+04  0.24937358432E+04 0.  0.
        2    1    3    3  502    0 -0.53129708648E+03  0.11258701904E+04  0.59699788175E+03  0.13806761932E+04  0.25500000920E-02 0.  1.
       -2    1    3    3    0  502  0.53129708648E+03 -0.11258701904E+04  0.75493155351E+03  0.14559470904E+04  0.25500000920E-02 0. -1.
</event>
<event>
 5   0  0.1010338E-05  0.2475623E+04  0.7818609E-02  0.8411722E-01
        1   -1    0    0  501    0  0.00000000000E+00  0.00000000000E+00  0.18587400956E+04  0.18587400956E+04  0.50400001928E-02 0. -1.
       -1   -1    0    0    0  501  0.00000000000E+00  0.00000000000E+00 -0.82430963681E+03  0.82430963683E+03  0.50400001928E-02 0.  1.
    10030    2    1    2    0    0  0.00000000000E+00  0.00000000000E+00  0.10344304588E+04  0.26830497324E+04  0.24756230514E+04 0.  0.
        2    1    3    3  502    0  0.12133752891E+04 -0.21368195378E+03  0.38789522677E+03  0.12916664726E+04  0.25500000920E-02 0. -1.
       -2    1    3    3    0  502 -0.12133752891E+04  0.21368195378E+03  0.64653523199E+03  0.13913832598E+04  0.25500000920E-02 0.  1.
</event>
<event>
 5   0  0.1002753E-05  0.2487162E+04  0.7818609E-02  0.8407573E-01
        1   -1    0    0  501    0  0.00000000000E+00  0.00000000000E+00  0.14669717927E+04  0.14669717927E+04  0.50400001928E-02 0.  1.
       -1   -1    0    0    0  501  0.00000000000E+00  0.00000000000E+00 -0.10542084773E+04  0.10542084773E+04  0.50400001928E-02 0. -1.
    10030    2    1    2    0    0  0.00000000000E+00  0.00000000000E+00  0.41276331542E+03  0.25211802700E+04  0.24871623187E+04 0.  0.
        5    1    3    3  502    0  0.41338426152E+03  0.16602916512E+03 -0.97054094250E+03  0.10679063828E+04  0.46999998093E+01 0. -1.
       -5    1    3    3    0  502 -0.41338426152E+03 -0.16602916512E+03  0.13833042579E+04  0.14532738872E+04  0.46999998093E+01 0.  1.
</event>
<event>
 5   0  0.1002753E-05  0.2505657E+04  0.7818609E-02  0.8400973E-01
        1   -1    0    0  501    0  0.00000000000E+00  0.00000000000E+00  0.10493755583E+04  0.10493755584E+04  0.50400001928E-02 0. -1.
       -1   -1    0    0    0  501  0.00000000000E+00  0.00000000000E+00 -0.14957265651E+04  0.14957265651E+04  0.50400001928E-02 0.  1.
    10030    2    1    2    0    0  0.00000000000E+00  0.00000000000E+00 -0.44635100677E+03  0.25451021235E+04  0.25056567198E+04 0.  0.
        5    1    3    3  502    0 -0.12126978585E+04  0.26993472164E+03 -0.38713522636E+03  0.13013057379E+04  0.46999998093E+01 0.  1.
       -5    1    3    3    0  502  0.12126978585E+04 -0.26993472164E+03 -0.59215780402E+02  0.12437963856E+04  0.46999998093E+01 0. -1.
</event>
<event>
 5   0  0.1015327E-05  0.2482223E+04  0.7818609E-02  0.8409346E-01
       -1   -1    0    0    0  501  0.00000000000E+00  0.00000000000E+00  0.99946927164E+03  0.99946927165E+03  0.50400001928E-02 0.  1.
        1   -1    0    0  501    0  0.00000000000E+00  0.00000000000E+00 -0.15411760502E+04  0.15411760502E+04  0.50400001928E-02 0. -1.
    10030    2    1    2    0    0  0.00000000000E+00  0.00000000000E+00 -0.54170677858E+03  0.25406453219E+04  0.24822232812E+04 0.  0.
        4    1    3    3  502    0  0.10015704541E+04 -0.71792955538E+02 -0.10174449008E+04  0.14295080770E+04  0.12699999809E+01 0. -1.
       -4    1    3    3    0  502 -0.10015704541E+04  0.71792955538E+02  0.47573812226E+03  0.11111372449E+04  0.12699999809E+01 0.  1.
</event>
<event>
 5   0  0.2432309E-05  0.2504896E+04  0.7818609E-02  0.8401243E-01
        2   -1    0    0  501    0  0.00000000000E+00  0.00000000000E+00  0.15992155705E+04  0.15992155705E+04  0.25500000920E-02 0.  1.
       -2   -1    0    0    0  501  0.00000000000E+00  0.00000000000E+00 -0.98087209239E+03  0.98087209240E+03  0.25500000920E-02 0. -1.
    10030    2    1    2    0    0  0.00000000000E+00  0.00000000000E+00  0.61834347808E+03  0.25800876629E+04  0.25048959442E+04 0.  0.
        4    1    3    3  502    0  0.27544648592E+03  0.11736799257E+04  0.65881537054E+03  0.13738393793E+04  0.12699999809E+01 0.  1.
       -4    1    3    3    0  502 -0.27544648592E+03 -0.11736799257E+04 -0.40471892457E+02  0.12062482836E+04  0.12699999809E+01 0. -1.
</event>
<event>
 5   0  0.2452457E-05  0.2517987E+04  0.7818609E-02  0.8396605E-01
       -2   -1    0    0    0  501  0.00000000000E+00  0.00000000000E+00  0.10662247159E+04  0.10662247159E+04  0.25500000920E-02 0. -1.
        2   -1    0    0  501    0  0.00000000000E+00  0.00000000000E+00 -0.14866145372E+04  0.14866145372E+04  0.25500000920E-02 0.  1.
    10030    2    1    2    0    0  0.00000000000E+00  0.00000000000E+00 -0.42038982128E+03  0.25528392531E+04  0.25179874206E+04 0.  0.
        1    1    3    3  502    0  0.58378592623E+03 -0.34906689564E+03 -0.12842979822E+04  0.14532979779E+04  0.50400001928E-02 0.  1.
       -1    1    3    3    0  502 -0.58378592623E+03  0.34906689564E+03  0.86390816096E+03  0.10995412752E+04  0.50400001928E-02 0. -1.
</event>
<event>
 5   0  0.2345143E-05  0.2468017E+04  0.7818609E-02  0.8414469E-01
       -2   -1    0    0    0  501  0.00000000000E+00  0.00000000000E+00  0.89971620786E+03  0.89971620786E+03  0.25500000920E-02 0.  1.
        2   -1    0    0  501    0  0.00000000000E+00  0.00000000000E+00 -0.16925080782E+04  0.16925080782E+04  0.25500000920E-02 0. -1.
    10030    2    1    2    0    0  0.00000000000E+00  0.00000000000E+00 -0.79279187035E+03  0.25922242861E+04  0.24680169772E+04 0.  0.
        5    1    3    3  502    0  0.66521733024E+03 -0.51883745025E+03  0.54950974907E+03  0.10068214591E+04  0.46999998093E+01 0.  1.
       -5    1    3    3    0  502 -0.66521733024E+03  0.51883745025E+03 -0.13423016194E+04  0.15854028270E+04  0.46999998093E+01 0. -1.
</event>
<event>
 5   0  0.2388326E-05  0.2505256E+04  0.7818609E-02  0.8401115E-01
        2   -1    0    0  501    0  0.00000000000E+00  0.00000000000E+00  0.19806723111E+04  0.19806723111E+04  0.25500000920E-02 0.  1.
       -2   -1    0    0    0  501  0.00000000000E+00  0.00000000000E+00 -0.79219436666E+03  0.79219436666E+03  0.25500000920E-02 0. -1.
    10030    2    1    2    0    0  0.00000000000E+00  0.00000000000E+00  0.11884779444E+04  0.27728666777E+04  0.25052564316E+04 0.  0.
        2    1    3    3  502    0 -0.21100310352E+03  0.11437398712E+04  0.11091352169E+04  0.16071229362E+04  0.25500000920E-02 0.  1.
       -2    1    3    3    0  502  0.21100310352E+03 -0.11437398712E+04  0.79342727530E+02  0.11657437416E+04  0.25500000920E-02 0. -1.
</event>
<event>
 5   0  0.1010338E-05  0.2455844E+04  0.7818609E-02  0.8418887E-01
       -1   -1    0    0    0  501  0.00000000000E+00  0.00000000000E+00  0.88898920205E+03  0.88898920206E+03  0.50400001928E-02 0.  1.
        1   -1    0    0  501    0  0.00000000000E+00  0.00000000000E+00 -0.16960752346E+04  0.16960752346E+04  0.50400001928E-02 0. -1.
    10030    2    1    2    0    0  0.00000000000E+00  0.00000000000E+00 -0.80708603252E+03  0.25850644366E+04  0.24558441070E+04 0.  0.
        2    1    3    3  502    0  0.70088707500E+03 -0.85897007095E+03  0.15217550865E+03  0.11190306788E+04  0.25500000920E-02 0.  1.
       -2    1    3    3    0  502 -0.70088707500E+03  0.85897007095E+03 -0.95926154117E+03  0.14660337578E+04  0.25500000920E-02 0. -1.
</event>
<event>
 5   0  0.1008073E-05  0.2503053E+04  0.7818609E-02  0.8401899E-01
        1   -1    0    0  501    0  0.00000000000E+00  0.00000000000E+00  0.11364240996E+04  0.11364240997E+04  0.50400001928E-02 0. -1.
       -1   -1    0    0    0  501  0.00000000000E+00  0.00000000000E+00 -0.13782872619E+04  0.13782872619E+04  0.50400001928E-02 0.  1.
    10030    2    1    2    0    0  0.00000000000E+00  0.00000000000E+00 -0.24186316229E+03  0.25147113616E+04  0.25030532241E+04 0.  0.
        1    1    3    3  502    0 -0.87668291775E+03  0.77067098995E+03  0.33262669107E+03  0.12137327666E+04  0.50400001928E-02 0. -1.
       -1    1    3    3    0  502  0.87668291775E+03 -0.77067098995E+03 -0.57448985337E+03  0.13009785950E+04  0.50400001928E-02 0.  1.
</event>
<event>
 5   0  0.2345143E-05  0.2501173E+04  0.7818609E-02  0.8402568E-01
       -2   -1    0    0    0  501  0.00000000000E+00  0.00000000000E+00  0.14110737663E+04  0.14110737663E+04  0.25500000920E-02 0.  1.
        2   -1    0    0  501    0  0.00000000000E+00  0.00000000000E+00 -0.11083525165E+04  0.11083525165E+04  0.25500000920E-02 0. -1.
    10030    2    1    2    0    0  0.00000000000E+00  0.00000000000E+00  0.30272124976E+03  0.25194262828E+04  0.25011734524E+04 0.  0.
        5    1    3    3  502    0  0.67370732610E+03 -0.56620911973E+03 -0.74364520618E+03  0.11521738633E+04  0.46999998093E+01 0. -1.
       -5    1    3    3    0  502 -0.67370732610E+03  0.56620911973E+03  0.10463664559E+04  0.13672524195E+04  0.46999998093E+01 0.  1.
</event>
<event>
 5   0  0.2452457E-05  0.2501367E+04  0.7818609E-02  0.8402499E-01
        2   -1    0    0  501    0  0.00000000000E+00  0.00000000000E+00  0.17770812480E+04  0.17770812481E+04  0.25500000920E-02 0. -1.
       -2   -1    0    0    0  501  0.00000000000E+00  0.00000000000E+00 -0.88021272145E+03  0.88021272145E+03  0.25500000920E-02 0.  1.
    10030    2    1    2    0    0  0.00000000000E+00  0.00000000000E+00  0.89686852660E+03  0.26572939695E+04  0.25013672434E+04 0.  0.
        1    1    3    3  502    0  0.32116150279E+03  0.78832198474E+03  0.14218576764E+04  0.16571890400E+04  0.50400001928E-02 0. -1.
       -1    1    3    3    0  502 -0.32116150279E+03 -0.78832198474E+03 -0.52498914979E+03  0.10001049295E+04  0.50400001928E-02 0.  1.
</event>
<event>
 5   0  0.8166500E-06  0.2491984E+04  0.7818609E-02  0.8405847E-01
       -3   -1    0    0    0  501  0.00000000000E+00  0.00000000000E+00  0.10217371355E+04  0.10217371405E+04  0.10100000352E+00 0. -1.
        3   -1    0    0  501    0  0.00000000000E+00  0.00000000000E+00 -0.15194668832E+04  0.15194668866E+04  0.10100000352E+00 0.  1.
    10030    2    1    2    0    0  0.00000000000E+00  0.00000000000E+00 -0.49772974776E+03  0.25412040270E+04  0.24919837490E+04 0.  0.
        2    1    3    3  502    0 -0.10525734182E+04  0.37385823282E+03  0.31414041774E+03  0.11603296864E+04  0.25500000920E-02 0. -1.
       -2    1    3    3    0  502  0.10525734182E+04 -0.37385823282E+03 -0.81187016550E+03  0.13808743407E+04  0.25500000920E-02 0.  1.
</event>
<event>
 5   0  0.1039688E-05  0.2019960E+04  0.7818609E-02  0.8597345E-01
       -1   -1    0    0    0  501  0.00000000000E+00  0.00000000000E+00  0.12363273250E+04  0.12363273250E+04  0.50400001928E-02 0. -1.
        1   -1    0    0  501    0  0.00000000000E+00  0.00000000000E+00 -0.82507221322E+03  0.82507221324E+03  0.50400001928E-02 0.  1.
    10030    2    1    2    0    0  0.00000000000E+00  0.00000000000E+00  0.41125511174E+03  0.20613995382E+04  0.20199597246E+04 0.  0.
        3    1    3    3  502    0 -0.90043337018E+03  0.17085073731E+03  0.63870259981E+03  0.11170994807E+04  0.10100000352E+00 0. -1.
       -3    1    3    3    0  502  0.90043337018E+03 -0.17085073731E+03 -0.22744748807E+03  0.94430005751E+03  0.10100000352E+00 0.  1.
</event>
<event>
 5   0  0.2345143E-05  0.2488755E+04  0.7818609E-02  0.8407003E-01
        2   -1    0    0  501    0  0.00000000000E+00  0.00000000000E+00  0.14312931831E+04  0.14312931831E+04  0.25500000920E-02 0.  1.
       -2   -1    0    0    0  501  0.00000000000E+00  0.00000000000E+00 -0.10818713449E+04  0.10818713449E+04  0.25500000920E-02 0. -1.
    10030    2    1    2    0    0  0.00000000000E+00  0.00000000000E+00  0.34942183827E+03  0.25131645280E+04  0.24887547737E+04 0.  0.
        5    1    3    3  502    0 -0.59367080926E+03 -0.41039770429E+03 -0.84892847906E+03  0.11142589277E+04  0.46999998093E+01 0. -1.
       -5    1    3    3    0  502  0.59367080926E+03  0.41039770429E+03  0.11983503173E+04  0.13989056003E+04  0.46999998093E+01 0.  1.
</event>
<event>
 5   0  0.1039688E-05  0.2493651E+04  0.7818609E-02  0.8405251E-01
        1   -1    0    0  501    0  0.00000000000E+00  0.00000000000E+00  0.20179155430E+04  0.20179155430E+04  0.50400001928E-02 0. -1.
       -1   -1    0    0    0  501  0.00000000000E+00  0.00000000000E+00 -0.77038600548E+03  0.77038600550E+03  0.50400001928E-02 0.  1.
    10030    2    1    2    0    0  0.00000000000E+00  0.00000000000E+00  0.12475295375E+04  0.27883015485E+04  0.24936510539E+04 0.  0.
        3    1    3    3  502    0  0.90785384372E+03  0.82930666346E+03  0.85462016406E+03  0.14974390734E+04  0.10100000352E+00 0. -1.
       -3    1    3    3    0  502 -0.90785384372E+03 -0.82930666346E+03  0.39290937345E+03  0.12908624751E+04  0.10100000352E+00 0.  1.
</event>
<event>
 5   0  0.2345143E-05  0.2477271E+04  0.7818609E-02  0.8411128E-01
       -2   -1    0    0    0  501  0.00000000000E+00  0.00000000000E+00  0.93316143816E+03  0.93316143816E+03  0.25500000920E-02 0.  1.
        2   -1    0    0  501    0  0.00000000000E+00  0.00000000000E+00 -0.16441075421E+04  0.16441075421E+04  0.25500000920E-02 0. -1.
    10030    2    1    2    0    0  0.00000000000E+00  0.00000000000E+00 -0.71094610391E+03  0.25772689802E+04  0.24772708842E+04 0.  0.
        5    1    3    3  502    0 -0.46166953942E+03 -0.97338468929E+03 -0.99135656366E+03  0.14640445496E+04  0.46999998093E+01 0. -1.
       -5    1    3    3    0  502  0.46166953942E+03  0.97338468929E+03  0.28041045975E+03  0.11132244306E+04  0.46999998093E+01 0.  1.
</event>
<event>
 5   0  0.1010338E-05  0.2503781E+04  0.7818609E-02  0.8401640E-01
       -1   -1    0    0    0  501  0.00000000000E+00  0.00000000000E+00  0.20856127940E+04  0.20856127940E+04  0.50400001928E-02 0.  1.
        1   -1    0    0  501    0  0.00000000000E+00  0.00000000000E+00 -0.75144832330E+03  0.75144832332E+03  0.50400001928E-02 0. -1.
    10030    2    1    2    0    0  0.00000000000E+00  0.00000000000E+00  0.13341644707E+04  0.28370611173E+04  0.25037813300E+04 0.  0.
        2    1    3    3  502    0 -0.24089106930E+03  0.12258309003E+04  0.75871952776E+03  0.14616241737E+04  0.25500000920E-02 0.  1.
       -2    1    3    3    0  502  0.24089106930E+03 -0.12258309003E+04  0.57544494289E+03  0.13754369436E+04  0.25500000920E-02 0. -1.
</event>
<event>
 5   0  0.2452457E-05  0.2508156E+04  0.7818609E-02  0.8400086E-01
        2   -1    0    0  501    0  0.00000000000E+00  0.00000000000E+00  0.19418941325E+04  0.19418941325E+04  0.25500000920E-02 0.  1.
       -2   -1    0    0    0  501  0.00000000000E+00  0.00000000000E+00 -0.80988535469E+03  0.80988535470E+03  0.25500000920E-02 0. -1.
    10030    2    1    2    0    0  0.00000000000E+00  0.00000000000E+00  0.11320087779E+04  0.27517794872E+04  0.25081559906E+04 0.  0.
        1    1    3    3  502    0  0.16353042467E+02  0.87518081820E+03  0.15512896974E+04  0.17812098730E+04  0.50400001928E-02 0.  1.
       -1    1    3    3    0  502 -0.16353042467E+02 -0.87518081820E+03 -0.41928091953E+03  0.97056961422E+03  0.50400001928E-02 0. -1.
</event>
<event>
 5   0  0.1010338E-05  0.2213862E+04  0.7818609E-02  0.8512680E-01
        1   -1    0    0  501    0  0.00000000000E+00  0.00000000000E+00  0.23087735341E+04  0.23087735341E+04  0.50400001928E-02 0.  1.
       -1   -1    0    0    0  501  0.00000000000E+00  0.00000000000E+00 -0.53071322593E+03  0.53071322595E+03  0.50400001928E-02 0. -1.
    10030    2    1    2    0    0  0.00000000000E+00  0.00000000000E+00  0.17780603081E+04  0.28394867600E+04  0.22138623717E+04 0.  0.
        2    1    3    3  502    0  0.26933014825E+03 -0.10136024616E+04  0.43489771169E+03  0.11353698510E+04  0.25500000920E-02 0.  1.
       -2    1    3    3    0  502 -0.26933014825E+03  0.10136024616E+04  0.13431625964E+04  0.17041169090E+04  0.25500000920E-02 0. -1.
</event>
<event>
 5   0  0.2432309E-05  0.2496198E+04  0.7818609E-02  0.8404341E-01
        2   -1    0    0  501    0  0.00000000000E+00  0.00000000000E+00  0.17023185633E+04  0.17023185633E+04  0.25500000920E-02 0.  1.
       -2   -1    0    0    0  501  0.00000000000E+00  0.00000000000E+00 -0.91507600646E+03  0.91507600646E+03  0.25500000920E-02 0. -1.
    10030    2    1    2    0    0  0.00000000000E+00  0.00000000000E+00  0.78724255680E+03  0.26173945697E+04  0.24961978067E+04 0.  0.
        4    1    3    3  502    0  0.40211227674E+03  0.94747345756E+03 -0.34659222883E+03  0.10860607818E+04  0.12699999809E+01 0. -1.
       -4    1    3    3    0  502 -0.40211227674E+03 -0.94747345756E+03  0.11338347856E+04  0.15313337879E+04  0.12699999809E+01 0.  1.
</event>
<event>
 5   0  0.1015327E-05  0.2489585E+04  0.7818609E-02  0.8406705E-01
       -1   -1    0    0    0  501  0.00000000000E+00  0.00000000000E+00  0.91641774380E+03  0.91641774381E+03  0.50400001928E-02 0.  1.
        1   -1    0    0  501    0  0.00000000000E+00  0.00000000000E+00 -0.16908319442E+04  0.16908319442E+04  0.50400001928E-02 0. -1.
    10030    2    1    2    0    0  0.00000000000E+00  0.00000000000E+00 -0.77441420036E+03  0.26072496880E+04  0.24895850220E+04 0.  0.
        4    1    3    3  502    0  0.56409148873E+03 -0.85788055139E+03 -0.11242811188E+04  0.15225530845E+04  0.12699999809E+01 0.  1.
       -4    1    3    3    0  502 -0.56409148873E+03  0.85788055139E+03  0.34986691843E+03  0.10846966035E+04  0.12699999809E+01 0. -1.
</event>
<event>
 5   0  0.1010338E-05  0.2484663E+04  0.7818609E-02  0.8408470E-01
       -1   -1    0    0    0  501  0.00000000000E+00  0.00000000000E+00  0.14354572222E+04  0.14354572222E+04  0.50400001928E-02 0.  1.
        1   -1    0    0  501    0  0.00000000000E+00  0.00000000000E+00 -0.10751889622E+04  0.10751889622E+04  0.50400001928E-02 0. -1.
    10030    2    1    2    0    0  0.00000000000E+00  0.00000000000E+00  0.36026825999E+03  0.25106461845E+04  0.24846631652E+04 0.  0.
        2    1    3    3  502    0  0.11711385226E+04  0.52511338504E+02  0.59560893607E+03  0.13149421602E+04  0.25500000920E-02 0.  1.
       -2    1    3    3    0  502 -0.11711385226E+04 -0.52511338504E+02 -0.23534067608E+03  0.11957040243E+04  0.25500000920E-02 0. -1.
</event>
<event>
 5   0  0.1002753E-05  0.2399172E+04  0.7818609E-02  0.8439814E-01
       -1   -1    0    0    0  501  0.00000000000E+00  0.00000000000E+00  0.12716769021E+04  0.12716769021E+04  0.50400001928E-02 0.  1.
        1   -1    0    0  501    0  0.00000000000E+00  0.00000000000E+00 -0.11315815808E+04  0.11315815808E+04  0.50400001928E-02 0. -1.
    10030    2    1    2    0    0  0.00000000000E+00  0.00000000000E+00  0.14009532123E+03  0.24032584829E+04  0.23991716564E+04 0.  0.
        5    1    3    3  502    0 -0.27768037422E+03 -0.85340560576E+03 -0.72728344939E+03  0.11551496976E+04  0.46999998093E+01 0. -1.
       -5    1    3    3    0  502  0.27768037422E+03  0.85340560576E+03  0.86737877063E+03  0.12481087853E+04  0.46999998093E+01 0.  1.
</event>
<event>
 5   0  0.1010338E-05  0.2492314E+04  0.7818609E-02  0.8405729E-01
       -1   -1    0    0    0  501  0.00000000000E+00  0.00000000000E+00  0.15402715054E+04  0.15402715054E+04  0.50400001928E-02 0. -1.
        1   -1    0    0  501    0  0.00000000000E+00  0.00000000000E+00 -0.10082039318E+04  0.10082039318E+04  0.50400001928E-02 0.  1.
    10030    2    1    2    0    0  0.00000000000E+00  0.00000000000E+00  0.53206757364E+03  0.25484754372E+04  0.24923144166E+04 0.  0.
        2    1    3    3  502    0  0.78484500561E+03  0.76566661211E+03 -0.33949330992E+03  0.11478165146E+04  0.25500000920E-02 0.  1.
       -2    1    3    3    0  502 -0.78484500561E+03 -0.76566661211E+03  0.87156088356E+03  0.14006589226E+04  0.25500000920E-02 0. -1.
</event>
<event>
 5   0  0.1039688E-05  0.2502956E+04  0.7818609E-02  0.8401933E-01
        1   -1    0    0  501    0  0.00000000000E+00  0.00000000000E+00  0.18661843358E+04  0.18661843358E+04  0.50400001928E-02 0. -1.
       -1   -1    0    0    0  501  0.00000000000E+00  0.00000000000E+00 -0.83925136107E+03  0.83925136109E+03  0.50400001928E-02 0.  1.
    10030    2    1    2    0    0  0.00000000000E+00  0.00000000000E+00  0.10269329747E+04  0.27054356969E+04  0.25029564470E+04 0.  0.
        3    1    3    3  502    0 -0.70237290228E+03  0.35055540078E+03 -0.54005008521E+03  0.95282258979E+03  0.10100000352E+00 0.  1.
       -3    1    3    3    0  502  0.70237290228E+03 -0.35055540078E+03  0.15669830599E+04  0.17526131071E+04  0.10100000352E+00 0. -1.
</event>
<event>
 5   0  0.1002753E-05  0.2518085E+04  0.7818609E-02  0.8396571E-01
       -1   -1    0    0    0  501  0.00000000000E+00  0.00000000000E+00  0.12952748505E+04  0.12952748505E+04  0.50400001928E-02 0.  1.
        1   -1    0    0  501    0  0.00000000000E+00  0.00000000000E+00 -0.12238240184E+04  0.12238240184E+04  0.50400001928E-02 0. -1.
    10030    2    1    2    0    0  0.00000000000E+00  0.00000000000E+00  0.71450832141E+02  0.25190988689E+04  0.25180853619E+04 0.  0.
        5    1    3    3  502    0 -0.70392510755E+03 -0.47215666480E+03  0.96708020724E+03  0.12859660534E+04  0.46999998093E+01 0.  1.
       -5    1    3    3    0  502  0.70392510755E+03  0.47215666480E+03 -0.89562937510E+03  0.12331328155E+04  0.46999998093E+01 0. -1.
</event>
<event>
 5   0  0.1002753E-05  0.2531774E+04  0.7818609E-02  0.8391752E-01
        1   -1    0    0  501    0  0.00000000000E+00  0.00000000000E+00  0.10687654246E+04  0.10687654247E+04  0.50400001928E-02 0. -1.
       -1   -1    0    0    0  501  0.00000000000E+00  0.00000000000E+00 -0.14993656051E+04  0.14993656051E+04  0.50400001928E-02 0.  1.
    10030    2    1    2    0    0  0.00000000000E+00  0.00000000000E+00 -0.43060018043E+03  0.25681310297E+04  0.25317741745E+04 0.  0.
        5    1    3    3  502    0 -0.83554374208E+03  0.38490914180E+03  0.66676159564E+03  0.11361696651E+04  0.46999998093E+01 0. -1.
       -5    1    3    3    0  502  0.83554374208E+03 -0.38490914180E+03 -0.10973617761E+04  0.14319613647E+04  0.46999998093E+01 0.  1.
</event>
<event>
 5   0  0.1002753E-05  0.2450195E+04  0.7818609E-02  0.8420947E-01
       -1   -1    0    0    0  501  0.00000000000E+00  0.00000000000E+00  0.97723892312E+03  0.97723892314E+03  0.50400001928E-02 0.  1.
        1   -1    0    0  501    0  0.00000000000E+00  0.00000000000E+00 -0.15358203708E+04  0.15358203709E+04  0.50400001928E-02 0. -1.
    10030    2    1    2    0    0  0.00000000000E+00  0.00000000000E+00 -0.55858144772E+03  0.25130592940E+04  0.24501946415E+04 0.  0.
        5    1    3    3  502    0 -0.20202463026E+03  0.12078763057E+04 -0.24586257792E+03  0.12490995230E+04  0.46999998093E+01 0.  1.
       -5    1    3    3    0  502  0.20202463026E+03 -0.12078763057E+04 -0.31271886981E+03  0.12639597710E+04  0.46999998093E+01 0. -1.
</event>
<event>
 5   0  0.2432309E-05  0.2650816E+04  0.7818609E-02  0.8351142E-01
        2   -1    0    0  501    0  0.00000000000E+00  0.00000000000E+00  0.17305592847E+04  0.17305592847E+04  0.25500000920E-02 0.  1.
       -2   -1    0    0    0  501  0.00000000000E+00  0.00000000000E+00 -0.10151091213E+04  0.10151091213E+04  0.25500000920E-02 0. -1.
    10030    2    1    2    0    0  0.00000000000E+00  0.00000000000E+00  0.71545016336E+03  0.27456684060E+04  0.26508161120E+04 0.  0.
        4    1    3    3  502    0 -0.40793992891E+02 -0.69526144121E+03  0.15257515168E+04  0.16771916782E+04  0.12699999809E+01 0.  1.
       -4    1    3    3    0  502  0.40793992891E+02  0.69526144121E+03 -0.81030135345E+03  0.10684767278E+04  0.12699999809E+01 0. -1.
</event>
<event>
 5   0  0.1015327E-05  0.2342714E+04  0.7818609E-02  0.8461267E-01
       -1   -1    0    0    0  501  0.00000000000E+00  0.00000000000E+00  0.24768377883E+04  0.24768377883E+04  0.50400001928E-02 0. -1.
        1   -1    0    0  501    0  0.00000000000E+00  0.00000000000E+00 -0.55396333785E+03  0.55396333787E+03  0.50400001928E-02 0.  1.
    10030    2    1    2    0    0  0.00000000000E+00  0.00000000000E+00  0.19228744505E+04  0.30308011262E+04  0.23427140914E+04 0.  0.
        4    1    3    3  502    0  0.65946190150E+02  0.10237425449E+04  0.22997056382E+03  0.10513257208E+04  0.12699999809E+01 0.  1.
       -4    1    3    3    0  502 -0.65946190150E+02 -0.10237425449E+04  0.16929038866E+04  0.19794754054E+04  0.12699999809E+01 0. -1.
</event>
<event>
 5   0  0.2441340E-05  0.2540949E+04  0.7818609E-02  0.8388541E-01
       -2   -1    0    0    0  501  0.00000000000E+00  0.00000000000E+00  0.10204241802E+04  0.10204241803E+04  0.25500000920E-02 0. -1.
        2   -1    0    0  501    0  0.00000000000E+00  0.00000000000E+00 -0.15817985426E+04  0.15817985427E+04  0.25500000920E-02 0.  1.
    10030    2    1    2    0    0  0.00000000000E+00  0.00000000000E+00 -0.56137436240E+03  0.26022227229E+04  0.25409490205E+04 0.  0.
        3    1    3    3  502    0 -0.15162782116E+03  0.12610945631E+04 -0.25254773010E+03  0.12950408717E+04  0.10100000352E+00 0.  1.
       -3    1    3    3    0  502  0.15162782116E+03 -0.12610945631E+04 -0.30882663229E+03  0.13071818512E+04  0.10100000352E+00 0. -1.
</event>
<event>
 5   0  0.2452457E-05  0.2511527E+04  0.7818609E-02  0.8398891E-01
       -2   -1    0    0    0  501  0.00000000000E+00  0.00000000000E+00  0.91496221074E+03  0.91496221075E+03  0.25500000920E-02 0. -1.
        2   -1    0    0  501    0  0.00000000000E+00  0.00000000000E+00 -0.17235048449E+04  0.17235048449E+04  0.25500000920E-02 0.  1.
    10030    2    1    2    0    0  0.00000000000E+00  0.00000000000E+00 -0.80854263417E+03  0.26384670557E+04  0.25115268688E+04 0.  0.
        1    1    3    3  502    0  0.83880119484E+03  0.14293401500E+03  0.56594611234E+03  0.10219161312E+04  0.50400001928E-02 0.  1.
       -1    1    3    3    0  502 -0.83880119484E+03 -0.14293401500E+03 -0.13744887465E+04  0.16165509245E+04  0.50400001928E-02 0. -1.
</event>
<event>
 5   0  0.1015327E-05  0.2419129E+04  0.7818609E-02  0.8432376E-01
        1   -1    0    0  501    0  0.00000000000E+00  0.00000000000E+00  0.86112287550E+03  0.86112287551E+03  0.50400001928E-02 0. -1.
       -1   -1    0    0    0  501  0.00000000000E+00  0.00000000000E+00 -0.16989988120E+04  0.16989988121E+04  0.50400001928E-02 0.  1.
    10030    2    1    2    0    0  0.00000000000E+00  0.00000000000E+00 -0.83787593655E+03  0.25601216876E+04  0.24191293827E+04 0.  0.
        4    1    3    3  502    0  0.54000801442E+02  0.88996816778E+03  0.44606500717E+03  0.99696290289E+03  0.12699999809E+01 0. -1.
       -4    1    3    3    0  502 -0.54000801442E+02 -0.88996816778E+03 -0.12839409437E+04  0.15631587847E+04  0.12699999809E+01 0.  1.
</event>
<event>
 5   0  0.2452457E-05  0.2511970E+04  0.7818609E-02  0.8398734E-01
       -2   -1    0    0    0  501  0.00000000000E+00  0.00000000000E+00  0.67571146963E+03  0.67571146963E+03  0.25500000920E-02 0. -1.
        2   -1    0    0  501    0  0.00000000000E+00  0.00000000000E+00 -0.23345735407E+04  0.23345735407E+04  0.25500000920E-02 0.  1.
    10030    2    1    2    0    0  0.00000000000E+00  0.00000000000E+00 -0.16588620711E+04  0.30102850103E+04  0.25119698391E+04 0.  0.
        1    1    3    3  502    0  0.62267953433E+03  0.73829835543E+03  0.13277171099E+03  0.97490645263E+03  0.50400001928E-02 0. -1.
       -1    1    3    3    0  502 -0.62267953433E+03 -0.73829835543E+03 -0.17916337821E+04  0.20353785577E+04  0.50400001928E-02 0.  1.
</event>
<event>
 5   0  0.2441340E-05  0.2493892E+04  0.7818609E-02  0.8405165E-01
        2   -1    0    0  501    0  0.00000000000E+00  0.00000000000E+00  0.13097442454E+04  0.13097442454E+04  0.25500000920E-02 0.  1.
       -2   -1    0    0    0  501  0.00000000000E+00  0.00000000000E+00 -0.11871588076E+04  0.11871588076E+04  0.25500000920E-02 0. -1.
    10030    2    1    2    0    0  0.00000000000E+00  0.00000000000E+00  0.12258543781E+03  0.24969030531E+04  0.24938920720E+04 0.  0.
        3    1    3    3  502    0  0.59954682288E+03 -0.39316692763E+03 -0.96015360498E+03  0.11983036264E+04  0.10100000352E+00 0. -1.
       -3    1    3    3    0  502 -0.59954682288E+03  0.39316692763E+03  0.10827390428E+04  0.12985994266E+04  0.10100000352E+00 0.  1.
</event>
<event>
 5   0  0.1010338E-05  0.2484344E+04  0.7818609E-02  0.8408585E-01
        1   -1    0    0  501    0  0.00000000000E+00  0.00000000000E+00  0.11648803930E+04  0.11648803930E+04  0.50400001928E-02 0.  1.
       -1   -1    0    0    0  501  0.00000000000E+00  0.00000000000E+00 -0.13245915010E+04  0.13245915010E+04  0.50400001928E-02 0. -1.
    10030    2    1    2    0    0  0.00000000000E+00  0.00000000000E+00 -0.15971110798E+03  0.24894718940E+04  0.24843435094E+04 0.  0.
        2    1    3    3  502    0  0.12392081268E+04 -0.39079179588E+02 -0.15634597890E+03  0.12496431606E+04  0.25500000920E-02 0.  1.
       -2    1    3    3    0  502 -0.12392081268E+04  0.39079179588E+02 -0.33651290779E+01  0.12398287333E+04  0.25500000920E-02 0. -1.
</event>
<event>
 5   0  0.2441340E-05  0.2571741E+04  0.7818609E-02  0.8377864E-01
       -2   -1    0    0    0  501  0.00000000000E+00  0.00000000000E+00  0.87386045039E+03  0.87386045039E+03  0.25500000920E-02 0. -1.
        2   -1    0    0  501    0  0.00000000000E+00  0.00000000000E+00 -0.18921356933E+04  0.18921356933E+04  0.25500000920E-02 0.  1.
    10030    2    1    2    0    0  0.00000000000E+00  0.00000000000E+00 -0.10182752429E+04  0.27659961437E+04  0.25717406939E+04 0.  0.
        3    1    3    3  502    0  0.26011487091E+03  0.26856470349E+03  0.81410909848E+03  0.89585734381E+03  0.10100000352E+00 0. -1.
       -3    1    3    3    0  502 -0.26011487091E+03 -0.26856470349E+03 -0.18323843414E+04  0.18701387999E+04  0.10100000352E+00 0.  1.
</event>
<event>
 5   0  0.1008073E-05  0.2501435E+04  0.7818609E-02  0.8402474E-01
       -1   -1    0    0    0  501  0.00000000000E+00  0.00000000000E+00  0.86451214711E+03  0.86451214712E+03  0.50400001928E-02 0.  1.
        1   -1    0    0  501    0  0.00000000000E+00  0.00000000000E+00 -0.18094537209E+04  0.18094537209E+04  0.50400001928E-02 0. -1.
    10030    2    1    2    0    0  0.00000000000E+00  0.00000000000E+00 -0.94494157375E+03  0.26739658680E+04  0.25014353650E+04 0.  0.
        1    1    3    3  502    0  0.25335200007E+03 -0.30505670830E+03 -0.17404759253E+04  0.17850779472E+04  0.50400001928E-02 0. -1.
       -1    1    3    3    0  502 -0.25335200007E+03  0.30505670830E+03  0.79553435151E+03  0.88888792076E+03  0.50400001928E-02 0.  1.
</event>
<event>
 5   0  0.1010338E-05  0.2456244E+04  0.7818609E-02  0.8418742E-01
       -1   -1    0    0    0  501  0.00000000000E+00  0.00000000000E+00  0.11403114401E+04  0.11403114401E+04  0.50400001928E-02 0.  1.
        1   -1    0    0  501    0  0.00000000000E+00  0.00000000000E+00 -0.13226945685E+04  0.13226945685E+04  0.50400001928E-02 0. -1.
    10030    2    1    2    0    0  0.00000000000E+00  0.00000000000E+00 -0.18238312837E+03  0.24630060086E+04  0.24562440825E+04 0.  0.
        2    1    3    3  502    0  0.10017001447E+04 -0.55528560012E+03 -0.53573861756E+03  0.12644212684E+04  0.25500000920E-02 0. -1.
       -2    1    3    3    0  502 -0.10017001447E+04  0.55528560012E+03  0.35335548919E+03  0.11985847402E+04  0.25500000920E-02 0.  1.
</event>
<event>
 5   0  0.1008073E-05  0.2542533E+04  0.7818609E-02  0.8387988E-01
       -1   -1    0    0    0  501  0.00000000000E+00  0.00000000000E+00  0.88339433532E+03  0.88339433533E+03  0.50400001928E-02 0.  1.
        1   -1    0    0  501    0  0.00000000000E+00  0.00000000000E+00 -0.18294414767E+04  0.18294414767E+04  0.50400001928E-02 0. -1.
    10030    2    1    2    0    0  0.00000000000E+00  0.00000000000E+00 -0.94604714138E+03  0.27128358120E+04  0.25425327824E+04 0.  0.
        1    1    3    3  502    0 -0.63813426849E+03  0.74769291371E+03 -0.13331578381E+04  0.16563725001E+04  0.50400001928E-02 0. -1.
       -1    1    3    3    0  502  0.63813426849E+03 -0.74769291371E+03  0.38711069674E+03  0.10564633119E+04  0.50400001928E-02 0.  1.
</event>
<event>
 5   0  0.2452457E-05  0.2541234E+04  0.7818609E-02  0.8388441E-01
       -2   -1    0    0    0  501  0.00000000000E+00  0.00000000000E+00  0.17332869521E+04  0.17332869521E+04  0.25500000920E-02 0.  1.
        2   -1    0    0  501    0  0.00000000000E+00  0.00000000000E+00 -0.93144823569E+03  0.93144823570E+03  0.25500000920E-02 0. -1.
    10030    2    1    2    0    0  0.00000000000E+00  0.00000000000E+00  0.80183871640E+03  0.26647351878E+04  0.25412336166E+04 0.  0.
        1    1    3    3  502    0 -0.17931230818E+03 -0.11082707371E+04 -0.22301923883E+03  0.11446198109E+04  0.50400001928E-02 0. -1.
       -1    1    3    3    0  502  0.17931230818E+03  0.11082707371E+04  0.10248579552E+04  0.15201153769E+04  0.50400001928E-02 0.  1.
</event>
<event>
 5   0  0.1008073E-05  0.2498360E+04  0.7818609E-02  0.8403570E-01
       -1   -1    0    0    0  501  0.00000000000E+00  0.00000000000E+00  0.12049126888E+04  0.12049126888E+04  0.50400001928E-02 0.  1.
        1   -1    0    0  501    0  0.00000000000E+00  0.00000000000E+00 -0.12950731346E+04  0.12950731346E+04  0.50400001928E-02 0. -1.
    10030    2    1    2    0    0  0.00000000000E+00  0.00000000000E+00 -0.90160445815E+02  0.24999858234E+04  0.24983595040E+04 0.  0.
        1    1    3    3  502    0 -0.16250026104E+03 -0.65468130076E+03 -0.10971618542E+04  0.12879355864E+04  0.50400001928E-02 0. -1.
       -1    1    3    3    0  502  0.16250026104E+03  0.65468130076E+03  0.10070014084E+04  0.12120502370E+04  0.50400001928E-02 0.  1.
</event>
<event>
 5   0  0.1015327E-05  0.2475332E+04  0.7818609E-02  0.8411827E-01
       -1   -1    0    0    0  501  0.00000000000E+00  0.00000000000E+00  0.16229215710E+04  0.16229215710E+04  0.50400001928E-02 0.  1.
        1   -1    0    0  501    0  0.00000000000E+00  0.00000000000E+00 -0.94386382997E+03  0.94386382998E+03  0.50400001928E-02 0. -1.
    10030    2    1    2    0    0  0.00000000000E+00  0.00000000000E+00  0.67905774102E+03  0.25667854010E+04  0.24753318725E+04 0.  0.
        4    1    3    3  502    0 -0.95263130280E+03  0.17408894993E+03 -0.45966119845E+03  0.10719624022E+04  0.12699999809E+01 0. -1.
       -4    1    3    3    0  502  0.95263130280E+03 -0.17408894993E+03  0.11387189395E+04  0.14948229987E+04  0.12699999809E+01 0.  1.
</event>
<event>
 5   0  0.2388326E-05  0.2497875E+04  0.7818609E-02  0.8403743E-01
       -2   -1    0    0    0  501  0.00000000000E+00  0.00000000000E+00  0.75678619890E+03  0.75678619890E+03  0.25500000920E-02 0. -1.
        2   -1    0    0  501    0  0.00000000000E+00  0.00000000000E+00 -0.20611430322E+04  0.20611430322E+04  0.25500000920E-02 0.  1.
    10030    2    1    2    0    0  0.00000000000E+00  0.00000000000E+00 -0.13043568333E+04  0.28179292311E+04  0.24978747773E+04 0.  0.
        2    1    3    3  502    0  0.16164818533E+03 -0.12283570685E+04 -0.47432913117E+03  0.13266421327E+04  0.25500000920E-02 0.  1.
       -2    1    3    3    0  502 -0.16164818533E+03  0.12283570685E+04 -0.83002770213E+03  0.14912870984E+04  0.25500000920E-02 0. -1.
</event>
<event>
 5   0  0.2388326E-05  0.2496919E+04  0.7818609E-02  0.8404084E-01
        2   -1    0    0  501    0  0.00000000000E+00  0.00000000000E+00  0.16222232636E+04  0.16222232636E+04  0.25500000920E-02 0. -1.
       -2   -1    0    0    0  501  0.00000000000E+00  0.00000000000E+00 -0.96081141083E+03  0.96081141084E+03  0.25500000920E-02 0.  1.
    10030    2    1    2    0    0  0.00000000000E+00  0.00000000000E+00  0.66141185275E+03  0.25830346744E+04  0.24969185991E+04 0.  0.
        2    1    3    3  502    0 -0.11405327362E+04 -0.50559947497E+03  0.37928144575E+03  0.13039555846E+04  0.25500000920E-02 0. -1.
       -2    1    3    3    0  502  0.11405327362E+04  0.50559947497E+03  0.28213040699E+03  0.12790790898E+04  0.25500000920E-02 0.  1.
</event>
<event>
 5   0  0.8166500E-06  0.2482641E+04  0.7818609E-02  0.8409196E-01
        4   -1    0    0  501    0  0.00000000000E+00  0.00000000000E+00  0.19571572909E+04  0.19571577029E+04  0.12699999809E+01 0. -1.
       -4   -1    0    0    0  501  0.00000000000E+00  0.00000000000E+00 -0.78730210241E+03  0.78730312673E+03  0.12699999809E+01 0.  1.
    10030    2    1    2    0    0  0.00000000000E+00  0.00000000000E+00  0.11698551884E+04  0.27444608296E+04  0.24826405466E+04 0.  0.
        3    1    3    3  502    0 -0.43194377196E+03  0.11542507961E+04  0.74891506570E+03  0.14421317930E+04  0.10100000352E+00 0.  1.
       -3    1    3    3    0  502  0.43194377196E+03 -0.11542507961E+04  0.42094012274E+03  0.13023290366E+04  0.10100000352E+00 0. -1.
</event>
<event>
 5   0  0.2452457E-05  0.2487221E+04  0.7818609E-02  0.8407552E-01
       -2   -1    0    0    0  501  0.00000000000E+00  0.00000000000E+00  0.63004300325E+03  0.63004300326E+03  0.25500000920E-02 0. -1.
        2   -1    0    0  501    0  0.00000000000E+00  0.00000000000E+00 -0.24547003719E+04  0.24547003719E+04  0.25500000920E-02 0.  1.
    10030    2    1    2    0    0  0.00000000000E+00  0.00000000000E+00 -0.18246573687E+04  0.30847433752E+04  0.24872207738E+04 0.  0.
        1    1    3    3  502    0  0.43524265051E+03  0.47909078816E+03 -0.22293195022E+04  0.23213852741E+04  0.50400001928E-02 0.  1.
       -1    1    3    3    0  502 -0.43524265051E+03 -0.47909078816E+03  0.40466213351E+03  0.76335810105E+03  0.50400001928E-02 0. -1.
</event>
<event>
 5   0  0.1039688E-05  0.2501432E+04  0.7818609E-02  0.8402475E-01
       -1   -1    0    0    0  501  0.00000000000E+00  0.00000000000E+00  0.13801795672E+04  0.13801795672E+04  0.50400001928E-02 0.  1.
        1   -1    0    0  501    0  0.00000000000E+00  0.00000000000E+00 -0.11333966180E+04  0.11333966180E+04  0.50400001928E-02 0. -1.
    10030    2    1    2    0    0  0.00000000000E+00  0.00000000000E+00  0.24678294919E+03  0.25135761852E+04  0.25014322727E+04 0.  0.
        3    1    3    3  502    0 -0.53278484225E+03 -0.10120754855E+04 -0.38516270904E+03  0.12068582349E+04  0.10100000352E+00 0.  1.
       -3    1    3    3    0  502  0.53278484225E+03  0.10120754855E+04  0.63194565823E+03  0.13067179503E+04  0.10100000352E+00 0. -1.
</event>
<event>
 5   0  0.2432309E-05  0.2474409E+04  0.7818609E-02  0.8412160E-01
       -2   -1    0    0    0  501  0.00000000000E+00  0.00000000000E+00  0.98565315403E+03  0.98565315404E+03  0.25500000920E-02 0. -1.
        2   -1    0    0  501    0  0.00000000000E+00  0.00000000000E+00 -0.15529545894E+04  0.15529545894E+04  0.25500000920E-02 0.  1.
    10030    2    1    2    0    0  0.00000000000E+00  0.00000000000E+00 -0.56730143534E+03  0.25386077434E+04  0.24744086882E+04 0.  0.
        4    1    3    3  502    0  0.98252872607E+03 -0.59719314764E+03  0.18500597666E+03  0.11645733886E+04  0.12699999809E+01 0.  1.
       -4    1    3    3    0  502 -0.98252872607E+03  0.59719314764E+03 -0.75230741200E+03  0.13740343548E+04  0.12699999809E+01 0. -1.
</event>
<event>
 5   0  0.2345143E-05  0.2486581E+04  0.7818609E-02  0.8407782E-01
        2   -1    0    0  501    0  0.00000000000E+00  0.00000000000E+00  0.12014873304E+04  0.12014873304E+04  0.25500000920E-02 0.  1.
       -2   -1    0    0    0  501  0.00000000000E+00  0.00000000000E+00 -0.12865481674E+04  0.12865481674E+04  0.25500000920E-02 0. -1.
    10030    2    1    2    0    0  0.00000000000E+00  0.00000000000E+00 -0.85060837058E+02  0.24880354978E+04  0.24865810448E+04 0.  0.
        5    1    3    3  502    0  0.74118522151E+03  0.86655337831E+02 -0.10375388253E+04  0.12780350481E+04  0.46999998093E+01 0. -1.
       -5    1    3    3    0  502 -0.74118522151E+03 -0.86655337831E+02  0.95247798824E+03  0.12100004497E+04  0.46999998093E+01 0.  1.
</event>
<event>
 5   0  0.2441340E-05  0.2481153E+04  0.7818609E-02  0.8409731E-01
       -2   -1    0    0    0  501  0.00000000000E+00  0.00000000000E+00  0.12302611402E+04  0.12302611402E+04  0.25500000920E-02 0.  1.
        2   -1    0    0  501    0  0.00000000000E+00  0.00000000000E+00 -0.12509782265E+04  0.12509782265E+04  0.25500000920E-02 0. -1.
    10030    2    1    2    0    0  0.00000000000E+00  0.00000000000E+00 -0.20717086311E+02  0.24812393666E+04  0.24811528766E+04 0.  0.
        3    1    3    3  502    0  0.16899152284E+03 -0.67899473334E+03  0.10140979332E+04  0.12320659930E+04  0.10100000352E+00 0.  1.
       -3    1    3    3    0  502 -0.16899152284E+03  0.67899473334E+03 -0.10348150195E+04  0.12491733737E+04  0.10100000352E+00 0. -1.
</event>
<event>
 5   0  0.1008073E-05  0.2489606E+04  0.7818609E-02  0.8406698E-01
       -1   -1    0    0    0  501  0.00000000000E+00  0.00000000000E+00  0.99896695787E+03  0.99896695788E+03  0.50400001928E-02 0.  1.
        1   -1    0    0  501    0  0.00000000000E+00  0.00000000000E+00 -0.15511366776E+04  0.15511366776E+04  0.50400001928E-02 0. -1.
    10030    2    1    2    0    0  0.00000000000E+00  0.00000000000E+00 -0.55216971976E+03  0.25501036355E+04  0.24896058227E+04 0.  0.
        1    1    3    3  502    0  0.10608340157E+04 -0.63111271478E+03 -0.44081009813E+03  0.13107195010E+04  0.50400001928E-02 0. -1.
       -1    1    3    3    0  502 -0.10608340157E+04  0.63111271478E+03 -0.11135962163E+03  0.12393841345E+04  0.50400001928E-02 0.  1.
</event>
<event>
 5   0  0.1010338E-05  0.2478826E+04  0.7818609E-02  0.8410568E-01
        1   -1    0    0  501    0  0.00000000000E+00  0.00000000000E+00  0.14311021903E+04  0.14311021903E+04  0.50400001928E-02 0.  1.
       -1   -1    0    0    0  501  0.00000000000E+00  0.00000000000E+00 -0.10733999670E+04  0.10733999670E+04  0.50400001928E-02 0. -1.
    10030    2    1    2    0    0  0.00000000000E+00  0.00000000000E+00  0.35770222329E+03  0.25045021574E+04  0.24788263706E+04 0.  0.
        2    1    3    3  502    0 -0.96657066901E+03  0.32973050599E+03  0.88838146074E+03  0.13535888167E+04  0.25500000920E-02 0.  1.
       -2    1    3    3    0  502  0.96657066901E+03 -0.32973050599E+03 -0.53067923745E+03  0.11509133407E+04  0.25500000920E-02 0. -1.
</event>
<event>
 5   0  0.1010338E-05  0.2587314E+04  0.7818609E-02  0.8372523E-01
       -1   -1    0    0    0  501  0.00000000000E+00  0.00000000000E+00  0.74729581720E+03  0.74729581722E+03  0.50400001928E-02 0.  1.
        1   -1    0    0  501    0  0.00000000000E+00  0.00000000000E+00 -0.22394723057E+04  0.22394723057E+04  0.50400001928E-02 0. -1.
    10030    2    1    2    0    0  0.00000000000E+00  0.00000000000E+00 -0.14921764885E+04  0.29867681229E+04  0.25873138865E+04 0.  0.
        2    1    3    3  502    0 -0.12861282443E+04  0.56107059211E+01 -0.90683857950E+03  0.15736942365E+04  0.25500000920E-02 0. -1.
       -2    1    3    3    0  502  0.12861282443E+04 -0.56107059211E+01 -0.58533790895E+03  0.14130738864E+04  0.25500000920E-02 0.  1.
</event>
<event>
 5   0  0.2388326E-05  0.2487533E+04  0.7818609E-02  0.8407440E-01
       -2   -1    0    0    0  501  0.00000000000E+00  0.00000000000E+00  0.89618132745E+03  0.89618132745E+03  0.25500000920E-02 0.  1.
        2   -1    0    0  501    0  0.00000000000E+00  0.00000000000E+00 -0.17261629136E+04  0.17261629136E+04  0.25500000920E-02 0. -1.
    10030    2    1    2    0    0  0.00000000000E+00  0.00000000000E+00 -0.82998158612E+03  0.26223442410E+04  0.24875328913E+04 0.  0.
        2    1    3    3  502    0 -0.46960649932E+03 -0.50217089848E+02 -0.16279576800E+04  0.16950805964E+04  0.25500000920E-02 0. -1.
       -2    1    3    3    0  502  0.46960649932E+03  0.50217089848E+02  0.79797609387E+03  0.92726364466E+03  0.25500000920E-02 0.  1.
</event>
<event>
 5   0  0.2432309E-05  0.2316230E+04  0.7818609E-02  0.8471549E-01
        2   -1    0    0  501    0  0.00000000000E+00  0.00000000000E+00  0.15203934749E+04  0.15203934749E+04  0.25500000920E-02 0.  1.
       -2   -1    0    0    0  501  0.00000000000E+00  0.00000000000E+00 -0.88215984661E+03  0.88215984661E+03  0.25500000920E-02 0. -1.
    10030    2    1    2    0    0  0.00000000000E+00  0.00000000000E+00  0.63823362826E+03  0.24025533215E+04  0.23162297594E+04 0.  0.
        4    1    3    3  502    0 -0.12766091008E+03  0.93136396880E+02  0.15091572162E+04  0.15174085846E+04  0.12699999809E+01 0.  1.
       -4    1    3    3    0  502  0.12766091008E+03 -0.93136396880E+02 -0.87092358794E+03  0.88514473693E+03  0.12699999809E+01 0. -1.
</event>
<event>
 5   0  0.2345143E-05  0.2499640E+04  0.7818609E-02  0.8403114E-01
       -2   -1    0    0    0  501  0.00000000000E+00  0.00000000000E+00  0.13930889837E+04  0.13930889837E+04  0.25500000920E-02 0. -1.
        2   -1    0    0  501    0  0.00000000000E+00  0.00000000000E+00 -0.11212850263E+04  0.11212850263E+04  0.25500000920E-02 0.  1.
    10030    2    1    2    0    0  0.00000000000E+00  0.00000000000E+00  0.27180395749E+03  0.25143740100E+04  0.24996398282E+04 0.  0.
        5    1    3    3  502    0 -0.72042594754E+03  0.73249832658E+03 -0.57995321905E+03  0.11798030220E+04  0.46999998093E+01 0.  1.
       -5    1    3    3    0  502  0.72042594754E+03 -0.73249832658E+03  0.85175717654E+03  0.13345709880E+04  0.46999998093E+01 0. -1.
</event>
<event>
 5   0  0.1008073E-05  0.2526386E+04  0.7818609E-02  0.8393645E-01
       -1   -1    0    0    0  501  0.00000000000E+00  0.00000000000E+00  0.10668832612E+04  0.10668832612E+04  0.50400001928E-02 0.  1.
        1   -1    0    0  501    0  0.00000000000E+00  0.00000000000E+00 -0.14956247215E+04  0.14956247215E+04  0.50400001928E-02 0. -1.
    10030    2    1    2    0    0  0.00000000000E+00  0.00000000000E+00 -0.42874146027E+03  0.25625079828E+04  0.25263863366E+04 0.  0.
        1    1    3    3  502    0 -0.98518551987E+03  0.52442904199E+03 -0.81447222007E+03  0.13816589036E+04  0.50400001928E-02 0. -1.
       -1    1    3    3    0  502  0.98518551987E+03 -0.52442904199E+03  0.38573075980E+03  0.11808490791E+04  0.50400001928E-02 0.  1.
</event>
<event>
 5   0  0.1015327E-05  0.2506091E+04  0.7818609E-02  0.8400819E-01
       -1   -1    0    0    0  501  0.00000000000E+00  0.00000000000E+00  0.11887404144E+04  0.11887404145E+04  0.50400001928E-02 0.  1.
        1   -1    0    0  501    0  0.00000000000E+00  0.00000000000E+00 -0.13208290653E+04  0.13208290653E+04  0.50400001928E-02 0. -1.
    10030    2    1    2    0    0  0.00000000000E+00  0.00000000000E+00 -0.13208865081E+03  0.25095694797E+04  0.25060908926E+04 0.  0.
        4    1    3    3  502    0  0.32906273286E+03 -0.61332768917E+03  0.97735596347E+03  0.11998664212E+04  0.12699999809E+01 0.  1.
       -4    1    3    3    0  502 -0.32906273286E+03  0.61332768917E+03 -0.11094446143E+04  0.13097030585E+04  0.12699999809E+01 0. -1.
</event>
<event>
 5   0  0.2388326E-05  0.2455295E+04  0.7818609E-02  0.8419087E-01
       -2   -1    0    0    0  501  0.00000000000E+00  0.00000000000E+00  0.82309546207E+03  0.82309546207E+03  0.25500000920E-02 0. -1.
        2   -1    0    0  501    0  0.00000000000E+00  0.00000000000E+00 -0.18310367157E+04  0.18310367157E+04  0.25500000920E-02 0.  1.
    10030    2    1    2    0    0  0.00000000000E+00  0.00000000000E+00 -0.10079412536E+04  0.26541321777E+04  0.24552946964E+04 0.  0.
        2    1    3    3  502    0 -0.11179593375E+04 -0.20985469136E+03 -0.10031530755E+04  0.15166371235E+04  0.25500000920E-02 0.  1.
       -2    1    3    3    0  502  0.11179593375E+04  0.20985469136E+03 -0.47881781461E+01  0.11374950542E+04  0.25500000920E-02 0. -1.
</event>
<event>
 5   0  0.2452457E-05  0.2526163E+04  0.7818609E-02  0.8393724E-01
       -2   -1    0    0    0  501  0.00000000000E+00  0.00000000000E+00  0.97946614197E+03  0.97946614197E+03  0.25500000920E-02 0.  1.
        2   -1    0    0  501    0  0.00000000000E+00  0.00000000000E+00 -0.16288207070E+04  0.16288207070E+04  0.25500000920E-02 0. -1.
    10030    2    1    2    0    0  0.00000000000E+00  0.00000000000E+00 -0.64935456502E+03  0.26082868490E+04  0.25261628877E+04 0.  0.
        1    1    3    3  502    0 -0.44160313223E+03 -0.85516934098E+03  0.51986666111E+03  0.10938872307E+04  0.50400001928E-02 0.  1.
       -1    1    3    3    0  502  0.44160313223E+03  0.85516934098E+03 -0.11692212261E+04  0.15143996183E+04  0.50400001928E-02 0. -1.
</event>
<event>
 5   0  0.2452457E-05  0.2460425E+04  0.7818609E-02  0.8417221E-01
       -2   -1    0    0    0  501  0.00000000000E+00  0.00000000000E+00  0.57868804361E+03  0.57868804362E+03  0.25500000920E-02 0.  1.
        2   -1    0    0  501    0  0.00000000000E+00  0.00000000000E+00 -0.26152662946E+04  0.26152662946E+04  0.25500000920E-02 0. -1.
    10030    2    1    2    0    0  0.00000000000E+00  0.00000000000E+00 -0.20365782510E+04  0.31939543382E+04  0.24604254393E+04 0.  0.
        1    1    3    3  502    0 -0.17668674157E+03  0.59261914378E+03 -0.23988363639E+04  0.24772629160E+04  0.50400001928E-02 0. -1.
       -1    1    3    3    0  502  0.17668674157E+03 -0.59261914378E+03  0.36225811294E+03  0.71669142219E+03  0.50400001928E-02 0.  1.
</event>
<event>
 5   0  0.1010338E-05  0.2500414E+04  0.7818609E-02  0.8402838E-01
       -1   -1    0    0    0  501  0.00000000000E+00  0.00000000000E+00  0.80807856250E+03  0.80807856252E+03  0.50400001928E-02 0. -1.
        1   -1    0    0  501    0  0.00000000000E+00  0.00000000000E+00 -0.19342394032E+04  0.19342394032E+04  0.50400001928E-02 0.  1.
    10030    2    1    2    0    0  0.00000000000E+00  0.00000000000E+00 -0.11261608407E+04  0.27423179657E+04  0.25004138829E+04 0.  0.
        2    1    3    3  502    0  0.48276525789E+03 -0.53147335278E+03 -0.16855668369E+04  0.18321194777E+04  0.25500000920E-02 0.  1.
       -2    1    3    3    0  502 -0.48276525789E+03  0.53147335278E+03  0.55940599622E+03  0.91019848800E+03  0.25500000920E-02 0. -1.
</event>
<event>
 5   0  0.2345143E-05  0.2488746E+04  0.7818609E-02  0.8407006E-01
       -2   -1    0    0    0  501  0.00000000000E+00  0.00000000000E+00  0.10865148053E+04  0.10865148053E+04  0.25500000920E-02 0.  1.
        2   -1    0    0  501    0  0.00000000000E+00  0.00000000000E+00 -0.14251657209E+04  0.14251657209E+04  0.25500000920E-02 0. -1.
    10030    2    1    2    0    0  0.00000000000E+00  0.00000000000E+00 -0.33865091564E+03  0.25116805262E+04  0.24887455923E+04 0.  0.
        5    1    3    3  502    0  0.33802491536E+03  0.27813912454E+03  0.10062348360E+04  0.10973389865E+04  0.46999998093E+01 0.  1.
       -5    1    3    3    0  502 -0.33802491536E+03 -0.27813912454E+03 -0.13448857517E+04  0.14143415398E+04  0.46999998093E+01 0. -1.
</event>
<event>
 5   0  0.1015327E-05  0.2490261E+04  0.7818609E-02  0.8406463E-01
       -1   -1    0    0    0  501  0.00000000000E+00  0.00000000000E+00  0.11477347063E+04  0.11477347063E+04  0.50400001928E-02 0. -1.
        1   -1    0    0  501    0  0.00000000000E+00  0.00000000000E+00 -0.13507911511E+04  0.13507911511E+04  0.50400001928E-02 0.  1.
    10030    2    1    2    0    0  0.00000000000E+00  0.00000000000E+00 -0.20305644477E+03  0.24985258574E+04  0.24902609382E+04 0.  0.
        4    1    3    3  502    0 -0.84697650730E+03  0.22235776474E+03  0.78658532574E+03  0.11770854969E+04  0.12699999809E+01 0. -1.
       -4    1    3    3    0  502  0.84697650730E+03 -0.22235776474E+03 -0.98964177051E+03  0.13214403605E+04  0.12699999809E+01 0.  1.
</event>
<event>
 5   0  0.1008073E-05  0.2479279E+04  0.7818609E-02  0.8410405E-01
        1   -1    0    0  501    0  0.00000000000E+00  0.00000000000E+00  0.10621505655E+04  0.10621505655E+04  0.50400001928E-02 0.  1.
       -1   -1    0    0    0  501  0.00000000000E+00  0.00000000000E+00 -0.14467870748E+04  0.14467870748E+04  0.50400001928E-02 0. -1.
    10030    2    1    2    0    0  0.00000000000E+00  0.00000000000E+00 -0.38463650929E+03  0.25089376404E+04  0.24792786933E+04 0.  0.
        1    1    3    3  502    0  0.57938317943E+02 -0.10530680150E+04  0.46693225706E+03  0.11534014156E+04  0.50400001928E-02 0.  1.
       -1    1    3    3    0  502 -0.57938317943E+02  0.10530680150E+04 -0.85156876634E+03  0.13555362248E+04  0.50400001928E-02 0. -1.
</event>
<event>
 5   0  0.1008073E-05  0.2502979E+04  0.7818609E-02  0.8401925E-01
       -1   -1    0    0    0  501  0.00000000000E+00  0.00000000000E+00  0.69068490487E+03  0.69068490489E+03  0.50400001928E-02 0.  1.
        1   -1    0    0  501    0  0.00000000000E+00  0.00000000000E+00 -0.22676425124E+04  0.22676425124E+04  0.50400001928E-02 0. -1.
    10030    2    1    2    0    0  0.00000000000E+00  0.00000000000E+00 -0.15769576075E+04  0.29583274173E+04  0.25029793870E+04 0.  0.
        1    1    3    3  502    0  0.63454133956E+03  0.44733862958E+03  0.37165609167E+03  0.86074549759E+03  0.50400001928E-02 0. -1.
       -1    1    3    3    0  502 -0.63454133956E+03 -0.44733862958E+03 -0.19486136992E+04  0.20975819197E+04  0.50400001928E-02 0.  1.
</event>
<event>
 5   0  0.1010338E-05  0.2375343E+04  0.7818609E-02  0.8448793E-01
        1   -1    0    0  501    0  0.00000000000E+00  0.00000000000E+00  0.86033812019E+03  0.86033812020E+03  0.50400001928E-02 0.  1.
       -1   -1    0    0    0  501  0.00000000000E+00  0.00000000000E+00 -0.16395456946E+04  0.16395456946E+04  0.50400001928E-02 0. -1.
    10030    2    1    2    0    0  0.00000000000E+00  0.00000000000E+00 -0.77920757437E+03  0.24998838148E+04  0.23753430580E+04 0.  0.
        2    1    3    3  502    0 -0.20021402049E+03  0.65378439240E+03  0.63241635689E+03  0.93138076758E+03  0.25500000920E-02 0.  1.
       -2    1    3    3    0  502  0.20021402049E+03 -0.65378439240E+03 -0.14116239313E+04  0.15685030472E+04  0.25500000920E-02 0. -1.
</event>
<event>
 5   0  0.1039688E-05  0.2584853E+04  0.7818609E-02  0.8373364E-01
        1   -1    0    0  501    0  0.00000000000E+00  0.00000000000E+00  0.80236489483E+03  0.80236489484E+03  0.50400001928E-02 0. -1.
       -1   -1    0    0    0  501  0.00000000000E+00  0.00000000000E+00 -0.20818040208E+04  0.20818040208E+04  0.50400001928E-02 0.  1.
    10030    2    1    2    0    0  0.00000000000E+00  0.00000000000E+00 -0.12794391260E+04  0.28841689157E+04  0.25848531597E+04 0.  0.
        3    1    3    3  502    0  0.73990259664E+03 -0.51783616526E+03  0.39186770245E+03  0.98446455142E+03  0.10100000352E+00 0. -1.
       -3    1    3    3    0  502 -0.73990259664E+03  0.51783616526E+03 -0.16713068285E+04  0.18997043643E+04  0.10100000352E+00 0.  1.
</event>
<event>
 5   0  0.2441340E-05  0.2479362E+04  0.7818609E-02  0.8410375E-01
       -2   -1    0    0    0  501  0.00000000000E+00  0.00000000000E+00  0.82291736100E+03  0.82291736100E+03  0.25500000920E-02 0.  1.
        2   -1    0    0  501    0  0.00000000000E+00  0.00000000000E+00 -0.18675132980E+04  0.18675132980E+04  0.25500000920E-02 0. -1.
    10030    2    1    2    0    0  0.00000000000E+00  0.00000000000E+00 -0.10445959370E+04  0.26904306590E+04  0.24793621073E+04 0.  0.
        3    1    3    3  502    0 -0.56839162292E+03 -0.10473586490E+04 -0.15147558117E+03  0.12012385435E+04  0.10100000352E+00 0.  1.
       -3    1    3    3    0  502  0.56839162292E+03  0.10473586490E+04 -0.89312035584E+03  0.14891921155E+04  0.10100000352E+00 0. -1.
</event>
<event>
 5   0  0.1039688E-05  0.2469127E+04  0.7818609E-02  0.8414067E-01
        1   -1    0    0  501    0  0.00000000000E+00  0.00000000000E+00  0.12625906202E+04  0.12625906202E+04  0.50400001928E-02 0.  1.
       -1   -1    0    0    0  501  0.00000000000E+00  0.00000000000E+00 -0.12071589004E+04  0.12071589004E+04  0.50400001928E-02 0. -1.
    10030    2    1    2    0    0  0.00000000000E+00  0.00000000000E+00  0.55431719826E+02  0.24697495207E+04  0.24691273801E+04 0.  0.
        3    1    3    3  502    0 -0.86062370159E+03 -0.45693550934E+03 -0.73055448732E+03  0.12178559375E+04  0.10100000352E+00 0. -1.
       -3    1    3    3    0  502  0.86062370159E+03  0.45693550934E+03  0.78598620715E+03  0.12518935831E+04  0.10100000352E+00 0.  1.
</event>
<event>
 5   0  0.2432309E-05  0.2486177E+04  0.7818609E-02  0.8407927E-01
       -2   -1    0    0    0  501  0.00000000000E+00  0.00000000000E+00  0.76058562020E+03  0.76058562020E+03  0.25500000920E-02 0. -1.
        2   -1    0    0  501    0  0.00000000000E+00  0.00000000000E+00 -0.20316826711E+04  0.20316826711E+04  0.25500000920E-02 0.  1.
    10030    2    1    2    0    0  0.00000000000E+00  0.00000000000E+00 -0.12710970509E+04  0.27922682913E+04  0.24861766828E+04 0.  0.
        4    1    3    3  502    0 -0.26648581195E+03  0.20014133573E+03 -0.19805704824E+04  0.20084153682E+04  0.12699999809E+01 0.  1.
       -4    1    3    3    0  502  0.26648581195E+03 -0.20014133573E+03  0.70947343151E+03  0.78385292317E+03  0.12699999809E+01 0. -1.
</event>
<event>
 5   0  0.2441340E-05  0.2504397E+04  0.7818609E-02  0.8401421E-01
       -2   -1    0    0    0  501  0.00000000000E+00  0.00000000000E+00  0.10199573654E+04  0.10199573654E+04  0.25500000920E-02 0.  1.
        2   -1    0    0  501    0  0.00000000000E+00  0.00000000000E+00 -0.15373205320E+04  0.15373205320E+04  0.25500000920E-02 0. -1.
    10030    2    1    2    0    0  0.00000000000E+00  0.00000000000E+00 -0.51736316660E+03  0.25572778974E+04  0.25043972525E+04 0.  0.
        3    1    3    3  502    0  0.27356754291E+03 -0.12035602620E+04 -0.43023412615E+02  0.12350091210E+04  0.10100000352E+00 0.  1.
       -3    1    3    3    0  502 -0.27356754291E+03  0.12035602620E+04 -0.47433975399E+03  0.13222687764E+04  0.10100000352E+00 0. -1.
</event>
<event>
 5   0  0.2388326E-05  0.2460012E+04  0.7818609E-02  0.8417371E-01
        2   -1    0    0  501    0  0.00000000000E+00  0.00000000000E+00  0.89062359850E+03  0.89062359850E+03  0.25500000920E-02 0. -1.
       -2   -1    0    0    0  501  0.00000000000E+00  0.00000000000E+00 -0.16987143605E+04  0.16987143605E+04  0.25500000920E-02 0.  1.
    10030    2    1    2    0    0  0.00000000000E+00  0.00000000000E+00 -0.80809076204E+03  0.25893379590E+04  0.24600122736E+04 0.  0.
        2    1    3    3  502    0  0.93657148475E+03 -0.51628646804E+03  0.23551371962E+03  0.10950728630E+04  0.25500000920E-02 0. -1.
       -2    1    3    3    0  502 -0.93657148475E+03  0.51628646804E+03 -0.10436044817E+04  0.14942650960E+04  0.25500000920E-02 0.  1.
</event>
<event>
 5   0  0.1002753E-05  0.2500332E+04  0.7818609E-02  0.8402867E-01
       -1   -1    0    0    0  501  0.00000000000E+00  0.00000000000E+00  0.10895477714E+04  0.10895477714E+04  0.50400001928E-02 0.  1.
        1   -1    0    0  501    0  0.00000000000E+00  0.00000000000E+00 -0.14344622292E+04  0.14344622293E+04  0.50400001928E-02 0. -1.
    10030    2    1    2    0    0  0.00000000000E+00  0.00000000000E+00 -0.34491445784E+03  0.25240100007E+04  0.25003320780E+04 0.  0.
        5    1    3    3  502    0 -0.90448993807E+03  0.84823580568E+01 -0.10436005401E+04  0.13810496645E+04  0.46999998093E+01 0. -1.
       -5    1    3    3    0  502  0.90448993807E+03 -0.84823580568E+01  0.69868608229E+03  0.11429603362E+04  0.46999998093E+01 0.  1.
</event>
<event>
 5   0  0.1008073E-05  0.2506822E+04  0.7818609E-02  0.8400559E-01
        1   -1    0    0  501    0  0.00000000000E+00  0.00000000000E+00  0.82823420639E+03  0.82823420640E+03  0.50400001928E-02 0.  1.
       -1   -1    0    0    0  501  0.00000000000E+00  0.00000000000E+00 -0.18968544105E+04  0.18968544105E+04  0.50400001928E-02 0. -1.
    10030    2    1    2    0    0  0.00000000000E+00  0.00000000000E+00 -0.10686202041E+04  0.27250886169E+04  0.25068224567E+04 0.  0.
        1    1    3    3  502    0  0.11216892202E+04  0.53252400025E+03 -0.34832539225E+03  0.12896119945E+04  0.50400001928E-02 0.  1.
       -1    1    3    3    0  502 -0.11216892202E+04 -0.53252400025E+03 -0.72029481189E+03  0.14354766224E+04  0.50400001928E-02 0. -1.
</event>
<event>
 5   0  0.2432309E-05  0.2471212E+04  0.7818609E-02  0.8413314E-01
        2   -1    0    0  501    0  0.00000000000E+00  0.00000000000E+00  0.16315701733E+04  0.16315701733E+04  0.25500000920E-02 0. -1.
       -2   -1    0    0    0  501  0.00000000000E+00  0.00000000000E+00 -0.93573781804E+03  0.93573781804E+03  0.25500000920E-02 0.  1.
    10030    2    1    2    0    0  0.00000000000E+00  0.00000000000E+00  0.69583235524E+03  0.25673079913E+04  0.24712117788E+04 0.  0.
        4    1    3    3  502    0  0.42753139979E+03 -0.28125360852E+03  0.15162977702E+04  0.16003272262E+04  0.12699999809E+01 0. -1.
       -4    1    3    3    0  502 -0.42753139979E+03  0.28125360852E+03 -0.82046541495E+03  0.96698076513E+03  0.12699999809E+01 0.  1.
</event>
<event>
 5   0  0.2432309E-05  0.2357739E+04  0.7818609E-02  0.8455497E-01
       -2   -1    0    0    0  501  0.00000000000E+00  0.00000000000E+00  0.18118917302E+04  0.18118917302E+04  0.25500000920E-02 0.  1.
        2   -1    0    0  501    0  0.00000000000E+00  0.00000000000E+00 -0.76700664910E+03  0.76700664910E+03  0.25500000920E-02 0. -1.
    10030    2    1    2    0    0  0.00000000000E+00  0.00000000000E+00  0.10448850811E+04  0.25788983793E+04  0.23577387510E+04 0.  0.
        4    1    3    3  502    0  0.40613467521E+03 -0.23179682192E+03 -0.66121869810E+03  0.80986845887E+03  0.12699999809E+01 0. -1.
       -4    1    3    3    0  502 -0.40613467521E+03  0.23179682192E+03  0.17061037792E+04  0.17690299204E+04  0.12699999809E+01 0.  1.
</event>
<event>
 5   0  0.2345143E-05  0.2503836E+04  0.7818609E-02  0.8401620E-01
       -2   -1    0    0    0  501  0.00000000000E+00  0.00000000000E+00  0.84291304028E+03  0.84291304028E+03  0.25500000920E-02 0.  1.
        2   -1    0    0  501    0  0.00000000000E+00  0.00000000000E+00 -0.18593836901E+04  0.18593836901E+04  0.25500000920E-02 0. -1.
    10030    2    1    2    0    0  0.00000000000E+00  0.00000000000E+00 -0.10164706498E+04  0.27022967303E+04  0.25038360643E+04 0.  0.
        5    1    3    3  502    0 -0.35706193778E+03 -0.30318666098E+02  0.78636899497E+03  0.86418211922E+03  0.46999998093E+01 0.  1.
       -5    1    3    3    0  502  0.35706193778E+03  0.30318666098E+02 -0.18028396448E+04  0.18381146111E+04  0.46999998093E+01 0. -1.
</event>
<event>
 5   0  0.2441340E-05  0.2474005E+04  0.7818609E-02  0.8412305E-01
        2   -1    0    0  501    0  0.00000000000E+00  0.00000000000E+00  0.12055906622E+04  0.12055906622E+04  0.25500000920E-02 0. -1.
       -2   -1    0    0    0  501  0.00000000000E+00  0.00000000000E+00 -0.12692332319E+04  0.12692332319E+04  0.25500000920E-02 0.  1.
    10030    2    1    2    0    0  0.00000000000E+00  0.00000000000E+00 -0.63642569691E+02  0.24748238941E+04  0.24740054426E+04 0.  0.
        3    1    3    3  502    0 -0.11930055316E+04 -0.20880139735E+03  0.21988767288E+03  0.12309389996E+04  0.10100000352E+00 0. -1.
       -3    1    3    3    0  502  0.11930055316E+04  0.20880139735E+03 -0.28353024257E+03  0.12438848944E+04  0.10100000352E+00 0.  1.
</event>
<event>
 5   0  0.2432309E-05  0.2512154E+04  0.7818609E-02  0.8398668E-01
        2   -1    0    0  501    0  0.00000000000E+00  0.00000000000E+00  0.20189779515E+04  0.20189779515E+04  0.25500000920E-02 0. -1.
       -2   -1    0    0    0  501  0.00000000000E+00  0.00000000000E+00 -0.78144986638E+03  0.78144986639E+03  0.25500000920E-02 0.  1.
    10030    2    1    2    0    0  0.00000000000E+00  0.00000000000E+00  0.12375280851E+04  0.28004278179E+04  0.25121544940E+04 0.  0.
        4    1    3    3  502    0  0.57040480118E+03 -0.11122793321E+04  0.48132153043E+03  0.13394771287E+04  0.12699999809E+01 0.  1.
       -4    1    3    3    0  502 -0.57040480118E+03  0.11122793321E+04  0.75620655469E+03  0.14609506891E+04  0.12699999809E+01 0. -1.
</event>
<event>
 5   0  0.1002753E-05  0.2518794E+04  0.7818609E-02  0.8396321E-01
        1   -1    0    0  501    0  0.00000000000E+00  0.00000000000E+00  0.94531132800E+03  0.94531132801E+03  0.50400001928E-02 0.  1.
       -1   -1    0    0    0  501  0.00000000000E+00  0.00000000000E+00 -0.16778396175E+04  0.16778396175E+04  0.50400001928E-02 0. -1.
    10030    2    1    2    0    0  0.00000000000E+00  0.00000000000E+00 -0.73252828946E+03  0.26231509455E+04  0.25187939947E+04 0.  0.
        5    1    3    3  502    0  0.92913478535E+03 -0.75216511022E+03  0.46404120972E+02  0.11963357534E+04  0.46999998093E+01 0.  1.
       -5    1    3    3    0  502 -0.92913478535E+03  0.75216511022E+03 -0.77893241043E+03  0.14268151921E+04  0.46999998093E+01 0. -1.
</event>
<event>
 5   0  0.1010338E-05  0.2528914E+04  0.7818609E-02  0.8392757E-01
        1   -1    0    0  501    0  0.00000000000E+00  0.00000000000E+00  0.15772525348E+04  0.15772525348E+04  0.50400001928E-02 0.  1.
       -1   -1    0    0    0  501  0.00000000000E+00  0.00000000000E+00 -0.10136938975E+04  0.10136938975E+04  0.50400001928E-02 0. -1.
    10030    2    1    2    0    0  0.00000000000E+00  0.00000000000E+00  0.56355863725E+03  0.25909464323E+04  0.25289138138E+04 0.  0.
        2    1    3    3  502    0 -0.49494276181E+03 -0.69542769740E+03  0.12375412480E+04  0.15033616865E+04  0.25500000920E-02 0.  1.
       -2    1    3    3    0  502  0.49494276181E+03  0.69542769740E+03 -0.67398261077E+03  0.10875847458E+04  0.25500000920E-02 0. -1.
</event>
<event>
 5   0  0.2432309E-05  0.2514037E+04  0.7818609E-02  0.8398002E-01
       -2   -1    0    0    0  501  0.00000000000E+00  0.00000000000E+00  0.17189291155E+04  0.17189291155E+04  0.25500000920E-02 0. -1.
        2   -1    0    0  501    0  0.00000000000E+00  0.00000000000E+00 -0.91923219921E+03  0.91923219921E+03  0.25500000920E-02 0.  1.
    10030    2    1    2    0    0  0.00000000000E+00  0.00000000000E+00  0.79969691633E+03  0.26381613148E+04  0.25140365878E+04 0.  0.
        4    1    3    3  502    0 -0.11566341932E+04 -0.49154030993E+01 -0.11665887322E+03  0.11625135370E+04  0.12699999809E+01 0.  1.
       -4    1    3    3    0  502  0.11566341932E+04  0.49154030993E+01  0.91635578955E+03  0.14756477778E+04  0.12699999809E+01 0. -1.
</event>
<event>
 5   0  0.2441340E-05  0.2519560E+04  0.7818609E-02  0.8396050E-01
        2   -1    0    0  501    0  0.00000000000E+00  0.00000000000E+00  0.98798293475E+03  0.98798293476E+03  0.25500000920E-02 0. -1.
       -2   -1    0    0    0  501  0.00000000000E+00  0.00000000000E+00 -0.16063490909E+04  0.16063490909E+04  0.25500000920E-02 0.  1.
    10030    2    1    2    0    0  0.00000000000E+00  0.00000000000E+00 -0.61836615618E+03  0.25943320257E+04  0.25195598736E+04 0.  0.
        3    1    3    3  502    0  0.64009583003E+03 -0.52209214951E+03  0.67022434709E+03  0.10637215659E+04  0.10100000352E+00 0. -1.
       -3    1    3    3    0  502 -0.64009583003E+03  0.52209214951E+03 -0.12885905033E+04  0.15306104598E+04  0.10100000352E+00 0.  1.
</event>
<event>
 5   0  0.2388326E-05  0.2422671E+04  0.7818609E-02  0.8431064E-01
       -2   -1    0    0    0  501  0.00000000000E+00  0.00000000000E+00  0.64972451183E+03  0.64972451184E+03  0.25500000920E-02 0. -1.
        2   -1    0    0  501    0  0.00000000000E+00  0.00000000000E+00 -0.22583934737E+04  0.22583934737E+04  0.25500000920E-02 0.  1.
    10030    2    1    2    0    0  0.00000000000E+00  0.00000000000E+00 -0.16086689619E+04  0.29081179856E+04  0.24226709205E+04 0.  0.
        2    1    3    3  502    0 -0.10299218239E+03  0.16302787479E+03  0.63118174439E+03  0.65998172100E+03  0.25500000920E-02 0. -1.
       -2    1    3    3    0  502  0.10299218239E+03 -0.16302787479E+03 -0.22398507063E+04  0.22481362646E+04  0.25500000920E-02 0.  1.
</event>
<event>
 5   0  0.2432309E-05  0.2287541E+04  0.7818609E-02  0.8482850E-01
       -2   -1    0    0    0  501  0.00000000000E+00  0.00000000000E+00  0.72621688437E+03  0.72621688438E+03  0.25500000920E-02 0. -1.
        2   -1    0    0  501    0  0.00000000000E+00  0.00000000000E+00 -0.18014048685E+04  0.18014048685E+04  0.25500000920E-02 0.  1.
    10030    2    1    2    0    0  0.00000000000E+00  0.00000000000E+00 -0.10751879841E+04  0.25276217529E+04  0.22875407153E+04 0.  0.
        4    1    3    3  502    0  0.55277929460E+03 -0.92855477130E+03 -0.95166360838E+03  0.14399458838E+04  0.12699999809E+01 0.  1.
       -4    1    3    3    0  502 -0.55277929460E+03  0.92855477130E+03 -0.12352437573E+03  0.10876758691E+04  0.12699999809E+01 0. -1.
</event>
<event>
 5   0  0.1008073E-05  0.2477487E+04  0.7818609E-02  0.8411050E-01
       -1   -1    0    0    0  501  0.00000000000E+00  0.00000000000E+00  0.70056687122E+03  0.70056687124E+03  0.50400001928E-02 0. -1.
        1   -1    0    0  501    0  0.00000000000E+00  0.00000000000E+00 -0.21903478508E+04  0.21903478508E+04  0.50400001928E-02 0.  1.
    10030    2    1    2    0    0  0.00000000000E+00  0.00000000000E+00 -0.14897809796E+04  0.28909147220E+04  0.24774867432E+04 0.  0.
        1    1    3    3  502    0  0.34580766662E+03 -0.13483089393E+03  0.63415647642E+03  0.73479027543E+03  0.50400001928E-02 0. -1.
       -1    1    3    3    0  502 -0.34580766662E+03  0.13483089393E+03 -0.21239374560E+04  0.21561244466E+04  0.50400001928E-02 0.  1.
</event>
<event>
 5   0  0.2388326E-05  0.2462306E+04  0.7818609E-02  0.8416539E-01
        2   -1    0    0  501    0  0.00000000000E+00  0.00000000000E+00  0.18007036652E+04  0.18007036652E+04  0.25500000920E-02 0.  1.
       -2   -1    0    0    0  501  0.00000000000E+00  0.00000000000E+00 -0.84174714944E+03  0.84174714944E+03  0.25500000920E-02 0. -1.
    10030    2    1    2    0    0  0.00000000000E+00  0.00000000000E+00  0.95895651579E+03  0.26424508147E+04  0.24623055677E+04 0.  0.
        2    1    3    3  502    0 -0.48362007808E+03 -0.48395836820E+03 -0.61894462039E+03  0.92260312442E+03  0.25500000920E-02 0. -1.
       -2    1    3    3    0  502  0.48362007808E+03  0.48395836820E+03  0.15779011362E+04  0.17198476902E+04  0.25500000920E-02 0.  1.
</event>
<event>
 5   0  0.1002753E-05  0.2483029E+04  0.7818609E-02  0.8409057E-01
       -1   -1    0    0    0  501  0.00000000000E+00  0.00000000000E+00  0.87042837685E+03  0.87042837686E+03  0.50400001928E-02 0. -1.
        1   -1    0    0  501    0  0.00000000000E+00  0.00000000000E+00 -0.17708035569E+04  0.17708035569E+04  0.50400001928E-02 0.  1.
    10030    2    1    2    0    0  0.00000000000E+00  0.00000000000E+00 -0.90037518003E+03  0.26412319338E+04  0.24830285264E+04 0.  0.
        5    1    3    3  502    0  0.12258316925E+04 -0.15077994927E+03 -0.58447549463E+03  0.13663936567E+04  0.46999998093E+01 0.  1.
       -5    1    3    3    0  502 -0.12258316925E+04  0.15077994927E+03 -0.31589968540E+03  0.12748382770E+04  0.46999998093E+01 0. -1.
</event>
<event>
 5   0  0.1039688E-05  0.2505141E+04  0.7818609E-02  0.8401156E-01
       -1   -1    0    0    0  501  0.00000000000E+00  0.00000000000E+00  0.14411968160E+04  0.14411968160E+04  0.50400001928E-02 0. -1.
        1   -1    0    0  501    0  0.00000000000E+00  0.00000000000E+00 -0.10886321832E+04  0.10886321833E+04  0.50400001928E-02 0.  1.
    10030    2    1    2    0    0  0.00000000000E+00  0.00000000000E+00  0.35256463275E+03  0.25298289993E+04  0.25051413024E+04 0.  0.
        3    1    3    3  502    0  0.21977391449E+03  0.36720050481E+03  0.13650819436E+04  0.14305892168E+04  0.10100000352E+00 0. -1.
       -3    1    3    3    0  502 -0.21977391449E+03 -0.36720050481E+03 -0.10125173109E+04  0.10992397824E+04  0.10100000352E+00 0.  1.
</event>
<event>
 5   0  0.2345143E-05  0.2479010E+04  0.7818609E-02  0.8410502E-01
       -2   -1    0    0    0  501  0.00000000000E+00  0.00000000000E+00  0.90163233506E+03  0.90163233507E+03  0.25500000920E-02 0. -1.
        2   -1    0    0  501    0  0.00000000000E+00  0.00000000000E+00 -0.17039902293E+04  0.17039902293E+04  0.25500000920E-02 0.  1.
    10030    2    1    2    0    0  0.00000000000E+00  0.00000000000E+00 -0.80235789427E+03  0.26056225644E+04  0.24790100358E+04 0.  0.
        5    1    3    3  502    0 -0.90177736332E+03  0.16383489494E+03 -0.12782471938E+04  0.15728897813E+04  0.46999998093E+01 0.  1.
       -5    1    3    3    0  502  0.90177736332E+03 -0.16383489494E+03  0.47588929953E+03  0.10327327831E+04  0.46999998093E+01 0. -1.
</event>
<event>
 5   0  0.1002753E-05  0.2484056E+04  0.7818609E-02  0.8408688E-01
       -1   -1    0    0    0  501  0.00000000000E+00  0.00000000000E+00  0.93051410283E+03  0.93051410284E+03  0.50400001928E-02 0. -1.
        1   -1    0    0  501    0  0.00000000000E+00  0.00000000000E+00 -0.16578297208E+04  0.16578297208E+04  0.50400001928E-02 0.  1.
    10030    2    1    2    0    0  0.00000000000E+00  0.00000000000E+00 -0.72731561793E+03  0.25883438236E+04  0.24840563080E+04 0.  0.
        5    1    3    3  502    0  0.11391138177E+04  0.16935463944E+03 -0.84832044832E+03  0.14303604289E+04  0.46999998093E+01 0.  1.
       -5    1    3    3    0  502 -0.11391138177E+04 -0.16935463944E+03  0.12100483039E+03  0.11579833947E+04  0.46999998093E+01 0. -1.
</event>
<event>
 5   0  0.2441340E-05  0.2507003E+04  0.7818609E-02  0.8400495E-01
       -2   -1    0    0    0  501  0.00000000000E+00  0.00000000000E+00  0.32010439566E+04  0.32010439566E+04  0.25500000920E-02 0.  1.
        2   -1    0    0  501    0  0.00000000000E+00  0.00000000000E+00 -0.49086039937E+03  0.49086039938E+03  0.25500000920E-02 0. -1.
    10030    2    1    2    0    0  0.00000000000E+00  0.00000000000E+00  0.27101835572E+04  0.36919043559E+04  0.25070027642E+04 0.  0.
        3    1    3    3  502    0  0.54671647105E+03 -0.59014819584E+03  0.27707330426E+04  0.28851577767E+04  0.10100000352E+00 0.  1.
       -3    1    3    3    0  502 -0.54671647105E+03  0.59014819584E+03 -0.60549485409E+02  0.80674657926E+03  0.10100000352E+00 0. -1.
</event>
<event>
 5   0  0.1008073E-05  0.2108431E+04  0.7818609E-02  0.8557538E-01
       -1   -1    0    0    0  501  0.00000000000E+00  0.00000000000E+00  0.86832787170E+03  0.86832787171E+03  0.50400001928E-02 0. -1.
        1   -1    0    0  501    0  0.00000000000E+00  0.00000000000E+00 -0.12798973367E+04  0.12798973367E+04  0.50400001928E-02 0.  1.
    10030    2    1    2    0    0  0.00000000000E+00  0.00000000000E+00 -0.41156946500E+03  0.21482252084E+04  0.21084311991E+04 0.  0.
        1    1    3    3  502    0 -0.24519608164E+03 -0.10130418202E+04 -0.44700558823E+02  0.10432511624E+04  0.50400001928E-02 0. -1.
       -1    1    3    3    0  502  0.24519608164E+03  0.10130418202E+04 -0.36686890617E+03  0.11049740460E+04  0.50400001928E-02 0.  1.
</event>
<event>
 5   0  0.1002753E-05  0.2495277E+04  0.7818609E-02  0.8404670E-01
       -1   -1    0    0    0  501  0.00000000000E+00  0.00000000000E+00  0.15806612762E+04  0.15806612762E+04  0.50400001928E-02 0.  1.
        1   -1    0    0  501    0  0.00000000000E+00  0.00000000000E+00 -0.98477903821E+03  0.98477903822E+03  0.50400001928E-02 0. -1.
    10030    2    1    2    0    0  0.00000000000E+00  0.00000000000E+00  0.59588223795E+03  0.25654403144E+04  0.24952772121E+04 0.  0.
        5    1    3    3  502    0 -0.46410118067E+02  0.11866968575E+04  0.69102220526E+03  0.13740222374E+04  0.46999998093E+01 0.  1.
       -5    1    3    3    0  502  0.46410118067E+02 -0.11866968575E+04 -0.95139967312E+02  0.11914180770E+04  0.46999998093E+01 0. -1.
</event>
<event>
 5   0  0.2441340E-05  0.2493982E+04  0.7818609E-02  0.8405133E-01
       -2   -1    0    0    0  501  0.00000000000E+00  0.00000000000E+00  0.76439105671E+03  0.76439105671E+03  0.25500000920E-02 0.  1.
        2   -1    0    0  501    0  0.00000000000E+00  0.00000000000E+00 -0.20342810583E+04  0.20342810583E+04  0.25500000920E-02 0. -1.
    10030    2    1    2    0    0  0.00000000000E+00  0.00000000000E+00 -0.12698900016E+04  0.27986721150E+04  0.24939817544E+04 0.  0.
        3    1    3    3  502    0  0.16227848800E+03 -0.27616710988E+03 -0.19873271370E+04  0.20129758419E+04  0.10100000352E+00 0. -1.
       -3    1    3    3    0  502 -0.16227848800E+03  0.27616710988E+03  0.71743713539E+03  0.78569627318E+03  0.10100000352E+00 0.  1.
</event>
<event>
 5   0  0.2345143E-05  0.2532930E+04  0.7818609E-02  0.8391347E-01
        2   -1    0    0  501    0  0.00000000000E+00  0.00000000000E+00  0.14990497828E+04  0.14990497828E+04  0.25500000920E-02 0. -1.
       -2   -1    0    0    0  501  0.00000000000E+00  0.00000000000E+00 -0.10699665058E+04  0.10699665058E+04  0.25500000920E-02 0.  1.
    10030    2    1    2    0    0  0.00000000000E+00  0.00000000000E+00  0.42908327695E+03  0.25690162886E+04  0.25329295751E+04 0.  0.
        5    1    3    3  502    0 -0.89095317377E+02 -0.89923258619E+03 -0.68542972909E+03  0.11341927628E+04  0.46999998093E+01 0.  1.
       -5    1    3    3    0  502  0.89095317377E+02  0.89923258619E+03  0.11145130060E+04  0.14348235258E+04  0.46999998093E+01 0. -1.
</event>
<event>
 5   0  0.2345143E-05  0.2486253E+04  0.7818609E-02  0.8407899E-01
       -2   -1    0    0    0  501  0.00000000000E+00  0.00000000000E+00  0.93093463586E+03  0.93093463587E+03  0.25500000920E-02 0. -1.
        2   -1    0    0  501    0  0.00000000000E+00  0.00000000000E+00 -0.16600133270E+04  0.16600133270E+04  0.25500000920E-02 0.  1.
    10030    2    1    2    0    0  0.00000000000E+00  0.00000000000E+00 -0.72907869111E+03  0.25909479628E+04  0.24862533275E+04 0.  0.
        5    1    3    3  502    0  0.12703570442E+03  0.57568811191E+03 -0.15050598564E+04  0.16164102616E+04  0.46999998093E+01 0.  1.
       -5    1    3    3    0  502 -0.12703570442E+03 -0.57568811191E+03  0.77598116526E+03  0.97453770129E+03  0.46999998093E+01 0. -1.
</event>
<event>
 5   0  0.1015327E-05  0.2260827E+04  0.7818609E-02  0.8493529E-01
       -1   -1    0    0    0  501  0.00000000000E+00  0.00000000000E+00  0.19989138970E+04  0.19989138970E+04  0.50400001928E-02 0.  1.
        1   -1    0    0  501    0  0.00000000000E+00  0.00000000000E+00 -0.63926440278E+03  0.63926440280E+03  0.50400001928E-02 0. -1.
    10030    2    1    2    0    0  0.00000000000E+00  0.00000000000E+00  0.13596494942E+04  0.26381782998E+04  0.22608268387E+04 0.  0.
        4    1    3    3  502    0 -0.45808419850E+03 -0.15933224069E+03 -0.51168265086E+03  0.70501676854E+03  0.12699999809E+01 0. -1.
       -4    1    3    3    0  502  0.45808419850E+03  0.15933224069E+03  0.18713321451E+04  0.19331615313E+04  0.12699999809E+01 0.  1.
</event>
<event>
 5   0  0.8166500E-06  0.2489655E+04  0.7818609E-02  0.8406680E-01
       -3   -1    0    0    0  501  0.00000000000E+00  0.00000000000E+00  0.16367121825E+04  0.16367121856E+04  0.10100000352E+00 0. -1.
        3   -1    0    0  501    0  0.00000000000E+00  0.00000000000E+00 -0.94677343457E+03  0.94677343996E+03  0.10100000352E+00 0.  1.
    10030    2    1    2    0    0  0.00000000000E+00  0.00000000000E+00  0.68993874789E+03  0.25834856255E+04  0.24896550969E+04 0.  0.
        3    1    3    3  502    0 -0.10079425851E+03  0.12081252388E+04  0.51706251353E+02  0.12134247491E+04  0.10100000352E+00 0.  1.
       -3    1    3    3    0  502  0.10079425851E+03 -0.12081252388E+04  0.63823249654E+03  0.13700608764E+04  0.10100000352E+00 0. -1.
</event>
<event>
 5   0  0.1015327E-05  0.2487514E+04  0.7818609E-02  0.8407447E-01
        1   -1    0    0  501    0  0.00000000000E+00  0.00000000000E+00  0.15820297704E+04  0.15820297704E+04  0.50400001928E-02 0. -1.
       -1   -1    0    0    0  501  0.00000000000E+00  0.00000000000E+00 -0.97781411708E+03  0.97781411709E+03  0.50400001928E-02 0.  1.
    10030    2    1    2    0    0  0.00000000000E+00  0.00000000000E+00  0.60421565329E+03  0.25598438875E+04  0.24875136527E+04 0.  0.
        4    1    3    3  502    0  0.13052057995E+03 -0.10997279336E+04 -0.28047381400E+03  0.11424116259E+04  0.12699999809E+01 0.  1.
       -4    1    3    3    0  502 -0.13052057995E+03  0.10997279336E+04  0.88468946729E+03  0.14174322616E+04  0.12699999809E+01 0. -1.
</event>
<event>
 5   0  0.1039688E-05  0.2483103E+04  0.7818609E-02  0.8409030E-01
        1   -1    0    0  501    0  0.00000000000E+00  0.00000000000E+00  0.16040668147E+04  0.16040668147E+04  0.50400001928E-02 0. -1.
       -1   -1    0    0    0  501  0.00000000000E+00  0.00000000000E+00 -0.96096383083E+03  0.96096383084E+03  0.50400001928E-02 0.  1.
    10030    2    1    2    0    0  0.00000000000E+00  0.00000000000E+00  0.64310298384E+03  0.25650306455E+04  0.24831030515E+04 0.  0.
        3    1    3    3  502    0 -0.84392054437E+03 -0.66804114258E+03  0.96081484827E+03  0.14427910577E+04  0.10100000352E+00 0.  1.
       -3    1    3    3    0  502  0.84392054437E+03  0.66804114258E+03 -0.31771186444E+03  0.11222395878E+04  0.10100000352E+00 0. -1.
</event>
<event>
 5   0  0.1008073E-05  0.2506396E+04  0.7818609E-02  0.8400711E-01
        1   -1    0    0  501    0  0.00000000000E+00  0.00000000000E+00  0.19952977423E+04  0.19952977423E+04  0.50400001928E-02 0.  1.
       -1   -1    0    0    0  501  0.00000000000E+00  0.00000000000E+00 -0.78710290573E+03  0.78710290574E+03  0.50400001928E-02 0. -1.
    10030    2    1    2    0    0  0.00000000000E+00  0.00000000000E+00  0.12081948366E+04  0.27824006481E+04  0.25063955400E+04 0.  0.
        1    1    3    3  502    0  0.33179792185E+03 -0.57791140489E+03 -0.57411277964E+03  0.87958907259E+03  0.50400001928E-02 0. -1.
       -1    1    3    3    0  502 -0.33179792185E+03  0.57791140489E+03  0.17823076162E+04  0.19028115755E+04  0.50400001928E-02 0.  1.
</event>
<event>
 5   0  0.2345143E-05  0.2512719E+04  0.7818609E-02  0.8398468E-01
        2   -1    0    0  501    0  0.00000000000E+00  0.00000000000E+00  0.18143372566E+04  0.18143372566E+04  0.25500000920E-02 0.  1.
       -2   -1    0    0    0  501  0.00000000000E+00  0.00000000000E+00 -0.86998105810E+03  0.86998105810E+03  0.25500000920E-02 0. -1.
    10030    2    1    2    0    0  0.00000000000E+00  0.00000000000E+00  0.94435619850E+03  0.26843183147E+04  0.25127188830E+04 0.  0.
        5    1    3    3  502    0 -0.67191302847E+03 -0.53104712839E+03 -0.50980210788E+03  0.99669375918E+03  0.46999998093E+01 0. -1.
       -5    1    3    3    0  502  0.67191302847E+03  0.53104712839E+03  0.14541583064E+04  0.16876245555E+04  0.46999998093E+01 0.  1.
</event>
<event>
 5   0  0.2345143E-05  0.2501543E+04  0.7818609E-02  0.8402436E-01
       -2   -1    0    0    0  501  0.00000000000E+00  0.00000000000E+00  0.90333267738E+03  0.90333267738E+03  0.25500000920E-02 0. -1.
        2   -1    0    0  501    0  0.00000000000E+00  0.00000000000E+00 -0.17318417263E+04  0.17318417263E+04  0.25500000920E-02 0.  1.
    10030    2    1    2    0    0  0.00000000000E+00  0.00000000000E+00 -0.82850904890E+03  0.26351744037E+04  0.25015429026E+04 0.  0.
        5    1    3    3  502    0 -0.22523168310E+02  0.12495941966E+04 -0.36249543912E+03  0.13013139447E+04  0.46999998093E+01 0.  1.
       -5    1    3    3    0  502  0.22523168310E+02 -0.12495941966E+04 -0.46601360978E+03  0.13338604589E+04  0.46999998093E+01 0. -1.
</event>
<event>
 5   0  0.2345143E-05  0.2499447E+04  0.7818609E-02  0.8403182E-01
       -2   -1    0    0    0  501  0.00000000000E+00  0.00000000000E+00  0.49649246639E+03  0.49649246640E+03  0.25500000920E-02 0. -1.
        2   -1    0    0  501    0  0.00000000000E+00  0.00000000000E+00 -0.31456855262E+04  0.31456855262E+04  0.25500000920E-02 0.  1.
    10030    2    1    2    0    0  0.00000000000E+00  0.00000000000E+00 -0.26491930598E+04  0.36421779926E+04  0.24994472712E+04 0.  0.
        5    1    3    3  502    0  0.69304436538E+02  0.11810302361E+04 -0.73781323527E+03  0.13942833226E+04  0.46999998093E+01 0. -1.
       -5    1    3    3    0  502 -0.69304436538E+02 -0.11810302361E+04 -0.19113798245E+04  0.22478946699E+04  0.46999998093E+01 0.  1.
</event>
<event>
 5   0  0.1008073E-05  0.2500289E+04  0.7818609E-02  0.8402882E-01
        1   -1    0    0  501    0  0.00000000000E+00  0.00000000000E+00  0.18456003396E+04  0.18456003396E+04  0.50400001928E-02 0.  1.
       -1   -1    0    0    0  501  0.00000000000E+00  0.00000000000E+00 -0.84680396525E+03  0.84680396526E+03  0.50400001928E-02 0. -1.
    10030    2    1    2    0    0  0.00000000000E+00  0.00000000000E+00  0.99879637436E+03  0.26924043049E+04  0.25002893319E+04 0.  0.
        1    1    3    3  502    0 -0.11716667273E+04 -0.37054127415E+03  0.74673791745E+03  0.14379573266E+04  0.50400001928E-02 0.  1.
       -1    1    3    3    0  502  0.11716667273E+04  0.37054127415E+03  0.25205845690E+03  0.12544469783E+04  0.50400001928E-02 0. -1.
</event>
<event>
 5   0  0.2452457E-05  0.2552790E+04  0.7818609E-02  0.8384416E-01
       -2   -1    0    0    0  501  0.00000000000E+00  0.00000000000E+00  0.10915411482E+04  0.10915411482E+04  0.25500000920E-02 0.  1.
        2   -1    0    0  501    0  0.00000000000E+00  0.00000000000E+00 -0.14925543024E+04  0.14925543024E+04  0.25500000920E-02 0. -1.
    10030    2    1    2    0    0  0.00000000000E+00  0.00000000000E+00 -0.40101315420E+03  0.25840954507E+04  0.25527901889E+04 0.  0.
        1    1    3    3  502    0  0.10979351117E+04  0.10311410627E+03  0.45009630842E+03  0.11910838406E+04  0.50400001928E-02 0.  1.
       -1    1    3    3    0  502 -0.10979351117E+04 -0.10311410627E+03 -0.85110946261E+03  0.13930116101E+04  0.50400001928E-02 0. -1.
</event>
<event>
 5   0  0.2452457E-05  0.2570733E+04  0.7818609E-02  0.8378211E-01
        2   -1    0    0  501    0  0.00000000000E+00  0.00000000000E+00  0.12015854729E+04  0.12015854729E+04  0.25500000920E-02 0. -1.
       -2   -1    0    0    0  501  0.00000000000E+00  0.00000000000E+00 -0.13749896788E+04  0.13749896788E+04  0.25500000920E-02 0.  1.
    10030    2    1    2    0    0  0.00000000000E+00  0.00000000000E+00 -0.17340420593E+03  0.25765751517E+04  0.25707334545E+04 0.  0.
        1    1    3    3  502    0 -0.45767772363E+02 -0.19232313710E+03  0.11862567241E+04  0.12026171019E+04  0.50400001928E-02 0. -1.
       -1    1    3    3    0  502  0.45767772363E+02  0.19232313710E+03 -0.13596609301E+04  0.13739580499E+04  0.50400001928E-02 0.  1.
</event>
<event>
 5   0  0.1039688E-05  0.2509170E+04  0.7818609E-02  0.8399726E-01
        1   -1    0    0  501    0  0.00000000000E+00  0.00000000000E+00  0.15017757754E+04  0.15017757754E+04  0.50400001928E-02 0.  1.
       -1   -1    0    0    0  501  0.00000000000E+00  0.00000000000E+00 -0.10480817479E+04  0.10480817479E+04  0.50400001928E-02 0. -1.
    10030    2    1    2    0    0  0.00000000000E+00  0.00000000000E+00  0.45369402748E+03  0.25498575234E+04  0.25091702052E+04 0.  0.
        3    1    3    3  502    0  0.90973992293E+03  0.46920653474E+03 -0.51031364762E+03  0.11437663786E+04  0.10100000352E+00 0. -1.
       -3    1    3    3    0  502 -0.90973992293E+03 -0.46920653474E+03  0.96400767509E+03  0.14060911448E+04  0.10100000352E+00 0.  1.
</event>
<event>
 5   0  0.2432309E-05  0.2404243E+04  0.7818609E-02  0.8437917E-01
       -2   -1    0    0    0  501  0.00000000000E+00  0.00000000000E+00  0.76014698896E+03  0.76014698896E+03  0.25500000920E-02 0.  1.
        2   -1    0    0  501    0  0.00000000000E+00  0.00000000000E+00 -0.19010740259E+04  0.19010740259E+04  0.25500000920E-02 0. -1.
    10030    2    1    2    0    0  0.00000000000E+00  0.00000000000E+00 -0.11409270370E+04  0.26612210149E+04  0.24042426638E+04 0.  0.
        4    1    3    3  502    0 -0.73277917112E+03  0.71189622268E+03  0.13075734730E+03  0.10299808941E+04  0.12699999809E+01 0.  1.
       -4    1    3    3    0  502  0.73277917112E+03 -0.71189622268E+03 -0.12716843842E+04  0.16312401207E+04  0.12699999809E+01 0. -1.
</event>
<event>
 5   0  0.1010338E-05  0.2495012E+04  0.7818609E-02  0.8404765E-01
       -1   -1    0    0    0  501  0.00000000000E+00  0.00000000000E+00  0.70642005019E+03  0.70642005020E+03  0.50400001928E-02 0. -1.
        1   -1    0    0  501    0  0.00000000000E+00  0.00000000000E+00 -0.22030401989E+04  0.22030401989E+04  0.50400001928E-02 0.  1.
    10030    2    1    2    0    0  0.00000000000E+00  0.00000000000E+00 -0.14966201487E+04  0.29094602491E+04  0.24950124392E+04 0.  0.
        2    1    3    3  502    0  0.15759609820E+03  0.55646024470E+03  0.54064417989E+03  0.79169480443E+03  0.25500000920E-02 0. -1.
       -2    1    3    3    0  502 -0.15759609820E+03 -0.55646024470E+03 -0.20372643286E+04  0.21177654447E+04  0.25500000920E-02 0.  1.
</event>
<event>
 5   0  0.2388326E-05  0.2495956E+04  0.7818609E-02  0.8404428E-01
       -2   -1    0    0    0  501  0.00000000000E+00  0.00000000000E+00  0.11636741457E+04  0.11636741457E+04  0.25500000920E-02 0.  1.
        2   -1    0    0  501    0  0.00000000000E+00  0.00000000000E+00 -0.13383894069E+04  0.13383894069E+04  0.25500000920E-02 0. -1.
    10030    2    1    2    0    0  0.00000000000E+00  0.00000000000E+00 -0.17471526113E+03  0.25020635526E+04  0.24959560491E+04 0.  0.
        2    1    3    3  502    0  0.43778772235E+03  0.27386946344E+03  0.10515503160E+04  0.11715035808E+04  0.25500000920E-02 0.  1.
       -2    1    3    3    0  502 -0.43778772235E+03 -0.27386946344E+03 -0.12262655771E+04  0.13305599718E+04  0.25500000920E-02 0. -1.
</event>
<event>
 5   0  0.1008073E-05  0.2498388E+04  0.7818609E-02  0.8403560E-01
        1   -1    0    0  501    0  0.00000000000E+00  0.00000000000E+00  0.19340584945E+04  0.19340584945E+04  0.50400001928E-02 0.  1.
       -1   -1    0    0    0  501  0.00000000000E+00  0.00000000000E+00 -0.80684530438E+03  0.80684530439E+03  0.50400001928E-02 0. -1.
    10030    2    1    2    0    0  0.00000000000E+00  0.00000000000E+00  0.11272131902E+04  0.27409037989E+04  0.24983882923E+04 0.  0.
        1    1    3    3  502    0  0.10075459808E+04 -0.65380723875E+03  0.18695361800E+03  0.12155510948E+04  0.50400001928E-02 0. -1.
       -1    1    3    3    0  502 -0.10075459808E+04  0.65380723875E+03  0.94025957215E+03  0.15253527041E+04  0.50400001928E-02 0.  1.
</event>
<event>
 5   0  0.2388326E-05  0.2497993E+04  0.7818609E-02  0.8403701E-01
        2   -1    0    0  501    0  0.00000000000E+00  0.00000000000E+00  0.12624987723E+04  0.12624987723E+04  0.25500000920E-02 0. -1.
       -2   -1    0    0    0  501  0.00000000000E+00  0.00000000000E+00 -0.12356390344E+04  0.12356390344E+04  0.25500000920E-02 0.  1.
    10030    2    1    2    0    0  0.00000000000E+00  0.00000000000E+00  0.26859737871E+02  0.24981378067E+04  0.24979934058E+04 0.  0.
        2    1    3    3  502    0 -0.43010415484E+03  0.90370666281E+03 -0.73381975359E+03  0.12410345471E+04  0.25500000920E-02 0.  1.
       -2    1    3    3    0  502  0.43010415484E+03 -0.90370666281E+03  0.76067949147E+03  0.12571032595E+04  0.25500000920E-02 0. -1.
</event>
<event>
 5   0  0.2345143E-05  0.2504787E+04  0.7818609E-02  0.8401282E-01
       -2   -1    0    0    0  501  0.00000000000E+00  0.00000000000E+00  0.14667663790E+04  0.14667663790E+04  0.25500000920E-02 0. -1.
        2   -1    0    0  501    0  0.00000000000E+00  0.00000000000E+00 -0.10693522929E+04  0.10693522929E+04  0.25500000920E-02 0.  1.
    10030    2    1    2    0    0  0.00000000000E+00  0.00000000000E+00  0.39741408613E+03  0.25361186719E+04  0.25047874086E+04 0.  0.
        5    1    3    3  502    0 -0.10864341259E+03 -0.10199524684E+04  0.92627843622E+03  0.13820710041E+04  0.46999998093E+01 0. -1.
       -5    1    3    3    0  502  0.10864341259E+03  0.10199524684E+04 -0.52886435009E+03  0.11540476679E+04  0.46999998093E+01 0.  1.
</event>
<event>
 5   0  0.2345143E-05  0.2518131E+04  0.7818609E-02  0.8396555E-01
       -2   -1    0    0    0  501  0.00000000000E+00  0.00000000000E+00  0.10645251014E+04  0.10645251014E+04  0.25500000920E-02 0.  1.
        2   -1    0    0  501    0  0.00000000000E+00  0.00000000000E+00 -0.14891580235E+04  0.14891580235E+04  0.25500000920E-02 0. -1.
    10030    2    1    2    0    0  0.00000000000E+00  0.00000000000E+00 -0.42463292210E+03  0.25536831250E+04  0.25181311293E+04 0.  0.
        5    1    3    3  502    0 -0.12260274855E+04 -0.16272273270E+03 -0.45144618968E+03  0.13166046617E+04  0.46999998093E+01 0. -1.
       -5    1    3    3    0  502  0.12260274855E+04  0.16272273270E+03  0.26813267579E+02  0.12370784633E+04  0.46999998093E+01 0.  1.
</event>
<event>
 5   0  0.8166500E-06  0.2133478E+04  0.7818609E-02  0.8546638E-01
       -4   -1    0    0    0  501  0.00000000000E+00  0.00000000000E+00  0.11085206217E+04  0.11085213492E+04  0.12699999809E+01 0.  1.
        4   -1    0    0  501    0  0.00000000000E+00  0.00000000000E+00 -0.10265308227E+04  0.10265316083E+04  0.12699999809E+01 0. -1.
    10030    2    1    2    0    0  0.00000000000E+00  0.00000000000E+00  0.81989799049E+02  0.21350529575E+04  0.21334781002E+04 0.  0.
        1    1    3    3  502    0  0.82065998533E+03 -0.66862738885E+03  0.17295126525E+03  0.10725938359E+04  0.50400001928E-02 0. -1.
       -1    1    3    3    0  502 -0.82065998533E+03  0.66862738885E+03 -0.90961466200E+02  0.10624591216E+04  0.50400001928E-02 0.  1.
</event>
<event>
 5   0  0.1039688E-05  0.2494397E+04  0.7818609E-02  0.8404984E-01
       -1   -1    0    0    0  501  0.00000000000E+00  0.00000000000E+00  0.13906224598E+04  0.13906224598E+04  0.50400001928E-02 0. -1.
        1   -1    0    0  501    0  0.00000000000E+00  0.00000000000E+00 -0.11185664435E+04  0.11185664435E+04  0.50400001928E-02 0.  1.
    10030    2    1    2    0    0  0.00000000000E+00  0.00000000000E+00  0.27205601629E+03  0.25091889034E+04  0.24943966158E+04 0.  0.
        3    1    3    3  502    0 -0.33243511690E+03  0.87577885227E+03  0.96431970216E+03  0.13444010574E+04  0.10100000352E+00 0. -1.
       -3    1    3    3    0  502  0.33243511690E+03 -0.87577885227E+03 -0.69226368587E+03  0.11647878459E+04  0.10100000352E+00 0.  1.
</event>
<event>
 5   0  0.1039688E-05  0.2497879E+04  0.7818609E-02  0.8403741E-01
       -1   -1    0    0    0  501  0.00000000000E+00  0.00000000000E+00  0.10191401405E+04  0.10191401405E+04  0.50400001928E-02 0.  1.
        1   -1    0    0  501    0  0.00000000000E+00  0.00000000000E+00 -0.15305550835E+04  0.15305550835E+04  0.50400001928E-02 0. -1.
    10030    2    1    2    0    0  0.00000000000E+00  0.00000000000E+00 -0.51141494303E+03  0.25496952240E+04  0.24978791987E+04 0.  0.
        3    1    3    3  502    0 -0.10304752195E+04 -0.58314160419E+03 -0.66133835367E+03  0.13562085890E+04  0.10100000352E+00 0. -1.
       -3    1    3    3    0  502  0.10304752195E+04  0.58314160419E+03  0.14992341064E+03  0.11934866350E+04  0.10100000352E+00 0.  1.
</event>
<event>
 5   0  0.1002753E-05  0.2501784E+04  0.7818609E-02  0.8402350E-01
       -1   -1    0    0    0  501  0.00000000000E+00  0.00000000000E+00  0.10625763202E+04  0.10625763203E+04  0.50400001928E-02 0.  1.
        1   -1    0    0  501    0  0.00000000000E+00  0.00000000000E+00 -0.14725823779E+04  0.14725823779E+04  0.50400001928E-02 0. -1.
    10030    2    1    2    0    0  0.00000000000E+00  0.00000000000E+00 -0.41000605768E+03  0.25351586982E+04  0.25017842948E+04 0.  0.
        5    1    3    3  502    0 -0.50125312152E+03 -0.96838774465E+03 -0.82610666463E+03  0.13680291763E+04  0.46999998093E+01 0. -1.
       -5    1    3    3    0  502  0.50125312152E+03  0.96838774465E+03  0.41610060694E+03  0.11671295219E+04  0.46999998093E+01 0.  1.
</event>
<event>
 5   0  0.2452457E-05  0.2532900E+04  0.7818609E-02  0.8391357E-01
       -2   -1    0    0    0  501  0.00000000000E+00  0.00000000000E+00  0.13268989582E+04  0.13268989582E+04  0.25500000920E-02 0. -1.
        2   -1    0    0  501    0  0.00000000000E+00  0.00000000000E+00 -0.12087552300E+04  0.12087552300E+04  0.25500000920E-02 0.  1.
    10030    2    1    2    0    0  0.00000000000E+00  0.00000000000E+00  0.11814372819E+03  0.25356541882E+04  0.25329003577E+04 0.  0.
        1    1    3    3  502    0 -0.37669606576E+03 -0.62708832706E+03 -0.97585884781E+03  0.12196065705E+04  0.50400001928E-02 0.  1.
       -1    1    3    3    0  502  0.37669606576E+03  0.62708832706E+03  0.10940025760E+04  0.13160476178E+04  0.50400001928E-02 0. -1.
</event>
<event>
 5   0  0.1002753E-05  0.2493429E+04  0.7818609E-02  0.8405330E-01
        1   -1    0    0  501    0  0.00000000000E+00  0.00000000000E+00  0.20929022301E+04  0.20929022301E+04  0.50400001928E-02 0.  1.
       -1   -1    0    0    0  501  0.00000000000E+00  0.00000000000E+00 -0.74265161192E+03  0.74265161194E+03  0.50400001928E-02 0. -1.
    10030    2    1    2    0    0  0.00000000000E+00  0.00000000000E+00  0.13502506182E+04  0.28355538420E+04  0.24934291366E+04 0.  0.
        5    1    3    3  502    0  0.82978708950E+03 -0.84921003355E+03  0.24272976974E+03  0.12118762833E+04  0.46999998093E+01 0. -1.
       -5    1    3    3    0  502 -0.82978708950E+03  0.84921003355E+03  0.11075208484E+04  0.16236775587E+04  0.46999998093E+01 0.  1.
</event>
<event>
 5   0  0.2452457E-05  0.2502179E+04  0.7818609E-02  0.8402209E-01
       -2   -1    0    0    0  501  0.00000000000E+00  0.00000000000E+00  0.12741117758E+04  0.12741117758E+04  0.25500000920E-02 0. -1.
        2   -1    0    0  501    0  0.00000000000E+00  0.00000000000E+00 -0.12284836895E+04  0.12284836896E+04  0.25500000920E-02 0.  1.
    10030    2    1    2    0    0  0.00000000000E+00  0.00000000000E+00  0.45628086261E+02  0.25025954654E+04  0.25021794782E+04 0.  0.
        1    1    3    3  502    0 -0.98974804831E+03  0.66783916531E+03 -0.35089923100E+03  0.12444840779E+04  0.50400001928E-02 0.  1.
       -1    1    3    3    0  502  0.98974804831E+03 -0.66783916531E+03  0.39652731726E+03  0.12581113874E+04  0.50400001928E-02 0. -1.
</event>
<event>
 5   0  0.2441340E-05  0.2468996E+04  0.7818609E-02  0.8414115E-01
       -2   -1    0    0    0  501  0.00000000000E+00  0.00000000000E+00  0.67322892720E+03  0.67322892720E+03  0.25500000920E-02 0.  1.
        2   -1    0    0  501    0  0.00000000000E+00  0.00000000000E+00 -0.22636954202E+04  0.22636954202E+04  0.25500000920E-02 0. -1.
    10030    2    1    2    0    0  0.00000000000E+00  0.00000000000E+00 -0.15904664930E+04  0.29369243474E+04  0.24689959411E+04 0.  0.
        3    1    3    3  502    0  0.12324103600E+04  0.64279538378E+02 -0.75727884391E+03  0.14479082886E+04  0.10100000352E+00 0.  1.
       -3    1    3    3    0  502 -0.12324103600E+04 -0.64279538378E+02 -0.83318764908E+03  0.14890160588E+04  0.10100000352E+00 0. -1.
</event>
<event>
 5   0  0.2388326E-05  0.2496230E+04  0.7818609E-02  0.8404330E-01
       -2   -1    0    0    0  501  0.00000000000E+00  0.00000000000E+00  0.11643461798E+04  0.11643461798E+04  0.25500000920E-02 0. -1.
        2   -1    0    0  501    0  0.00000000000E+00  0.00000000000E+00 -0.13379100461E+04  0.13379100461E+04  0.25500000920E-02 0.  1.
    10030    2    1    2    0    0  0.00000000000E+00  0.00000000000E+00 -0.17356386623E+03  0.25022562259E+04  0.24962295176E+04 0.  0.
        2    1    3    3  502    0 -0.10671616809E+04  0.62190131202E+03  0.93081355774E+02  0.12386522652E+04  0.25500000920E-02 0.  1.
       -2    1    3    3    0  502  0.10671616809E+04 -0.62190131202E+03 -0.26664522200E+03  0.12636039607E+04  0.25500000920E-02 0. -1.
</event>
<event>
 5   0  0.1010338E-05  0.2509524E+04  0.7818609E-02  0.8399600E-01
        1   -1    0    0  501    0  0.00000000000E+00  0.00000000000E+00  0.86574037689E+03  0.86574037690E+03  0.50400001928E-02 0.  1.
       -1   -1    0    0    0  501  0.00000000000E+00  0.00000000000E+00 -0.18185915136E+04  0.18185915136E+04  0.50400001928E-02 0. -1.
    10030    2    1    2    0    0  0.00000000000E+00  0.00000000000E+00 -0.95285113675E+03  0.26843318905E+04  0.25095243394E+04 0.  0.
        2    1    3    3  502    0  0.49955273609E+03  0.66510001262E+03 -0.14812874525E+04  0.16988594644E+04  0.25500000920E-02 0. -1.
       -2    1    3    3    0  502 -0.49955273609E+03 -0.66510001262E+03  0.52843631572E+03  0.98547242615E+03  0.25500000920E-02 0.  1.
</event>
<event>
 5   0  0.2345143E-05  0.2488328E+04  0.7818609E-02  0.8407156E-01
       -2   -1    0    0    0  501  0.00000000000E+00  0.00000000000E+00  0.10595223249E+04  0.10595223249E+04  0.25500000920E-02 0.  1.
        2   -1    0    0  501    0  0.00000000000E+00  0.00000000000E+00 -0.14609825226E+04  0.14609825226E+04  0.25500000920E-02 0. -1.
    10030    2    1    2    0    0  0.00000000000E+00  0.00000000000E+00 -0.40146019764E+03  0.25205048475E+04  0.24883276304E+04 0.  0.
        5    1    3    3  502    0  0.85466287370E+03 -0.87294353224E+03  0.37776974620E+02  0.12222635673E+04  0.46999998093E+01 0.  1.
       -5    1    3    3    0  502 -0.85466287370E+03  0.87294353224E+03 -0.43923717227E+03  0.12982412802E+04  0.46999998093E+01 0. -1.
</event>
<event>
 5   0  0.2345143E-05  0.2487426E+04  0.7818609E-02  0.8407479E-01
        2   -1    0    0  501    0  0.00000000000E+00  0.00000000000E+00  0.28407160444E+04  0.28407160444E+04  0.25500000920E-02 0. -1.
       -2   -1    0    0    0  501  0.00000000000E+00  0.00000000000E+00 -0.54451817783E+03  0.54451817784E+03  0.25500000920E-02 0.  1.
    10030    2    1    2    0    0  0.00000000000E+00  0.00000000000E+00  0.22961978665E+04  0.33852342222E+04  0.24874255963E+04 0.  0.
        5    1    3    3  502    0  0.11008323104E+04  0.27309323215E+02  0.19348838928E+04  0.22262918370E+04  0.46999998093E+01 0. -1.
       -5    1    3    3    0  502 -0.11008323104E+04 -0.27309323215E+02  0.36131397373E+03  0.11589423852E+04  0.46999998093E+01 0.  1.
</event>
<event>
 5   0  0.2452457E-05  0.2508751E+04  0.7818609E-02  0.8399875E-01
       -2   -1    0    0    0  501  0.00000000000E+00  0.00000000000E+00  0.76205685053E+03  0.76205685054E+03  0.25500000920E-02 0.  1.
        2   -1    0    0  501    0  0.00000000000E+00  0.00000000000E+00 -0.20647506800E+04  0.20647506800E+04  0.25500000920E-02 0. -1.
    10030    2    1    2    0    0  0.00000000000E+00  0.00000000000E+00 -0.13026938294E+04  0.28268075305E+04  0.25087506056E+04 0.  0.
        1    1    3    3  502    0 -0.94506301593E+03 -0.81734077722E+03 -0.52654704581E+03  0.13558915302E+04  0.50400001928E-02 0.  1.
       -1    1    3    3    0  502  0.94506301593E+03  0.81734077722E+03 -0.77614678361E+03  0.14709160003E+04  0.50400001928E-02 0. -1.
</event>
<event>
 5   0  0.2432309E-05  0.2486839E+04  0.7818609E-02  0.8407689E-01
        2   -1    0    0  501    0  0.00000000000E+00  0.00000000000E+00  0.24376755688E+04  0.24376755688E+04  0.25500000920E-02 0.  1.
       -2   -1    0    0    0  501  0.00000000000E+00  0.00000000000E+00 -0.63424872479E+03  0.63424872479E+03  0.25500000920E-02 0. -1.
    10030    2    1    2    0    0  0.00000000000E+00  0.00000000000E+00  0.18034268440E+04  0.30719242936E+04  0.24868394568E+04 0.  0.
        4    1    3    3  502    0  0.83191558200E+03 -0.43574564322E+03  0.19083909104E+04  0.21269497599E+04  0.12699999809E+01 0.  1.
       -4    1    3    3    0  502 -0.83191558200E+03  0.43574564322E+03 -0.10496406644E+03  0.94497453368E+03  0.12699999809E+01 0. -1.
</event>
<event>
 5   0  0.1010338E-05  0.2480978E+04  0.7818609E-02  0.8409794E-01
        1   -1    0    0  501    0  0.00000000000E+00  0.00000000000E+00  0.83344093747E+03  0.83344093748E+03  0.50400001928E-02 0.  1.
       -1   -1    0    0    0  501  0.00000000000E+00  0.00000000000E+00 -0.18463373682E+04  0.18463373682E+04  0.50400001928E-02 0. -1.
    10030    2    1    2    0    0  0.00000000000E+00  0.00000000000E+00 -0.10128964307E+04  0.26797783057E+04  0.24809781515E+04 0.  0.
        2    1    3    3  502    0 -0.37297116691E+03  0.11664288644E+04 -0.72016481775E+03  0.14206692619E+04  0.25500000920E-02 0. -1.
       -2    1    3    3    0  502  0.37297116691E+03 -0.11664288644E+04 -0.29273161299E+03  0.12591090438E+04  0.25500000920E-02 0.  1.
</event>
<event>
 5   0  0.1010338E-05  0.2530083E+04  0.7818609E-02  0.8392346E-01
       -1   -1    0    0    0  501  0.00000000000E+00  0.00000000000E+00  0.90856568229E+03  0.90856568230E+03  0.50400001928E-02 0.  1.
        1   -1    0    0  501    0  0.00000000000E+00  0.00000000000E+00 -0.17613799531E+04  0.17613799531E+04  0.50400001928E-02 0. -1.
    10030    2    1    2    0    0  0.00000000000E+00  0.00000000000E+00 -0.85281427080E+03  0.26699456354E+04  0.25300825116E+04 0.  0.
        2    1    3    3  502    0  0.74198343500E+03 -0.16746550492E+03 -0.14930991669E+04  0.16756876903E+04  0.25500000920E-02 0. -1.
       -2    1    3    3    0  502 -0.74198343500E+03  0.16746550492E+03  0.64028489613E+03  0.99425794509E+03  0.25500000920E-02 0.  1.
</event>
<event>
 5   0  0.2345143E-05  0.2623223E+04  0.7818609E-02  0.8360355E-01
       -2   -1    0    0    0  501  0.00000000000E+00  0.00000000000E+00  0.84253633431E+03  0.84253633431E+03  0.25500000920E-02 0. -1.
        2   -1    0    0  501    0  0.00000000000E+00  0.00000000000E+00 -0.20418408181E+04  0.20418408181E+04  0.25500000920E-02 0.  1.
    10030    2    1    2    0    0  0.00000000000E+00  0.00000000000E+00 -0.11993044838E+04  0.28843771524E+04  0.26232232678E+04 0.  0.
        5    1    3    3  502    0  0.88840198456E+03  0.93557455021E+03 -0.85926162532E+03  0.15501323995E+04  0.46999998093E+01 0.  1.
       -5    1    3    3    0  502 -0.88840198456E+03 -0.93557455021E+03 -0.34004285849E+03  0.13342447529E+04  0.46999998093E+01 0. -1.
</event>
<event>
 5   0  0.2441340E-05  0.2514339E+04  0.7818609E-02  0.8397895E-01
       -2   -1    0    0    0  501  0.00000000000E+00  0.00000000000E+00  0.15112008742E+04  0.15112008742E+04  0.25500000920E-02 0.  1.
        2   -1    0    0  501    0  0.00000000000E+00  0.00000000000E+00 -0.10458405734E+04  0.10458405734E+04  0.25500000920E-02 0. -1.
    10030    2    1    2    0    0  0.00000000000E+00  0.00000000000E+00  0.46536030084E+03  0.25570414476E+04  0.25143390295E+04 0.  0.
        3    1    3    3  502    0  0.10693367799E+03 -0.75219366788E+03 -0.78595215207E+03  0.10931381070E+04  0.10100000352E+00 0. -1.
       -3    1    3    3    0  502 -0.10693367799E+03  0.75219366788E+03  0.12513124529E+04  0.14639033406E+04  0.10100000352E+00 0.  1.
</event>
<event>
 5   0  0.1010338E-05  0.2475274E+04  0.7818609E-02  0.8411848E-01
       -1   -1    0    0    0  501  0.00000000000E+00  0.00000000000E+00  0.13944249396E+04  0.13944249396E+04  0.50400001928E-02 0.  1.
        1   -1    0    0  501    0  0.00000000000E+00  0.00000000000E+00 -0.10984781782E+04  0.10984781782E+04  0.50400001928E-02 0. -1.
    10030    2    1    2    0    0  0.00000000000E+00  0.00000000000E+00  0.29594676140E+03  0.24929031177E+04  0.24752740189E+04 0.  0.
        2    1    3    3  502    0 -0.39037325218E+03  0.11011193480E+04 -0.26345820499E+03  0.11976081664E+04  0.25500000920E-02 0. -1.
       -2    1    3    3    0  502  0.39037325218E+03 -0.11011193480E+04  0.55940496639E+03  0.12952949513E+04  0.25500000920E-02 0.  1.
</event>
<event>
 5   0  0.2432309E-05  0.2649696E+04  0.7818609E-02  0.8351514E-01
        2   -1    0    0  501    0  0.00000000000E+00  0.00000000000E+00  0.14857993880E+04  0.14857993880E+04  0.25500000920E-02 0.  1.
       -2   -1    0    0    0  501  0.00000000000E+00  0.00000000000E+00 -0.11813320681E+04  0.11813320681E+04  0.25500000920E-02 0. -1.
    10030    2    1    2    0    0  0.00000000000E+00  0.00000000000E+00  0.30446731994E+03  0.26671314560E+04  0.26496961816E+04 0.  0.
        4    1    3    3  502    0 -0.78860982315E+03 -0.31781850266E+03  0.11749442076E+04  0.14503136066E+04  0.12699999809E+01 0.  1.
       -4    1    3    3    0  502  0.78860982315E+03  0.31781850266E+03 -0.87047688764E+03  0.12168178494E+04  0.12699999809E+01 0. -1.
</event>
<event>
 5   0  0.1015327E-05  0.2487849E+04  0.7818609E-02  0.8407327E-01
       -1   -1    0    0    0  501  0.00000000000E+00  0.00000000000E+00  0.11366911643E+04  0.11366911644E+04  0.50400001928E-02 0. -1.
        1   -1    0    0  501    0  0.00000000000E+00  0.00000000000E+00 -0.13612742388E+04  0.13612742388E+04  0.50400001928E-02 0.  1.
    10030    2    1    2    0    0  0.00000000000E+00  0.00000000000E+00 -0.22458307449E+03  0.24979654032E+04  0.24878491912E+04 0.  0.
        4    1    3    3  502    0 -0.40612104416E+03 -0.11160451443E+04  0.25915288848E+03  0.12155874708E+04  0.12699999809E+01 0. -1.
       -4    1    3    3    0  502  0.40612104416E+03  0.11160451443E+04 -0.48373596298E+03  0.12823779324E+04  0.12699999809E+01 0.  1.
</event>
<event>
 5   0  0.1039688E-05  0.2420700E+04  0.7818609E-02  0.8431794E-01
        1   -1    0    0  501    0  0.00000000000E+00  0.00000000000E+00  0.21249158942E+04  0.21249158942E+04  0.50400001928E-02 0.  1.
       -1   -1    0    0    0  501  0.00000000000E+00  0.00000000000E+00 -0.68941441448E+03  0.68941441450E+03  0.50400001928E-02 0. -1.
    10030    2    1    2    0    0  0.00000000000E+00  0.00000000000E+00  0.14355014798E+04  0.28143303087E+04  0.24207004334E+04 0.  0.
        3    1    3    3  502    0 -0.94124637471E+03  0.51591818924E+03  0.13680138759E+04  0.17388439524E+04  0.10100000352E+00 0.  1.
       -3    1    3    3    0  502  0.94124637471E+03 -0.51591818924E+03  0.67487603897E+02  0.10754863564E+04  0.10100000352E+00 0. -1.
</event>
<event>
 5   0  0.2441340E-05  0.2524247E+04  0.7818609E-02  0.8394398E-01
       -2   -1    0    0    0  501  0.00000000000E+00  0.00000000000E+00  0.10285168725E+04  0.10285168725E+04  0.25500000920E-02 0.  1.
        2   -1    0    0  501    0  0.00000000000E+00  0.00000000000E+00 -0.15487892420E+04  0.15487892420E+04  0.25500000920E-02 0. -1.
    10030    2    1    2    0    0  0.00000000000E+00  0.00000000000E+00 -0.52027236954E+03  0.25773061145E+04  0.25242471094E+04 0.  0.
        3    1    3    3  502    0  0.24515552205E+03 -0.27239990717E+03 -0.14932697495E+04  0.15375817034E+04  0.10100000352E+00 0. -1.
       -3    1    3    3    0  502 -0.24515552205E+03  0.27239990717E+03  0.97299738000E+03  0.10397244111E+04  0.10100000352E+00 0.  1.
</event>
<event>
 5   0  0.1010338E-05  0.2487480E+04  0.7818609E-02  0.8407459E-01
       -1   -1    0    0    0  501  0.00000000000E+00  0.00000000000E+00  0.49330146493E+03  0.49330146496E+03  0.50400001928E-02 0. -1.
        1   -1    0    0  501    0  0.00000000000E+00  0.00000000000E+00 -0.31357884149E+04  0.31357884149E+04  0.50400001928E-02 0.  1.
    10030    2    1    2    0    0  0.00000000000E+00  0.00000000000E+00 -0.26424869500E+04  0.36290898799E+04  0.24874798643E+04 0.  0.
        2    1    3    3  502    0 -0.89522950152E+03  0.85021575600E+03 -0.11019826957E+04  0.16548923088E+04  0.25500000920E-02 0.  1.
       -2    1    3    3    0  502  0.89522950152E+03 -0.85021575600E+03 -0.15405042543E+04  0.19741975711E+04  0.25500000920E-02 0. -1.
</event>
<event>
 5   0  0.2452457E-05  0.2487037E+04  0.7818609E-02  0.8407618E-01
        2   -1    0    0  501    0  0.00000000000E+00  0.00000000000E+00  0.20327088578E+04  0.20327088578E+04  0.25500000920E-02 0.  1.
       -2   -1    0    0    0  501  0.00000000000E+00  0.00000000000E+00 -0.76072770060E+03  0.76072770060E+03  0.25500000920E-02 0. -1.
    10030    2    1    2    0    0  0.00000000000E+00  0.00000000000E+00  0.12719811572E+04  0.27934365584E+04  0.24870367391E+04 0.  0.
        1    1    3    3  502    0 -0.36692235354E+03 -0.63416225872E+03 -0.49255543317E+03  0.88283896532E+03  0.50400001928E-02 0. -1.
       -1    1    3    3    0  502  0.36692235354E+03  0.63416225872E+03  0.17645365904E+04  0.19105975931E+04  0.50400001928E-02 0.  1.
</event>
<event>
 5   0  0.2441340E-05  0.2506852E+04  0.7818609E-02  0.8400549E-01
        2   -1    0    0  501    0  0.00000000000E+00  0.00000000000E+00  0.23767152178E+04  0.23767152178E+04  0.25500000920E-02 0. -1.
       -2   -1    0    0    0  501  0.00000000000E+00  0.00000000000E+00 -0.66102841493E+03  0.66102841493E+03  0.25500000920E-02 0.  1.
    10030    2    1    2    0    0  0.00000000000E+00  0.00000000000E+00  0.17156868029E+04  0.30377436327E+04  0.25068516455E+04 0.  0.
        3    1    3    3  502    0  0.12384983780E+04 -0.15416646863E+03  0.71740928423E+03  0.14395560509E+04  0.10100000352E+00 0. -1.
       -3    1    3    3    0  502 -0.12384983780E+04  0.15416646863E+03  0.99827751865E+03  0.15981875819E+04  0.10100000352E+00 0.  1.
</event>
<event>
 5   0  0.1008073E-05  0.2495269E+04  0.7818609E-02  0.8404673E-01
        1   -1    0    0  501    0  0.00000000000E+00  0.00000000000E+00  0.15811903166E+04  0.15811903166E+04  0.50400001928E-02 0.  1.
       -1   -1    0    0    0  501  0.00000000000E+00  0.00000000000E+00 -0.98444273305E+03  0.98444273306E+03  0.50400001928E-02 0. -1.
    10030    2    1    2    0    0  0.00000000000E+00  0.00000000000E+00  0.59674758351E+03  0.25656330496E+04  0.24952685761E+04 0.  0.
        1    1    3    3  502    0  0.11297548254E+04  0.51549266209E+03  0.17450815154E+03  0.12540062780E+04  0.50400001928E-02 0. -1.
       -1    1    3    3    0  502 -0.11297548254E+04 -0.51549266209E+03  0.42223943196E+03  0.13116267717E+04  0.50400001928E-02 0.  1.
</event>
<event>
 5   0  0.1008073E-05  0.2388615E+04  0.7818609E-02  0.8443778E-01
        1   -1    0    0  501    0  0.00000000000E+00  0.00000000000E+00  0.16892877593E+04  0.16892877593E+04  0.50400001928E-02 0. -1.
       -1   -1    0    0    0  501  0.00000000000E+00  0.00000000000E+00 -0.84436218529E+03  0.84436218531E+03  0.50400001928E-02 0.  1.
    10030    2    1    2    0    0  0.00000000000E+00  0.00000000000E+00  0.84492557400E+03  0.25336499446E+04  0.23886152508E+04 0.  0.
        1    1    3    3  502    0  0.79159893176E+03 -0.51363572547E+03  0.11989788870E+04  0.15257787843E+04  0.50400001928E-02 0. -1.
       -1    1    3    3    0  502 -0.79159893176E+03  0.51363572547E+03 -0.35405331300E+03  0.10078711603E+04  0.50400001928E-02 0.  1.
</event>
<event>
 5   0  0.2452457E-05  0.2495751E+04  0.7818609E-02  0.8404501E-01
        2   -1    0    0  501    0  0.00000000000E+00  0.00000000000E+00  0.10302511148E+04  0.10302511148E+04  0.25500000920E-02 0.  1.
       -2   -1    0    0    0  501  0.00000000000E+00  0.00000000000E+00 -0.15114701981E+04  0.15114701981E+04  0.25500000920E-02 0. -1.
    10030    2    1    2    0    0  0.00000000000E+00  0.00000000000E+00 -0.48121908337E+03  0.25417213129E+04  0.24957514752E+04 0.  0.
        1    1    3    3  502    0 -0.19460283520E+03 -0.11514290363E+04 -0.68863850628E+03  0.13556850967E+04  0.50400001928E-02 0. -1.
       -1    1    3    3    0  502  0.19460283520E+03  0.11514290363E+04  0.20741942292E+03  0.11860362162E+04  0.50400001928E-02 0.  1.
</event>
<event>
 5   0  0.1010338E-05  0.2537130E+04  0.7818609E-02  0.8389876E-01
       -1   -1    0    0    0  501  0.00000000000E+00  0.00000000000E+00  0.99136941409E+03  0.99136941410E+03  0.50400001928E-02 0. -1.
        1   -1    0    0  501    0  0.00000000000E+00  0.00000000000E+00 -0.16232668007E+04  0.16232668007E+04  0.50400001928E-02 0.  1.
    10030    2    1    2    0    0  0.00000000000E+00  0.00000000000E+00 -0.63189738656E+03  0.26146362148E+04  0.25371299195E+04 0.  0.
        2    1    3    3  502    0  0.35514980906E+03  0.19766358565E+03  0.92244975500E+03  0.10080257092E+04  0.25500000920E-02 0. -1.
       -2    1    3    3    0  502 -0.35514980906E+03 -0.19766358565E+03 -0.15543471416E+04  0.16066105055E+04  0.25500000920E-02 0.  1.
</event>
<event>
 5   0  0.1008073E-05  0.2490159E+04  0.7818609E-02  0.8406500E-01
        1   -1    0    0  501    0  0.00000000000E+00  0.00000000000E+00  0.87563957181E+03  0.87563957182E+03  0.50400001928E-02 0. -1.
       -1   -1    0    0    0  501  0.00000000000E+00  0.00000000000E+00 -0.17703895835E+04  0.17703895835E+04  0.50400001928E-02 0.  1.
    10030    2    1    2    0    0  0.00000000000E+00  0.00000000000E+00 -0.89475001170E+03  0.26460291553E+04  0.24901591731E+04 0.  0.
        1    1    3    3  502    0 -0.31986297187E+03 -0.10570433120E+04  0.16356621413E+03  0.11164259002E+04  0.50400001928E-02 0. -1.
       -1    1    3    3    0  502  0.31986297187E+03  0.10570433120E+04 -0.10583162258E+04  0.15296032551E+04  0.50400001928E-02 0.  1.
</event>
<event>
 5   0  0.2441340E-05  0.2503121E+04  0.7818609E-02  0.8401875E-01
        2   -1    0    0  501    0  0.00000000000E+00  0.00000000000E+00  0.12392482755E+04  0.12392482755E+04  0.25500000920E-02 0.  1.
       -2   -1    0    0    0  501  0.00000000000E+00  0.00000000000E+00 -0.12639948231E+04  0.12639948231E+04  0.25500000920E-02 0. -1.
    10030    2    1    2    0    0  0.00000000000E+00  0.00000000000E+00 -0.24746547548E+02  0.25032430986E+04  0.25031207760E+04 0.  0.
        3    1    3    3  502    0  0.61969032134E+03  0.67471170892E+03 -0.86514667904E+03  0.12600518922E+04  0.10100000352E+00 0.  1.
       -3    1    3    3    0  502 -0.61969032134E+03 -0.67471170892E+03  0.84040013149E+03  0.12431912064E+04  0.10100000352E+00 0. -1.
</event>
<event>
 5   0  0.1015327E-05  0.2553834E+04  0.7818609E-02  0.8384054E-01
        1   -1    0    0  501    0  0.00000000000E+00  0.00000000000E+00  0.72620316492E+03  0.72620316494E+03  0.50400001928E-02 0.  1.
       -1   -1    0    0    0  501  0.00000000000E+00  0.00000000000E+00 -0.22452621718E+04  0.22452621718E+04  0.50400001928E-02 0. -1.
    10030    2    1    2    0    0  0.00000000000E+00  0.00000000000E+00 -0.15190590069E+04  0.29714653367E+04  0.25538335852E+04 0.  0.
        4    1    3    3  502    0  0.13828424939E+03  0.11836723907E+04 -0.12931225015E+04  0.17585136562E+04  0.12699999809E+01 0. -1.
       -4    1    3    3    0  502 -0.13828424939E+03 -0.11836723907E+04 -0.22593650534E+03  0.12129516806E+04  0.12699999809E+01 0.  1.
</event>
<event>
 5   0  0.1008073E-05  0.2513277E+04  0.7818609E-02  0.8398271E-01
        1   -1    0    0  501    0  0.00000000000E+00  0.00000000000E+00  0.10577089629E+04  0.10577089629E+04  0.50400001928E-02 0. -1.
       -1   -1    0    0    0  501  0.00000000000E+00  0.00000000000E+00 -0.14929823771E+04  0.14929823771E+04  0.50400001928E-02 0.  1.
    10030    2    1    2    0    0  0.00000000000E+00  0.00000000000E+00 -0.43527341419E+03  0.25506913400E+04  0.25132774154E+04 0.  0.
        1    1    3    3  502    0  0.49983054815E+03 -0.93030022525E+03  0.47356862772E+03  0.11573920387E+04  0.50400001928E-02 0. -1.
       -1    1    3    3    0  502 -0.49983054815E+03  0.93030022525E+03 -0.90884204191E+03  0.13932993013E+04  0.50400001928E-02 0.  1.
</event>
<event>
 5   0  0.1008073E-05  0.2514537E+04  0.7818609E-02  0.8397825E-01
        1   -1    0    0  501    0  0.00000000000E+00  0.00000000000E+00  0.17880213442E+04  0.17880213442E+04  0.50400001928E-02 0.  1.
       -1   -1    0    0    0  501  0.00000000000E+00  0.00000000000E+00 -0.88406306637E+03  0.88406306638E+03  0.50400001928E-02 0. -1.
    10030    2    1    2    0    0  0.00000000000E+00  0.00000000000E+00  0.90395827780E+03  0.26720844106E+04  0.25145366430E+04 0.  0.
        1    1    3    3  502    0  0.11911555852E+04 -0.40219600693E+03  0.44081488559E+03  0.13322653713E+04  0.50400001928E-02 0.  1.
       -1    1    3    3    0  502 -0.11911555852E+04  0.40219600693E+03  0.46314339221E+03  0.13398190393E+04  0.50400001928E-02 0. -1.
</event>
<event>
 5   0  0.2388326E-05  0.2534110E+04  0.7818609E-02  0.8390933E-01
        2   -1    0    0  501    0  0.00000000000E+00  0.00000000000E+00  0.12776070207E+04  0.12776070207E+04  0.25500000920E-02 0. -1.
       -2   -1    0    0    0  501  0.00000000000E+00  0.00000000000E+00 -0.12565901483E+04  0.12565901483E+04  0.25500000920E-02 0.  1.
    10030    2    1    2    0    0  0.00000000000E+00  0.00000000000E+00  0.21016872448E+02  0.25341971690E+04  0.25341100178E+04 0.  0.
        2    1    3    3  502    0 -0.89673374541E+02 -0.35516033948E+03 -0.12024834898E+04  0.12570388714E+04  0.25500000920E-02 0.  1.
       -2    1    3    3    0  502  0.89673374541E+02  0.35516033948E+03  0.12235003623E+04  0.12771582977E+04  0.25500000920E-02 0. -1.
</event>
<event>
 5   0  0.2432309E-05  0.2484634E+04  0.7818609E-02  0.8408480E-01
        2   -1    0    0  501    0  0.00000000000E+00  0.00000000000E+00  0.14888178605E+04  0.14888178605E+04  0.25500000920E-02 0. -1.
       -2   -1    0    0    0  501  0.00000000000E+00  0.00000000000E+00 -0.10366291609E+04  0.10366291609E+04  0.25500000920E-02 0.  1.
    10030    2    1    2    0    0  0.00000000000E+00  0.00000000000E+00  0.45218869960E+03  0.25254470214E+04  0.24846343871E+04 0.  0.
        4    1    3    3  502    0  0.54807163488E+03 -0.59324706035E+03  0.11855411786E+04  0.14345152807E+04  0.12699999809E+01 0. -1.
       -4    1    3    3    0  502 -0.54807163488E+03  0.59324706035E+03 -0.73335247896E+03  0.10909317407E+04  0.12699999809E+01 0.  1.
</event>
<event>
 5   0  0.2441340E-05  0.2526597E+04  0.7818609E-02  0.8393571E-01
        2   -1    0    0  501    0  0.00000000000E+00  0.00000000000E+00  0.15274279276E+04  0.15274279276E+04  0.25500000920E-02 0. -1.
       -2   -1    0    0    0  501  0.00000000000E+00  0.00000000000E+00 -0.10448436643E+04  0.10448436643E+04  0.25500000920E-02 0.  1.
    10030    2    1    2    0    0  0.00000000000E+00  0.00000000000E+00  0.48258426329E+03  0.25722715919E+04  0.25265972318E+04 0.  0.
        3    1    3    3  502    0 -0.85950464509E+03 -0.12320935753E+03  0.11754826586E+04  0.14613994223E+04  0.10100000352E+00 0. -1.
       -3    1    3    3    0  502  0.85950464509E+03  0.12320935753E+03 -0.69289839534E+03  0.11108721696E+04  0.10100000352E+00 0.  1.
</event>
<event>
 5   0  0.1039688E-05  0.2441082E+04  0.7818609E-02  0.8424281E-01
        1   -1    0    0  501    0  0.00000000000E+00  0.00000000000E+00  0.20474319394E+04  0.20474319395E+04  0.50400001928E-02 0. -1.
       -1   -1    0    0    0  501  0.00000000000E+00  0.00000000000E+00 -0.72760428005E+03  0.72760428007E+03  0.50400001928E-02 0.  1.
    10030    2    1    2    0    0  0.00000000000E+00  0.00000000000E+00  0.13198276594E+04  0.27750362195E+04  0.24410819259E+04 0.  0.
        3    1    3    3  502    0 -0.38566334567E+03  0.50095278805E+03 -0.52696283135E+03  0.82303083046E+03  0.10100000352E+00 0.  1.
       -3    1    3    3    0  502  0.38566334567E+03 -0.50095278805E+03  0.18467904907E+04  0.19520053891E+04  0.10100000352E+00 0. -1.
</event>
<event>
 5   0  0.2345143E-05  0.2494315E+04  0.7818609E-02  0.8405014E-01
       -2   -1    0    0    0  501  0.00000000000E+00  0.00000000000E+00  0.14022578772E+04  0.14022578772E+04  0.25500000920E-02 0. -1.
        2   -1    0    0  501    0  0.00000000000E+00  0.00000000000E+00 -0.11092122800E+04  0.11092122800E+04  0.25500000920E-02 0.  1.
    10030    2    1    2    0    0  0.00000000000E+00  0.00000000000E+00  0.29304559718E+03  0.25114701573E+04  0.24943148616E+04 0.  0.
        5    1    3    3  502    0 -0.11061075764E+04  0.33930115716E+03 -0.32227620021E+03  0.12010342564E+04  0.46999998093E+01 0.  1.
       -5    1    3    3    0  502  0.11061075764E+04 -0.33930115716E+03  0.61532179739E+03  0.13104359008E+04  0.46999998093E+01 0. -1.
</event>
<event>
 5   0  0.2388326E-05  0.2510771E+04  0.7818609E-02  0.8399158E-01
       -2   -1    0    0    0  501  0.00000000000E+00  0.00000000000E+00  0.90931707874E+03  0.90931707875E+03  0.25500000920E-02 0.  1.
        2   -1    0    0  501    0  0.00000000000E+00  0.00000000000E+00 -0.17331603862E+04  0.17331603862E+04  0.25500000920E-02 0. -1.
    10030    2    1    2    0    0  0.00000000000E+00  0.00000000000E+00 -0.82384330746E+03  0.26424774650E+04  0.25107706700E+04 0.  0.
        2    1    3    3  502    0 -0.34425917318E+03  0.94174497350E+03 -0.12069232216E+04  0.15690958021E+04  0.25500000920E-02 0. -1.
       -2    1    3    3    0  502  0.34425917318E+03 -0.94174497350E+03  0.38307991415E+03  0.10733816628E+04  0.25500000920E-02 0.  1.
</event>
<event>
 5   0  0.1039688E-05  0.2501069E+04  0.7818609E-02  0.8402605E-01
        1   -1    0    0  501    0  0.00000000000E+00  0.00000000000E+00  0.91835806845E+03  0.91835806847E+03  0.50400001928E-02 0.  1.
       -1   -1    0    0    0  501  0.00000000000E+00  0.00000000000E+00 -0.17028618219E+04  0.17028618219E+04  0.50400001928E-02 0. -1.
    10030    2    1    2    0    0  0.00000000000E+00  0.00000000000E+00 -0.78450375344E+03  0.26212198904E+04  0.25010692862E+04 0.  0.
        3    1    3    3  502    0  0.14253359967E+03  0.10567823796E+04  0.29237724283E+03  0.11057075957E+04  0.10100000352E+00 0. -1.
       -3    1    3    3    0  502 -0.14253359967E+03 -0.10567823796E+04 -0.10768809963E+04  0.15155122946E+04  0.10100000352E+00 0.  1.
</event>
<event>
 5   0  0.2345143E-05  0.2514028E+04  0.7818609E-02  0.8398005E-01
        2   -1    0    0  501    0  0.00000000000E+00  0.00000000000E+00  0.12860334494E+04  0.12860334494E+04  0.25500000920E-02 0.  1.
       -2   -1    0    0    0  501  0.00000000000E+00  0.00000000000E+00 -0.12286492393E+04  0.12286492393E+04  0.25500000920E-02 0. -1.
    10030    2    1    2    0    0  0.00000000000E+00  0.00000000000E+00  0.57384210057E+02  0.25146826887E+04  0.25140278593E+04 0.  0.
        5    1    3    3  502    0 -0.73711189553E+03 -0.93862225909E+03  0.42340385684E+03  0.12663485333E+04  0.46999998093E+01 0.  1.
       -5    1    3    3    0  502  0.73711189553E+03  0.93862225909E+03 -0.36601964678E+03  0.12483341554E+04  0.46999998093E+01 0. -1.
</event>
<event>
 5   0  0.8166500E-06  0.2503843E+04  0.7818609E-02  0.8401618E-01
        3   -1    0    0  501    0  0.00000000000E+00  0.00000000000E+00  0.21848523932E+04  0.21848523955E+04  0.10100000352E+00 0.  1.
       -3   -1    0    0    0  501  0.00000000000E+00  0.00000000000E+00 -0.71735179163E+03  0.71735179874E+03  0.10100000352E+00 0. -1.
    10030    2    1    2    0    0  0.00000000000E+00  0.00000000000E+00  0.14675006015E+04  0.29022041942E+04  0.25038432798E+04 0.  0.
        5    1    3    3  502    0 -0.34556784163E+03 -0.37140573515E+03 -0.59286274061E+03  0.78029973246E+03  0.46999998093E+01 0. -1.
       -5    1    3    3    0  502  0.34556784163E+03  0.37140573515E+03  0.20603633421E+04  0.21219044618E+04  0.46999998093E+01 0.  1.
</event>
<event>
 5   0  0.2345143E-05  0.2264691E+04  0.7818609E-02  0.8491974E-01
       -2   -1    0    0    0  501  0.00000000000E+00  0.00000000000E+00  0.72319622529E+03  0.72319622529E+03  0.25500000920E-02 0.  1.
        2   -1    0    0  501    0  0.00000000000E+00  0.00000000000E+00 -0.17729720810E+04  0.17729720810E+04  0.25500000920E-02 0. -1.
    10030    2    1    2    0    0  0.00000000000E+00  0.00000000000E+00 -0.10497758557E+04  0.24961683063E+04  0.22646913401E+04 0.  0.
        5    1    3    3  502    0  0.45247740959E+03 -0.65559015158E+03  0.36213563266E+03  0.87504203298E+03  0.46999998093E+01 0.  1.
       -5    1    3    3    0  502 -0.45247740959E+03  0.65559015158E+03 -0.14119114883E+04  0.16211262733E+04  0.46999998093E+01 0. -1.
</event>
<event>
 5   0  0.2452457E-05  0.2506687E+04  0.7818609E-02  0.8400607E-01
       -2   -1    0    0    0  501  0.00000000000E+00  0.00000000000E+00  0.91510421627E+03  0.91510421627E+03  0.25500000920E-02 0.  1.
        2   -1    0    0  501    0  0.00000000000E+00  0.00000000000E+00 -0.17166022213E+04  0.17166022213E+04  0.25500000920E-02 0. -1.
    10030    2    1    2    0    0  0.00000000000E+00  0.00000000000E+00 -0.80149800503E+03  0.26317064376E+04  0.25066870011E+04 0.  0.
        1    1    3    3  502    0 -0.66976916712E+03  0.59678513387E+03  0.51819200471E+03  0.10359856114E+04  0.50400001928E-02 0.  1.
       -1    1    3    3    0  502  0.66976916712E+03 -0.59678513387E+03 -0.13196900097E+04  0.15957208262E+04  0.50400001928E-02 0. -1.
</event>
<event>
 5   0  0.2432309E-05  0.2466541E+04  0.7818609E-02  0.8415003E-01
        2   -1    0    0  501    0  0.00000000000E+00  0.00000000000E+00  0.15286960862E+04  0.15286960862E+04  0.25500000920E-02 0. -1.
       -2   -1    0    0    0  501  0.00000000000E+00  0.00000000000E+00 -0.99493662701E+03  0.99493662701E+03  0.25500000920E-02 0.  1.
    10030    2    1    2    0    0  0.00000000000E+00  0.00000000000E+00  0.53375945918E+03  0.25236327132E+04  0.24665406769E+04 0.  0.
        4    1    3    3  502    0 -0.73517738404E+02  0.55764033252E+03 -0.85606108020E+03  0.10243094182E+04  0.12699999809E+01 0.  1.
       -4    1    3    3    0  502  0.73517738404E+02 -0.55764033252E+03  0.13898205394E+04  0.14993232950E+04  0.12699999809E+01 0. -1.
</event>
<event>
 5   0  0.1039688E-05  0.2533961E+04  0.7818609E-02  0.8390986E-01
       -1   -1    0    0    0  501  0.00000000000E+00  0.00000000000E+00  0.11900173880E+04  0.11900173881E+04  0.50400001928E-02 0.  1.
        1   -1    0    0  501    0  0.00000000000E+00  0.00000000000E+00 -0.13489214702E+04  0.13489214702E+04  0.50400001928E-02 0. -1.
    10030    2    1    2    0    0  0.00000000000E+00  0.00000000000E+00 -0.15890408213E+03  0.25389388582E+04  0.25339613293E+04 0.  0.
        3    1    3    3  502    0 -0.10356742574E+04 -0.58696038893E+03 -0.51400470760E+03  0.12966666940E+04  0.10100000352E+00 0. -1.
       -3    1    3    3    0  502  0.10356742574E+04  0.58696038893E+03  0.35510062547E+03  0.12422721642E+04  0.10100000352E+00 0.  1.
</event>
<event>
 5   0  0.1015327E-05  0.2465027E+04  0.7818609E-02  0.8415552E-01
       -1   -1    0    0    0  501  0.00000000000E+00  0.00000000000E+00  0.17142427842E+04  0.17142427843E+04  0.50400001928E-02 0. -1.
        1   -1    0    0  501    0  0.00000000000E+00  0.00000000000E+00 -0.88615756819E+03  0.88615756821E+03  0.50400001928E-02 0.  1.
    10030    2    1    2    0    0  0.00000000000E+00  0.00000000000E+00  0.82808521605E+03  0.26004003525E+04  0.24650267479E+04 0.  0.
        4    1    3    3  502    0 -0.10240824932E+04  0.68438189234E+03  0.36729086586E+03  0.12853123046E+04  0.12699999809E+01 0.  1.
       -4    1    3    3    0  502  0.10240824932E+04 -0.68438189234E+03  0.46079435020E+03  0.13150880478E+04  0.12699999809E+01 0. -1.
</event>
<event>
 5   0  0.2452457E-05  0.2503852E+04  0.7818609E-02  0.8401615E-01
        2   -1    0    0  501    0  0.00000000000E+00  0.00000000000E+00  0.13723571531E+04  0.13723571531E+04  0.25500000920E-02 0.  1.
       -2   -1    0    0    0  501  0.00000000000E+00  0.00000000000E+00 -0.11420629010E+04  0.11420629010E+04  0.25500000920E-02 0. -1.
    10030    2    1    2    0    0  0.00000000000E+00  0.00000000000E+00  0.23029425213E+03  0.25144200541E+04  0.25038515863E+04 0.  0.
        1    1    3    3  502    0 -0.43641297731E+03  0.52080889266E+03 -0.94077573468E+03  0.11604986740E+04  0.50400001928E-02 0. -1.
       -1    1    3    3    0  502  0.43641297731E+03 -0.52080889266E+03  0.11710699868E+04  0.13539213801E+04  0.50400001928E-02 0.  1.
</event>
<event>
 5   0  0.1008073E-05  0.2495406E+04  0.7818609E-02  0.8404624E-01
       -1   -1    0    0    0  501  0.00000000000E+00  0.00000000000E+00  0.10808139571E+04  0.10808139571E+04  0.50400001928E-02 0.  1.
        1   -1    0    0  501    0  0.00000000000E+00  0.00000000000E+00 -0.14403614912E+04  0.14403614912E+04  0.50400001928E-02 0. -1.
    10030    2    1    2    0    0  0.00000000000E+00  0.00000000000E+00 -0.35954753407E+03  0.25211754484E+04  0.24954060215E+04 0.  0.
        1    1    3    3  502    0  0.21799109293E+03 -0.87998177609E+03  0.68632718554E+03  0.11370721386E+04  0.50400001928E-02 0.  1.
       -1    1    3    3    0  502 -0.21799109293E+03  0.87998177609E+03 -0.10458747196E+04  0.13841033097E+04  0.50400001928E-02 0. -1.
</event>
<event>
 5   0  0.2432309E-05  0.2497140E+04  0.7818609E-02  0.8404005E-01
       -2   -1    0    0    0  501  0.00000000000E+00  0.00000000000E+00  0.12774725074E+04  0.12774725074E+04  0.25500000920E-02 0. -1.
        2   -1    0    0  501    0  0.00000000000E+00  0.00000000000E+00 -0.12203213961E+04  0.12203213961E+04  0.25500000920E-02 0.  1.
    10030    2    1    2    0    0  0.00000000000E+00  0.00000000000E+00  0.57151111320E+02  0.24977939036E+04  0.24971399911E+04 0.  0.
        4    1    3    3  502    0 -0.70007355342E+02 -0.11109686098E+04 -0.53705739553E+03  0.12359549105E+04  0.12699999809E+01 0.  1.
       -4    1    3    3    0  502  0.70007355342E+02  0.11109686098E+04  0.59420850684E+03  0.12618389930E+04  0.12699999809E+01 0. -1.
</event>
<event>
 5   0  0.2345143E-05  0.2498598E+04  0.7818609E-02  0.8403485E-01
       -2   -1    0    0    0  501  0.00000000000E+00  0.00000000000E+00  0.14434749985E+04  0.14434749985E+04  0.25500000920E-02 0.  1.
        2   -1    0    0  501    0  0.00000000000E+00  0.00000000000E+00 -0.10812435035E+04  0.10812435035E+04  0.25500000920E-02 0. -1.
    10030    2    1    2    0    0  0.00000000000E+00  0.00000000000E+00  0.36223149499E+03  0.25247185021E+04  0.24985979786E+04 0.  0.
        5    1    3    3  502    0 -0.10590942138E+04  0.60448493659E+03  0.45532565833E+03  0.13017012473E+04  0.46999998093E+01 0. -1.
       -5    1    3    3    0  502  0.10590942138E+04 -0.60448493659E+03 -0.93094163341E+02  0.12230172548E+04  0.46999998093E+01 0.  1.
</event>
<event>
 5   0  0.2345143E-05  0.2499114E+04  0.7818609E-02  0.8403301E-01
       -2   -1    0    0    0  501  0.00000000000E+00  0.00000000000E+00  0.15329590606E+04  0.15329590606E+04  0.25500000920E-02 0. -1.
        2   -1    0    0  501    0  0.00000000000E+00  0.00000000000E+00 -0.10185480991E+04  0.10185480991E+04  0.25500000920E-02 0.  1.
    10030    2    1    2    0    0  0.00000000000E+00  0.00000000000E+00  0.51441096153E+03  0.25515071596E+04  0.24991138726E+04 0.  0.
        5    1    3    3  502    0  0.95858710425E+03  0.42699165208E+03 -0.43536641900E+03  0.11361237240E+04  0.46999998093E+01 0.  1.
       -5    1    3    3    0  502 -0.95858710425E+03 -0.42699165208E+03  0.94977738053E+03  0.14153834357E+04  0.46999998093E+01 0. -1.
</event>
<event>
 5   0  0.1015327E-05  0.2489050E+04  0.7818609E-02  0.8406897E-01
        1   -1    0    0  501    0  0.00000000000E+00  0.00000000000E+00  0.15124334088E+04  0.15124334088E+04  0.50400001928E-02 0.  1.
       -1   -1    0    0    0  501  0.00000000000E+00  0.00000000000E+00 -0.10240734983E+04  0.10240734983E+04  0.50400001928E-02 0. -1.
    10030    2    1    2    0    0  0.00000000000E+00  0.00000000000E+00  0.48835991046E+03  0.25365069071E+04  0.24890503988E+04 0.  0.
        4    1    3    3  502    0  0.10807112039E+04  0.37611561351E+03  0.74283733513E+03  0.13642611848E+04  0.12699999809E+01 0.  1.
       -4    1    3    3    0  502 -0.10807112039E+04 -0.37611561351E+03 -0.25447742467E+03  0.11722457223E+04  0.12699999809E+01 0. -1.
</event>
<event>
 5   0  0.1015327E-05  0.2496132E+04  0.7818609E-02  0.8404365E-01
        1   -1    0    0  501    0  0.00000000000E+00  0.00000000000E+00  0.12477874839E+04  0.12477874839E+04  0.50400001928E-02 0. -1.
       -1   -1    0    0    0  501  0.00000000000E+00  0.00000000000E+00 -0.12483450777E+04  0.12483450777E+04  0.50400001928E-02 0.  1.
    10030    2    1    2    0    0  0.00000000000E+00  0.00000000000E+00 -0.55759378772E+00  0.24961325615E+04  0.24961324993E+04 0.  0.
        4    1    3    3  502    0  0.10337237832E+04  0.44306839143E+03  0.54080650665E+03  0.12479454115E+04  0.12699999809E+01 0. -1.
       -4    1    3    3    0  502 -0.10337237832E+04 -0.44306839143E+03 -0.54136410044E+03  0.12481871501E+04  0.12699999809E+01 0.  1.
</event>
<event>
 5   0  0.1008073E-05  0.2526700E+04  0.7818609E-02  0.8393535E-01
        1   -1    0    0  501    0  0.00000000000E+00  0.00000000000E+00  0.25869964492E+04  0.25869964492E+04  0.50400001928E-02 0.  1.
       -1   -1    0    0    0  501  0.00000000000E+00  0.00000000000E+00 -0.61695241896E+03  0.61695241898E+03  0.50400001928E-02 0. -1.
    10030    2    1    2    0    0  0.00000000000E+00  0.00000000000E+00  0.19700440302E+04  0.32039488682E+04  0.25267003916E+04 0.  0.
        1    1    3    3  502    0 -0.67599717039E+03 -0.94362262008E+03  0.16173362431E+04  0.19907717967E+04  0.50400001928E-02 0.  1.
       -1    1    3    3    0  502  0.67599717039E+03  0.94362262008E+03  0.35270778716E+03  0.12131770714E+04  0.50400001928E-02 0. -1.
</event>
<event>
 5   0  0.2345143E-05  0.2521771E+04  0.7818609E-02  0.8395270E-01
       -2   -1    0    0    0  501  0.00000000000E+00  0.00000000000E+00  0.99835530777E+03  0.99835530777E+03  0.25500000920E-02 0.  1.
        2   -1    0    0  501    0  0.00000000000E+00  0.00000000000E+00 -0.15924518277E+04  0.15924518277E+04  0.25500000920E-02 0. -1.
    10030    2    1    2    0    0  0.00000000000E+00  0.00000000000E+00 -0.59409651989E+03  0.25908071354E+04  0.25217713889E+04 0.  0.
        5    1    3    3  502    0  0.10518861643E+04  0.25104093533E+03 -0.96312116998E+03  0.14481403702E+04  0.46999998093E+01 0. -1.
       -5    1    3    3    0  502 -0.10518861643E+04 -0.25104093533E+03  0.36902465008E+03  0.11426667652E+04  0.46999998093E+01 0.  1.
</event>
<event>
 5   0  0.2432309E-05  0.2527077E+04  0.7818609E-02  0.8393402E-01
        2   -1    0    0  501    0  0.00000000000E+00  0.00000000000E+00  0.23805269436E+04  0.23805269436E+04  0.25500000920E-02 0. -1.
       -2   -1    0    0    0  501  0.00000000000E+00  0.00000000000E+00 -0.67066237785E+03  0.67066237785E+03  0.25500000920E-02 0.  1.
    10030    2    1    2    0    0  0.00000000000E+00  0.00000000000E+00  0.17098645657E+04  0.30511893214E+04  0.25270772529E+04 0.  0.
        4    1    3    3  502    0  0.77618626371E+03  0.42204638403E+03  0.19455680706E+04  0.21367791173E+04  0.12699999809E+01 0. -1.
       -4    1    3    3    0  502 -0.77618626371E+03 -0.42204638403E+03 -0.23570350483E+03  0.91441020408E+03  0.12699999809E+01 0.  1.
</event>
<event>
 5   0  0.2452457E-05  0.2512693E+04  0.7818609E-02  0.8398478E-01
        2   -1    0    0  501    0  0.00000000000E+00  0.00000000000E+00  0.11037568394E+04  0.11037568394E+04  0.25500000920E-02 0.  1.
       -2   -1    0    0    0  501  0.00000000000E+00  0.00000000000E+00 -0.14300305009E+04  0.14300305009E+04  0.25500000920E-02 0. -1.
    10030    2    1    2    0    0  0.00000000000E+00  0.00000000000E+00 -0.32627366151E+03  0.25337873404E+04  0.25126925367E+04 0.  0.
        1    1    3    3  502    0 -0.12555567809E+03  0.31878497003E+03 -0.13820101615E+04  0.14238469623E+04  0.50400001928E-02 0. -1.
       -1    1    3    3    0  502  0.12555567809E+03 -0.31878497003E+03  0.10557365000E+04  0.11099403781E+04  0.50400001928E-02 0.  1.
</event>
<event>
 5   0  0.2452457E-05  0.2537038E+04  0.7818609E-02  0.8389908E-01
       -2   -1    0    0    0  501  0.00000000000E+00  0.00000000000E+00  0.15093623566E+04  0.15093623566E+04  0.25500000920E-02 0.  1.
        2   -1    0    0  501    0  0.00000000000E+00  0.00000000000E+00 -0.10661064387E+04  0.10661064387E+04  0.25500000920E-02 0. -1.
    10030    2    1    2    0    0  0.00000000000E+00  0.00000000000E+00  0.44325591792E+03  0.25754687953E+04  0.25370383731E+04 0.  0.
        1    1    3    3  502    0 -0.79853141669E+03  0.44837583844E+03 -0.66941945184E+03  0.11343790012E+04  0.50400001928E-02 0. -1.
       -1    1    3    3    0  502  0.79853141669E+03 -0.44837583844E+03  0.11126753698E+04  0.14410897940E+04  0.50400001928E-02 0.  1.
</event>
<event>
 5   0  0.1010338E-05  0.2469533E+04  0.7818609E-02  0.8413921E-01
       -1   -1    0    0    0  501  0.00000000000E+00  0.00000000000E+00  0.93781377720E+03  0.93781377721E+03  0.50400001928E-02 0. -1.
        1   -1    0    0  501    0  0.00000000000E+00  0.00000000000E+00 -0.16257472265E+04  0.16257472265E+04  0.50400001928E-02 0.  1.
    10030    2    1    2    0    0  0.00000000000E+00  0.00000000000E+00 -0.68793344932E+03  0.25635610037E+04  0.24695328686E+04 0.  0.
        2    1    3    3  502    0 -0.84562936805E+03 -0.65890447940E+03 -0.97999774465E+03  0.14524598861E+04  0.25500000920E-02 0.  1.
       -2    1    3    3    0  502  0.84562936805E+03  0.65890447940E+03  0.29206429534E+03  0.11111011177E+04  0.25500000920E-02 0. -1.
</event>
<event>
 5   0  0.1002753E-05  0.2460306E+04  0.7818609E-02  0.8417265E-01
       -1   -1    0    0    0  501  0.00000000000E+00  0.00000000000E+00  0.76715653367E+03  0.76715653369E+03  0.50400001928E-02 0. -1.
        1   -1    0    0  501    0  0.00000000000E+00  0.00000000000E+00 -0.19725780863E+04  0.19725780863E+04  0.50400001928E-02 0.  1.
    10030    2    1    2    0    0  0.00000000000E+00  0.00000000000E+00 -0.12054215526E+04  0.27397346200E+04  0.24603058079E+04 0.  0.
        5    1    3    3  502    0  0.10607408117E+04  0.38344257680E+03 -0.11494463039E+04  0.16104186334E+04  0.46999998093E+01 0.  1.
       -5    1    3    3    0  502 -0.10607408117E+04 -0.38344257680E+03 -0.55975248774E+02  0.11293159866E+04  0.46999998093E+01 0. -1.
</event>
<event>
 5   0  0.2345143E-05  0.2503995E+04  0.7818609E-02  0.8401564E-01
       -2   -1    0    0    0  501  0.00000000000E+00  0.00000000000E+00  0.10633869635E+04  0.10633869635E+04  0.25500000920E-02 0. -1.
        2   -1    0    0  501    0  0.00000000000E+00  0.00000000000E+00 -0.14740619928E+04  0.14740619928E+04  0.25500000920E-02 0.  1.
    10030    2    1    2    0    0  0.00000000000E+00  0.00000000000E+00 -0.41067502934E+03  0.25374489563E+04  0.25039954525E+04 0.  0.
        5    1    3    3  502    0  0.25007346601E+03 -0.11930016035E+04  0.84289673305E+02  0.12218495829E+04  0.46999998093E+01 0. -1.
       -5    1    3    3    0  502 -0.25007346601E+03  0.11930016035E+04 -0.49496470265E+03  0.13155993734E+04  0.46999998093E+01 0.  1.
</event>
<event>
 5   0  0.1015327E-05  0.2448297E+04  0.7818609E-02  0.8421640E-01
       -1   -1    0    0    0  501  0.00000000000E+00  0.00000000000E+00  0.62739128139E+03  0.62739128141E+03  0.50400001928E-02 0. -1.
        1   -1    0    0  501    0  0.00000000000E+00  0.00000000000E+00 -0.23885246495E+04  0.23885246495E+04  0.50400001928E-02 0.  1.
    10030    2    1    2    0    0  0.00000000000E+00  0.00000000000E+00 -0.17611333681E+04  0.30159159309E+04  0.24482969922E+04 0.  0.
        4    1    3    3  502    0 -0.11062195574E+04 -0.51687673874E+03 -0.98834166433E+03  0.15708927814E+04  0.12699999809E+01 0. -1.
       -4    1    3    3    0  502  0.11062195574E+04  0.51687673874E+03 -0.77279170379E+03  0.14450231495E+04  0.12699999809E+01 0.  1.
</event>
<event>
 5   0  0.2388326E-05  0.2500827E+04  0.7818609E-02  0.8402691E-01
       -2   -1    0    0    0  501  0.00000000000E+00  0.00000000000E+00  0.14226772534E+04  0.14226772534E+04  0.25500000920E-02 0.  1.
        2   -1    0    0  501    0  0.00000000000E+00  0.00000000000E+00 -0.10990081774E+04  0.10990081774E+04  0.25500000920E-02 0. -1.
    10030    2    1    2    0    0  0.00000000000E+00  0.00000000000E+00  0.32366907596E+03  0.25216854308E+04  0.25008270115E+04 0.  0.
        2    1    3    3  502    0 -0.11814636566E+04 -0.24846970084E+03 -0.16636502836E+03  0.12187169018E+04  0.25500000920E-02 0.  1.
       -2    1    3    3    0  502  0.11814636566E+04  0.24846970084E+03  0.49003410433E+03  0.13029685290E+04  0.25500000920E-02 0. -1.
</event>
<event>
 5   0  0.1008073E-05  0.2408715E+04  0.7818609E-02  0.8436248E-01
       -1   -1    0    0    0  501  0.00000000000E+00  0.00000000000E+00  0.25323590503E+04  0.25323590503E+04  0.50400001928E-02 0. -1.
        1   -1    0    0  501    0  0.00000000000E+00  0.00000000000E+00 -0.57277718879E+03  0.57277718881E+03  0.50400001928E-02 0.  1.
    10030    2    1    2    0    0  0.00000000000E+00  0.00000000000E+00  0.19595818615E+04  0.31051362391E+04  0.24087154235E+04 0.  0.
        1    1    3    3  502    0  0.39215328806E+02  0.12034528926E+04  0.94715819923E+03  0.15319743343E+04  0.50400001928E-02 0.  1.
       -1    1    3    3    0  502 -0.39215328806E+02 -0.12034528926E+04  0.10124236623E+04  0.15731619048E+04  0.50400001928E-02 0. -1.
</event>
<event>
 5   0  0.2441340E-05  0.2522249E+04  0.7818609E-02  0.8395102E-01
        2   -1    0    0  501    0  0.00000000000E+00  0.00000000000E+00  0.18135570288E+04  0.18135570288E+04  0.25500000920E-02 0. -1.
       -2   -1    0    0    0  501  0.00000000000E+00  0.00000000000E+00 -0.87696983080E+03  0.87696983080E+03  0.25500000920E-02 0.  1.
    10030    2    1    2    0    0  0.00000000000E+00  0.00000000000E+00  0.93658719800E+03  0.26905268596E+04  0.25222488384E+04 0.  0.
        3    1    3    3  502    0 -0.57483463008E+03 -0.94200611833E+03  0.11194496083E+04  0.15719344181E+04  0.10100000352E+00 0. -1.
       -3    1    3    3    0  502  0.57483463008E+03  0.94200611833E+03 -0.18286241034E+03  0.11185924415E+04  0.10100000352E+00 0.  1.
</event>
<event>
 5   0  0.2345143E-05  0.2481664E+04  0.7818609E-02  0.8409547E-01
        2   -1    0    0  501    0  0.00000000000E+00  0.00000000000E+00  0.15786459318E+04  0.15786459318E+04  0.25500000920E-02 0.  1.
       -2   -1    0    0    0  501  0.00000000000E+00  0.00000000000E+00 -0.97530690560E+03  0.97530690560E+03  0.25500000920E-02 0. -1.
    10030    2    1    2    0    0  0.00000000000E+00  0.00000000000E+00  0.60333902619E+03  0.25539528374E+04  0.24816641826E+04 0.  0.
        5    1    3    3  502    0 -0.19498458579E+03  0.12230174525E+04  0.22294610791E+03  0.12583790108E+04  0.46999998093E+01 0.  1.
       -5    1    3    3    0  502  0.19498458579E+03 -0.12230174525E+04  0.38039291829E+03  0.12955738266E+04  0.46999998093E+01 0. -1.
</event>
<event>
 5   0  0.1008073E-05  0.2496610E+04  0.7818609E-02  0.8404194E-01
       -1   -1    0    0    0  501  0.00000000000E+00  0.00000000000E+00  0.15690006953E+04  0.15690006954E+04  0.50400001928E-02 0.  1.
        1   -1    0    0  501    0  0.00000000000E+00  0.00000000000E+00 -0.99315751970E+03  0.99315751972E+03  0.50400001928E-02 0. -1.
    10030    2    1    2    0    0  0.00000000000E+00  0.00000000000E+00  0.57584317564E+03  0.25621582151E+04  0.24966095722E+04 0.  0.
        1    1    3    3  502    0 -0.10580390864E+04  0.65083243203E+03  0.41459354349E+03  0.13095485365E+04  0.50400001928E-02 0.  1.
       -1    1    3    3    0  502  0.10580390864E+04 -0.65083243203E+03  0.16124963215E+03  0.12526096786E+04  0.50400001928E-02 0. -1.
</event>
<event>
 5   0  0.1015327E-05  0.2514437E+04  0.7818609E-02  0.8397860E-01
       -1   -1    0    0    0  501  0.00000000000E+00  0.00000000000E+00  0.11737531478E+04  0.11737531478E+04  0.50400001928E-02 0.  1.
        1   -1    0    0  501    0  0.00000000000E+00  0.00000000000E+00 -0.13466190782E+04  0.13466190782E+04  0.50400001928E-02 0. -1.
    10030    2    1    2    0    0  0.00000000000E+00  0.00000000000E+00 -0.17286593040E+03  0.25203722260E+04  0.25144370200E+04 0.  0.
        4    1    3    3  502    0  0.22355835291E+03 -0.11903919558E+04  0.25138693061E+03  0.12370159043E+04  0.12699999809E+01 0.  1.
       -4    1    3    3    0  502 -0.22355835291E+03  0.11903919558E+04 -0.42425286101E+03  0.12833563217E+04  0.12699999809E+01 0. -1.
</event>
<event>
 5   0  0.8166500E-06  0.2503155E+04  0.7818609E-02  0.8401862E-01
        3   -1    0    0  501    0  0.00000000000E+00  0.00000000000E+00  0.15433358487E+04  0.15433358520E+04  0.10100000352E+00 0.  1.
       -3   -1    0    0    0  501  0.00000000000E+00  0.00000000000E+00 -0.10149745812E+04  0.10149745862E+04  0.10100000352E+00 0. -1.
    10030    2    1    2    0    0  0.00000000000E+00  0.00000000000E+00  0.52836126749E+03  0.25583104382E+04  0.25031553426E+04 0.  0.
        3    1    3    3  502    0  0.96583413742E+03  0.34065042584E+03  0.99945479033E+03  0.14310094974E+04  0.10100000352E+00 0.  1.
       -3    1    3    3    0  502 -0.96583413742E+03 -0.34065042584E+03 -0.47109352284E+03  0.11273009408E+04  0.10100000352E+00 0. -1.
</event>
<event>
 5   0  0.1002753E-05  0.2430275E+04  0.7818609E-02  0.8428255E-01
        1   -1    0    0  501    0  0.00000000000E+00  0.00000000000E+00  0.18679776305E+04  0.18679776305E+04  0.50400001928E-02 0.  1.
       -1   -1    0    0    0  501  0.00000000000E+00  0.00000000000E+00 -0.79045872242E+03  0.79045872244E+03  0.50400001928E-02 0. -1.
    10030    2    1    2    0    0  0.00000000000E+00  0.00000000000E+00  0.10775189080E+04  0.26584363529E+04  0.24302750555E+04 0.  0.
        5    1    3    3  502    0  0.13996428375E+03  0.28914190732E+02 -0.78122280018E+03  0.79420223160E+03  0.46999998093E+01 0. -1.
       -5    1    3    3    0  502 -0.13996428375E+03 -0.28914190732E+02  0.18587417082E+04  0.18642341213E+04  0.46999998093E+01 0.  1.
</event>
<event>
 5   0  0.2345143E-05  0.2492704E+04  0.7818609E-02  0.8405589E-01
        2   -1    0    0  501    0  0.00000000000E+00  0.00000000000E+00  0.14711991884E+04  0.14711991884E+04  0.25500000920E-02 0. -1.
       -2   -1    0    0    0  501  0.00000000000E+00  0.00000000000E+00 -0.10558688808E+04  0.10558688808E+04  0.25500000920E-02 0.  1.
    10030    2    1    2    0    0  0.00000000000E+00  0.00000000000E+00  0.41533030762E+03  0.25270680692E+04  0.24927041064E+04 0.  0.
        5    1    3    3  502    0  0.33330456608E+03  0.91025320027E+02 -0.10063380954E+04  0.10640093961E+04  0.46999998093E+01 0.  1.
       -5    1    3    3    0  502 -0.33330456608E+03 -0.91025320027E+02  0.14216684031E+04  0.14630586731E+04  0.46999998093E+01 0. -1.
</event>
<event>
 5   0  0.2345143E-05  0.2483303E+04  0.7818609E-02  0.8408958E-01
       -2   -1    0    0    0  501  0.00000000000E+00  0.00000000000E+00  0.12424729858E+04  0.12424729858E+04  0.25500000920E-02 0.  1.
        2   -1    0    0  501    0  0.00000000000E+00  0.00000000000E+00 -0.12408305164E+04  0.12408305164E+04  0.25500000920E-02 0. -1.
    10030    2    1    2    0    0  0.00000000000E+00  0.00000000000E+00  0.16424693880E+01  0.24833035022E+04  0.24833029590E+04 0.  0.
        5    1    3    3  502    0  0.50478091549E+02 -0.46032549654E+03  0.11528756113E+04  0.12424137256E+04  0.46999998093E+01 0.  1.
       -5    1    3    3    0  502 -0.50478091549E+02  0.46032549654E+03 -0.11512331419E+04  0.12408897766E+04  0.46999998093E+01 0. -1.
</event>
<event>
 5   0  0.2345143E-05  0.2556342E+04  0.7818609E-02  0.8383184E-01
        2   -1    0    0  501    0  0.00000000000E+00  0.00000000000E+00  0.11309253958E+04  0.11309253958E+04  0.25500000920E-02 0. -1.
       -2   -1    0    0    0  501  0.00000000000E+00  0.00000000000E+00 -0.14445879350E+04  0.14445879350E+04  0.25500000920E-02 0.  1.
    10030    2    1    2    0    0  0.00000000000E+00  0.00000000000E+00 -0.31366253923E+03  0.25755133308E+04  0.25563420602E+04 0.  0.
        5    1    3    3  502    0  0.13620919066E+03 -0.37836629427E+03 -0.13791839884E+04  0.14366226227E+04  0.46999998093E+01 0.  1.
       -5    1    3    3    0  502 -0.13620919066E+03  0.37836629427E+03  0.10655214492E+04  0.11388907081E+04  0.46999998093E+01 0. -1.
</event>
<event>
 5   0  0.2345143E-05  0.2351486E+04  0.7818609E-02  0.8457893E-01
        2   -1    0    0  501    0  0.00000000000E+00  0.00000000000E+00  0.19767489261E+04  0.19767489261E+04  0.25500000920E-02 0. -1.
       -2   -1    0    0    0  501  0.00000000000E+00  0.00000000000E+00 -0.69931586668E+03  0.69931586668E+03  0.25500000920E-02 0.  1.
    10030    2    1    2    0    0  0.00000000000E+00  0.00000000000E+00  0.12774330594E+04  0.26760647928E+04  0.23514862436E+04 0.  0.
        5    1    3    3  502    0 -0.54165395577E+03 -0.36626354223E+03  0.17507377443E+04  0.18688613457E+04  0.46999998093E+01 0. -1.
       -5    1    3    3    0  502  0.54165395577E+03  0.36626354223E+03 -0.47330468491E+03  0.80720344705E+03  0.46999998093E+01 0.  1.
</event>
<event>
 5   0  0.1010338E-05  0.2512905E+04  0.7818609E-02  0.8398402E-01
        1   -1    0    0  501    0  0.00000000000E+00  0.00000000000E+00  0.26447289047E+04  0.26447289048E+04  0.50400001928E-02 0.  1.
       -1   -1    0    0    0  501  0.00000000000E+00  0.00000000000E+00 -0.59691301084E+03  0.59691301086E+03  0.50400001928E-02 0. -1.
    10030    2    1    2    0    0  0.00000000000E+00  0.00000000000E+00  0.20478158939E+04  0.32416419156E+04  0.25129051661E+04 0.  0.
        2    1    3    3  502    0  0.18434450366E+03  0.11921517262E+04  0.14771810190E+04  0.19071634427E+04  0.25500000920E-02 0.  1.
       -2    1    3    3    0  502 -0.18434450366E+03 -0.11921517262E+04  0.57063487494E+03  0.13344784729E+04  0.25500000920E-02 0. -1.
</event>
<event>
 5   0  0.2441340E-05  0.2378015E+04  0.7818609E-02  0.8447780E-01
       -2   -1    0    0    0  501  0.00000000000E+00  0.00000000000E+00  0.49422680362E+03  0.49422680363E+03  0.25500000920E-02 0.  1.
        2   -1    0    0  501    0  0.00000000000E+00  0.00000000000E+00 -0.28605064829E+04  0.28605064829E+04  0.25500000920E-02 0. -1.
    10030    2    1    2    0    0  0.00000000000E+00  0.00000000000E+00 -0.23662796793E+04  0.33547332866E+04  0.23780151184E+04 0.  0.
        3    1    3    3  502    0  0.98995730966E+03  0.40455141231E+03 -0.19162594577E+04  0.21944766209E+04  0.10100000352E+00 0. -1.
       -3    1    3    3    0  502 -0.98995730966E+03 -0.40455141231E+03 -0.45002022157E+03  0.11602566656E+04  0.10100000352E+00 0.  1.
</event>
<event>
 5   0  0.2432309E-05  0.2531341E+04  0.7818609E-02  0.8391905E-01
        2   -1    0    0  501    0  0.00000000000E+00  0.00000000000E+00  0.21191209856E+04  0.21191209856E+04  0.25500000920E-02 0.  1.
       -2   -1    0    0    0  501  0.00000000000E+00  0.00000000000E+00 -0.75593687343E+03  0.75593687343E+03  0.25500000920E-02 0. -1.
    10030    2    1    2    0    0  0.00000000000E+00  0.00000000000E+00  0.13631841122E+04  0.28750578590E+04  0.25313409034E+04 0.  0.
        4    1    3    3  502    0  0.22694632340E+03 -0.57663296173E+03  0.19350319923E+04  0.20318367628E+04  0.12699999809E+01 0.  1.
       -4    1    3    3    0  502 -0.22694632340E+03  0.57663296173E+03 -0.57184788016E+03  0.84322109627E+03  0.12699999809E+01 0. -1.
</event>
<event>
 5   0  0.2441340E-05  0.2499482E+04  0.7818609E-02  0.8403170E-01
        2   -1    0    0  501    0  0.00000000000E+00  0.00000000000E+00  0.16336789622E+04  0.16336789622E+04  0.25500000920E-02 0. -1.
       -2   -1    0    0    0  501  0.00000000000E+00  0.00000000000E+00 -0.95603411216E+03  0.95603411217E+03  0.25500000920E-02 0.  1.
    10030    2    1    2    0    0  0.00000000000E+00  0.00000000000E+00  0.67764485005E+03  0.25897130744E+04  0.24994821993E+04 0.  0.
        3    1    3    3  502    0  0.85804733943E+03  0.70832701841E+03 -0.25082707898E+03  0.11405641742E+04  0.10100000352E+00 0.  1.
       -3    1    3    3    0  502 -0.85804733943E+03 -0.70832701841E+03  0.92847192902E+03  0.14491489002E+04  0.10100000352E+00 0. -1.
</event>
<event>
 5   0  0.1010338E-05  0.2529682E+04  0.7818609E-02  0.8392487E-01
        1   -1    0    0  501    0  0.00000000000E+00  0.00000000000E+00  0.12913327788E+04  0.12913327788E+04  0.50400001928E-02 0.  1.
       -1   -1    0    0    0  501  0.00000000000E+00  0.00000000000E+00 -0.12388929649E+04  0.12388929649E+04  0.50400001928E-02 0. -1.
    10030    2    1    2    0    0  0.00000000000E+00  0.00000000000E+00  0.52439813931E+02  0.25302257437E+04  0.25296822686E+04 0.  0.
        2    1    3    3  502    0 -0.91540087743E+03 -0.83784024919E+03  0.27099282387E+03  0.12701858762E+04  0.25500000920E-02 0.  1.
       -2    1    3    3    0  502  0.91540087743E+03  0.83784024919E+03 -0.21855300994E+03  0.12600398675E+04  0.25500000920E-02 0. -1.
</event>
<event>
 5   0  0.2388326E-05  0.2534821E+04  0.7818609E-02  0.8390684E-01
       -2   -1    0    0    0  501  0.00000000000E+00  0.00000000000E+00  0.98409780757E+03  0.98409780758E+03  0.25500000920E-02 0.  1.
        2   -1    0    0  501    0  0.00000000000E+00  0.00000000000E+00 -0.16322868039E+04  0.16322868039E+04  0.25500000920E-02 0. -1.
    10030    2    1    2    0    0  0.00000000000E+00  0.00000000000E+00 -0.64818899637E+03  0.26163846115E+04  0.25348213863E+04 0.  0.
        2    1    3    3  502    0  0.34519198883E+03  0.11979814407E+04 -0.88692882483E+02  0.12498733811E+04  0.25500000920E-02 0.  1.
       -2    1    3    3    0  502 -0.34519198883E+03 -0.11979814407E+04 -0.55949611388E+03  0.13665112304E+04  0.25500000920E-02 0. -1.
</event>
<event>
 5   0  0.1015327E-05  0.2503105E+04  0.7818609E-02  0.8401880E-01
       -1   -1    0    0    0  501  0.00000000000E+00  0.00000000000E+00  0.78465539007E+03  0.78465539008E+03  0.50400001928E-02 0.  1.
        1   -1    0    0  501    0  0.00000000000E+00  0.00000000000E+00 -0.19962700890E+04  0.19962700890E+04  0.50400001928E-02 0. -1.
    10030    2    1    2    0    0  0.00000000000E+00  0.00000000000E+00 -0.12116146989E+04  0.27809254791E+04  0.25031053397E+04 0.  0.
        4    1    3    3  502    0  0.51670196002E+03  0.11065519979E+04 -0.30166329300E+03  0.12579509509E+04  0.12699999809E+01 0.  1.
       -4    1    3    3    0  502 -0.51670196002E+03 -0.11065519979E+04 -0.90995140593E+03  0.15229745282E+04  0.12699999809E+01 0. -1.
</event>
<event>
 5   0  0.1015327E-05  0.2507745E+04  0.7818609E-02  0.8400231E-01
        1   -1    0    0  501    0  0.00000000000E+00  0.00000000000E+00  0.16944967955E+04  0.16944967955E+04  0.50400001928E-02 0.  1.
       -1   -1    0    0    0  501  0.00000000000E+00  0.00000000000E+00 -0.92782520071E+03  0.92782520072E+03  0.50400001928E-02 0. -1.
    10030    2    1    2    0    0  0.00000000000E+00  0.00000000000E+00  0.76667159480E+03  0.26223219962E+04  0.25077454651E+04 0.  0.
        4    1    3    3  502    0 -0.11075113255E+04 -0.50053853537E+03  0.70576610454E+03  0.14054278952E+04  0.12699999809E+01 0.  1.
       -4    1    3    3    0  502  0.11075113255E+04  0.50053853537E+03  0.60905490261E+02  0.12168941010E+04  0.12699999809E+01 0. -1.
</event>
<event>
 5   0  0.2432309E-05  0.2485199E+04  0.7818609E-02  0.8408278E-01
        2   -1    0    0  501    0  0.00000000000E+00  0.00000000000E+00  0.13082252593E+04  0.13082252593E+04  0.25500000920E-02 0. -1.
       -2   -1    0    0    0  501  0.00000000000E+00  0.00000000000E+00 -0.11802653688E+04  0.11802653688E+04  0.25500000920E-02 0.  1.
    10030    2    1    2    0    0  0.00000000000E+00  0.00000000000E+00  0.12795989049E+03  0.24884906281E+04  0.24851985580E+04 0.  0.
        4    1    3    3  502    0  0.91099634868E+03 -0.84345796011E+03  0.11616113909E+03  0.12469285067E+04  0.12699999809E+01 0. -1.
       -4    1    3    3    0  502 -0.91099634868E+03  0.84345796011E+03  0.11798751396E+02  0.12415621214E+04  0.12699999809E+01 0.  1.
</event>
<event>
 5   0  0.1002753E-05  0.2508337E+04  0.7818609E-02  0.8400022E-01
        1   -1    0    0  501    0  0.00000000000E+00  0.00000000000E+00  0.17086097684E+04  0.17086097684E+04  0.50400001928E-02 0. -1.
       -1   -1    0    0    0  501  0.00000000000E+00  0.00000000000E+00 -0.92059527872E+03  0.92059527873E+03  0.50400001928E-02 0.  1.
    10030    2    1    2    0    0  0.00000000000E+00  0.00000000000E+00  0.78801448965E+03  0.26292050471E+04  0.25083365691E+04 0.  0.
        5    1    3    3  502    0 -0.55571639741E+02  0.12204428671E+03 -0.91304962821E+03  0.92285682998E+03  0.46999998093E+01 0.  1.
       -5    1    3    3    0  502  0.55571639741E+02 -0.12204428671E+03  0.17010641179E+04  0.17063482171E+04  0.46999998093E+01 0. -1.
</event>
<event>
 5   0  0.1010338E-05  0.2494964E+04  0.7818609E-02  0.8404782E-01
       -1   -1    0    0    0  501  0.00000000000E+00  0.00000000000E+00  0.96273725688E+03  0.96273725689E+03  0.50400001928E-02 0.  1.
        1   -1    0    0  501    0  0.00000000000E+00  0.00000000000E+00 -0.16164441301E+04  0.16164441302E+04  0.50400001928E-02 0. -1.
    10030    2    1    2    0    0  0.00000000000E+00  0.00000000000E+00 -0.65370687326E+03  0.25791813870E+04  0.24949637174E+04 0.  0.
        2    1    3    3  502    0  0.63491055285E+03 -0.94609412249E+03  0.19823460103E+03  0.11565044123E+04  0.25500000920E-02 0.  1.
       -2    1    3    3    0  502 -0.63491055285E+03  0.94609412249E+03 -0.85194147429E+03  0.14226769747E+04  0.25500000920E-02 0. -1.
</event>
<event>
 5   0  0.2441340E-05  0.2478967E+04  0.7818609E-02  0.8410517E-01
       -2   -1    0    0    0  501  0.00000000000E+00  0.00000000000E+00  0.69628695429E+03  0.69628695429E+03  0.25500000920E-02 0. -1.
        2   -1    0    0  501    0  0.00000000000E+00  0.00000000000E+00 -0.22064464457E+04  0.22064464457E+04  0.25500000920E-02 0.  1.
    10030    2    1    2    0    0  0.00000000000E+00  0.00000000000E+00 -0.15101594914E+04  0.29027333999E+04  0.24789674265E+04 0.  0.
        3    1    3    3  502    0 -0.25091252994E+03 -0.11780275715E+04 -0.41246327449E+03  0.12731190125E+04  0.10100000352E+00 0. -1.
       -3    1    3    3    0  502  0.25091252994E+03  0.11780275715E+04 -0.10976962169E+04  0.16296143874E+04  0.10100000352E+00 0.  1.
</event>
<event>
 5   0  0.2441340E-05  0.2503682E+04  0.7818609E-02  0.8401675E-01
        2   -1    0    0  501    0  0.00000000000E+00  0.00000000000E+00  0.12842192631E+04  0.12842192631E+04  0.25500000920E-02 0. -1.
       -2   -1    0    0    0  501  0.00000000000E+00  0.00000000000E+00 -0.12202790617E+04  0.12202790617E+04  0.25500000920E-02 0.  1.
    10030    2    1    2    0    0  0.00000000000E+00  0.00000000000E+00  0.63940201386E+02  0.25044983248E+04  0.25036819905E+04 0.  0.
        3    1    3    3  502    0  0.17686192551E+03  0.38054666227E+03 -0.11478253051E+04  0.12221288165E+04  0.10100000352E+00 0.  1.
       -3    1    3    3    0  502 -0.17686192551E+03 -0.38054666227E+03  0.12117655065E+04  0.12823695083E+04  0.10100000352E+00 0. -1.
</event>
<event>
 5   0  0.2432309E-05  0.2552873E+04  0.7818609E-02  0.8384388E-01
        2   -1    0    0  501    0  0.00000000000E+00  0.00000000000E+00  0.13721199924E+04  0.13721199924E+04  0.25500000920E-02 0.  1.
       -2   -1    0    0    0  501  0.00000000000E+00  0.00000000000E+00 -0.11874253509E+04  0.11874253509E+04  0.25500000920E-02 0. -1.
    10030    2    1    2    0    0  0.00000000000E+00  0.00000000000E+00  0.18469464149E+03  0.25595453434E+04  0.25528729412E+04 0.  0.
        4    1    3    3  502    0  0.68489636574E+03  0.10065291812E+04  0.47689172650E+03  0.13075210729E+04  0.12699999809E+01 0. -1.
       -4    1    3    3    0  502 -0.68489636574E+03 -0.10065291812E+04 -0.29219708501E+03  0.12520242704E+04  0.12699999809E+01 0.  1.
</event>
<event>
 5   0  0.1008073E-05  0.2487280E+04  0.7818609E-02  0.8407531E-01
       -1   -1    0    0    0  501  0.00000000000E+00  0.00000000000E+00  0.15100661567E+04  0.15100661568E+04  0.50400001928E-02 0. -1.
        1   -1    0    0  501    0  0.00000000000E+00  0.00000000000E+00 -0.10242206329E+04  0.10242206329E+04  0.50400001928E-02 0.  1.
    10030    2    1    2    0    0  0.00000000000E+00  0.00000000000E+00  0.48584552387E+03  0.25342867897E+04  0.24872803741E+04 0.  0.
        1    1    3    3  502    0 -0.87675992617E+03 -0.62112128501E+03  0.88096922649E+03  0.13894626288E+04  0.50400001928E-02 0. -1.
       -1    1    3    3    0  502  0.87675992617E+03  0.62112128501E+03 -0.39512370263E+03  0.11448241608E+04  0.50400001928E-02 0.  1.
</event>
<event>
 5   0  0.2432309E-05  0.2495745E+04  0.7818609E-02  0.8404503E-01
        2   -1    0    0  501    0  0.00000000000E+00  0.00000000000E+00  0.12033632048E+04  0.12033632048E+04  0.25500000920E-02 0. -1.
       -2   -1    0    0    0  501  0.00000000000E+00  0.00000000000E+00 -0.12940280090E+04  0.12940280090E+04  0.25500000920E-02 0.  1.
    10030    2    1    2    0    0  0.00000000000E+00  0.00000000000E+00 -0.90664804200E+02  0.24973912138E+04  0.24957449325E+04 0.  0.
        4    1    3    3  502    0 -0.59356613043E+03 -0.57754833922E+03 -0.97938331339E+03  0.12826052092E+04  0.12699999809E+01 0.  1.
       -4    1    3    3    0  502  0.59356613043E+03  0.57754833922E+03  0.88871850919E+03  0.12147860045E+04  0.12699999809E+01 0. -1.
</event>
<event>
 5   0  0.1039688E-05  0.2622620E+04  0.7818609E-02  0.8360558E-01
        1   -1    0    0  501    0  0.00000000000E+00  0.00000000000E+00  0.12765409672E+04  0.12765409672E+04  0.50400001928E-02 0. -1.
       -1   -1    0    0    0  501  0.00000000000E+00  0.00000000000E+00 -0.13470264593E+04  0.13470264593E+04  0.50400001928E-02 0.  1.
    10030    2    1    2    0    0  0.00000000000E+00  0.00000000000E+00 -0.70485492065E+02  0.26235674265E+04  0.26226204142E+04 0.  0.
        3    1    3    3  502    0 -0.47937070493E+02  0.89306823487E+03 -0.99458101039E+03  0.13375575619E+04  0.10100000352E+00 0.  1.
       -3    1    3    3    0  502  0.47937070493E+02 -0.89306823487E+03  0.92409551832E+03  0.12860098647E+04  0.10100000352E+00 0. -1.
</event>
<event>
 5   0  0.2441340E-05  0.2510905E+04  0.7818609E-02  0.8399111E-01
       -2   -1    0    0    0  501  0.00000000000E+00  0.00000000000E+00  0.12118677324E+04  0.12118677324E+04  0.25500000920E-02 0. -1.
        2   -1    0    0  501    0  0.00000000000E+00  0.00000000000E+00 -0.13006051413E+04  0.13006051413E+04  0.25500000920E-02 0.  1.
    10030    2    1    2    0    0  0.00000000000E+00  0.00000000000E+00 -0.88737408931E+02  0.25124728737E+04  0.25109053374E+04 0.  0.
        3    1    3    3  502    0  0.11643599278E+04  0.37078925083E+03 -0.33254621292E+03  0.12664145071E+04  0.10100000352E+00 0.  1.
       -3    1    3    3    0  502 -0.11643599278E+04 -0.37078925083E+03  0.24380880399E+03  0.12460583666E+04  0.10100000352E+00 0. -1.
</event>
<event>
 5   0  0.2345143E-05  0.2519868E+04  0.7818609E-02  0.8395941E-01
        2   -1    0    0  501    0  0.00000000000E+00  0.00000000000E+00  0.17402880709E+04  0.17402880709E+04  0.25500000920E-02 0.  1.
       -2   -1    0    0    0  501  0.00000000000E+00  0.00000000000E+00 -0.91216746755E+03  0.91216746755E+03  0.25500000920E-02 0. -1.
    10030    2    1    2    0    0  0.00000000000E+00  0.00000000000E+00  0.82812060338E+03  0.26524555385E+04  0.25198683795E+04 0.  0.
        5    1    3    3  502    0 -0.23299332110E+03  0.96980850705E+03  0.12243684692E+04  0.15792133062E+04  0.46999998093E+01 0.  1.
       -5    1    3    3    0  502  0.23299332110E+03 -0.96980850705E+03 -0.39624786582E+03  0.10732422323E+04  0.46999998093E+01 0. -1.
</event>
<event>
 5   0  0.1008073E-05  0.2486939E+04  0.7818609E-02  0.8407653E-01
        1   -1    0    0  501    0  0.00000000000E+00  0.00000000000E+00  0.18726181391E+04  0.18726181391E+04  0.50400001928E-02 0. -1.
       -1   -1    0    0    0  501  0.00000000000E+00  0.00000000000E+00 -0.82569797182E+03  0.82569797184E+03  0.50400001928E-02 0.  1.
    10030    2    1    2    0    0  0.00000000000E+00  0.00000000000E+00  0.10469201672E+04  0.26983161109E+04  0.24869394842E+04 0.  0.
        1    1    3    3  502    0  0.11653480553E+04 -0.81096950748E+02  0.61089127597E+02  0.11697626627E+04  0.50400001928E-02 0. -1.
       -1    1    3    3    0  502 -0.11653480553E+04  0.81096950748E+02  0.98583103965E+03  0.15285534483E+04  0.50400001928E-02 0.  1.
</event>
<event>
 5   0  0.1008073E-05  0.2435989E+04  0.7818609E-02  0.8426152E-01
       -1   -1    0    0    0  501  0.00000000000E+00  0.00000000000E+00  0.82750933470E+03  0.82750933471E+03  0.50400001928E-02 0.  1.
        1   -1    0    0  501    0  0.00000000000E+00  0.00000000000E+00 -0.17927413863E+04  0.17927413863E+04  0.50400001928E-02 0. -1.
    10030    2    1    2    0    0  0.00000000000E+00  0.00000000000E+00 -0.96523205163E+03  0.26202507211E+04  0.24359886961E+04 0.  0.
        1    1    3    3  502    0  0.10502312653E+03 -0.78407732950E+03 -0.14787920258E+04  0.16770906271E+04  0.50400001928E-02 0. -1.
       -1    1    3    3    0  502 -0.10502312653E+03  0.78407732950E+03  0.51355997420E+03  0.94316009397E+03  0.50400001928E-02 0.  1.
</event>
<event>
 5   0  0.2452457E-05  0.2567436E+04  0.7818609E-02  0.8379347E-01
       -2   -1    0    0    0  501  0.00000000000E+00  0.00000000000E+00  0.10816454450E+04  0.10816454450E+04  0.25500000920E-02 0. -1.
        2   -1    0    0  501    0  0.00000000000E+00  0.00000000000E+00 -0.15235419625E+04  0.15235419625E+04  0.25500000920E-02 0.  1.
    10030    2    1    2    0    0  0.00000000000E+00  0.00000000000E+00 -0.44189651744E+03  0.26051874075E+04  0.25674362497E+04 0.  0.
        1    1    3    3  502    0 -0.50710438317E+02 -0.12135701345E+04  0.20062205262E+03  0.12310861984E+04  0.50400001928E-02 0. -1.
       -1    1    3    3    0  502  0.50710438317E+02  0.12135701345E+04 -0.64251857006E+03  0.13741012091E+04  0.50400001928E-02 0.  1.
</event>
<event>
 5   0  0.1015327E-05  0.2438759E+04  0.7818609E-02  0.8425134E-01
        1   -1    0    0  501    0  0.00000000000E+00  0.00000000000E+00  0.23960393365E+04  0.23960393365E+04  0.50400001928E-02 0. -1.
       -1   -1    0    0    0  501  0.00000000000E+00  0.00000000000E+00 -0.62055984680E+03  0.62055984682E+03  0.50400001928E-02 0.  1.
    10030    2    1    2    0    0  0.00000000000E+00  0.00000000000E+00  0.17754794897E+04  0.30165991834E+04  0.24387585396E+04 0.  0.
        4    1    3    3  502    0 -0.89983147814E+03 -0.56995171021E+03  0.16219684380E+04  0.19404445026E+04  0.12699999809E+01 0. -1.
       -4    1    3    3    0  502  0.89983147814E+03  0.56995171021E+03  0.15351105178E+03  0.10761546808E+04  0.12699999809E+01 0.  1.
</event>
<event>
 5   0  0.2345143E-05  0.2469240E+04  0.7818609E-02  0.8414027E-01
       -2   -1    0    0    0  501  0.00000000000E+00  0.00000000000E+00  0.11425309628E+04  0.11425309628E+04  0.25500000920E-02 0. -1.
        2   -1    0    0  501    0  0.00000000000E+00  0.00000000000E+00 -0.13341311654E+04  0.13341311654E+04  0.25500000920E-02 0.  1.
    10030    2    1    2    0    0  0.00000000000E+00  0.00000000000E+00 -0.19160020265E+03  0.24766621282E+04  0.24692396926E+04 0.  0.
        5    1    3    3  502    0 -0.87318942400E+03 -0.70203844876E+03 -0.61595934141E+03  0.12785717633E+04  0.46999998093E+01 0. -1.
       -5    1    3    3    0  502  0.87318942400E+03  0.70203844876E+03  0.42435913875E+03  0.11980903649E+04  0.46999998093E+01 0.  1.
</event>
<event>
 5   0  0.1010338E-05  0.2150001E+04  0.7818609E-02  0.8539532E-01
       -1   -1    0    0    0  501  0.00000000000E+00  0.00000000000E+00  0.12079137754E+04  0.12079137755E+04  0.50400001928E-02 0. -1.
        1   -1    0    0  501    0  0.00000000000E+00  0.00000000000E+00 -0.95671226197E+03  0.95671226198E+03  0.50400001928E-02 0.  1.
    10030    2    1    2    0    0  0.00000000000E+00  0.00000000000E+00  0.25120151348E+03  0.21646260374E+04  0.21500008562E+04 0.  0.
        2    1    3    3  502    0 -0.59056091436E+03 -0.87194814090E+03  0.34286994413E+03  0.11075267729E+04  0.25500000920E-02 0. -1.
       -2    1    3    3    0  502  0.59056091436E+03  0.87194814090E+03 -0.91668430653E+02  0.10570992646E+04  0.25500000920E-02 0.  1.
</event>
<event>
 5   0  0.1002753E-05  0.2225909E+04  0.7818609E-02  0.8507721E-01
        1   -1    0    0  501    0  0.00000000000E+00  0.00000000000E+00  0.14295828317E+04  0.14295828317E+04  0.50400001928E-02 0. -1.
       -1   -1    0    0    0  501  0.00000000000E+00  0.00000000000E+00 -0.86645375573E+03  0.86645375575E+03  0.50400001928E-02 0.  1.
    10030    2    1    2    0    0  0.00000000000E+00  0.00000000000E+00  0.56312907597E+03  0.22960365875E+04  0.22259087256E+04 0.  0.
        5    1    3    3  502    0  0.10066399115E+04  0.47442793667E+03  0.26559967548E+03  0.11441027297E+04  0.46999998093E+01 0. -1.
       -5    1    3    3    0  502 -0.10066399115E+04 -0.47442793667E+03  0.29752940049E+03  0.11519338578E+04  0.46999998093E+01 0.  1.
</event>
<event>
 5   0  0.1039688E-05  0.2484991E+04  0.7818609E-02  0.8408352E-01
        1   -1    0    0  501    0  0.00000000000E+00  0.00000000000E+00  0.14237912616E+04  0.14237912616E+04  0.50400001928E-02 0.  1.
       -1   -1    0    0    0  501  0.00000000000E+00  0.00000000000E+00 -0.10842842819E+04  0.10842842819E+04  0.50400001928E-02 0. -1.
    10030    2    1    2    0    0  0.00000000000E+00  0.00000000000E+00  0.33950697967E+03  0.25080755435E+04  0.24849905317E+04 0.  0.
        3    1    3    3  502    0 -0.12001270574E+04  0.31729687187E+03  0.11623051190E+03  0.12467926054E+04  0.10100000352E+00 0.  1.
       -3    1    3    3    0  502  0.12001270574E+04 -0.31729687187E+03  0.22327646777E+03  0.12612829381E+04  0.10100000352E+00 0. -1.
</event>
<event>
 5   0  0.2345143E-05  0.2482978E+04  0.7818609E-02  0.8409075E-01
        2   -1    0    0  501    0  0.00000000000E+00  0.00000000000E+00  0.17839309208E+04  0.17839309208E+04  0.25500000920E-02 0.  1.
       -2   -1    0    0    0  501  0.00000000000E+00  0.00000000000E+00 -0.86398798675E+03  0.86398798675E+03  0.25500000920E-02 0. -1.
    10030    2    1    2    0    0  0.00000000000E+00  0.00000000000E+00  0.91994293402E+03  0.26479189075E+04  0.24829779578E+04 0.  0.
        5    1    3    3  502    0  0.10917575837E+04 -0.51786732063E+03  0.76376630528E+03  0.14295041946E+04  0.46999998093E+01 0.  1.
       -5    1    3    3    0  502 -0.10917575837E+04  0.51786732063E+03  0.15617662873E+03  0.12184147129E+04  0.46999998093E+01 0. -1.
</event>
<event>
 5   0  0.1010338E-05  0.2531431E+04  0.7818609E-02  0.8391873E-01
       -1   -1    0    0    0  501  0.00000000000E+00  0.00000000000E+00  0.59030578325E+03  0.59030578327E+03  0.50400001928E-02 0.  1.
        1   -1    0    0  501    0  0.00000000000E+00  0.00000000000E+00 -0.27139090443E+04  0.27139090443E+04  0.50400001928E-02 0. -1.
    10030    2    1    2    0    0  0.00000000000E+00  0.00000000000E+00 -0.21236032611E+04  0.33042148276E+04  0.25314313770E+04 0.  0.
        2    1    3    3  502    0  0.72838675944E+03  0.10229511168E+04 -0.12684310601E+04  0.17849071721E+04  0.25500000920E-02 0. -1.
       -2    1    3    3    0  502 -0.72838675944E+03 -0.10229511168E+04 -0.85517220092E+03  0.15193076555E+04  0.25500000920E-02 0.  1.
</event>
<event>
 5   0  0.1039688E-05  0.2531634E+04  0.7818609E-02  0.8391802E-01
       -1   -1    0    0    0  501  0.00000000000E+00  0.00000000000E+00  0.10663937884E+04  0.10663937885E+04  0.50400001928E-02 0. -1.
        1   -1    0    0  501    0  0.00000000000E+00  0.00000000000E+00 -0.15025339642E+04  0.15025339642E+04  0.50400001928E-02 0.  1.
    10030    2    1    2    0    0  0.00000000000E+00  0.00000000000E+00 -0.43614017577E+03  0.25689277527E+04  0.25316341650E+04 0.  0.
        3    1    3    3  502    0  0.80361656184E+03  0.39977232764E+03 -0.11237852575E+04  0.14382318337E+04  0.10100000352E+00 0.  1.
       -3    1    3    3    0  502 -0.80361656184E+03 -0.39977232764E+03  0.68764508174E+03  0.11306959189E+04  0.10100000352E+00 0. -1.
</event>
<event>
 5   0  0.2441340E-05  0.2494766E+04  0.7818609E-02  0.8404852E-01
       -2   -1    0    0    0  501  0.00000000000E+00  0.00000000000E+00  0.91416405692E+03  0.91416405693E+03  0.25500000920E-02 0.  1.
        2   -1    0    0  501    0  0.00000000000E+00  0.00000000000E+00 -0.17020627414E+04  0.17020627414E+04  0.25500000920E-02 0. -1.
    10030    2    1    2    0    0  0.00000000000E+00  0.00000000000E+00 -0.78789868452E+03  0.26162267984E+04  0.24947661861E+04 0.  0.
        3    1    3    3  502    0 -0.34174685589E+03 -0.94696817430E+03  0.37840281386E+03  0.10755130573E+04  0.10100000352E+00 0.  1.
       -3    1    3    3    0  502  0.34174685589E+03  0.94696817430E+03 -0.11663014984E+04  0.15407137411E+04  0.10100000352E+00 0. -1.
</event>
<event>
 5   0  0.2345143E-05  0.2495023E+04  0.7818609E-02  0.8404761E-01
       -2   -1    0    0    0  501  0.00000000000E+00  0.00000000000E+00  0.10332760310E+04  0.10332760310E+04  0.25500000920E-02 0.  1.
        2   -1    0    0  501    0  0.00000000000E+00  0.00000000000E+00 -0.15061661671E+04  0.15061661671E+04  0.25500000920E-02 0. -1.
    10030    2    1    2    0    0  0.00000000000E+00  0.00000000000E+00 -0.47289013618E+03  0.25394421981E+04  0.24950233659E+04 0.  0.
        5    1    3    3  502    0 -0.39246161074E+02 -0.17271959896E+03  0.10204039604E+04  0.10356730437E+04  0.46999998093E+01 0.  1.
       -5    1    3    3    0  502  0.39246161074E+02  0.17271959896E+03 -0.14932940966E+04  0.15037691544E+04  0.46999998093E+01 0. -1.
</event>
<event>
 5   0  0.2452457E-05  0.2489102E+04  0.7818609E-02  0.8406878E-01
       -2   -1    0    0    0  501  0.00000000000E+00  0.00000000000E+00  0.15024338323E+04  0.15024338323E+04  0.25500000920E-02 0. -1.
        2   -1    0    0  501    0  0.00000000000E+00  0.00000000000E+00 -0.10309319198E+04  0.10309319198E+04  0.25500000920E-02 0.  1.
    10030    2    1    2    0    0  0.00000000000E+00  0.00000000000E+00  0.47150191242E+03  0.25333657521E+04  0.24891018421E+04 0.  0.
        1    1    3    3  502    0 -0.66481224199E+03  0.10314485665E+04  0.44691466071E+03  0.13059839878E+04  0.50400001928E-02 0.  1.
       -1    1    3    3    0  502  0.66481224199E+03 -0.10314485665E+04  0.24587251711E+02  0.12273817643E+04  0.50400001928E-02 0. -1.
</event>
<event>
 5   0  0.1015327E-05  0.2501314E+04  0.7818609E-02  0.8402518E-01
        1   -1    0    0  501    0  0.00000000000E+00  0.00000000000E+00  0.19879942085E+04  0.19879942085E+04  0.50400001928E-02 0.  1.
       -1   -1    0    0    0  501  0.00000000000E+00  0.00000000000E+00 -0.78679454987E+03  0.78679454988E+03  0.50400001928E-02 0. -1.
    10030    2    1    2    0    0  0.00000000000E+00  0.00000000000E+00  0.12011996587E+04  0.27747887584E+04  0.25013140614E+04 0.  0.
        4    1    3    3  502    0 -0.84676863170E+03  0.23338588076E+03 -0.38705203675E+03  0.95984216256E+03  0.12699999809E+01 0. -1.
       -4    1    3    3    0  502  0.84676863170E+03 -0.23338588076E+03  0.15882516954E+04  0.18149465959E+04  0.12699999809E+01 0.  1.
</event>
<event>
 5   0  0.1002753E-05  0.2490014E+04  0.7818609E-02  0.8406552E-01
        1   -1    0    0  501    0  0.00000000000E+00  0.00000000000E+00  0.14076332531E+04  0.14076332531E+04  0.50400001928E-02 0. -1.
       -1   -1    0    0    0  501  0.00000000000E+00  0.00000000000E+00 -0.11011693252E+04  0.11011693252E+04  0.50400001928E-02 0.  1.
    10030    2    1    2    0    0  0.00000000000E+00  0.00000000000E+00  0.30646392791E+03  0.25088025783E+04  0.24900141039E+04 0.  0.
        5    1    3    3  502    0 -0.21769948831E+03  0.39433818754E+03  0.13226467893E+04  0.13972516927E+04  0.46999998093E+01 0. -1.
       -5    1    3    3    0  502  0.21769948831E+03 -0.39433818754E+03 -0.10161828614E+04  0.11115508856E+04  0.46999998093E+01 0.  1.
</event>
<event>
 5   0  0.1039688E-05  0.2540130E+04  0.7818609E-02  0.8388827E-01
        1   -1    0    0  501    0  0.00000000000E+00  0.00000000000E+00  0.76630947843E+03  0.76630947844E+03  0.50400001928E-02 0.  1.
       -1   -1    0    0    0  501  0.00000000000E+00  0.00000000000E+00 -0.21049792033E+04  0.21049792033E+04  0.50400001928E-02 0. -1.
    10030    2    1    2    0    0  0.00000000000E+00  0.00000000000E+00 -0.13386697249E+04  0.28712886818E+04  0.25401303238E+04 0.  0.
        3    1    3    3  502    0 -0.23651699029E+03  0.28989185899E+03 -0.20412751050E+04  0.20752786900E+04  0.10100000352E+00 0. -1.
       -3    1    3    3    0  502  0.23651699029E+03 -0.28989185899E+03  0.70260538013E+03  0.79600999176E+03  0.10100000352E+00 0.  1.
</event>
<event>
 5   0  0.2388326E-05  0.2512101E+04  0.7818609E-02  0.8398687E-01
        2   -1    0    0  501    0  0.00000000000E+00  0.00000000000E+00  0.15065319484E+04  0.15065319484E+04  0.25500000920E-02 0. -1.
       -2   -1    0    0    0  501  0.00000000000E+00  0.00000000000E+00 -0.10472150673E+04  0.10472150673E+04  0.25500000920E-02 0.  1.
    10030    2    1    2    0    0  0.00000000000E+00  0.00000000000E+00  0.45931688109E+03  0.25537470157E+04  0.25121010774E+04 0.  0.
        2    1    3    3  502    0  0.32008025752E+03  0.15560886037E+03 -0.99488469895E+03  0.10566272062E+04  0.25500000920E-02 0.  1.
       -2    1    3    3    0  502 -0.32008025752E+03 -0.15560886037E+03  0.14542015800E+04  0.14971198095E+04  0.25500000920E-02 0. -1.
</event>
<event>
 5   0  0.1039688E-05  0.2516941E+04  0.7818609E-02  0.8396975E-01
        1   -1    0    0  501    0  0.00000000000E+00  0.00000000000E+00  0.20569436940E+04  0.20569436940E+04  0.50400001928E-02 0.  1.
       -1   -1    0    0    0  501  0.00000000000E+00  0.00000000000E+00 -0.76995212192E+03  0.76995212194E+03  0.50400001928E-02 0. -1.
    10030    2    1    2    0    0  0.00000000000E+00  0.00000000000E+00  0.12869915720E+04  0.28268958159E+04  0.25169411291E+04 0.  0.
        3    1    3    3  502    0  0.38275283153E+03  0.11888572509E+04  0.46998184434E+03  0.13344527857E+04  0.10100000352E+00 0. -1.
       -3    1    3    3    0  502 -0.38275283153E+03 -0.11888572509E+04  0.81700972770E+03  0.14924430302E+04  0.10100000352E+00 0.  1.
</event>
<event>
 5   0  0.1010338E-05  0.2501733E+04  0.7818609E-02  0.8402368E-01
        1   -1    0    0  501    0  0.00000000000E+00  0.00000000000E+00  0.24891407005E+04  0.24891407005E+04  0.50400001928E-02 0. -1.
       -1   -1    0    0    0  501  0.00000000000E+00  0.00000000000E+00 -0.62859727336E+03  0.62859727338E+03  0.50400001928E-02 0.  1.
    10030    2    1    2    0    0  0.00000000000E+00  0.00000000000E+00  0.18605434271E+04  0.31177379739E+04  0.25017330452E+04 0.  0.
        2    1    3    3  502    0 -0.43278533592E+03 -0.81448062625E+03 -0.12276438272E+03  0.93045845216E+03  0.25500000920E-02 0.  1.
       -2    1    3    3    0  502  0.43278533592E+03  0.81448062625E+03  0.19833078099E+04  0.21872795217E+04  0.25500000920E-02 0. -1.
</event>
<event>
 5   0  0.1015327E-05  0.2537713E+04  0.7818609E-02  0.8389672E-01
        1   -1    0    0  501    0  0.00000000000E+00  0.00000000000E+00  0.13150891332E+04  0.13150891332E+04  0.50400001928E-02 0.  1.
       -1   -1    0    0    0  501  0.00000000000E+00  0.00000000000E+00 -0.12242495398E+04  0.12242495398E+04  0.50400001928E-02 0. -1.
    10030    2    1    2    0    0  0.00000000000E+00  0.00000000000E+00  0.90839593421E+02  0.25393386730E+04  0.25377133535E+04 0.  0.
        4    1    3    3  502    0  0.53391334162E+03  0.60529046148E+03  0.10251054055E+04  0.13047155646E+04  0.12699999809E+01 0.  1.
       -4    1    3    3    0  502 -0.53391334162E+03 -0.60529046148E+03 -0.93426581213E+03  0.12346231084E+04  0.12699999809E+01 0. -1.
</event>
<event>
 5   0  0.2441340E-05  0.2529484E+04  0.7818609E-02  0.8392556E-01
       -2   -1    0    0    0  501  0.00000000000E+00  0.00000000000E+00  0.11063128770E+04  0.11063128770E+04  0.25500000920E-02 0.  1.
        2   -1    0    0  501    0  0.00000000000E+00  0.00000000000E+00 -0.14458587539E+04  0.14458587539E+04  0.25500000920E-02 0. -1.
    10030    2    1    2    0    0  0.00000000000E+00  0.00000000000E+00 -0.33954587688E+03  0.25521716309E+04  0.25294838665E+04 0.  0.
        3    1    3    3  502    0 -0.55959480152E+03 -0.79245917135E+03 -0.98849063110E+03  0.13850096094E+04  0.10100000352E+00 0. -1.
       -3    1    3    3    0  502  0.55959480152E+03  0.79245917135E+03  0.64894475422E+03  0.11671620215E+04  0.10100000352E+00 0.  1.
</event>
<event>
 5   0  0.2441340E-05  0.2509051E+04  0.7818609E-02  0.8399768E-01
        2   -1    0    0  501    0  0.00000000000E+00  0.00000000000E+00  0.19459102373E+04  0.19459102373E+04  0.25500000920E-02 0.  1.
       -2   -1    0    0    0  501  0.00000000000E+00  0.00000000000E+00 -0.80879072740E+03  0.80879072740E+03  0.25500000920E-02 0. -1.
    10030    2    1    2    0    0  0.00000000000E+00  0.00000000000E+00  0.11371195099E+04  0.27547009647E+04  0.25090509411E+04 0.  0.
        3    1    3    3  502    0  0.66896180969E+03  0.11178254656E+03 -0.59014882921E+03  0.89904443236E+03  0.10100000352E+00 0. -1.
       -3    1    3    3    0  502 -0.66896180969E+03 -0.11178254656E+03  0.17272683391E+04  0.18556565323E+04  0.10100000352E+00 0.  1.
</event>
<event>
 5   0  0.1010338E-05  0.2469294E+04  0.7818609E-02  0.8414007E-01
        1   -1    0    0  501    0  0.00000000000E+00  0.00000000000E+00  0.11936451326E+04  0.11936451326E+04  0.50400001928E-02 0. -1.
       -1   -1    0    0    0  501  0.00000000000E+00  0.00000000000E+00 -0.12770569732E+04  0.12770569732E+04  0.50400001928E-02 0.  1.
    10030    2    1    2    0    0  0.00000000000E+00  0.00000000000E+00 -0.83411840531E+02  0.24707021058E+04  0.24692936967E+04 0.  0.
        2    1    3    3  502    0 -0.29675822421E+03  0.35795576218E+03 -0.11861043461E+04  0.12739863780E+04  0.25500000920E-02 0.  1.
       -2    1    3    3    0  502  0.29675822421E+03 -0.35795576218E+03  0.11026925056E+04  0.11967157278E+04  0.25500000920E-02 0. -1.
</event>
<event>
 5   0  0.1002753E-05  0.2511246E+04  0.7818609E-02  0.8398990E-01
        1   -1    0    0  501    0  0.00000000000E+00  0.00000000000E+00  0.14612935833E+04  0.14612935833E+04  0.50400001928E-02 0.  1.
       -1   -1    0    0    0  501  0.00000000000E+00  0.00000000000E+00 -0.10788994754E+04  0.10788994754E+04  0.50400001928E-02 0. -1.
    10030    2    1    2    0    0  0.00000000000E+00  0.00000000000E+00  0.38239410791E+03  0.25401930587E+04  0.25112458107E+04 0.  0.
        5    1    3    3  502    0 -0.10107406642E+04  0.24696050567E+02 -0.56193914667E+03  0.11567213493E+04  0.46999998093E+01 0. -1.
       -5    1    3    3    0  502  0.10107406642E+04 -0.24696050567E+02  0.94433325458E+03  0.13834717095E+04  0.46999998093E+01 0.  1.
</event>
<event>
 5   0  0.2345143E-05  0.2501074E+04  0.7818609E-02  0.8402603E-01
        2   -1    0    0  501    0  0.00000000000E+00  0.00000000000E+00  0.10986844500E+04  0.10986844500E+04  0.25500000920E-02 0.  1.
       -2   -1    0    0    0  501  0.00000000000E+00  0.00000000000E+00 -0.14233771296E+04  0.14233771296E+04  0.25500000920E-02 0. -1.
    10030    2    1    2    0    0  0.00000000000E+00  0.00000000000E+00 -0.32469267961E+03  0.25220615795E+04  0.25010736244E+04 0.  0.
        5    1    3    3  502    0 -0.38421323501E+03  0.92164588438E+03 -0.92150467060E+03  0.13587655773E+04  0.46999998093E+01 0.  1.
       -5    1    3    3    0  502  0.38421323501E+03 -0.92164588438E+03  0.59681199100E+03  0.11632960022E+04  0.46999998093E+01 0. -1.
</event>
<event>
 5   0  0.2452457E-05  0.2478271E+04  0.7818609E-02  0.8410768E-01
       -2   -1    0    0    0  501  0.00000000000E+00  0.00000000000E+00  0.85149260412E+03  0.85149260412E+03  0.25500000920E-02 0. -1.
        2   -1    0    0  501    0  0.00000000000E+00  0.00000000000E+00 -0.18032535922E+04  0.18032535922E+04  0.25500000920E-02 0.  1.
    10030    2    1    2    0    0  0.00000000000E+00  0.00000000000E+00 -0.95176098810E+03  0.26547461963E+04  0.24782712500E+04 0.  0.
        1    1    3    3  502    0  0.45746134466E+03 -0.77122451786E+03  0.44023733914E+03  0.99893295751E+03  0.50400001928E-02 0. -1.
       -1    1    3    3    0  502 -0.45746134466E+03  0.77122451786E+03 -0.13919983272E+04  0.16558132388E+04  0.50400001928E-02 0.  1.
</event>
<event>
 5   0  0.8166500E-06  0.2532218E+04  0.7818609E-02  0.8391597E-01
        3   -1    0    0  501    0  0.00000000000E+00  0.00000000000E+00  0.13182443147E+04  0.13182443185E+04  0.10100000352E+00 0. -1.
       -3   -1    0    0    0  501  0.00000000000E+00  0.00000000000E+00 -0.12160355201E+04  0.12160355243E+04  0.10100000352E+00 0.  1.
    10030    2    1    2    0    0  0.00000000000E+00  0.00000000000E+00  0.10220879453E+03  0.25342798428E+04  0.25322179377E+04 0.  0.
        3    1    3    3  502    0 -0.73411332173E+03  0.60299305944E+03 -0.78654122052E+03  0.12333572478E+04  0.10100000352E+00 0.  1.
       -3    1    3    3    0  502  0.73411332173E+03 -0.60299305944E+03  0.88875001505E+03  0.13009225951E+04  0.10100000352E+00 0. -1.
</event>
<event>
 5   0  0.1015327E-05  0.2494210E+04  0.7818609E-02  0.8405051E-01
        1   -1    0    0  501    0  0.00000000000E+00  0.00000000000E+00  0.14952510732E+04  0.14952510732E+04  0.50400001928E-02 0.  1.
       -1   -1    0    0    0  501  0.00000000000E+00  0.00000000000E+00 -0.10401403793E+04  0.10401403793E+04  0.50400001928E-02 0. -1.
    10030    2    1    2    0    0  0.00000000000E+00  0.00000000000E+00  0.45511069394E+03  0.25353914525E+04  0.24942101101E+04 0.  0.
        4    1    3    3  502    0  0.76894565670E+03 -0.57073647303E+03  0.10396525812E+04  0.14134697192E+04  0.12699999809E+01 0.  1.
       -4    1    3    3    0  502 -0.76894565670E+03  0.57073647303E+03 -0.58454188730E+03  0.11219217332E+04  0.12699999809E+01 0. -1.
</event>
<event>
 5   0  0.2432309E-05  0.2502933E+04  0.7818609E-02  0.8401941E-01
       -2   -1    0    0    0  501  0.00000000000E+00  0.00000000000E+00  0.66056404339E+03  0.66056404339E+03  0.25500000920E-02 0. -1.
        2   -1    0    0  501    0  0.00000000000E+00  0.00000000000E+00 -0.23709563917E+04  0.23709563917E+04  0.25500000920E-02 0.  1.
    10030    2    1    2    0    0  0.00000000000E+00  0.00000000000E+00 -0.17103923483E+04  0.30315204351E+04  0.25029331120E+04 0.  0.
        4    1    3    3  502    0 -0.12269647281E+04  0.28607059412E+02 -0.55874931525E+03  0.13485040667E+04  0.12699999809E+01 0. -1.
       -4    1    3    3    0  502  0.12269647281E+04 -0.28607059412E+02 -0.11516430331E+04  0.16830163684E+04  0.12699999809E+01 0.  1.
</event>
<event>
 5   0  0.2441340E-05  0.2523524E+04  0.7818609E-02  0.8394653E-01
        2   -1    0    0  501    0  0.00000000000E+00  0.00000000000E+00  0.18626216768E+04  0.18626216768E+04  0.25500000920E-02 0.  1.
       -2   -1    0    0    0  501  0.00000000000E+00  0.00000000000E+00 -0.85473221945E+03  0.85473221946E+03  0.25500000920E-02 0. -1.
    10030    2    1    2    0    0  0.00000000000E+00  0.00000000000E+00  0.10078894573E+04  0.27173538962E+04  0.25235235365E+04 0.  0.
        3    1    3    3  502    0 -0.13945910733E+02  0.80784047927E+03  0.15475291811E+04  0.17457512151E+04  0.10100000352E+00 0.  1.
       -3    1    3    3    0  502  0.13945910733E+02 -0.80784047927E+03 -0.53963972377E+03  0.97160268116E+03  0.10100000352E+00 0. -1.
</event>
<event>
 5   0  0.2345143E-05  0.2377339E+04  0.7818609E-02  0.8448037E-01
       -2   -1    0    0    0  501  0.00000000000E+00  0.00000000000E+00  0.13222776694E+04  0.13222776695E+04  0.25500000920E-02 0. -1.
        2   -1    0    0  501    0  0.00000000000E+00  0.00000000000E+00 -0.10685616613E+04  0.10685616613E+04  0.25500000920E-02 0.  1.
    10030    2    1    2    0    0  0.00000000000E+00  0.00000000000E+00  0.25371600816E+03  0.23908393307E+04  0.23773390361E+04 0.  0.
        5    1    3    3  502    0 -0.43356126086E+03 -0.38594286426E+03  0.11700459364E+04  0.13061228291E+04  0.46999998093E+01 0. -1.
       -5    1    3    3    0  502  0.43356126086E+03  0.38594286426E+03 -0.91632992828E+03  0.10847165016E+04  0.46999998093E+01 0.  1.
</event>
<event>
 5   0  0.2345143E-05  0.2500706E+04  0.7818609E-02  0.8402734E-01
        2   -1    0    0  501    0  0.00000000000E+00  0.00000000000E+00  0.20229090947E+04  0.20229090947E+04  0.25500000920E-02 0. -1.
       -2   -1    0    0    0  501  0.00000000000E+00  0.00000000000E+00 -0.77283871018E+03  0.77283871019E+03  0.25500000920E-02 0.  1.
    10030    2    1    2    0    0  0.00000000000E+00  0.00000000000E+00  0.12500703845E+04  0.27957478049E+04  0.25007058648E+04 0.  0.
        5    1    3    3  502    0 -0.11069226334E+04  0.56794819901E+03  0.76430152870E+03  0.14601444415E+04  0.46999998093E+01 0. -1.
       -5    1    3    3    0  502  0.11069226334E+04 -0.56794819901E+03  0.48576885581E+03  0.13356033634E+04  0.46999998093E+01 0.  1.
</event>
<event>
 5   0  0.2345143E-05  0.2527633E+04  0.7818609E-02  0.8393207E-01
       -2   -1    0    0    0  501  0.00000000000E+00  0.00000000000E+00  0.65258457089E+03  0.65258457089E+03  0.25500000920E-02 0. -1.
        2   -1    0    0  501    0  0.00000000000E+00  0.00000000000E+00 -0.24475484511E+04  0.24475484511E+04  0.25500000920E-02 0.  1.
    10030    2    1    2    0    0  0.00000000000E+00  0.00000000000E+00 -0.17949638802E+04  0.31001330220E+04  0.25276331662E+04 0.  0.
        5    1    3    3  502    0 -0.61108951115E+03  0.18843789270E+03 -0.22344592581E+04  0.23241707115E+04  0.46999998093E+01 0.  1.
       -5    1    3    3    0  502  0.61108951115E+03 -0.18843789270E+03  0.43949537792E+03  0.77596231046E+03  0.46999998093E+01 0. -1.
</event>
<event>
 5   0  0.1002753E-05  0.2487033E+04  0.7818609E-02  0.8407620E-01
       -1   -1    0    0    0  501  0.00000000000E+00  0.00000000000E+00  0.92115255264E+03  0.92115255266E+03  0.50400001928E-02 0. -1.
        1   -1    0    0  501    0  0.00000000000E+00  0.00000000000E+00 -0.16786941499E+04  0.16786941499E+04  0.50400001928E-02 0.  1.
    10030    2    1    2    0    0  0.00000000000E+00  0.00000000000E+00 -0.75754159722E+03  0.25998467025E+04  0.24870330929E+04 0.  0.
        5    1    3    3  502    0  0.66630340457E+02  0.65024210389E+03  0.72706912379E+03  0.97770445264E+03  0.46999998093E+01 0. -1.
       -5    1    3    3    0  502 -0.66630340457E+02 -0.65024210389E+03 -0.14846107210E+04  0.16221422499E+04  0.46999998093E+01 0.  1.
</event>
<event>
 5   0  0.2452457E-05  0.2501510E+04  0.7818609E-02  0.8402448E-01
        2   -1    0    0  501    0  0.00000000000E+00  0.00000000000E+00  0.30462048811E+04  0.30462048811E+04  0.25500000920E-02 0. -1.
       -2   -1    0    0    0  501  0.00000000000E+00  0.00000000000E+00 -0.51355313507E+03  0.51355313508E+03  0.25500000920E-02 0.  1.
    10030    2    1    2    0    0  0.00000000000E+00  0.00000000000E+00  0.25326517461E+04  0.35597580162E+04  0.25015099974E+04 0.  0.
        1    1    3    3  502    0 -0.37844472825E+03  0.48890132438E+03  0.28135501412E+04  0.28806786205E+04  0.50400001928E-02 0. -1.
       -1    1    3    3    0  502  0.37844472825E+03 -0.48890132438E+03 -0.28089839513E+03  0.67907939575E+03  0.50400001928E-02 0.  1.
</event>
<event>
 5   0  0.1010338E-05  0.2485272E+04  0.7818609E-02  0.8408251E-01
        1   -1    0    0  501    0  0.00000000000E+00  0.00000000000E+00  0.93807196512E+03  0.93807196513E+03  0.50400001928E-02 0. -1.
       -1   -1    0    0    0  501  0.00000000000E+00  0.00000000000E+00 -0.16460829930E+04  0.16460829930E+04  0.50400001928E-02 0.  1.
    10030    2    1    2    0    0  0.00000000000E+00  0.00000000000E+00 -0.70801102784E+03  0.25841549581E+04  0.24852720640E+04 0.  0.
        2    1    3    3  502    0  0.53558350303E+03  0.61292320377E+03  0.62229894657E+03  0.10245879764E+04  0.25500000920E-02 0. -1.
       -2    1    3    3    0  502 -0.53558350303E+03 -0.61292320377E+03 -0.13303099744E+04  0.15595669817E+04  0.25500000920E-02 0.  1.
</event>
<event>
 5   0  0.1015327E-05  0.2471018E+04  0.7818609E-02  0.8413384E-01
       -1   -1    0    0    0  501  0.00000000000E+00  0.00000000000E+00  0.59021291932E+03  0.59021291935E+03  0.50400001928E-02 0. -1.
        1   -1    0    0  501    0  0.00000000000E+00  0.00000000000E+00 -0.25863247457E+04  0.25863247457E+04  0.50400001928E-02 0.  1.
    10030    2    1    2    0    0  0.00000000000E+00  0.00000000000E+00 -0.19961118264E+04  0.31765376650E+04  0.24710178296E+04 0.  0.
        4    1    3    3  502    0 -0.95416782310E+03  0.36003339834E+03 -0.18946255209E+04  0.21516662752E+04  0.12699999809E+01 0.  1.
       -4    1    3    3    0  502  0.95416782310E+03 -0.36003339834E+03 -0.10148630545E+03  0.10248713898E+04  0.12699999809E+01 0. -1.
</event>
<event>
 5   0  0.1039688E-05  0.2495153E+04  0.7818609E-02  0.8404714E-01
       -1   -1    0    0    0  501  0.00000000000E+00  0.00000000000E+00  0.84582575879E+03  0.84582575880E+03  0.50400001928E-02 0.  1.
        1   -1    0    0  501    0  0.00000000000E+00  0.00000000000E+00 -0.18401503074E+04  0.18401503074E+04  0.50400001928E-02 0. -1.
    10030    2    1    2    0    0  0.00000000000E+00  0.00000000000E+00 -0.99432454859E+03  0.26859760662E+04  0.24951525244E+04 0.  0.
        3    1    3    3  502    0 -0.87992126236E+03 -0.84441302286E+03 -0.78024058298E+03  0.14477811156E+04  0.10100000352E+00 0.  1.
       -3    1    3    3    0  502  0.87992126236E+03  0.84441302286E+03 -0.21408396561E+03  0.12381949506E+04  0.10100000352E+00 0. -1.
</event>
<event>
 5   0  0.2452457E-05  0.2498886E+04  0.7818609E-02  0.8403383E-01
       -2   -1    0    0    0  501  0.00000000000E+00  0.00000000000E+00  0.80318842204E+03  0.80318842204E+03  0.25500000920E-02 0. -1.
        2   -1    0    0  501    0  0.00000000000E+00  0.00000000000E+00 -0.19436375612E+04  0.19436375612E+04  0.25500000920E-02 0.  1.
    10030    2    1    2    0    0  0.00000000000E+00  0.00000000000E+00 -0.11404491391E+04  0.27468259832E+04  0.24988855002E+04 0.  0.
        1    1    3    3  502    0 -0.84533149336E+03 -0.87048730041E+03 -0.24271274869E+03  0.12374340193E+04  0.50400001928E-02 0. -1.
       -1    1    3    3    0  502  0.84533149336E+03  0.87048730041E+03 -0.89773639043E+03  0.15093919639E+04  0.50400001928E-02 0.  1.
</event>
<event>
 5   0  0.1015327E-05  0.2511779E+04  0.7818609E-02  0.8398801E-01
       -1   -1    0    0    0  501  0.00000000000E+00  0.00000000000E+00  0.71602857278E+03  0.71602857280E+03  0.50400001928E-02 0. -1.
        1   -1    0    0  501    0  0.00000000000E+00  0.00000000000E+00 -0.22027878038E+04  0.22027878038E+04  0.50400001928E-02 0.  1.
    10030    2    1    2    0    0  0.00000000000E+00  0.00000000000E+00 -0.14867592310E+04  0.29188163766E+04  0.25117794547E+04 0.  0.
        4    1    3    3  502    0  0.82595109950E+03  0.40551944906E+03  0.24989630011E+03  0.95346264533E+03  0.12699999809E+01 0. -1.
       -4    1    3    3    0  502 -0.82595109950E+03 -0.40551944906E+03 -0.17366555311E+04  0.19653537313E+04  0.12699999809E+01 0.  1.
</event>
<event>
 5   0  0.1015327E-05  0.2487229E+04  0.7818609E-02  0.8407549E-01
       -1   -1    0    0    0  501  0.00000000000E+00  0.00000000000E+00  0.82213332205E+03  0.82213332207E+03  0.50400001928E-02 0.  1.
        1   -1    0    0  501    0  0.00000000000E+00  0.00000000000E+00 -0.18811756697E+04  0.18811756697E+04  0.50400001928E-02 0. -1.
    10030    2    1    2    0    0  0.00000000000E+00  0.00000000000E+00 -0.10590423477E+04  0.27033089918E+04  0.24872291432E+04 0.  0.
        4    1    3    3  502    0  0.57302381203E+03 -0.14495511372E+03  0.65970530977E+03  0.88576576068E+03  0.12699999809E+01 0.  1.
       -4    1    3    3    0  502 -0.57302381203E+03  0.14495511372E+03 -0.17187476574E+04  0.18175432311E+04  0.12699999809E+01 0. -1.
</event>
<event>
 5   0  0.1002753E-05  0.2392739E+04  0.7818609E-02  0.8442227E-01
       -1   -1    0    0    0  501  0.00000000000E+00  0.00000000000E+00  0.13429634380E+04  0.13429634380E+04  0.50400001928E-02 0. -1.
        1   -1    0    0  501    0  0.00000000000E+00  0.00000000000E+00 -0.10657768935E+04  0.10657768935E+04  0.50400001928E-02 0.  1.
    10030    2    1    2    0    0  0.00000000000E+00  0.00000000000E+00  0.27718654449E+03  0.24087403316E+04  0.23927385157E+04 0.  0.
        5    1    3    3  502    0  0.22453751881E+03 -0.23908541646E+03 -0.10196219333E+04  0.10710881900E+04  0.46999998093E+01 0.  1.
       -5    1    3    3    0  502 -0.22453751881E+03  0.23908541646E+03  0.12968084778E+04  0.13376521416E+04  0.46999998093E+01 0. -1.
</event>
<event>
 5   0  0.2388326E-05  0.2521355E+04  0.7818609E-02  0.8395417E-01
       -2   -1    0    0    0  501  0.00000000000E+00  0.00000000000E+00  0.11692478052E+04  0.11692478052E+04  0.25500000920E-02 0.  1.
        2   -1    0    0  501    0  0.00000000000E+00  0.00000000000E+00 -0.13592565004E+04  0.13592565004E+04  0.25500000920E-02 0. -1.
    10030    2    1    2    0    0  0.00000000000E+00  0.00000000000E+00 -0.19000869512E+03  0.25285043056E+04  0.25213549372E+04 0.  0.
        2    1    3    3  502    0 -0.62474527307E+03 -0.14462699941E+03 -0.11834778215E+04  0.13460473168E+04  0.25500000920E-02 0. -1.
       -2    1    3    3    0  502  0.62474527307E+03  0.14462699941E+03  0.99346912638E+03  0.11824569888E+04  0.25500000920E-02 0.  1.
</event>
<event>
 5   0  0.2432309E-05  0.2496818E+04  0.7818609E-02  0.8404120E-01
       -2   -1    0    0    0  501  0.00000000000E+00  0.00000000000E+00  0.15453894349E+04  0.15453894349E+04  0.25500000920E-02 0. -1.
        2   -1    0    0  501    0  0.00000000000E+00  0.00000000000E+00 -0.10084997502E+04  0.10084997502E+04  0.25500000920E-02 0.  1.
    10030    2    1    2    0    0  0.00000000000E+00  0.00000000000E+00  0.53688968468E+03  0.25538891850E+04  0.24968178620E+04 0.  0.
        4    1    3    3  502    0 -0.16389344335E+03 -0.11505369013E+04  0.73485785164E+03  0.13749959625E+04  0.12699999809E+01 0. -1.
       -4    1    3    3    0  502  0.16389344335E+03  0.11505369013E+04 -0.19796816696E+03  0.11788932225E+04  0.12699999809E+01 0.  1.
</event>
<event>
 5   0  0.2345143E-05  0.2561135E+04  0.7818609E-02  0.8381524E-01
        2   -1    0    0  501    0  0.00000000000E+00  0.00000000000E+00  0.16436113623E+04  0.16436113623E+04  0.25500000920E-02 0.  1.
       -2   -1    0    0    0  501  0.00000000000E+00  0.00000000000E+00 -0.99771345158E+03  0.99771345158E+03  0.25500000920E-02 0. -1.
    10030    2    1    2    0    0  0.00000000000E+00  0.00000000000E+00  0.64589791071E+03  0.26413248139E+04  0.25611350338E+04 0.  0.
        5    1    3    3  502    0  0.53815815390E+03 -0.94409950950E+03 -0.37567753257E+03  0.11498233694E+04  0.46999998093E+01 0.  1.
       -5    1    3    3    0  502 -0.53815815390E+03  0.94409950950E+03  0.10215754433E+04  0.14915014444E+04  0.46999998093E+01 0. -1.
</event>
<event>
 5   0  0.2441340E-05  0.2503167E+04  0.7818609E-02  0.8401858E-01
       -2   -1    0    0    0  501  0.00000000000E+00  0.00000000000E+00  0.79728935794E+03  0.79728935795E+03  0.25500000920E-02 0. -1.
        2   -1    0    0  501    0  0.00000000000E+00  0.00000000000E+00 -0.19647342766E+04  0.19647342766E+04  0.25500000920E-02 0.  1.
    10030    2    1    2    0    0  0.00000000000E+00  0.00000000000E+00 -0.11674449187E+04  0.27620236346E+04  0.25031673775E+04 0.  0.
        3    1    3    3  502    0 -0.21730376149E+03 -0.52439902125E+03 -0.18145315845E+04  0.19012469960E+04  0.10100000352E+00 0.  1.
       -3    1    3    3    0  502  0.21730376149E+03  0.52439902125E+03  0.64708666584E+03  0.86077663860E+03  0.10100000352E+00 0. -1.
</event>
<event>
 5   0  0.2345143E-05  0.2519464E+04  0.7818609E-02  0.8396084E-01
        2   -1    0    0  501    0  0.00000000000E+00  0.00000000000E+00  0.19961169502E+04  0.19961169502E+04  0.25500000920E-02 0. -1.
       -2   -1    0    0    0  501  0.00000000000E+00  0.00000000000E+00 -0.79500561041E+03  0.79500561041E+03  0.25500000920E-02 0.  1.
    10030    2    1    2    0    0  0.00000000000E+00  0.00000000000E+00  0.12011113398E+04  0.27911225607E+04  0.25194635734E+04 0.  0.
        5    1    3    3  502    0 -0.98373347406E+03 -0.44192110333E+03 -0.12070188955E+03  0.10851805590E+04  0.46999998093E+01 0.  1.
       -5    1    3    3    0  502  0.98373347406E+03  0.44192110333E+03  0.13218132294E+04  0.17059420016E+04  0.46999998093E+01 0. -1.
</event>
<event>
 5   0  0.2388326E-05  0.2538803E+04  0.7818609E-02  0.8389291E-01
        2   -1    0    0  501    0  0.00000000000E+00  0.00000000000E+00  0.29158681265E+04  0.29158681265E+04  0.25500000920E-02 0. -1.
       -2   -1    0    0    0  501  0.00000000000E+00  0.00000000000E+00 -0.55262437465E+03  0.55262437465E+03  0.25500000920E-02 0.  1.
    10030    2    1    2    0    0  0.00000000000E+00  0.00000000000E+00  0.23632437518E+04  0.34684925011E+04  0.25388027099E+04 0.  0.
        2    1    3    3  502    0 -0.31557031118E+03 -0.63161357056E+03 -0.25960373423E+03  0.75227283790E+03  0.25500000920E-02 0.  1.
       -2    1    3    3    0  502  0.31557031118E+03  0.63161357056E+03  0.26228474860E+04  0.27162196632E+04  0.25500000920E-02 0. -1.
</event>
<event>
 5   0  0.1008073E-05  0.2519023E+04  0.7818609E-02  0.8396240E-01
       -1   -1    0    0    0  501  0.00000000000E+00  0.00000000000E+00  0.74666793403E+03  0.74666793405E+03  0.50400001928E-02 0.  1.
        1   -1    0    0  501    0  0.00000000000E+00  0.00000000000E+00 -0.21245979267E+04  0.21245979267E+04  0.50400001928E-02 0. -1.
    10030    2    1    2    0    0  0.00000000000E+00  0.00000000000E+00 -0.13779299927E+04  0.28712658608E+04  0.25190229412E+04 0.  0.
        1    1    3    3  502    0  0.32572044527E+03 -0.31674446469E+03 -0.20279406774E+04  0.20782117928E+04  0.50400001928E-02 0. -1.
       -1    1    3    3    0  502 -0.32572044527E+03  0.31674446469E+03  0.65001068478E+03  0.79305406798E+03  0.50400001928E-02 0.  1.
</event>
<event>
 5   0  0.1015327E-05  0.2530719E+04  0.7818609E-02  0.8392123E-01
       -1   -1    0    0    0  501  0.00000000000E+00  0.00000000000E+00  0.13284910845E+04  0.13284910845E+04  0.50400001928E-02 0. -1.
        1   -1    0    0  501    0  0.00000000000E+00  0.00000000000E+00 -0.12052281066E+04  0.12052281066E+04  0.50400001928E-02 0.  1.
    10030    2    1    2    0    0  0.00000000000E+00  0.00000000000E+00  0.12326297790E+03  0.25337191912E+04  0.25307191029E+04 0.  0.
        4    1    3    3  502    0  0.57498156419E+03 -0.11239314796E+04 -0.23953247866E+02  0.12626959813E+04  0.12699999809E+01 0.  1.
       -4    1    3    3    0  502 -0.57498156419E+03  0.11239314796E+04  0.14721622577E+03  0.12710232099E+04  0.12699999809E+01 0. -1.
</event>
<event>
 5   0  0.2432309E-05  0.2558249E+04  0.7818609E-02  0.8382523E-01
        2   -1    0    0  501    0  0.00000000000E+00  0.00000000000E+00  0.28080975179E+04  0.28080975179E+04  0.25500000920E-02 0. -1.
       -2   -1    0    0    0  501  0.00000000000E+00  0.00000000000E+00 -0.58265772105E+03  0.58265772106E+03  0.25500000920E-02 0.  1.
    10030    2    1    2    0    0  0.00000000000E+00  0.00000000000E+00  0.22254397968E+04  0.33907552390E+04  0.25582491671E+04 0.  0.
        4    1    3    3  502    0  0.15107861827E+03  0.13766112338E+03 -0.56087326848E+03  0.59695541708E+03  0.12699999809E+01 0.  1.
       -4    1    3    3    0  502 -0.15107861827E+03 -0.13766112338E+03  0.27863130653E+04  0.27937998219E+04  0.12699999809E+01 0. -1.
</event>
<event>
 5   0  0.2432309E-05  0.2494666E+04  0.7818609E-02  0.8404888E-01
       -2   -1    0    0    0  501  0.00000000000E+00  0.00000000000E+00  0.11037721438E+04  0.11037721438E+04  0.25500000920E-02 0. -1.
        2   -1    0    0  501    0  0.00000000000E+00  0.00000000000E+00 -0.14095658045E+04  0.14095658045E+04  0.25500000920E-02 0.  1.
    10030    2    1    2    0    0  0.00000000000E+00  0.00000000000E+00 -0.30579366069E+03  0.25133379483E+04  0.24946658854E+04 0.  0.
        4    1    3    3  502    0  0.61772889913E+03 -0.77688504172E+03 -0.91399708032E+03  0.13492707796E+04  0.12699999809E+01 0. -1.
       -4    1    3    3    0  502 -0.61772889913E+03  0.77688504172E+03  0.60820341963E+03  0.11640671688E+04  0.12699999809E+01 0.  1.
</event>
<event>
 5   0  0.1010338E-05  0.2505610E+04  0.7818609E-02  0.8400990E-01
        1   -1    0    0  501    0  0.00000000000E+00  0.00000000000E+00  0.12553362059E+04  0.12553362059E+04  0.50400001928E-02 0. -1.
       -1   -1    0    0    0  501  0.00000000000E+00  0.00000000000E+00 -0.12502791222E+04  0.12502791222E+04  0.50400001928E-02 0.  1.
    10030    2    1    2    0    0  0.00000000000E+00  0.00000000000E+00  0.50570837150E+01  0.25056153280E+04  0.25056102247E+04 0.  0.
        2    1    3    3  502    0  0.13312612110E+03 -0.10830033525E+04  0.61807981303E+03  0.12540500312E+04  0.25500000920E-02 0. -1.
       -2    1    3    3    0  502 -0.13312612110E+03  0.10830033525E+04 -0.61302272932E+03  0.12515652968E+04  0.25500000920E-02 0.  1.
</event>
<event>
 5   0  0.1010338E-05  0.2531344E+04  0.7818609E-02  0.8391903E-01
       -1   -1    0    0    0  501  0.00000000000E+00  0.00000000000E+00  0.14371770689E+04  0.14371770690E+04  0.50400001928E-02 0. -1.
        1   -1    0    0  501    0  0.00000000000E+00  0.00000000000E+00 -0.11146335174E+04  0.11146335174E+04  0.50400001928E-02 0.  1.
    10030    2    1    2    0    0  0.00000000000E+00  0.00000000000E+00  0.32254355151E+03  0.25518105864E+04  0.25313440948E+04 0.  0.
        2    1    3    3  502    0 -0.11108990487E+04 -0.14052595523E+03  0.75602624702E+03  0.13510810215E+04  0.25500000920E-02 0. -1.
       -2    1    3    3    0  502  0.11108990487E+04  0.14052595523E+03 -0.43348269552E+03  0.12007295649E+04  0.25500000920E-02 0.  1.
</event>
<event>
 5   0  0.2388326E-05  0.2482197E+04  0.7818609E-02  0.8409355E-01
        2   -1    0    0  501    0  0.00000000000E+00  0.00000000000E+00  0.24934681027E+04  0.24934681027E+04  0.25500000920E-02 0. -1.
       -2   -1    0    0    0  501  0.00000000000E+00  0.00000000000E+00 -0.61774434802E+03  0.61774434802E+03  0.25500000920E-02 0.  1.
    10030    2    1    2    0    0  0.00000000000E+00  0.00000000000E+00  0.18757237547E+04  0.31112124508E+04  0.24821972745E+04 0.  0.
        2    1    3    3  502    0 -0.76228602322E+03 -0.41247183999E+03  0.20512918943E+04  0.22268837949E+04  0.25500000920E-02 0. -1.
       -2    1    3    3    0  502  0.76228602322E+03  0.41247183999E+03 -0.17556813964E+03  0.88432865590E+03  0.25500000920E-02 0.  1.
</event>
<event>
 5   0  0.2441340E-05  0.2500954E+04  0.7818609E-02  0.8402646E-01
        2   -1    0    0  501    0  0.00000000000E+00  0.00000000000E+00  0.15971616439E+04  0.15971616439E+04  0.25500000920E-02 0. -1.
       -2   -1    0    0    0  501  0.00000000000E+00  0.00000000000E+00 -0.97904474340E+03  0.97904474340E+03  0.25500000920E-02 0.  1.
    10030    2    1    2    0    0  0.00000000000E+00  0.00000000000E+00  0.61811690053E+03  0.25762063873E+04  0.25009539875E+04 0.  0.
        3    1    3    3  502    0 -0.40482233696E+03  0.37035670605E+03 -0.84842825225E+03  0.10103839486E+04  0.10100000352E+00 0.  1.
       -3    1    3    3    0  502  0.40482233696E+03 -0.37035670605E+03  0.14665451528E+04  0.15658224387E+04  0.10100000352E+00 0. -1.
</event>
<event>
 5   0  0.2388326E-05  0.2520599E+04  0.7818609E-02  0.8395684E-01
       -2   -1    0    0    0  501  0.00000000000E+00  0.00000000000E+00  0.79500198203E+03  0.79500198204E+03  0.25500000920E-02 0. -1.
        2   -1    0    0  501    0  0.00000000000E+00  0.00000000000E+00 -0.19979254576E+04  0.19979254576E+04  0.25500000920E-02 0.  1.
    10030    2    1    2    0    0  0.00000000000E+00  0.00000000000E+00 -0.12029234756E+04  0.27929274396E+04  0.25205988961E+04 0.  0.
        2    1    3    3  502    0  0.80304812936E+03  0.49447280018E+03 -0.15278299446E+04  0.17954536997E+04  0.25500000920E-02 0.  1.
       -2    1    3    3    0  502 -0.80304812936E+03 -0.49447280018E+03  0.32490646905E+03  0.99747373991E+03  0.25500000920E-02 0. -1.
</event>
<event>
 5   0  0.2452457E-05  0.2505299E+04  0.7818609E-02  0.8401100E-01
       -2   -1    0    0    0  501  0.00000000000E+00  0.00000000000E+00  0.11351420500E+04  0.11351420500E+04  0.25500000920E-02 0. -1.
        2   -1    0    0  501    0  0.00000000000E+00  0.00000000000E+00 -0.13823213914E+04  0.13823213914E+04  0.25500000920E-02 0.  1.
    10030    2    1    2    0    0  0.00000000000E+00  0.00000000000E+00 -0.24717934140E+03  0.25174634414E+04  0.25052992939E+04 0.  0.
        1    1    3    3  502    0  0.83205507834E+03  0.93638312978E+03 -0.12212699674E+03  0.12585881068E+04  0.50400001928E-02 0. -1.
       -1    1    3    3    0  502 -0.83205507834E+03 -0.93638312978E+03 -0.12505234465E+03  0.12588753346E+04  0.50400001928E-02 0.  1.
</event>
<event>
 5   0  0.1002753E-05  0.2488490E+04  0.7818609E-02  0.8407098E-01
        1   -1    0    0  501    0  0.00000000000E+00  0.00000000000E+00  0.14054153707E+04  0.14054153707E+04  0.50400001928E-02 0. -1.
       -1   -1    0    0    0  501  0.00000000000E+00  0.00000000000E+00 -0.11015571818E+04  0.11015571818E+04  0.50400001928E-02 0.  1.
    10030    2    1    2    0    0  0.00000000000E+00  0.00000000000E+00  0.30385818885E+03  0.25069725525E+04  0.24884898191E+04 0.  0.
        5    1    3    3  502    0 -0.31615138748E+03 -0.10838695097E+04 -0.37482966671E+03  0.11896403586E+04  0.46999998093E+01 0.  1.
       -5    1    3    3    0  502  0.31615138748E+03  0.10838695097E+04  0.67868785556E+03  0.13173321939E+04  0.46999998093E+01 0. -1.
</event>
<event>
 5   0  0.2345143E-05  0.2496129E+04  0.7818609E-02  0.8404366E-01
        2   -1    0    0  501    0  0.00000000000E+00  0.00000000000E+00  0.12891590084E+04  0.12891590084E+04  0.25500000920E-02 0. -1.
       -2   -1    0    0    0  501  0.00000000000E+00  0.00000000000E+00 -0.12082803247E+04  0.12082803247E+04  0.25500000920E-02 0.  1.
    10030    2    1    2    0    0  0.00000000000E+00  0.00000000000E+00  0.80878683704E+02  0.24974393332E+04  0.24961293759E+04 0.  0.
        5    1    3    3  502    0 -0.39287322888E+03  0.35519541954E+03  0.11711342747E+04  0.12853368195E+04  0.46999998093E+01 0. -1.
       -5    1    3    3    0  502  0.39287322888E+03 -0.35519541954E+03 -0.10902555910E+04  0.12121025137E+04  0.46999998093E+01 0.  1.
</event>
<event>
 5   0  0.2432309E-05  0.2455171E+04  0.7818609E-02  0.8419133E-01
        2   -1    0    0  501    0  0.00000000000E+00  0.00000000000E+00  0.97791413763E+03  0.97791413763E+03  0.25500000920E-02 0. -1.
       -2   -1    0    0    0  501  0.00000000000E+00  0.00000000000E+00 -0.15410001344E+04  0.15410001344E+04  0.25500000920E-02 0.  1.
    10030    2    1    2    0    0  0.00000000000E+00  0.00000000000E+00 -0.56308599676E+03  0.25189142720E+04  0.24551707212E+04 0.  0.
        4    1    3    3  502    0 -0.11810124707E+04  0.21134327205E+03 -0.14974655547E+02  0.11998676126E+04  0.12699999809E+01 0. -1.
       -4    1    3    3    0  502  0.11810124707E+04 -0.21134327205E+03 -0.54811134121E+03  0.13190466594E+04  0.12699999809E+01 0.  1.
</event>
<event>
 5   0  0.2388326E-05  0.2506731E+04  0.7818609E-02  0.8400591E-01
        2   -1    0    0  501    0  0.00000000000E+00  0.00000000000E+00  0.14085903624E+04  0.14085903624E+04  0.25500000920E-02 0. -1.
       -2   -1    0    0    0  501  0.00000000000E+00  0.00000000000E+00 -0.11152464538E+04  0.11152464538E+04  0.25500000920E-02 0.  1.
    10030    2    1    2    0    0  0.00000000000E+00  0.00000000000E+00  0.29334390859E+03  0.25238368162E+04  0.25067312632E+04 0.  0.
        2    1    3    3  502    0 -0.69085302329E+03  0.80449578431E+03 -0.52604464570E+03  0.11837289960E+04  0.25500000920E-02 0.  1.
       -2    1    3    3    0  502  0.69085302329E+03 -0.80449578431E+03  0.81938855429E+03  0.13401078202E+04  0.25500000920E-02 0. -1.
</event>
<event>
 5   0  0.1002753E-05  0.2576149E+04  0.7818609E-02  0.8376348E-01
        1   -1    0    0  501    0  0.00000000000E+00  0.00000000000E+00  0.60838411999E+03  0.60838412001E+03  0.50400001928E-02 0. -1.
       -1   -1    0    0    0  501  0.00000000000E+00  0.00000000000E+00 -0.27271189125E+04  0.27271189125E+04  0.50400001928E-02 0.  1.
    10030    2    1    2    0    0  0.00000000000E+00  0.00000000000E+00 -0.21187347925E+04  0.33355030325E+04  0.25761489396E+04 0.  0.
        5    1    3    3  502    0  0.20382872615E+03 -0.87681099819E+03  0.13348141210E+03  0.91004563267E+03  0.46999998093E+01 0. -1.
       -5    1    3    3    0  502 -0.20382872615E+03  0.87681099819E+03 -0.22522162046E+04  0.24254573998E+04  0.46999998093E+01 0.  1.
</event>
<event>
 5   0  0.1002753E-05  0.2484534E+04  0.7818609E-02  0.8408516E-01
        1   -1    0    0  501    0  0.00000000000E+00  0.00000000000E+00  0.24008335344E+04  0.24008335344E+04  0.50400001928E-02 0.  1.
       -1   -1    0    0    0  501  0.00000000000E+00  0.00000000000E+00 -0.64278792539E+03  0.64278792541E+03  0.50400001928E-02 0. -1.
    10030    2    1    2    0    0  0.00000000000E+00  0.00000000000E+00  0.17580456090E+04  0.30436214598E+04  0.24845336036E+04 0.  0.
        5    1    3    3  502    0 -0.30018763863E+03  0.11607385841E+04  0.12774449921E+04  0.17519459115E+04  0.46999998093E+01 0.  1.
       -5    1    3    3    0  502  0.30018763863E+03 -0.11607385841E+04  0.48060061695E+03  0.12916755483E+04  0.46999998093E+01 0. -1.
</event>
<event>
 5   0  0.2452457E-05  0.2502205E+04  0.7818609E-02  0.8402200E-01
       -2   -1    0    0    0  501  0.00000000000E+00  0.00000000000E+00  0.99073190158E+03  0.99073190158E+03  0.25500000920E-02 0.  1.
        2   -1    0    0  501    0  0.00000000000E+00  0.00000000000E+00 -0.15799002743E+04  0.15799002743E+04  0.25500000920E-02 0. -1.
    10030    2    1    2    0    0  0.00000000000E+00  0.00000000000E+00 -0.58916837272E+03  0.25706321759E+04  0.25022051099E+04 0.  0.
        1    1    3    3  502    0 -0.10430726528E+04 -0.61610860434E+03 -0.61564808251E+03  0.13589013698E+04  0.50400001928E-02 0.  1.
       -1    1    3    3    0  502  0.10430726528E+04  0.61610860434E+03  0.26479709790E+02  0.12117308061E+04  0.50400001928E-02 0. -1.
</event>
<event>
 5   0  0.2345143E-05  0.2385738E+04  0.7818609E-02  0.8444862E-01
       -2   -1    0    0    0  501  0.00000000000E+00  0.00000000000E+00  0.10462584284E+04  0.10462584284E+04  0.25500000920E-02 0.  1.
        2   -1    0    0  501    0  0.00000000000E+00  0.00000000000E+00 -0.13600244209E+04  0.13600244209E+04  0.25500000920E-02 0. -1.
    10030    2    1    2    0    0  0.00000000000E+00  0.00000000000E+00 -0.31376599249E+03  0.24062828493E+04  0.23857384711E+04 0.  0.
        5    1    3    3  502    0  0.20300430708E+03  0.73010959902E+03 -0.10860347527E+04  0.13242976815E+04  0.46999998093E+01 0. -1.
       -5    1    3    3    0  502 -0.20300430708E+03 -0.73010959902E+03  0.77226876018E+03  0.10819851677E+04  0.46999998093E+01 0.  1.
</event>
<event>
 5   0  0.2345143E-05  0.2496596E+04  0.7818609E-02  0.8404199E-01
       -2   -1    0    0    0  501  0.00000000000E+00  0.00000000000E+00  0.10962603775E+04  0.10962603775E+04  0.25500000920E-02 0.  1.
        2   -1    0    0  501    0  0.00000000000E+00  0.00000000000E+00 -0.14214219054E+04  0.14214219054E+04  0.25500000920E-02 0. -1.
    10030    2    1    2    0    0  0.00000000000E+00  0.00000000000E+00 -0.32516152795E+03  0.25176822829E+04  0.24965964949E+04 0.  0.
        5    1    3    3  502    0 -0.10483510749E+04  0.36885153919E+02 -0.84492379794E+03  0.13469665197E+04  0.46999998093E+01 0. -1.
       -5    1    3    3    0  502  0.10483510749E+04 -0.36885153919E+02  0.51976226999E+03  0.11707157632E+04  0.46999998093E+01 0.  1.
</event>
<event>
 5   0  0.1015327E-05  0.2566783E+04  0.7818609E-02  0.8379573E-01
        1   -1    0    0  501    0  0.00000000000E+00  0.00000000000E+00  0.19448313066E+04  0.19448313066E+04  0.50400001928E-02 0. -1.
       -1   -1    0    0    0  501  0.00000000000E+00  0.00000000000E+00 -0.84690800178E+03  0.84690800180E+03  0.50400001928E-02 0.  1.
    10030    2    1    2    0    0  0.00000000000E+00  0.00000000000E+00  0.10979233048E+04  0.27917393084E+04  0.25667825741E+04 0.  0.
        4    1    3    3  502    0 -0.33400653035E+03  0.27740023000E+03 -0.76460149631E+03  0.87927715254E+03  0.12699999809E+01 0.  1.
       -4    1    3    3    0  502  0.33400653035E+03 -0.27740023000E+03  0.18625248011E+04  0.19124621558E+04  0.12699999809E+01 0. -1.
</event>
<event>
 5   0  0.1015327E-05  0.2490587E+04  0.7818609E-02  0.8406347E-01
        1   -1    0    0  501    0  0.00000000000E+00  0.00000000000E+00  0.17736623468E+04  0.17736623468E+04  0.50400001928E-02 0. -1.
       -1   -1    0    0    0  501  0.00000000000E+00  0.00000000000E+00 -0.87432388732E+03  0.87432388733E+03  0.50400001928E-02 0.  1.
    10030    2    1    2    0    0  0.00000000000E+00  0.00000000000E+00  0.89933845952E+03  0.26479862342E+04  0.24905865638E+04 0.  0.
        4    1    3    3  502    0 -0.65536362920E+03  0.10180053341E+04  0.75949135042E+03  0.14292183426E+04  0.12699999809E+01 0. -1.
       -4    1    3    3    0  502  0.65536362920E+03 -0.10180053341E+04  0.13984710910E+03  0.12187678915E+04  0.12699999809E+01 0.  1.
</event>
<event>
 5   0  0.1010338E-05  0.2514593E+04  0.7818609E-02  0.8397805E-01
       -1   -1    0    0    0  501  0.00000000000E+00  0.00000000000E+00  0.17657718186E+04  0.17657718186E+04  0.50400001928E-02 0. -1.
        1   -1    0    0  501    0  0.00000000000E+00  0.00000000000E+00 -0.89524252225E+03  0.89524252226E+03  0.50400001928E-02 0.  1.
    10030    2    1    2    0    0  0.00000000000E+00  0.00000000000E+00  0.87052929636E+03  0.26610143409E+04  0.25145926244E+04 0.  0.
        2    1    3    3  502    0  0.82768768787E+03  0.10497509223E+03 -0.56009353761E+03  0.10048837990E+04  0.25500000920E-02 0.  1.
       -2    1    3    3    0  502 -0.82768768787E+03 -0.10497509223E+03  0.14306228340E+04  0.16561305419E+04  0.25500000920E-02 0. -1.
</event>
<event>
 5   0  0.2452457E-05  0.2503078E+04  0.7818609E-02  0.8401890E-01
       -2   -1    0    0    0  501  0.00000000000E+00  0.00000000000E+00  0.85228486401E+03  0.85228486402E+03  0.25500000920E-02 0. -1.
        2   -1    0    0  501    0  0.00000000000E+00  0.00000000000E+00 -0.18378244959E+04  0.18378244959E+04  0.25500000920E-02 0.  1.
    10030    2    1    2    0    0  0.00000000000E+00  0.00000000000E+00 -0.98553963190E+03  0.26901093599E+04  0.25030781055E+04 0.  0.
        1    1    3    3  502    0  0.59252874100E+02 -0.33958935488E+02 -0.18358204217E+04  0.18370902899E+04  0.50400001928E-02 0.  1.
       -1    1    3    3    0  502 -0.59252874100E+02  0.33958935488E+02  0.85028078979E+03  0.85301907007E+03  0.50400001928E-02 0. -1.
</event>
<event>
 5   0  0.2345143E-05  0.2494983E+04  0.7818609E-02  0.8404775E-01
       -2   -1    0    0    0  501  0.00000000000E+00  0.00000000000E+00  0.15077161701E+04  0.15077161701E+04  0.25500000920E-02 0. -1.
        2   -1    0    0  501    0  0.00000000000E+00  0.00000000000E+00 -0.10321801302E+04  0.10321801302E+04  0.25500000920E-02 0.  1.
    10030    2    1    2    0    0  0.00000000000E+00  0.00000000000E+00  0.47553603992E+03  0.25398963003E+04  0.24949827036E+04 0.  0.
        5    1    3    3  502    0  0.15555680765E+03  0.14822472024E+03  0.14887275525E+04  0.15041609966E+04  0.46999998093E+01 0. -1.
       -5    1    3    3    0  502 -0.15555680765E+03 -0.14822472024E+03 -0.10131915126E+04  0.10357353037E+04  0.46999998093E+01 0.  1.
</event>
<event>
 5   0  0.2441340E-05  0.2491751E+04  0.7818609E-02  0.8405930E-01
        2   -1    0    0  501    0  0.00000000000E+00  0.00000000000E+00  0.24212818267E+04  0.24212818267E+04  0.25500000920E-02 0. -1.
       -2   -1    0    0    0  501  0.00000000000E+00  0.00000000000E+00 -0.64106778667E+03  0.64106778667E+03  0.25500000920E-02 0.  1.
    10030    2    1    2    0    0  0.00000000000E+00  0.00000000000E+00  0.17802140401E+04  0.30623496134E+04  0.24917510161E+04 0.  0.
        3    1    3    3  502    0 -0.11751426295E+04  0.35450588302E+03  0.62774852936E+03  0.13786598010E+04  0.10100000352E+00 0. -1.
       -3    1    3    3    0  502  0.11751426295E+04 -0.35450588302E+03  0.11524655107E+04  0.16836898124E+04  0.10100000352E+00 0.  1.
</event>
<event>
 5   0  0.1008073E-05  0.2460087E+04  0.7818609E-02  0.8417344E-01
        1   -1    0    0  501    0  0.00000000000E+00  0.00000000000E+00  0.84629773218E+03  0.84629773219E+03  0.50400001928E-02 0.  1.
       -1   -1    0    0    0  501  0.00000000000E+00  0.00000000000E+00 -0.17877958422E+04  0.17877958422E+04  0.50400001928E-02 0. -1.
    10030    2    1    2    0    0  0.00000000000E+00  0.00000000000E+00 -0.94149811000E+03  0.26340935744E+04  0.24600874512E+04 0.  0.
        1    1    3    3  502    0  0.17184102261E+03 -0.10981232960E+03  0.82807075563E+03  0.85281255921E+03  0.50400001928E-02 0.  1.
       -1    1    3    3    0  502 -0.17184102261E+03  0.10981232960E+03 -0.17695688656E+04  0.17812810152E+04  0.50400001928E-02 0. -1.
</event>
<event>
 5   0  0.2452457E-05  0.2484382E+04  0.7818609E-02  0.8408571E-01
       -2   -1    0    0    0  501  0.00000000000E+00  0.00000000000E+00  0.13738155679E+04  0.13738155679E+04  0.25500000920E-02 0.  1.
        2   -1    0    0  501    0  0.00000000000E+00  0.00000000000E+00 -0.11231769694E+04  0.11231769694E+04  0.25500000920E-02 0. -1.
    10030    2    1    2    0    0  0.00000000000E+00  0.00000000000E+00  0.25063859852E+03  0.24969925373E+04  0.24843816181E+04 0.  0.
        1    1    3    3  502    0 -0.14468298273E+03 -0.11120675729E+04  0.66226942858E+03  0.13023932771E+04  0.50400001928E-02 0. -1.
       -1    1    3    3    0  502  0.14468298273E+03  0.11120675729E+04 -0.41163083005E+03  0.11945992602E+04  0.50400001928E-02 0.  1.
</event>
<event>
 5   0  0.1015327E-05  0.2480118E+04  0.7818609E-02  0.8410103E-01
       -1   -1    0    0    0  501  0.00000000000E+00  0.00000000000E+00  0.75754720126E+03  0.75754720127E+03  0.50400001928E-02 0.  1.
        1   -1    0    0  501    0  0.00000000000E+00  0.00000000000E+00 -0.20299015167E+04  0.20299015167E+04  0.50400001928E-02 0. -1.
    10030    2    1    2    0    0  0.00000000000E+00  0.00000000000E+00 -0.12723543154E+04  0.27874487180E+04  0.24801179108E+04 0.  0.
        4    1    3    3  502    0 -0.66574767310E+03  0.12628566774E+03 -0.18034168504E+04  0.19265206937E+04  0.12699999809E+01 0. -1.
       -4    1    3    3    0  502  0.66574767310E+03 -0.12628566774E+03  0.53106253492E+03  0.86092802429E+03  0.12699999809E+01 0.  1.
</event>
<event>
 5   0  0.2441340E-05  0.2499969E+04  0.7818609E-02  0.8402997E-01
        2   -1    0    0  501    0  0.00000000000E+00  0.00000000000E+00  0.10854115351E+04  0.10854115351E+04  0.25500000920E-02 0.  1.
       -2   -1    0    0    0  501  0.00000000000E+00  0.00000000000E+00 -0.14395106137E+04  0.14395106137E+04  0.25500000920E-02 0. -1.
    10030    2    1    2    0    0  0.00000000000E+00  0.00000000000E+00 -0.35409907864E+03  0.25249221488E+04  0.24999691398E+04 0.  0.
        3    1    3    3  502    0  0.45921179057E+03  0.20605342438E+03 -0.13326411732E+04  0.14245230742E+04  0.10100000352E+00 0. -1.
       -3    1    3    3    0  502 -0.45921179057E+03 -0.20605342438E+03  0.97854209456E+03  0.11003990746E+04  0.10100000352E+00 0.  1.
</event>
<event>
 5   0  0.2432309E-05  0.2483657E+04  0.7818609E-02  0.8408831E-01
        2   -1    0    0  501    0  0.00000000000E+00  0.00000000000E+00  0.17972639217E+04  0.17972639217E+04  0.25500000920E-02 0. -1.
       -2   -1    0    0    0  501  0.00000000000E+00  0.00000000000E+00 -0.85804743849E+03  0.85804743850E+03  0.25500000920E-02 0.  1.
    10030    2    1    2    0    0  0.00000000000E+00  0.00000000000E+00  0.93921648323E+03  0.26553113602E+04  0.24836567431E+04 0.  0.
        4    1    3    3  502    0  0.72111364117E+03  0.81577023362E+03 -0.16886849169E+03  0.11018185594E+04  0.12699999809E+01 0.  1.
       -4    1    3    3    0  502 -0.72111364117E+03 -0.81577023362E+03  0.11080849749E+04  0.15534928008E+04  0.12699999809E+01 0. -1.
</event>
<event>
 5   0  0.1008073E-05  0.2490198E+04  0.7818609E-02  0.8406486E-01
        1   -1    0    0  501    0  0.00000000000E+00  0.00000000000E+00  0.13193035407E+04  0.13193035407E+04  0.50400001928E-02 0.  1.
       -1   -1    0    0    0  501  0.00000000000E+00  0.00000000000E+00 -0.11750677028E+04  0.11750677028E+04  0.50400001928E-02 0. -1.
    10030    2    1    2    0    0  0.00000000000E+00  0.00000000000E+00  0.14423583791E+03  0.24943712435E+04  0.24901975672E+04 0.  0.
        1    1    3    3  502    0  0.63469407740E+03 -0.59869160900E+03 -0.81762911626E+03  0.11957364201E+04  0.50400001928E-02 0. -1.
       -1    1    3    3    0  502 -0.63469407740E+03  0.59869160900E+03  0.96186495417E+03  0.12986348234E+04  0.50400001928E-02 0.  1.
</event>
<event>
 5   0  0.2452457E-05  0.2474256E+04  0.7818609E-02  0.8412215E-01
       -2   -1    0    0    0  501  0.00000000000E+00  0.00000000000E+00  0.67148056051E+03  0.67148056052E+03  0.25500000920E-02 0.  1.
        2   -1    0    0  501    0  0.00000000000E+00  0.00000000000E+00 -0.22792701730E+04  0.22792701730E+04  0.25500000920E-02 0. -1.
    10030    2    1    2    0    0  0.00000000000E+00  0.00000000000E+00 -0.16077896124E+04  0.29507507335E+04  0.24742559393E+04 0.  0.
        1    1    3    3  502    0 -0.62756227930E+03 -0.48941068976E+03 -0.19334701367E+04  0.20908524595E+04  0.50400001928E-02 0. -1.
       -1    1    3    3    0  502  0.62756227930E+03  0.48941068976E+03  0.32568052431E+03  0.85989827398E+03  0.50400001928E-02 0.  1.
</event>
<event>
 5   0  0.1002753E-05  0.2517244E+04  0.7818609E-02  0.8396868E-01
        1   -1    0    0  501    0  0.00000000000E+00  0.00000000000E+00  0.16495115388E+04  0.16495115388E+04  0.50400001928E-02 0. -1.
       -1   -1    0    0    0  501  0.00000000000E+00  0.00000000000E+00 -0.96036299026E+03  0.96036299027E+03  0.50400001928E-02 0.  1.
    10030    2    1    2    0    0  0.00000000000E+00  0.00000000000E+00  0.68914854851E+03  0.26098745290E+04  0.25172443933E+04 0.  0.
        5    1    3    3  502    0 -0.43105042329E+03 -0.87149713398E+03 -0.48408376525E+03  0.10861265597E+04  0.46999998093E+01 0.  1.
       -5    1    3    3    0  502  0.43105042329E+03  0.87149713398E+03  0.11732323138E+04  0.15237479693E+04  0.46999998093E+01 0. -1.
</event>
<event>
 5   0  0.1002753E-05  0.2566791E+04  0.7818609E-02  0.8379570E-01
       -1   -1    0    0    0  501  0.00000000000E+00  0.00000000000E+00  0.10080623585E+04  0.10080623585E+04  0.50400001928E-02 0.  1.
        1   -1    0    0  501    0  0.00000000000E+00  0.00000000000E+00 -0.16339312222E+04  0.16339312222E+04  0.50400001928E-02 0. -1.
    10030    2    1    2    0    0  0.00000000000E+00  0.00000000000E+00 -0.62586886372E+03  0.26419935808E+04  0.25667914302E+04 0.  0.
        5    1    3    3  502    0  0.36916068536E+03 -0.63687298452E+03 -0.13950179028E+04  0.15773344126E+04  0.46999998093E+01 0. -1.
       -5    1    3    3    0  502 -0.36916068536E+03  0.63687298452E+03  0.76914903908E+03  0.10646591682E+04  0.46999998093E+01 0.  1.
</event>
<event>
 5   0  0.1008073E-05  0.2516110E+04  0.7818609E-02  0.8397269E-01
       -1   -1    0    0    0  501  0.00000000000E+00  0.00000000000E+00  0.84224983049E+03  0.84224983051E+03  0.50400001928E-02 0.  1.
        1   -1    0    0  501    0  0.00000000000E+00  0.00000000000E+00 -0.18791366399E+04  0.18791366400E+04  0.50400001928E-02 0. -1.
    10030    2    1    2    0    0  0.00000000000E+00  0.00000000000E+00 -0.10368868095E+04  0.27213864705E+04  0.25161101061E+04 0.  0.
        1    1    3    3  502    0  0.52566188316E+03 -0.53469852230E+03 -0.16110472913E+04  0.17769907991E+04  0.50400001928E-02 0. -1.
       -1    1    3    3    0  502 -0.52566188316E+03  0.53469852230E+03  0.57416048186E+03  0.94439567138E+03  0.50400001928E-02 0.  1.
</event>
<event>
 5   0  0.1039688E-05  0.2510455E+04  0.7818609E-02  0.8399270E-01
        1   -1    0    0  501    0  0.00000000000E+00  0.00000000000E+00  0.21312552299E+04  0.21312552299E+04  0.50400001928E-02 0. -1.
       -1   -1    0    0    0  501  0.00000000000E+00  0.00000000000E+00 -0.73928057969E+03  0.73928057971E+03  0.50400001928E-02 0.  1.
    10030    2    1    2    0    0  0.00000000000E+00  0.00000000000E+00  0.13919746502E+04  0.28705358096E+04  0.25104546217E+04 0.  0.
        3    1    3    3  502    0  0.15120785988E+03  0.11504197262E+04  0.12434829294E+04  0.17007584100E+04  0.10100000352E+00 0. -1.
       -3    1    3    3    0  502 -0.15120785988E+03 -0.11504197262E+04  0.14849172089E+03  0.11697773997E+04  0.10100000352E+00 0.  1.
</event>
<event>
 5   0  0.1039688E-05  0.2516180E+04  0.7818609E-02  0.8397244E-01
       -1   -1    0    0    0  501  0.00000000000E+00  0.00000000000E+00  0.14095909440E+04  0.14095909440E+04  0.50400001928E-02 0.  1.
        1   -1    0    0  501    0  0.00000000000E+00  0.00000000000E+00 -0.11228718231E+04  0.11228718231E+04  0.50400001928E-02 0. -1.
    10030    2    1    2    0    0  0.00000000000E+00  0.00000000000E+00  0.28671912094E+03  0.25324627671E+04  0.25161796066E+04 0.  0.
        3    1    3    3  502    0 -0.25107024130E+02  0.19568184532E+03  0.13939253421E+04  0.14078173236E+04  0.10100000352E+00 0.  1.
       -3    1    3    3    0  502  0.25107024130E+02 -0.19568184532E+03 -0.11072062211E+04  0.11246454435E+04  0.10100000352E+00 0. -1.
</event>
<event>
 5   0  0.1015327E-05  0.2502989E+04  0.7818609E-02  0.8401921E-01
       -1   -1    0    0    0  501  0.00000000000E+00  0.00000000000E+00  0.12774930360E+04  0.12774930360E+04  0.50400001928E-02 0. -1.
        1   -1    0    0  501    0  0.00000000000E+00  0.00000000000E+00 -0.12260253555E+04  0.12260253555E+04  0.50400001928E-02 0.  1.
    10030    2    1    2    0    0  0.00000000000E+00  0.00000000000E+00  0.51467680494E+02  0.25035183915E+04  0.25029892957E+04 0.  0.
        4    1    3    3  502    0 -0.72512739090E+03 -0.60313955497E+03  0.84849521715E+03  0.12686736390E+04  0.12699999809E+01 0. -1.
       -4    1    3    3    0  502  0.72512739090E+03  0.60313955497E+03 -0.79702753665E+03  0.12348447525E+04  0.12699999809E+01 0.  1.
</event>
<event>
 5   0  0.1039688E-05  0.2508866E+04  0.7818609E-02  0.8399834E-01
       -1   -1    0    0    0  501  0.00000000000E+00  0.00000000000E+00  0.14242038943E+04  0.14242038943E+04  0.50400001928E-02 0. -1.
        1   -1    0    0  501    0  0.00000000000E+00  0.00000000000E+00 -0.11048997402E+04  0.11048997402E+04  0.50400001928E-02 0.  1.
    10030    2    1    2    0    0  0.00000000000E+00  0.00000000000E+00  0.31930415406E+03  0.25291036345E+04  0.25088662880E+04 0.  0.
        3    1    3    3  502    0 -0.10886790280E+04 -0.15502004421E+03  0.76813452766E+03  0.13413738863E+04  0.10100000352E+00 0. -1.
       -3    1    3    3    0  502  0.10886790280E+04  0.15502004421E+03 -0.44883037360E+03  0.11877297481E+04  0.10100000352E+00 0.  1.
</event>
<event>
 5   0  0.1008073E-05  0.2637435E+04  0.7818609E-02  0.8355595E-01
       -1   -1    0    0    0  501  0.00000000000E+00  0.00000000000E+00  0.14322100347E+04  0.14322100347E+04  0.50400001928E-02 0. -1.
        1   -1    0    0  501    0  0.00000000000E+00  0.00000000000E+00 -0.12142183788E+04  0.12142183788E+04  0.50400001928E-02 0.  1.
    10030    2    1    2    0    0  0.00000000000E+00  0.00000000000E+00  0.21799165588E+03  0.26464284136E+04  0.26374349255E+04 0.  0.
        1    1    3    3  502    0 -0.77515193625E+03  0.49537889134E+03  0.10570748511E+04  0.14013093916E+04  0.50400001928E-02 0. -1.
       -1    1    3    3    0  502  0.77515193625E+03 -0.49537889134E+03 -0.83908319522E+03  0.12451190219E+04  0.50400001928E-02 0.  1.
</event>
<event>
 5   0  0.1002753E-05  0.2517998E+04  0.7818609E-02  0.8396602E-01
        1   -1    0    0  501    0  0.00000000000E+00  0.00000000000E+00  0.62022695348E+03  0.62022695350E+03  0.50400001928E-02 0.  1.
       -1   -1    0    0    0  501  0.00000000000E+00  0.00000000000E+00 -0.25556431822E+04  0.25556431822E+04  0.50400001928E-02 0. -1.
    10030    2    1    2    0    0  0.00000000000E+00  0.00000000000E+00 -0.19354162287E+04  0.31758701357E+04  0.25179982407E+04 0.  0.
        5    1    3    3  502    0  0.20846974447E+03 -0.12405567138E+04 -0.10322192265E+04  0.16272489717E+04  0.46999998093E+01 0.  1.
       -5    1    3    3    0  502 -0.20846974447E+03  0.12405567138E+04 -0.90319700222E+03  0.15486211639E+04  0.46999998093E+01 0. -1.
</event>
<event>
 5   0  0.2441340E-05  0.2471993E+04  0.7818609E-02  0.8413032E-01
        2   -1    0    0  501    0  0.00000000000E+00  0.00000000000E+00  0.20640920217E+04  0.20640920217E+04  0.25500000920E-02 0. -1.
       -2   -1    0    0    0  501  0.00000000000E+00  0.00000000000E+00 -0.74012562768E+03  0.74012562769E+03  0.25500000920E-02 0.  1.
    10030    2    1    2    0    0  0.00000000000E+00  0.00000000000E+00  0.13239663941E+04  0.28042176494E+04  0.24719930446E+04 0.  0.
        3    1    3    3  502    0  0.10093150246E+04  0.29596328727E+03  0.13983590352E+04  0.17497768680E+04  0.10100000352E+00 0. -1.
       -3    1    3    3    0  502 -0.10093150246E+04 -0.29596328727E+03 -0.74392641194E+02  0.10544407814E+04  0.10100000352E+00 0.  1.
</event>
<event>
 5   0  0.2388326E-05  0.2516360E+04  0.7818609E-02  0.8397180E-01
       -2   -1    0    0    0  501  0.00000000000E+00  0.00000000000E+00  0.16869439979E+04  0.16869439979E+04  0.25500000920E-02 0.  1.
        2   -1    0    0  501    0  0.00000000000E+00  0.00000000000E+00 -0.93839333142E+03  0.93839333143E+03  0.25500000920E-02 0. -1.
    10030    2    1    2    0    0  0.00000000000E+00  0.00000000000E+00  0.74855066647E+03  0.26253373293E+04  0.25163600681E+04 0.  0.
        2    1    3    3  502    0 -0.59306081900E+03 -0.82661699588E+02 -0.78020129592E+03  0.98349791752E+03  0.25500000920E-02 0. -1.
       -2    1    3    3    0  502  0.59306081900E+03  0.82661699588E+02  0.15287519624E+04  0.16418394118E+04  0.25500000920E-02 0.  1.
</event>
<event>
 5   0  0.1002753E-05  0.2483276E+04  0.7818609E-02  0.8408968E-01
       -1   -1    0    0    0  501  0.00000000000E+00  0.00000000000E+00  0.72427730113E+03  0.72427730115E+03  0.50400001928E-02 0. -1.
        1   -1    0    0  501    0  0.00000000000E+00  0.00000000000E+00 -0.21285561206E+04  0.21285561206E+04  0.50400001928E-02 0.  1.
    10030    2    1    2    0    0  0.00000000000E+00  0.00000000000E+00 -0.14042788194E+04  0.28528334217E+04  0.24832759672E+04 0.  0.
        5    1    3    3  502    0  0.50450527231E+03  0.48675138100E+03  0.47515595141E+03  0.84690480271E+03  0.46999998093E+01 0. -1.
       -5    1    3    3    0  502 -0.50450527231E+03 -0.48675138100E+03 -0.18794347709E+04  0.20059286190E+04  0.46999998093E+01 0.  1.
</event>
<event>
 5   0  0.2441340E-05  0.2502492E+04  0.7818609E-02  0.8402098E-01
       -2   -1    0    0    0  501  0.00000000000E+00  0.00000000000E+00  0.10327648253E+04  0.10327648253E+04  0.25500000920E-02 0.  1.
        2   -1    0    0  501    0  0.00000000000E+00  0.00000000000E+00 -0.15159463902E+04  0.15159463902E+04  0.25500000920E-02 0. -1.
    10030    2    1    2    0    0  0.00000000000E+00  0.00000000000E+00 -0.48318156484E+03  0.25487112155E+04  0.25024916454E+04 0.  0.
        3    1    3    3  502    0  0.47565491116E+03  0.10699310762E+04  0.20771008885E+03  0.11891776964E+04  0.10100000352E+00 0. -1.
       -3    1    3    3    0  502 -0.47565491116E+03 -0.10699310762E+04 -0.69089165369E+03  0.13595335191E+04  0.10100000352E+00 0.  1.
</event>
<event>
 5   0  0.2452457E-05  0.2489410E+04  0.7818609E-02  0.8406768E-01
        2   -1    0    0  501    0  0.00000000000E+00  0.00000000000E+00  0.18736637477E+04  0.18736637477E+04  0.25500000920E-02 0.  1.
       -2   -1    0    0    0  501  0.00000000000E+00  0.00000000000E+00 -0.82687726553E+03  0.82687726554E+03  0.25500000920E-02 0. -1.
    10030    2    1    2    0    0  0.00000000000E+00  0.00000000000E+00  0.10467864822E+04  0.27005410133E+04  0.24894095334E+04 0.  0.
        1    1    3    3  502    0 -0.15355869012E+03 -0.64824795348E+03 -0.61719978994E+03  0.90815266406E+03  0.50400001928E-02 0. -1.
       -1    1    3    3    0  502  0.15355869012E+03  0.64824795348E+03  0.16639862721E+04  0.17923883492E+04  0.50400001928E-02 0.  1.
</event>
<event>
 5   0  0.2432309E-05  0.2513650E+04  0.7818609E-02  0.8398139E-01
       -2   -1    0    0    0  501  0.00000000000E+00  0.00000000000E+00  0.12128124112E+04  0.12128124112E+04  0.25500000920E-02 0.  1.
        2   -1    0    0  501    0  0.00000000000E+00  0.00000000000E+00 -0.13024343842E+04  0.13024343842E+04  0.25500000920E-02 0. -1.
    10030    2    1    2    0    0  0.00000000000E+00  0.00000000000E+00 -0.89621972993E+02  0.25152467953E+04  0.25136496063E+04 0.  0.
        4    1    3    3  502    0  0.47541716279E+03  0.21013426474E+03 -0.11898409655E+04  0.12984225137E+04  0.12699999809E+01 0. -1.
       -4    1    3    3    0  502 -0.47541716279E+03 -0.21013426474E+03  0.11002189925E+04  0.12168242816E+04  0.12699999809E+01 0.  1.
</event>
<event>
 5   0  0.2388326E-05  0.2518127E+04  0.7818609E-02  0.8396556E-01
        2   -1    0    0  501    0  0.00000000000E+00  0.00000000000E+00  0.12314218158E+04  0.12314218158E+04  0.25500000920E-02 0.  1.
       -2   -1    0    0    0  501  0.00000000000E+00  0.00000000000E+00 -0.12873257469E+04  0.12873257469E+04  0.25500000920E-02 0. -1.
    10030    2    1    2    0    0  0.00000000000E+00  0.00000000000E+00 -0.55903931163E+02  0.25187475627E+04  0.25181270887E+04 0.  0.
        2    1    3    3  502    0 -0.12290800476E+04 -0.19484122398E+03 -0.21941528170E+03  0.12636233347E+04  0.25500000920E-02 0.  1.
       -2    1    3    3    0  502  0.12290800476E+04  0.19484122398E+03  0.16351135054E+03  0.12551242280E+04  0.25500000920E-02 0. -1.
</event>
<event>
 5   0  0.1002753E-05  0.2566384E+04  0.7818609E-02  0.8379710E-01
        1   -1    0    0  501    0  0.00000000000E+00  0.00000000000E+00  0.19746885426E+04  0.19746885426E+04  0.50400001928E-02 0. -1.
       -1   -1    0    0    0  501  0.00000000000E+00  0.00000000000E+00 -0.83384355668E+03  0.83384355669E+03  0.50400001928E-02 0.  1.
    10030    2    1    2    0    0  0.00000000000E+00  0.00000000000E+00  0.11408449859E+04  0.28085320993E+04  0.25663836952E+04 0.  0.
        5    1    3    3  502    0  0.11285274794E+04  0.32388824148E+03  0.38035155717E+01  0.11741015379E+04  0.46999998093E+01 0.  1.
       -5    1    3    3    0  502 -0.11285274794E+04 -0.32388824148E+03  0.11370414703E+04  0.16344305613E+04  0.46999998093E+01 0. -1.
</event>
<event>
 5   0  0.2388326E-05  0.2493154E+04  0.7818609E-02  0.8405428E-01
       -2   -1    0    0    0  501  0.00000000000E+00  0.00000000000E+00  0.99165543746E+03  0.99165543746E+03  0.25500000920E-02 0. -1.
        2   -1    0    0  501    0  0.00000000000E+00  0.00000000000E+00 -0.15670306766E+04  0.15670306766E+04  0.25500000920E-02 0.  1.
    10030    2    1    2    0    0  0.00000000000E+00  0.00000000000E+00 -0.57537523912E+03  0.25586861140E+04  0.24931542199E+04 0.  0.
        2    1    3    3  502    0  0.10394868562E+04 -0.64715806607E+03 -0.52751348590E+03  0.13332730270E+04  0.25500000920E-02 0. -1.
       -2    1    3    3    0  502 -0.10394868562E+04  0.64715806607E+03 -0.47861753216E+02  0.12254130871E+04  0.25500000920E-02 0.  1.
</event>
<event>
 5   0  0.1002753E-05  0.2500125E+04  0.7818609E-02  0.8402941E-01
        1   -1    0    0  501    0  0.00000000000E+00  0.00000000000E+00  0.21337681532E+04  0.21337681532E+04  0.50400001928E-02 0. -1.
       -1   -1    0    0    0  501  0.00000000000E+00  0.00000000000E+00 -0.73234568323E+03  0.73234568325E+03  0.50400001928E-02 0.  1.
    10030    2    1    2    0    0  0.00000000000E+00  0.00000000000E+00  0.14014224700E+04  0.28661138365E+04  0.25001247137E+04 0.  0.
        5    1    3    3  502    0 -0.19688508920E+03  0.53572102711E+03  0.19756646773E+04  0.20564614668E+04  0.46999998093E+01 0. -1.
       -5    1    3    3    0  502  0.19688508920E+03 -0.53572102711E+03 -0.57424220726E+03  0.80965236974E+03  0.46999998093E+01 0.  1.
</event>
<event>
 5   0  0.1015327E-05  0.2503237E+04  0.7818609E-02  0.8401833E-01
       -1   -1    0    0    0  501  0.00000000000E+00  0.00000000000E+00  0.96414215092E+03  0.96414215093E+03  0.50400001928E-02 0. -1.
        1   -1    0    0  501    0  0.00000000000E+00  0.00000000000E+00 -0.16248110494E+04  0.16248110495E+04  0.50400001928E-02 0.  1.
    10030    2    1    2    0    0  0.00000000000E+00  0.00000000000E+00 -0.66066889853E+03  0.25889532004E+04  0.25032369605E+04 0.  0.
        4    1    3    3  502    0  0.25966688179E+03 -0.94899680474E+03  0.46980102180E+03  0.10902919049E+04  0.12699999809E+01 0. -1.
       -4    1    3    3    0  502 -0.25966688179E+03  0.94899680474E+03 -0.11304699203E+04  0.14986612955E+04  0.12699999809E+01 0.  1.
</event>
<event>
 5   0  0.1010338E-05  0.2477647E+04  0.7818609E-02  0.8410992E-01
        1   -1    0    0  501    0  0.00000000000E+00  0.00000000000E+00  0.23277819744E+04  0.23277819744E+04  0.50400001928E-02 0.  1.
       -1   -1    0    0    0  501  0.00000000000E+00  0.00000000000E+00 -0.65929028979E+03  0.65929028981E+03  0.50400001928E-02 0. -1.
    10030    2    1    2    0    0  0.00000000000E+00  0.00000000000E+00  0.16684916846E+04  0.29870722642E+04  0.24776473135E+04 0.  0.
        2    1    3    3  502    0 -0.11513640185E+04  0.43135828225E+03  0.65150575378E+03  0.13914628338E+04  0.25500000920E-02 0.  1.
       -2    1    3    3    0  502  0.11513640185E+04 -0.43135828225E+03  0.10169859308E+04  0.15956094304E+04  0.25500000920E-02 0. -1.
</event>
<event>
 5   0  0.1015327E-05  0.2613433E+04  0.7818609E-02  0.8363653E-01
       -1   -1    0    0    0  501  0.00000000000E+00  0.00000000000E+00  0.72368563219E+03  0.72368563220E+03  0.50400001928E-02 0.  1.
        1   -1    0    0  501    0  0.00000000000E+00  0.00000000000E+00 -0.23594608182E+04  0.23594608182E+04  0.50400001928E-02 0. -1.
    10030    2    1    2    0    0  0.00000000000E+00  0.00000000000E+00 -0.16357751860E+04  0.30831464504E+04  0.26134329101E+04 0.  0.
        4    1    3    3  502    0  0.11351366034E+04 -0.31728112375E+03 -0.14834729395E+04  0.18947020861E+04  0.12699999809E+01 0. -1.
       -4    1    3    3    0  502 -0.11351366034E+04  0.31728112375E+03 -0.15230224655E+03  0.11884443643E+04  0.12699999809E+01 0.  1.
</event>
<event>
 5   0  0.2452457E-05  0.2467020E+04  0.7818609E-02  0.8414830E-01
        2   -1    0    0  501    0  0.00000000000E+00  0.00000000000E+00  0.26057043749E+04  0.26057043749E+04  0.25500000920E-02 0.  1.
       -2   -1    0    0    0  501  0.00000000000E+00  0.00000000000E+00 -0.58392927057E+03  0.58392927057E+03  0.25500000920E-02 0. -1.
    10030    2    1    2    0    0  0.00000000000E+00  0.00000000000E+00  0.20217751043E+04  0.31896336455E+04  0.24670201093E+04 0.  0.
        1    1    3    3  502    0 -0.47332093881E+03  0.79353862015E+03  0.20674491803E+04  0.22645269629E+04  0.50400001928E-02 0.  1.
       -1    1    3    3    0  502  0.47332093881E+03 -0.79353862015E+03 -0.45674075983E+02  0.92510668251E+03  0.50400001928E-02 0. -1.
</event>
<event>
 5   0  0.2432309E-05  0.2510170E+04  0.7818609E-02  0.8399371E-01
        2   -1    0    0  501    0  0.00000000000E+00  0.00000000000E+00  0.16801455985E+04  0.16801455985E+04  0.25500000920E-02 0. -1.
       -2   -1    0    0    0  501  0.00000000000E+00  0.00000000000E+00 -0.93756039346E+03  0.93756039346E+03  0.25500000920E-02 0.  1.
    10030    2    1    2    0    0  0.00000000000E+00  0.00000000000E+00  0.74258520501E+03  0.26177059919E+04  0.25101696902E+04 0.  0.
        4    1    3    3  502    0  0.12733019715E+03 -0.43062870268E+03 -0.85091541493E+03  0.96213965459E+03  0.12699999809E+01 0.  1.
       -4    1    3    3    0  502 -0.12733019715E+03  0.43062870268E+03  0.15935006199E+04  0.16555663373E+04  0.12699999809E+01 0. -1.
</event>
<event>
 5   0  0.1039688E-05  0.2486495E+04  0.7818609E-02  0.8407813E-01
       -1   -1    0    0    0  501  0.00000000000E+00  0.00000000000E+00  0.11918475857E+04  0.11918475857E+04  0.50400001928E-02 0. -1.
        1   -1    0    0  501    0  0.00000000000E+00  0.00000000000E+00 -0.12968640444E+04  0.12968640444E+04  0.50400001928E-02 0.  1.
    10030    2    1    2    0    0  0.00000000000E+00  0.00000000000E+00 -0.10501645862E+03  0.24887116301E+04  0.24864949470E+04 0.  0.
        3    1    3    3  502    0  0.56557327385E+03 -0.76109384130E+03 -0.85729426589E+03  0.12783154665E+04  0.10100000352E+00 0.  1.
       -3    1    3    3    0  502 -0.56557327385E+03  0.76109384130E+03  0.75227780727E+03  0.12103961636E+04  0.10100000352E+00 0. -1.
</event>
<event>
 5   0  0.2441340E-05  0.2533859E+04  0.7818609E-02  0.8391022E-01
       -2   -1    0    0    0  501  0.00000000000E+00  0.00000000000E+00  0.12002146535E+04  0.12002146535E+04  0.25500000920E-02 0. -1.
        2   -1    0    0  501    0  0.00000000000E+00  0.00000000000E+00 -0.13373522171E+04  0.13373522171E+04  0.25500000920E-02 0.  1.
    10030    2    1    2    0    0  0.00000000000E+00  0.00000000000E+00 -0.13713756367E+03  0.25375668706E+04  0.25338585026E+04 0.  0.
        3    1    3    3  502    0  0.11549029585E+04  0.51130174369E+03 -0.16810942539E+03  0.12741629039E+04  0.10100000352E+00 0.  1.
       -3    1    3    3    0  502 -0.11549029585E+04 -0.51130174369E+03  0.30971861729E+02  0.12634039667E+04  0.10100000352E+00 0. -1.
</event>
<event>
 5   0  0.1039688E-05  0.2493500E+04  0.7818609E-02  0.8405305E-01
        1   -1    0    0  501    0  0.00000000000E+00  0.00000000000E+00  0.10907386350E+04  0.10907386350E+04  0.50400001928E-02 0. -1.
       -1   -1    0    0    0  501  0.00000000000E+00  0.00000000000E+00 -0.14250760334E+04  0.14250760334E+04  0.50400001928E-02 0.  1.
    10030    2    1    2    0    0  0.00000000000E+00  0.00000000000E+00 -0.33433739847E+03  0.25158146684E+04  0.24934999398E+04 0.  0.
        3    1    3    3  502    0  0.52406936276E+03  0.10667700091E+04 -0.54701967117E+03  0.13083873586E+04  0.10100000352E+00 0.  1.
       -3    1    3    3    0  502 -0.52406936276E+03 -0.10667700091E+04  0.21268227269E+03  0.12074273098E+04  0.10100000352E+00 0. -1.
</event>
<event>
 5   0  0.1010338E-05  0.2481316E+04  0.7818609E-02  0.8409672E-01
        1   -1    0    0  501    0  0.00000000000E+00  0.00000000000E+00  0.22556093676E+04  0.22556093676E+04  0.50400001928E-02 0. -1.
       -1   -1    0    0    0  501  0.00000000000E+00  0.00000000000E+00 -0.68240219150E+03  0.68240219152E+03  0.50400001928E-02 0.  1.
    10030    2    1    2    0    0  0.00000000000E+00  0.00000000000E+00  0.15732071761E+04  0.29380115591E+04  0.24813164052E+04 0.  0.
        2    1    3    3  502    0  0.17444200951E+03 -0.11769003402E+04  0.37014592197E+03  0.12460065926E+04  0.25500000920E-02 0.  1.
       -2    1    3    3    0  502 -0.17444200951E+03  0.11769003402E+04  0.12030612541E+04  0.16920049664E+04  0.25500000920E-02 0. -1.
</event>
<event>
 5   0  0.2388326E-05  0.2498891E+04  0.7818609E-02  0.8403381E-01
       -2   -1    0    0    0  501  0.00000000000E+00  0.00000000000E+00  0.57376673745E+03  0.57376673746E+03  0.25500000920E-02 0. -1.
        2   -1    0    0  501    0  0.00000000000E+00  0.00000000000E+00 -0.27208176398E+04  0.27208176398E+04  0.25500000920E-02 0.  1.
    10030    2    1    2    0    0  0.00000000000E+00  0.00000000000E+00 -0.21470509024E+04  0.32945843773E+04  0.24988914826E+04 0.  0.
        2    1    3    3  502    0  0.13219951432E+03 -0.12006077012E+04 -0.65208689326E+03  0.13726444843E+04  0.25500000920E-02 0. -1.
       -2    1    3    3    0  502 -0.13219951432E+03  0.12006077012E+04 -0.14949640091E+04  0.19219398930E+04  0.25500000920E-02 0.  1.
</event>
<event>
 5   0  0.8166500E-06  0.2683983E+04  0.7818609E-02  0.8340221E-01
        3   -1    0    0  501    0  0.00000000000E+00  0.00000000000E+00  0.82177656126E+03  0.82177656747E+03  0.10100000352E+00 0. -1.
       -3   -1    0    0    0  501  0.00000000000E+00  0.00000000000E+00 -0.21915224320E+04  0.21915224343E+04  0.10100000352E+00 0.  1.
    10030    2    1    2    0    0  0.00000000000E+00  0.00000000000E+00 -0.13697458707E+04  0.30132990018E+04  0.26839834433E+04 0.  0.
        1    1    3    3  502    0 -0.73672655508E+03  0.65614355770E+01 -0.19441625517E+04  0.20790808298E+04  0.50400001928E-02 0.  1.
       -1    1    3    3    0  502  0.73672655508E+03 -0.65614355770E+01  0.57441668099E+03  0.93421817196E+03  0.50400001928E-02 0. -1.
</event>
<event>
 5   0  0.1008073E-05  0.2456401E+04  0.7818609E-02  0.8418685E-01
       -1   -1    0    0    0  501  0.00000000000E+00  0.00000000000E+00  0.10793740843E+04  0.10793740843E+04  0.50400001928E-02 0. -1.
        1   -1    0    0  501    0  0.00000000000E+00  0.00000000000E+00 -0.13975470420E+04  0.13975470420E+04  0.50400001928E-02 0.  1.
    10030    2    1    2    0    0  0.00000000000E+00  0.00000000000E+00 -0.31817295772E+03  0.24769211263E+04  0.24564006666E+04 0.  0.
        1    1    3    3  502    0 -0.62886180725E+03 -0.10371445227E+04 -0.35393667838E+03  0.12634900498E+04  0.50400001928E-02 0. -1.
       -1    1    3    3    0  502  0.62886180725E+03  0.10371445227E+04  0.35763720654E+02  0.12134310765E+04  0.50400001928E-02 0.  1.
</event>
<event>
 5   0  0.2432309E-05  0.2521596E+04  0.7818609E-02  0.8395332E-01
        2   -1    0    0  501    0  0.00000000000E+00  0.00000000000E+00  0.22753531031E+04  0.22753531031E+04  0.25500000920E-02 0.  1.
       -2   -1    0    0    0  501  0.00000000000E+00  0.00000000000E+00 -0.69862201616E+03  0.69862201617E+03  0.25500000920E-02 0. -1.
    10030    2    1    2    0    0  0.00000000000E+00  0.00000000000E+00  0.15767310870E+04  0.29739751193E+04  0.25215961393E+04 0.  0.
        4    1    3    3  502    0  0.69004348655E+03  0.10528884078E+04  0.87072248115E+03  0.15306512551E+04  0.12699999809E+01 0.  1.
       -4    1    3    3    0  502 -0.69004348655E+03 -0.10528884078E+04  0.70600860581E+03  0.14433238642E+04  0.12699999809E+01 0. -1.
</event>
<event>
 5   0  0.1008073E-05  0.2423699E+04  0.7818609E-02  0.8430684E-01
       -1   -1    0    0    0  501  0.00000000000E+00  0.00000000000E+00  0.63114730281E+03  0.63114730283E+03  0.50400001928E-02 0.  1.
        1   -1    0    0  501    0  0.00000000000E+00  0.00000000000E+00 -0.23268412676E+04  0.23268412677E+04  0.50400001928E-02 0. -1.
    10030    2    1    2    0    0  0.00000000000E+00  0.00000000000E+00 -0.16956939648E+04  0.29579885705E+04  0.24236993132E+04 0.  0.
        1    1    3    3  502    0 -0.10080827578E+04 -0.55468907336E+03 -0.13120470022E+04  0.17451011864E+04  0.50400001928E-02 0. -1.
       -1    1    3    3    0  502  0.10080827578E+04  0.55468907336E+03 -0.38364696263E+03  0.12128873841E+04  0.50400001928E-02 0.  1.
</event>
<event>
 5   0  0.2432309E-05  0.2503270E+04  0.7818609E-02  0.8401822E-01
        2   -1    0    0  501    0  0.00000000000E+00  0.00000000000E+00  0.79636884146E+03  0.79636884146E+03  0.25500000920E-02 0.  1.
       -2   -1    0    0    0  501  0.00000000000E+00  0.00000000000E+00 -0.19671661551E+04  0.19671661551E+04  0.25500000920E-02 0. -1.
    10030    2    1    2    0    0  0.00000000000E+00  0.00000000000E+00 -0.11707973136E+04  0.27635349966E+04  0.25032697273E+04 0.  0.
        4    1    3    3  502    0 -0.84575858336E+03  0.62830104625E+03 -0.13313087440E+04  0.16977792468E+04  0.12699999809E+01 0.  1.
       -4    1    3    3    0  502  0.84575858336E+03 -0.62830104625E+03  0.16051143034E+03  0.10657557498E+04  0.12699999809E+01 0. -1.
</event>
<event>
 5   0  0.2345143E-05  0.2530425E+04  0.7818609E-02  0.8392226E-01
        2   -1    0    0  501    0  0.00000000000E+00  0.00000000000E+00  0.17360142547E+04  0.17360142547E+04  0.25500000920E-02 0.  1.
       -2   -1    0    0    0  501  0.00000000000E+00  0.00000000000E+00 -0.92209049313E+03  0.92209049313E+03  0.25500000920E-02 0. -1.
    10030    2    1    2    0    0  0.00000000000E+00  0.00000000000E+00  0.81392376153E+03  0.26581047478E+04  0.25304246601E+04 0.  0.
        5    1    3    3  502    0 -0.38784101973E+03  0.10258595375E+04  0.10696099700E+04  0.15319582322E+04  0.46999998093E+01 0.  1.
       -5    1    3    3    0  502  0.38784101973E+03 -0.10258595375E+04 -0.25568620846E+03  0.11261465156E+04  0.46999998093E+01 0. -1.
</event>
<event>
 5   0  0.1015327E-05  0.2506165E+04  0.7818609E-02  0.8400793E-01
       -1   -1    0    0    0  501  0.00000000000E+00  0.00000000000E+00  0.20080567920E+04  0.20080567920E+04  0.50400001928E-02 0. -1.
        1   -1    0    0  501    0  0.00000000000E+00  0.00000000000E+00 -0.78195772598E+03  0.78195772600E+03  0.50400001928E-02 0.  1.
    10030    2    1    2    0    0  0.00000000000E+00  0.00000000000E+00  0.12260990661E+04  0.27900145180E+04  0.25061648172E+04 0.  0.
        4    1    3    3  502    0 -0.71365246520E+03 -0.19746413683E+03 -0.51234734277E+03  0.90044063600E+03  0.12699999809E+01 0.  1.
       -4    1    3    3    0  502  0.71365246520E+03  0.19746413683E+03  0.17384464088E+04  0.18895738820E+04  0.12699999809E+01 0. -1.
</event>
<event>
 5   0  0.2345143E-05  0.2503149E+04  0.7818609E-02  0.8401865E-01
       -2   -1    0    0    0  501  0.00000000000E+00  0.00000000000E+00  0.96239298361E+03  0.96239298362E+03  0.25500000920E-02 0.  1.
        2   -1    0    0  501    0  0.00000000000E+00  0.00000000000E+00 -0.16276495705E+04  0.16276495705E+04  0.25500000920E-02 0. -1.
    10030    2    1    2    0    0  0.00000000000E+00  0.00000000000E+00 -0.66525658690E+03  0.25900425541E+04  0.25031488381E+04 0.  0.
        5    1    3    3  502    0 -0.67445322768E+03 -0.10277447494E+04 -0.57588509840E+03  0.13575021778E+04  0.46999998093E+01 0. -1.
       -5    1    3    3    0  502  0.67445322768E+03  0.10277447494E+04 -0.89371488499E+02  0.12325403763E+04  0.46999998093E+01 0.  1.
</event>
<event>
 5   0  0.1010338E-05  0.2496625E+04  0.7818609E-02  0.8404189E-01
       -1   -1    0    0    0  501  0.00000000000E+00  0.00000000000E+00  0.89869170415E+03  0.89869170417E+03  0.50400001928E-02 0. -1.
        1   -1    0    0  501    0  0.00000000000E+00  0.00000000000E+00 -0.17339466789E+04  0.17339466789E+04  0.50400001928E-02 0.  1.
    10030    2    1    2    0    0  0.00000000000E+00  0.00000000000E+00 -0.83525497475E+03  0.26326383831E+04  0.24966245179E+04 0.  0.
        2    1    3    3  502    0  0.27830494421E+03  0.98541544749E+03  0.33526339246E+03  0.10774501327E+04  0.25500000920E-02 0. -1.
       -2    1    3    3    0  502 -0.27830494421E+03 -0.98541544749E+03 -0.11705183672E+04  0.15551882504E+04  0.25500000920E-02 0.  1.
</event>
<event>
 5   0  0.2388326E-05  0.2396292E+04  0.7818609E-02  0.8440893E-01
        2   -1    0    0  501    0  0.00000000000E+00  0.00000000000E+00  0.13015825808E+04  0.13015825808E+04  0.25500000920E-02 0.  1.
       -2   -1    0    0    0  501  0.00000000000E+00  0.00000000000E+00 -0.11029298850E+04  0.11029298850E+04  0.25500000920E-02 0. -1.
    10030    2    1    2    0    0  0.00000000000E+00  0.00000000000E+00  0.19865269580E+03  0.24045124658E+04  0.23962924080E+04 0.  0.
        2    1    3    3  502    0  0.21242723081E+02 -0.90076364552E+03 -0.69314727579E+03  0.11367847397E+04  0.25500000920E-02 0. -1.
       -2    1    3    3    0  502 -0.21242723081E+02  0.90076364552E+03  0.89179997159E+03  0.12677277262E+04  0.25500000920E-02 0.  1.
</event>
<event>
 5   0  0.1002753E-05  0.2476757E+04  0.7818609E-02  0.8411313E-01
        1   -1    0    0  501    0  0.00000000000E+00  0.00000000000E+00  0.10414303393E+04  0.10414303393E+04  0.50400001928E-02 0.  1.
       -1   -1    0    0    0  501  0.00000000000E+00  0.00000000000E+00 -0.14725718709E+04  0.14725718709E+04  0.50400001928E-02 0. -1.
    10030    2    1    2    0    0  0.00000000000E+00  0.00000000000E+00 -0.43114153167E+03  0.25140022102E+04  0.24767567690E+04 0.  0.
        5    1    3    3  502    0  0.15524228084E+03 -0.11809709411E+03 -0.14568721080E+04  0.14698794231E+04  0.46999998093E+01 0. -1.
       -5    1    3    3    0  502 -0.15524228084E+03  0.11809709411E+03  0.10257305763E+04  0.10441227871E+04  0.46999998093E+01 0.  1.
</event>
</LesHouchesEvents>
