<LesHouchesEvents version="3.0">
<header>
<!--
#*********************************************************************
#                                                                    *
#                        MadGraph5_aMC@NLO                           *
#                                                                    *
#                           Going Beyond                             *
#                                                                    *
#                   http://madgraph.hep.uiuc.edu                     *
#                   http://madgraph.phys.ucl.ac.be                   *
#                   http://amcatnlo.cern.ch                          *
#                                                                    *
#                     The MadGraph5_aMC@NLO team                     *
#                                                                    *
#....................................................................*
#                                                                    *
# This file contains all the information necessary to reproduce      *
# the events generated:                                              *
#                                                                    *
# 1. software version                                                *
# 2. proc_card          : code generation info including model       *
# 3. param_card         : model primary parameters in the LH format  *
# 4. run_card           : running parameters (collider and cuts)     *
# 5. pythia_card        : present only if pythia has been run        *
# 6. pgs_card           : present only if pgs has been run           *
# 7. delphes_cards      : present only if delphes has been run       *
#                                                                    *
#                                                                    *
#*********************************************************************
-->
<MGVersion>
#5.2.2.3
</MGVersion>
<MG5ProcCard>
#************************************************************
#*                     MadGraph5_aMC@NLO                    *
#*                                                          *
#*                *                       *                 *
#*                  *        * *        *                   *
#*                    * * * * 5 * * * *                     *
#*                  *        * *        *                   *
#*                *                       *                 *
#*                                                          *
#*                                                          *
#*         VERSION 2.2.3                 2015-02-10         *
#*                                                          *
#*    The MadGraph5_aMC@NLO Development Team - Find us at   *
#*    https://server06.fynu.ucl.ac.be/projects/madgraph     *
#*                                                          *
#************************************************************
#*                                                          *
#*               Command File for MadGraph5_aMC@NLO         *
#*                                                          *
#*     run as ./bin/mg5_aMC  filename                       *
#*                                                          *
#************************************************************
set group_subprocesses Auto
set ignore_six_quark_processes False
set loop_optimized_output True
set gauge unitary
set complex_mass_scheme False
import model sm
define p = g u c d s u~ c~ d~ s~
define j = g u c d s u~ c~ d~ s~
define l+ = e+ mu+
define l- = e- mu-
define vl = ve vm vt
define vl~ = ve~ vm~ vt~
import model Zprime_UFO
generate p p > zph, zph > j j
add process p p > zph, zph > b b~
output Dijet_signal
</MG5ProcCard>
<MGProcCard>
#*********************************************************************
#                        MadGraph/MadEvent                           *
#                   http://madgraph.hep.uiuc.edu                     *
#                                                                    *
#                          proc_card.dat                             *
#*********************************************************************
#                                                                    *
#            This Files is generated by MADGRAPH 5                   *
#                                                                    *
# WARNING: This Files is generated for MADEVENT (compatibility issue)*
#          This files is NOT a valid MG4 proc_card.dat               *
#          Running this in MG4 will NEVER reproduce the result of MG5*
#                                                                    *
#*********************************************************************
#*********************************************************************
# Process(es) requested : mg2 input                                  *
#*********************************************************************
# Begin PROCESS # This is TAG. Do not modify this line
p p > zph , zph > j j           #Process
# Be carefull the coupling are here in MG5 convention
          
end_coup           # End the couplings input

done               # this tells MG there are no more procs
# End PROCESS  # This is TAG. Do not modify this line
#*********************************************************************
# Model information                                                  *
#*********************************************************************
# Begin MODEL  # This is TAG. Do not modify this line
Zprime_UFO
# End   MODEL  # This is TAG. Do not modify this line
#*********************************************************************
# Start multiparticle definitions                                    *
#*********************************************************************
# Begin MULTIPARTICLES # This is TAG. Do not modify this line

# End  MULTIPARTICLES # This is TAG. Do not modify this line
</MGProcCard>
<MGRunCard>
#*********************************************************************
#                       MadGraph5_aMC@NLO                            *
#                                                                    *
#                     run_card.dat MadEvent                          *
#                                                                    *
#  This file is used to set the parameters of the run.               *
#                                                                    *
#  Some notation/conventions:                                        *
#                                                                    *
#   Lines starting with a '# ' are info or comments                  *
#                                                                    *
#   mind the format:   value    = variable     ! comment             *
#*********************************************************************
#
#*******************                                                 
# Running parameters
#*******************                                                 
#                                                                    
#*********************************************************************
# Tag name for the run (one word)                                    *
#*********************************************************************
  tag_1     = run_tag ! name of the run 
#*********************************************************************
# Run to generate the grid pack                                      *
#*********************************************************************
  .false.     = gridpack  !True = setting up the grid pack
#*********************************************************************
# Number of events and rnd seed                                      *
# Warning: Do not generate more than 1M events in a single run       *
# If you want to run Pythia, avoid more than 50k events in a run.    *
#*********************************************************************
  2000 = nevents ! Number of unweighted events requested 
 1866 = iseed   ! rnd seed (0=assigned automatically=default))
#*********************************************************************
# Collider type and energy                                           *
# lpp: 0=No PDF, 1=proton, -1=antiproton, 2=photon from proton,      *
#                                         3=photon from electron     *
#*********************************************************************
        1     = lpp1    ! beam 1 type 
        1     = lpp2    ! beam 2 type
     4000     = ebeam1  ! beam 1 total energy in GeV
     4000     = ebeam2  ! beam 2 total energy in GeV
#*********************************************************************
# Beam polarization from -100 (left-handed) to 100 (right-handed)    *
#*********************************************************************
        0     = polbeam1 ! beam polarization for beam 1
        0     = polbeam2 ! beam polarization for beam 2
#*********************************************************************
# PDF CHOICE: this automatically fixes also alpha_s and its evol.    *
#*********************************************************************
 'nn23lo1'    = pdlabel     ! PDF set                                     
 230000    = lhaid     ! if pdlabel=lhapdf, this is the lhapdf number
#*********************************************************************
# Renormalization and factorization scales                           *
#*********************************************************************
 F        = fixed_ren_scale  ! if .true. use fixed ren scale
 F        = fixed_fac_scale  ! if .true. use fixed fac scale
 91.1880  = scale            ! fixed ren scale
 91.1880  = dsqrt_q2fact1    ! fixed fact scale for pdf1
 91.1880  = dsqrt_q2fact2    ! fixed fact scale for pdf2
 1        = scalefact        ! scale factor for event-by-event scales
#*********************************************************************
# Matching - Warning! ickkw > 1 is still beta
#*********************************************************************
 0        = ickkw            ! 0 no matching, 1 MLM, 2 CKKW matching
 1        = highestmult      ! for ickkw=2, highest mult group
 1        = ktscheme         ! for ickkw=1, 1 Durham kT, 2 Pythia pTE
 1        = alpsfact         ! scale factor for QCD emission vx
 F        = chcluster        ! cluster only according to channel diag
 T        = pdfwgt           ! for ickkw=1, perform pdf reweighting
 5        = asrwgtflavor     ! highest quark flavor for a_s reweight
 T        = clusinfo         ! include clustering tag in output
 3.0      = lhe_version       ! Change the way clustering information pass to shower.        
#*********************************************************************
#**********************************************************
#
#**********************************************************
# Automatic ptj and mjj cuts if xqcut > 0
# (turn off for VBF and single top processes)
#**********************************************************
   T  = auto_ptj_mjj  ! Automatic setting of ptj and mjj
#**********************************************************
#                                                                    
#**********************************
# BW cutoff (M+/-bwcutoff*Gamma)
#**********************************
  15  = bwcutoff      ! (M+/-bwcutoff*Gamma)
#**********************************************************
# Apply pt/E/eta/dr/mij cuts on decay products or not
# (note that etmiss/ptll/ptheavy/ht/sorted cuts always apply)
#**********************************************************
   T  = cut_decays    ! Cut decay products 
#*************************************************************
# Number of helicities to sum per event (0 = all helicities)
# 0 gives more stable result, but longer run time (needed for
# long decay chains e.g.).
# Use >=2 if most helicities contribute, e.g. pure QCD.
#*************************************************************
   0  = nhel          ! Number of helicities used per event
#*******************                                                 
# Standard Cuts
#*******************                                                 
#                                                                    
#*********************************************************************
# Minimum and maximum pt's (for max, -1 means no cut)                *
#*********************************************************************
 20  = ptj       ! minimum pt for the jets 
  0  = ptb       ! minimum pt for the b 
 10  = pta       ! minimum pt for the photons 
 10  = ptl       ! minimum pt for the charged leptons 
  0  = misset    ! minimum missing Et (sum of neutrino's momenta)
  0  = ptheavy   ! minimum pt for one heavy final state
 1.0 = ptonium   ! minimum pt for the quarkonium states
 -1  = ptjmax    ! maximum pt for the jets
 -1  = ptbmax    ! maximum pt for the b
 -1  = ptamax    ! maximum pt for the photons
 -1  = ptlmax    ! maximum pt for the charged leptons
 -1  = missetmax ! maximum missing Et (sum of neutrino's momenta)
#*********************************************************************
# Minimum and maximum E's (in the center of mass frame)              *
#*********************************************************************
  0  = ej     ! minimum E for the jets 
  0  = eb     ! minimum E for the b 
  0  = ea     ! minimum E for the photons 
  0  = el     ! minimum E for the charged leptons 
 -1   = ejmax ! maximum E for the jets
 -1   = ebmax ! maximum E for the b
 -1   = eamax ! maximum E for the photons
 -1   = elmax ! maximum E for the charged leptons
#*********************************************************************
# Maximum and minimum absolute rapidity (for max, -1 means no cut)   *
#*********************************************************************
   5  = etaj    ! max rap for the jets 
  -1  = etab    ! max rap for the b
 2.5  = etaa    ! max rap for the photons 
 2.5  = etal    ! max rap for the charged leptons 
 0.6  = etaonium ! max rap for the quarkonium states
   0  = etajmin ! min rap for the jets
   0  = etabmin ! min rap for the b
   0  = etaamin ! min rap for the photons
   0  = etalmin ! main rap for the charged leptons
#*********************************************************************
# Minimum and maximum DeltaR distance                                *
#*********************************************************************
 0.4 = drjj    ! min distance between jets 
 0   = drbb    ! min distance between b's 
 0.4 = drll    ! min distance between leptons 
 0.4 = draa    ! min distance between gammas 
 0   = drbj    ! min distance between b and jet 
 0.4 = draj    ! min distance between gamma and jet 
 0.4 = drjl    ! min distance between jet and lepton 
 0   = drab    ! min distance between gamma and b 
 0   = drbl    ! min distance between b and lepton 
 0.4 = dral    ! min distance between gamma and lepton 
 -1  = drjjmax ! max distance between jets
 -1  = drbbmax ! max distance between b's
 -1  = drllmax ! max distance between leptons
 -1  = draamax ! max distance between gammas
 -1  = drbjmax ! max distance between b and jet
 -1  = drajmax ! max distance between gamma and jet
 -1  = drjlmax ! max distance between jet and lepton
 -1  = drabmax ! max distance between gamma and b
 -1  = drblmax ! max distance between b and lepton
 -1  = dralmax ! maxdistance between gamma and lepton
#*********************************************************************
# Minimum and maximum invariant mass for pairs                       *
# WARNING: for four lepton final state mmll cut require to have      *
#          different lepton masses for each flavor!                  *           
#*********************************************************************
 0   = mmjj    ! min invariant mass of a jet pair 
 0   = mmbb    ! min invariant mass of a b pair 
 0   = mmaa    ! min invariant mass of gamma gamma pair
 0   = mmll    ! min invariant mass of l+l- (same flavour) lepton pair
 -1  = mmjjmax ! max invariant mass of a jet pair
 -1  = mmbbmax ! max invariant mass of a b pair
 -1  = mmaamax ! max invariant mass of gamma gamma pair
 -1  = mmllmax ! max invariant mass of l+l- (same flavour) lepton pair
#*********************************************************************
# Minimum and maximum invariant mass for all letpons                 *
#*********************************************************************
 0   = mmnl    ! min invariant mass for all letpons (l+- and vl) 
 -1  = mmnlmax ! max invariant mass for all letpons (l+- and vl) 
#*********************************************************************
# Minimum and maximum pt for 4-momenta sum of leptons                *
#*********************************************************************
 0   = ptllmin  ! Minimum pt for 4-momenta sum of leptons(l and vl)
 -1  = ptllmax  ! Maximum pt for 4-momenta sum of leptons(l and vl)
#*********************************************************************
# Inclusive cuts                                                     *
#*********************************************************************
 0  = xptj ! minimum pt for at least one jet  
 0  = xptb ! minimum pt for at least one b 
 0  = xpta ! minimum pt for at least one photon 
 0  = xptl ! minimum pt for at least one charged lepton 
#*********************************************************************
# Control the pt's of the jets sorted by pt                          *
#*********************************************************************
 0   = ptj1min ! minimum pt for the leading jet in pt
 0   = ptj2min ! minimum pt for the second jet in pt
 0   = ptj3min ! minimum pt for the third jet in pt
 0   = ptj4min ! minimum pt for the fourth jet in pt
 -1  = ptj1max ! maximum pt for the leading jet in pt 
 -1  = ptj2max ! maximum pt for the second jet in pt
 -1  = ptj3max ! maximum pt for the third jet in pt
 -1  = ptj4max ! maximum pt for the fourth jet in pt
 0   = cutuse  ! reject event if fails any (0) / all (1) jet pt cuts
#*********************************************************************
# Control the pt's of leptons sorted by pt                           *
#*********************************************************************
 0   = ptl1min ! minimum pt for the leading lepton in pt
 0   = ptl2min ! minimum pt for the second lepton in pt
 0   = ptl3min ! minimum pt for the third lepton in pt
 0   = ptl4min ! minimum pt for the fourth lepton in pt
 -1  = ptl1max ! maximum pt for the leading lepton in pt 
 -1  = ptl2max ! maximum pt for the second lepton in pt
 -1  = ptl3max ! maximum pt for the third lepton in pt
 -1  = ptl4max ! maximum pt for the fourth lepton in pt
#*********************************************************************
# Control the Ht(k)=Sum of k leading jets                            *
#*********************************************************************
 0   = htjmin ! minimum jet HT=Sum(jet pt)
 -1  = htjmax ! maximum jet HT=Sum(jet pt)
 0   = ihtmin  !inclusive Ht for all partons (including b)
 -1  = ihtmax  !inclusive Ht for all partons (including b)
 0   = ht2min ! minimum Ht for the two leading jets
 0   = ht3min ! minimum Ht for the three leading jets
 0   = ht4min ! minimum Ht for the four leading jets
 -1  = ht2max ! maximum Ht for the two leading jets
 -1  = ht3max ! maximum Ht for the three leading jets
 -1  = ht4max ! maximum Ht for the four leading jets
#***********************************************************************
# Photon-isolation cuts, according to hep-ph/9801442                   *
# When ptgmin=0, all the other parameters are ignored                  *
# When ptgmin>0, pta and draj are not going to be used                 *
#***********************************************************************
   0 = ptgmin ! Min photon transverse momentum
 0.4 = R0gamma ! Radius of isolation code
 1.0 = xn ! n parameter of eq.(3.4) in hep-ph/9801442
 1.0 = epsgamma ! epsilon_gamma parameter of eq.(3.4) in hep-ph/9801442
 .true. = isoEM ! isolate photons from EM energy (photons and leptons)
#*********************************************************************
# WBF cuts                                                           *
#*********************************************************************
 0   = xetamin ! minimum rapidity for two jets in the WBF case  
 0   = deltaeta ! minimum rapidity for two jets in the WBF case 
#*********************************************************************
# KT DURHAM CUT                                                      *
#*********************************************************************
 -1    =  ktdurham        
 0.4  =  dparameter 
#*********************************************************************
# maximal pdg code for quark to be considered as a light jet         *
# (otherwise b cuts are applied)                                     *
#*********************************************************************
 4 = maxjetflavor    ! Maximum jet pdg code
#*********************************************************************
# Jet measure cuts                                                   *
#*********************************************************************
 0   = xqcut   ! minimum kt jet measure between partons
#*********************************************************************
#
#*********************************************************************
# Store info for systematics studies                                 *
# WARNING: If use_syst is T, matched Pythia output is                *
#          meaningful ONLY if plotted taking matchscale              *
#          reweighting into account!                                 *
#*********************************************************************
   F  = use_syst      ! Enable systematics studies
#
#**************************************
# Parameter of the systematics study
#  will be used by SysCalc (if installed)
#**************************************                                  
#
0.5 1 2 = sys_scalefact  # factorization/renormalization scale factor
0.5 1 2 = sys_alpsfact  # \alpha_s emission scale factors
30 50 = sys_matchscale # variation of merging scale
# PDF sets and number of members (0 or none for all members).
CT10nlo.LHgrid = sys_pdf # matching scales
# MSTW2008nlo68cl.LHgrid 1  = sys_pdf
</MGRunCard>
<slha>
######################################################################
## PARAM_CARD AUTOMATICALY GENERATED BY MG5 FOLLOWING UFO MODEL   ####
######################################################################
##                                                                  ##
##  Width set on Auto will be computed following the information    ##
##        present in the decay.py files of the model.               ##
##        See  arXiv:1402.1178 for more details.                    ##
##                                                                  ##
######################################################################

###################################
## INFORMATION FOR CKMBLOCK
###################################
Block ckmblock 
    1 2.277360e-01 # cabi 

###################################
## INFORMATION FOR FRBLOCK
###################################
Block frblock 
    1 1.000000e+00 # gz 

###################################
## INFORMATION FOR MASS
###################################
Block mass 
    1 5.040000e-03 # MD 
    2 2.550000e-03 # MU 
    3 1.010000e-01 # MS 
    4 1.270000e+00 # MC 
    5 4.700000e+00 # MB 
    6 1.720000e+02 # MT 
   11 5.110000e-04 # Me 
   13 1.056600e-01 # MM 
   15 1.777000e+00 # MTA 
   23 9.118760e+01 # MZ 
   25 1.200000e+02 # MH 
  10030 1.300000e+03 # MZph 
  10031 3.000000e+02 # MZpl 
## Dependent parameters, given by model restrictions.
## Those values should be edited following the 
## analytical expression. MG5 ignores those values 
## but they are important for interfacing the output of MG5
## to external program such as Pythia.
  12 0.000000 # ve : 0.0 
  14 0.000000 # vm : 0.0 
  16 0.000000 # vt : 0.0 
  21 0.000000 # g : 0.0 
  22 0.000000 # a : 0.0 
  24 79.824360 # w+ : cmath.sqrt(MZ__exp__2/2. + cmath.sqrt(MZ__exp__4/4. - (aEW*cmath.pi*MZ__exp__2)/(Gf*sqrt__2))) 

###################################
## INFORMATION FOR SMINPUTS
###################################
Block sminputs 
    1 1.279000e+02 # aEWM1 
    2 1.166370e-05 # Gf 
    3 1.184000e-01 # aS 

###################################
## INFORMATION FOR YUKAWA
###################################
Block yukawa 
    1 5.040000e-03 # ymdo 
    2 2.550000e-03 # ymup 
    3 1.010000e-01 # yms 
    4 1.270000e+00 # ymc 
    5 4.700000e+00 # ymb 
    6 1.720000e+02 # ymt 
   11 5.110000e-04 # yme 
   13 1.056600e-01 # ymm 
   15 1.777000e+00 # ymtau 

###################################
## INFORMATION FOR DECAY
###################################
DECAY   6 1.508336e+00 # WT 
DECAY  23 2.495200e+00 # WZ 
DECAY  24 2.085000e+00 # WW 
DECAY  25 5.753088e-03 # WH 
## Dependent parameters, given by model restrictions.
## Those values should be edited following the 
## analytical expression. MG5 ignores those values 
## but they are important for interfacing the output of MG5
## to external program such as Pythia.
DECAY  1 0.000000 # d : 0.0 
DECAY  2 0.000000 # u : 0.0 
DECAY  3 0.000000 # s : 0.0 
DECAY  4 0.000000 # c : 0.0 
DECAY  5 0.000000 # b : 0.0 
DECAY  11 0.000000 # e- : 0.0 
DECAY  12 0.000000 # ve : 0.0 
DECAY  13 0.000000 # mu- : 0.0 
DECAY  14 0.000000 # vm : 0.0 
DECAY  15 0.000000 # ta- : 0.0 
DECAY  16 0.000000 # vt : 0.0 
DECAY  21 0.000000 # g : 0.0 
DECAY  22 0.000000 # a : 0.0 
DECAY  10030 0.308725 # zph : (gz__exp__2*MZph*(5 + cmath.sqrt(1 - (4*MT__exp__2)/MZph__exp__2)))/(144.*cmath.pi) 
DECAY  10031 0.132629 # zpl : (5*gz__exp__2*MZpl)/(144.*cmath.pi) 
#===========================================================
# QUANTUM NUMBERS OF NEW STATE(S) (NON SM PDG CODE)
#===========================================================

Block QNUMBERS 10030  # zph 
        1 0  # 3 times electric charge
        2 3  # number of spin states (2S+1)
        3 1  # colour rep (1: singlet, 3: triplet, 8: octet)
        4 0  # Particle/Antiparticle distinction (0=own anti)
Block QNUMBERS 10031  # zpl 
        1 0  # 3 times electric charge
        2 3  # number of spin states (2S+1)
        3 1  # colour rep (1: singlet, 3: triplet, 8: octet)
        4 0  # Particle/Antiparticle distinction (0=own anti)
</slha>
## END BANNER##
<MGGenerationInfo>
#  Number of Events        :         4000
#  Integrated weight (pb)  :  0.50273E+00
#  Max wgt                 :  0.17149E-03
#  Average wgt             :  0.12568E-03
</MGGenerationInfo>
</header>
<init>
     2212     2212  0.40000000000E+04  0.40000000000E+04 0 0  247000  247000 2   1
  0.50304872268E+00  0.11719425218E-02  0.17148610000E-03   0
</init>
<event>
 5   0  0.1714861E-03  0.1297346E+04  0.7818609E-02  0.9031672E-01
       -2   -1    0    0    0  501  0.00000000000E+00  0.00000000000E+00  0.37259254362E+03  0.37259254363E+03  0.25500000920E-02 0. -1.
        2   -1    0    0  501    0  0.00000000000E+00  0.00000000000E+00 -0.11293212262E+04  0.11293212262E+04  0.25500000920E-02 0.  1.
    10030    2    1    2    0    0  0.00000000000E+00  0.00000000000E+00 -0.75672868259E+03  0.15019137699E+04  0.12973460113E+04 0.  0.
        1    1    3    3  502    0 -0.38824389431E+03 -0.22605420020E+03 -0.92005900457E+03  0.10238859286E+04  0.50400001928E-02 0.  1.
       -1    1    3    3    0  502  0.38824389431E+03  0.22605420020E+03  0.16333032198E+03  0.47802784124E+03  0.50400001928E-02 0. -1.
</event>
<event>
 5   0  0.1714861E-03  0.1281684E+04  0.7818609E-02  0.9044218E-01
       -2   -1    0    0    0  501  0.00000000000E+00  0.00000000000E+00  0.50972859185E+03  0.50972859185E+03  0.25500000920E-02 0.  1.
        2   -1    0    0  501    0  0.00000000000E+00  0.00000000000E+00 -0.80568031738E+03  0.80568031738E+03  0.25500000920E-02 0. -1.
    10030    2    1    2    0    0  0.00000000000E+00  0.00000000000E+00 -0.29595172553E+03  0.13154089092E+04  0.12816837265E+04 0.  0.
        1    1    3    3  502    0  0.42356095160E+03  0.45931266560E+03 -0.29422563276E+03  0.69060895411E+03  0.50400001928E-02 0. -1.
       -1    1    3    3    0  502 -0.42356095160E+03 -0.45931266560E+03 -0.17260927713E+01  0.62479995512E+03  0.50400001928E-02 0.  1.
</event>
<event>
 5   0  0.1623890E-03  0.1257071E+04  0.7818609E-02  0.9064318E-01
       -2   -1    0    0    0  501  0.00000000000E+00  0.00000000000E+00  0.10392504963E+04  0.10392504964E+04  0.25500000920E-02 0.  1.
        2   -1    0    0  501    0  0.00000000000E+00  0.00000000000E+00 -0.38013655198E+03  0.38013655199E+03  0.25500000920E-02 0. -1.
    10030    2    1    2    0    0  0.00000000000E+00  0.00000000000E+00  0.65911394437E+03  0.14193870483E+04  0.12570713589E+04 0.  0.
        3    1    3    3  502    0  0.39661714232E+03 -0.39237779836E+03  0.27125050564E+01  0.55791832925E+03  0.10100000352E+00 0. -1.
       -3    1    3    3    0  502 -0.39661714232E+03  0.39237779836E+03  0.65640143931E+03  0.86146871909E+03  0.10100000352E+00 0.  1.
</event>
<event>
 5   0  0.1714861E-03  0.1293983E+04  0.7818609E-02  0.9034351E-01
       -2   -1    0    0    0  501  0.00000000000E+00  0.00000000000E+00  0.13950090079E+03  0.13950090081E+03  0.25500000920E-02 0.  1.
        2   -1    0    0  501    0  0.00000000000E+00  0.00000000000E+00 -0.30006819487E+04  0.30006819487E+04  0.25500000920E-02 0. -1.
    10030    2    1    2    0    0  0.00000000000E+00  0.00000000000E+00 -0.28611810479E+04  0.31401828495E+04  0.12939827431E+04 0.  0.
        1    1    3    3  502    0 -0.25905813955E+03  0.56860847669E+03 -0.10232773338E+04  0.11989675648E+04  0.50400001928E-02 0.  1.
       -1    1    3    3    0  502  0.25905813955E+03 -0.56860847669E+03 -0.18379037140E+04  0.19412152847E+04  0.50400001928E-02 0. -1.
</event>
<event>
 5   0  0.1623890E-03  0.1294199E+04  0.7818609E-02  0.9034178E-01
       -2   -1    0    0    0  501  0.00000000000E+00  0.00000000000E+00  0.44061811005E+03  0.44061811005E+03  0.25500000920E-02 0. -1.
        2   -1    0    0  501    0  0.00000000000E+00  0.00000000000E+00 -0.95034187481E+03  0.95034187481E+03  0.25500000920E-02 0.  1.
    10030    2    1    2    0    0  0.00000000000E+00  0.00000000000E+00 -0.50972376476E+03  0.13909599849E+04  0.12941991204E+04 0.  0.
        3    1    3    3  502    0 -0.11215855933E+03 -0.10999778567E+03  0.41981221658E+03  0.44824252662E+03  0.10100000352E+00 0. -1.
       -3    1    3    3    0  502  0.11215855933E+03  0.10999778567E+03 -0.92953598134E+03  0.94271745825E+03  0.10100000352E+00 0.  1.
</event>
<event>
 5   0  0.9098192E-04  0.1289671E+04  0.7818609E-02  0.9037797E-01
       -1   -1    0    0    0  501  0.00000000000E+00  0.00000000000E+00  0.24725686338E+03  0.24725686344E+03  0.50400001928E-02 0. -1.
        1   -1    0    0  501    0  0.00000000000E+00  0.00000000000E+00 -0.16817035769E+04  0.16817035769E+04  0.50400001928E-02 0.  1.
    10030    2    1    2    0    0  0.00000000000E+00  0.00000000000E+00 -0.14344467135E+04  0.19289604403E+04  0.12896708908E+04 0.  0.
        1    1    3    3  502    0 -0.42821428872E+03  0.22400554702E+03 -0.13557781886E+04  0.14393333383E+04  0.50400001928E-02 0.  1.
       -1    1    3    3    0  502  0.42821428872E+03 -0.22400554702E+03 -0.78668524906E+02  0.48962710199E+03  0.50400001928E-02 0. -1.
</event>
<event>
 5   0  0.9215829E-04  0.1368207E+04  0.7818609E-02  0.8977159E-01
       -1   -1    0    0    0  501  0.00000000000E+00  0.00000000000E+00  0.62155445354E+03  0.62155445356E+03  0.50400001928E-02 0. -1.
        1   -1    0    0  501    0  0.00000000000E+00  0.00000000000E+00 -0.75294751854E+03  0.75294751856E+03  0.50400001928E-02 0.  1.
    10030    2    1    2    0    0  0.00000000000E+00  0.00000000000E+00 -0.13139306500E+03  0.13745019721E+04  0.13682074162E+04 0.  0.
        3    1    3    3  502    0  0.37999373753E+03  0.56475789767E+03 -0.13420962754E+03  0.69380037321E+03  0.10100000352E+00 0. -1.
       -3    1    3    3    0  502 -0.37999373753E+03 -0.56475789767E+03  0.28165625394E+01  0.68070159891E+03  0.10100000352E+00 0.  1.
</event>
<event>
 5   0  0.1714861E-03  0.1239637E+04  0.7818609E-02  0.9078853E-01
       -2   -1    0    0    0  501  0.00000000000E+00  0.00000000000E+00  0.10400520419E+04  0.10400520419E+04  0.25500000920E-02 0. -1.
        2   -1    0    0  501    0  0.00000000000E+00  0.00000000000E+00 -0.36938053309E+03  0.36938053310E+03  0.25500000920E-02 0.  1.
    10030    2    1    2    0    0  0.00000000000E+00  0.00000000000E+00  0.67067150883E+03  0.14094325750E+04  0.12396370077E+04 0.  0.
        1    1    3    3  502    0 -0.61591865613E+02 -0.15883858086E+03 -0.34223825045E+03  0.38229605383E+03  0.50400001928E-02 0.  1.
       -1    1    3    3    0  502  0.61591865613E+02  0.15883858086E+03  0.10129097593E+04  0.10271365212E+04  0.50400001928E-02 0. -1.
</event>
<event>
 5   0  0.9110949E-04  0.1298545E+04  0.7818609E-02  0.9030720E-01
        1   -1    0    0  501    0  0.00000000000E+00  0.00000000000E+00  0.75788284277E+03  0.75788284279E+03  0.50400001928E-02 0.  1.
       -1   -1    0    0    0  501  0.00000000000E+00  0.00000000000E+00 -0.55622711992E+03  0.55622711995E+03  0.50400001928E-02 0. -1.
    10030    2    1    2    0    0  0.00000000000E+00  0.00000000000E+00  0.20165572285E+03  0.13141099627E+04  0.12985453260E+04 0.  0.
        2    1    3    3  502    0  0.35208538402E+03  0.31538925347E+03 -0.34961456936E+03  0.58793268829E+03  0.25500000920E-02 0. -1.
       -2    1    3    3    0  502 -0.35208538402E+03 -0.31538925347E+03  0.55127029221E+03  0.72617727445E+03  0.25500000920E-02 0.  1.
</event>
<event>
 5   0  0.1714861E-03  0.1290051E+04  0.7818609E-02  0.9037492E-01
        2   -1    0    0  501    0  0.00000000000E+00  0.00000000000E+00  0.11020635061E+04  0.11020635061E+04  0.25500000920E-02 0. -1.
       -2   -1    0    0    0  501  0.00000000000E+00  0.00000000000E+00 -0.37752650583E+03  0.37752650584E+03  0.25500000920E-02 0.  1.
    10030    2    1    2    0    0  0.00000000000E+00  0.00000000000E+00  0.72453700022E+03  0.14795900119E+04  0.12900514480E+04 0.  0.
        1    1    3    3  502    0  0.56162406404E+03  0.24095722823E+03  0.59892468407E+03  0.85568262362E+03  0.50400001928E-02 0. -1.
       -1    1    3    3    0  502 -0.56162406404E+03 -0.24095722823E+03  0.12561231616E+03  0.62390738828E+03  0.50400001928E-02 0.  1.
</event>
<event>
 5   0  0.6284125E-04  0.1306299E+04  0.7818609E-02  0.9024585E-01
       -4   -1    0    0    0  501  0.00000000000E+00  0.00000000000E+00  0.55903412676E+03  0.55903556934E+03  0.12699999809E+01 0.  1.
        4   -1    0    0  501    0  0.00000000000E+00  0.00000000000E+00 -0.76310613200E+03  0.76310718880E+03  0.12699999809E+01 0. -1.
    10030    2    1    2    0    0  0.00000000000E+00  0.00000000000E+00 -0.20407200523E+03  0.13221427581E+04  0.13062986219E+04 0.  0.
        3    1    3    3  502    0  0.38273037941E+03 -0.49371691731E+03  0.90973246989E+02  0.63128050788E+03  0.10100000352E+00 0. -1.
       -3    1    3    3    0  502 -0.38273037941E+03  0.49371691731E+03 -0.29504525222E+03  0.69086225025E+03  0.10100000352E+00 0.  1.
</event>
<event>
 5   0  0.1667342E-03  0.1310181E+04  0.7818609E-02  0.9021530E-01
        2   -1    0    0  501    0  0.00000000000E+00  0.00000000000E+00  0.45138897540E+03  0.45138897540E+03  0.25500000920E-02 0.  1.
       -2   -1    0    0    0  501  0.00000000000E+00  0.00000000000E+00 -0.95071749799E+03  0.95071749799E+03  0.25500000920E-02 0. -1.
    10030    2    1    2    0    0  0.00000000000E+00  0.00000000000E+00 -0.49932852259E+03  0.14021064734E+04  0.13101807468E+04 0.  0.
        5    1    3    3  502    0  0.56789551900E+03  0.47749937841E+02 -0.59533827116E+03  0.82415722054E+03  0.46999998093E+01 0. -1.
       -5    1    3    3    0  502 -0.56789551900E+03 -0.47749937841E+02  0.96009748564E+02  0.57794925286E+03  0.46999998093E+01 0.  1.
</event>
<event>
 5   0  0.9027076E-04  0.1277589E+04  0.7818609E-02  0.9047529E-01
       -1   -1    0    0    0  501  0.00000000000E+00  0.00000000000E+00  0.34496656102E+03  0.34496656106E+03  0.50400001928E-02 0. -1.
        1   -1    0    0  501    0  0.00000000000E+00  0.00000000000E+00 -0.11828919555E+04  0.11828919555E+04  0.50400001928E-02 0.  1.
    10030    2    1    2    0    0  0.00000000000E+00  0.00000000000E+00 -0.83792539445E+03  0.15278585165E+04  0.12775886192E+04 0.  0.
        5    1    3    3  502    0 -0.18972167447E+03 -0.49689641348E+02 -0.11459754846E+04  0.11626458083E+04  0.46999998093E+01 0.  1.
       -5    1    3    3    0  502  0.18972167447E+03  0.49689641348E+02  0.30805009016E+03  0.36521270825E+03  0.46999998093E+01 0. -1.
</event>
<event>
 5   0  0.6284125E-04  0.1300877E+04  0.7818609E-02  0.9028870E-01
        3   -1    0    0  501    0  0.00000000000E+00  0.00000000000E+00  0.41728140828E+03  0.41728142050E+03  0.10100000352E+00 0. -1.
       -3   -1    0    0    0  501  0.00000000000E+00  0.00000000000E+00 -0.10138734448E+04  0.10138734499E+04  0.10100000352E+00 0.  1.
    10030    2    1    2    0    0  0.00000000000E+00  0.00000000000E+00 -0.59659203655E+03  0.14311548704E+04  0.13008774750E+04 0.  0.
        3    1    3    3  502    0  0.72539723950E+02 -0.23721492345E+03  0.36319961270E+03  0.43982598869E+03  0.10100000352E+00 0. -1.
       -3    1    3    3    0  502 -0.72539723950E+02  0.23721492345E+03 -0.95979164925E+03  0.99132888167E+03  0.10100000352E+00 0.  1.
</event>
<event>
 5   0  0.9098192E-04  0.1303232E+04  0.7818609E-02  0.9027006E-01
       -1   -1    0    0    0  501  0.00000000000E+00  0.00000000000E+00  0.47560639472E+03  0.47560639475E+03  0.50400001928E-02 0. -1.
        1   -1    0    0  501    0  0.00000000000E+00  0.00000000000E+00 -0.89276177751E+03  0.89276177753E+03  0.50400001928E-02 0.  1.
    10030    2    1    2    0    0  0.00000000000E+00  0.00000000000E+00 -0.41715538279E+03  0.13683681723E+04  0.13032316914E+04 0.  0.
        1    1    3    3  502    0  0.18377905057E+03 -0.54384333663E+03 -0.53231060224E+03  0.78287603840E+03  0.50400001928E-02 0.  1.
       -1    1    3    3    0  502 -0.18377905057E+03  0.54384333663E+03  0.11515521944E+03  0.58549213387E+03  0.50400001928E-02 0. -1.
</event>
<event>
 5   0  0.9215829E-04  0.1288409E+04  0.7818609E-02  0.9038807E-01
       -1   -1    0    0    0  501  0.00000000000E+00  0.00000000000E+00  0.14622717062E+03  0.14622717070E+03  0.50400001928E-02 0.  1.
        1   -1    0    0  501    0  0.00000000000E+00  0.00000000000E+00 -0.28380477854E+04  0.28380477855E+04  0.50400001928E-02 0. -1.
    10030    2    1    2    0    0  0.00000000000E+00  0.00000000000E+00 -0.26918206148E+04  0.29842749562E+04  0.12884094037E+04 0.  0.
        3    1    3    3  502    0 -0.44521015247E+03  0.42057831678E+03 -0.88323162490E+03  0.10748005926E+04  0.10100000352E+00 0.  1.
       -3    1    3    3    0  502  0.44521015247E+03 -0.42057831678E+03 -0.18085889899E+04  0.19094743636E+04  0.10100000352E+00 0. -1.
</event>
<event>
 5   0  0.9215829E-04  0.1296076E+04  0.7818609E-02  0.9032683E-01
       -1   -1    0    0    0  501  0.00000000000E+00  0.00000000000E+00  0.25908364952E+03  0.25908364957E+03  0.50400001928E-02 0.  1.
        1   -1    0    0  501    0  0.00000000000E+00  0.00000000000E+00 -0.16209181403E+04  0.16209181403E+04  0.50400001928E-02 0. -1.
    10030    2    1    2    0    0  0.00000000000E+00  0.00000000000E+00 -0.13618344907E+04  0.18800017898E+04  0.12960762129E+04 0.  0.
        3    1    3    3  502    0  0.93943224061E+02  0.53296740428E+03 -0.16383964965E+03  0.56544055777E+03  0.10100000352E+00 0. -1.
       -3    1    3    3    0  502 -0.93943224061E+02 -0.53296740428E+03 -0.11979948411E+04  0.13145612321E+04  0.10100000352E+00 0.  1.
</event>
<event>
 5   0  0.1714861E-03  0.1310643E+04  0.7818609E-02  0.9021168E-01
       -2   -1    0    0    0  501  0.00000000000E+00  0.00000000000E+00  0.43400601809E+03  0.43400601809E+03  0.25500000920E-02 0.  1.
        2   -1    0    0  501    0  0.00000000000E+00  0.00000000000E+00 -0.98949371010E+03  0.98949371010E+03  0.25500000920E-02 0. -1.
    10030    2    1    2    0    0  0.00000000000E+00  0.00000000000E+00 -0.55548769201E+03  0.14234997282E+04  0.13106429339E+04 0.  0.
        1    1    3    3  502    0  0.10554100857E+03  0.19199482850E+03 -0.94853779418E+03  0.97351161558E+03  0.50400001928E-02 0. -1.
       -1    1    3    3    0  502 -0.10554100857E+03 -0.19199482850E+03  0.39305010216E+03  0.44998811262E+03  0.50400001928E-02 0.  1.
</event>
<event>
 5   0  0.9081324E-04  0.1305717E+04  0.7818609E-02  0.9025043E-01
       -1   -1    0    0    0  501  0.00000000000E+00  0.00000000000E+00  0.47064379136E+03  0.47064379138E+03  0.50400001928E-02 0. -1.
        1   -1    0    0  501    0  0.00000000000E+00  0.00000000000E+00 -0.90562016943E+03  0.90562016944E+03  0.50400001928E-02 0.  1.
    10030    2    1    2    0    0  0.00000000000E+00  0.00000000000E+00 -0.43497637807E+03  0.13762639608E+04  0.13057174428E+04 0.  0.
        4    1    3    3  502    0 -0.27035829900E+03 -0.41761184649E+03 -0.66309396703E+03  0.82896832640E+03  0.12699999809E+01 0.  1.
       -4    1    3    3    0  502  0.27035829900E+03  0.41761184649E+03  0.22811758896E+03  0.54729563442E+03  0.12699999809E+01 0. -1.
</event>
<event>
 5   0  0.9098192E-04  0.1299418E+04  0.7818609E-02  0.9030027E-01
       -1   -1    0    0    0  501  0.00000000000E+00  0.00000000000E+00  0.20669235777E+03  0.20669235783E+03  0.50400001928E-02 0. -1.
        1   -1    0    0  501    0  0.00000000000E+00  0.00000000000E+00 -0.20422698304E+04  0.20422698304E+04  0.50400001928E-02 0.  1.
    10030    2    1    2    0    0  0.00000000000E+00  0.00000000000E+00 -0.18355774726E+04  0.22489621882E+04  0.12994176642E+04 0.  0.
        1    1    3    3  502    0  0.39202288511E+03  0.49102535037E+03 -0.63164592989E+03  0.89093457556E+03  0.50400001928E-02 0. -1.
       -1    1    3    3    0  502 -0.39202288511E+03 -0.49102535037E+03 -0.12039315427E+04  0.13580276127E+04  0.50400001928E-02 0.  1.
</event>
<event>
 5   0  0.1700511E-03  0.1301476E+04  0.7818609E-02  0.9028395E-01
        2   -1    0    0  501    0  0.00000000000E+00  0.00000000000E+00  0.36524646372E+03  0.36524646373E+03  0.25500000920E-02 0.  1.
       -2   -1    0    0    0  501  0.00000000000E+00  0.00000000000E+00 -0.11593815266E+04  0.11593815266E+04  0.25500000920E-02 0. -1.
    10030    2    1    2    0    0  0.00000000000E+00  0.00000000000E+00 -0.79413506292E+03  0.15246279904E+04  0.13014760893E+04 0.  0.
        2    1    3    3  502    0 -0.23988807261E+02  0.50325387603E+03  0.85398033496E+02  0.51101149766E+03  0.25500000920E-02 0.  1.
       -2    1    3    3    0  502  0.23988807261E+02 -0.50325387603E+03 -0.87953309642E+03  0.10136164927E+04  0.25500000920E-02 0. -1.
</event>
<event>
 5   0  0.9215829E-04  0.1299569E+04  0.7818609E-02  0.9029907E-01
        1   -1    0    0  501    0  0.00000000000E+00  0.00000000000E+00  0.10839976385E+04  0.10839976385E+04  0.50400001928E-02 0.  1.
       -1   -1    0    0    0  501  0.00000000000E+00  0.00000000000E+00 -0.38950284275E+03  0.38950284279E+03  0.50400001928E-02 0. -1.
    10030    2    1    2    0    0  0.00000000000E+00  0.00000000000E+00  0.69449479573E+03  0.14735004813E+04  0.12995694083E+04 0.  0.
        3    1    3    3  502    0  0.39778908162E+02 -0.25314655166E+03  0.10242866257E+04  0.10558544596E+04  0.10100000352E+00 0.  1.
       -3    1    3    3    0  502 -0.39778908162E+02  0.25314655166E+03 -0.32979182992E+03  0.41764602169E+03  0.10100000352E+00 0. -1.
</event>
<event>
 5   0  0.6284125E-04  0.1304058E+04  0.7818609E-02  0.9026354E-01
        3   -1    0    0  501    0  0.00000000000E+00  0.00000000000E+00  0.58719583736E+03  0.58719584605E+03  0.10100000352E+00 0.  1.
       -3   -1    0    0    0  501  0.00000000000E+00  0.00000000000E+00 -0.72402017350E+03  0.72402018055E+03  0.10100000352E+00 0. -1.
    10030    2    1    2    0    0  0.00000000000E+00  0.00000000000E+00 -0.13682433614E+03  0.13112160266E+04  0.13040577324E+04 0.  0.
        5    1    3    3  502    0  0.58715257325E+03  0.28258052559E+03 -0.45491100589E+02  0.65321621837E+03  0.46999998093E+01 0. -1.
       -5    1    3    3    0  502 -0.58715257325E+03 -0.28258052559E+03 -0.91333235551E+02  0.65799980823E+03  0.46999998093E+01 0.  1.
</event>
<event>
 5   0  0.1623890E-03  0.1294263E+04  0.7818609E-02  0.9034127E-01
       -2   -1    0    0    0  501  0.00000000000E+00  0.00000000000E+00  0.52322225888E+03  0.52322225888E+03  0.25500000920E-02 0.  1.
        2   -1    0    0  501    0  0.00000000000E+00  0.00000000000E+00 -0.80038522882E+03  0.80038522882E+03  0.25500000920E-02 0. -1.
    10030    2    1    2    0    0  0.00000000000E+00  0.00000000000E+00 -0.27716296994E+03  0.13236074877E+04  0.12942632922E+04 0.  0.
        3    1    3    3  502    0 -0.54786695495E+03  0.41971941105E+02  0.21101625588E+03  0.58859809260E+03  0.10100000352E+00 0.  1.
       -3    1    3    3    0  502  0.54786695495E+03 -0.41971941105E+02 -0.48817922582E+03  0.73500939510E+03  0.10100000352E+00 0. -1.
</event>
<event>
 5   0  0.9098192E-04  0.1281815E+04  0.7818609E-02  0.9044112E-01
       -1   -1    0    0    0  501  0.00000000000E+00  0.00000000000E+00  0.45423790846E+03  0.45423790849E+03  0.50400001928E-02 0.  1.
        1   -1    0    0  501    0  0.00000000000E+00  0.00000000000E+00 -0.90428901567E+03  0.90428901568E+03  0.50400001928E-02 0. -1.
    10030    2    1    2    0    0  0.00000000000E+00  0.00000000000E+00 -0.45005110721E+03  0.13585269242E+04  0.12818148870E+04 0.  0.
        1    1    3    3  502    0 -0.27839509160E+03 -0.30071086781E+03  0.29724488936E+03  0.50624636030E+03  0.50400001928E-02 0.  1.
       -1    1    3    3    0  502  0.27839509160E+03  0.30071086781E+03 -0.74729599657E+03  0.85228056387E+03  0.50400001928E-02 0. -1.
</event>
<event>
 5   0  0.1700511E-03  0.1308518E+04  0.7818609E-02  0.9022837E-01
       -2   -1    0    0    0  501  0.00000000000E+00  0.00000000000E+00  0.39993751495E+03  0.39993751496E+03  0.25500000920E-02 0. -1.
        2   -1    0    0  501    0  0.00000000000E+00  0.00000000000E+00 -0.10703050392E+04  0.10703050392E+04  0.25500000920E-02 0.  1.
    10030    2    1    2    0    0  0.00000000000E+00  0.00000000000E+00 -0.67036752428E+03  0.14702425542E+04  0.13085184563E+04 0.  0.
        2    1    3    3  502    0  0.56149970361E+03  0.13011668265E+03  0.12663860612E+02  0.57651768544E+03  0.25500000920E-02 0. -1.
       -2    1    3    3    0  502 -0.56149970361E+03 -0.13011668265E+03 -0.68303138489E+03  0.89372486874E+03  0.25500000920E-02 0.  1.
</event>
<event>
 5   0  0.9110949E-04  0.1303254E+04  0.7818609E-02  0.9026989E-01
        1   -1    0    0  501    0  0.00000000000E+00  0.00000000000E+00  0.13747261859E+04  0.13747261859E+04  0.50400001928E-02 0.  1.
       -1   -1    0    0    0  501  0.00000000000E+00  0.00000000000E+00 -0.30887425266E+03  0.30887425270E+03  0.50400001928E-02 0. -1.
    10030    2    1    2    0    0  0.00000000000E+00  0.00000000000E+00  0.10658519332E+04  0.16836004386E+04  0.13032536565E+04 0.  0.
        2    1    3    3  502    0  0.36182756996E+03 -0.24350747186E+03 -0.92521943874E+02  0.44584233686E+03  0.25500000920E-02 0. -1.
       -2    1    3    3    0  502 -0.36182756996E+03  0.24350747186E+03  0.11583738771E+04  0.12377581017E+04  0.25500000920E-02 0.  1.
</event>
<event>
 5   0  0.1623890E-03  0.1282268E+04  0.7818609E-02  0.9043746E-01
       -2   -1    0    0    0  501  0.00000000000E+00  0.00000000000E+00  0.11064129029E+04  0.11064129029E+04  0.25500000920E-02 0.  1.
        2   -1    0    0  501    0  0.00000000000E+00  0.00000000000E+00 -0.37151871997E+03  0.37151871998E+03  0.25500000920E-02 0. -1.
    10030    2    1    2    0    0  0.00000000000E+00  0.00000000000E+00  0.73489418294E+03  0.14779316229E+04  0.12822684671E+04 0.  0.
        3    1    3    3  502    0  0.38445823471E+03 -0.37938303614E+03 -0.30678525576E+02  0.54099981930E+03  0.10100000352E+00 0. -1.
       -3    1    3    3    0  502 -0.38445823471E+03  0.37938303614E+03  0.76557270851E+03  0.93693180358E+03  0.10100000352E+00 0.  1.
</event>
<event>
 5   0  0.1667342E-03  0.1302721E+04  0.7818609E-02  0.9027410E-01
       -2   -1    0    0    0  501  0.00000000000E+00  0.00000000000E+00  0.81530234900E+03  0.81530234901E+03  0.25500000920E-02 0. -1.
        2   -1    0    0  501    0  0.00000000000E+00  0.00000000000E+00 -0.52038411064E+03  0.52038411065E+03  0.25500000920E-02 0.  1.
    10030    2    1    2    0    0  0.00000000000E+00  0.00000000000E+00  0.29491823836E+03  0.13356864597E+04  0.13027208263E+04 0.  0.
        5    1    3    3  502    0  0.38613523624E+03  0.12094663505E+03  0.67078658181E+03  0.78339341172E+03  0.46999998093E+01 0. -1.
       -5    1    3    3    0  502 -0.38613523624E+03 -0.12094663505E+03 -0.37586834345E+03  0.55229304794E+03  0.46999998093E+01 0.  1.
</event>
<event>
 5   0  0.9110949E-04  0.1330947E+04  0.7818609E-02  0.9005378E-01
       -1   -1    0    0    0  501  0.00000000000E+00  0.00000000000E+00  0.44142362812E+03  0.44142362815E+03  0.50400001928E-02 0.  1.
        1   -1    0    0  501    0  0.00000000000E+00  0.00000000000E+00 -0.10032418970E+04  0.10032418970E+04  0.50400001928E-02 0. -1.
    10030    2    1    2    0    0  0.00000000000E+00  0.00000000000E+00 -0.56181826887E+03  0.14446655252E+04  0.13309465475E+04 0.  0.
        2    1    3    3  502    0  0.38851383480E+03  0.26393099139E+03  0.23080762563E+03  0.52333041962E+03  0.25500000920E-02 0.  1.
       -2    1    3    3    0  502 -0.38851383480E+03 -0.26393099139E+03 -0.79262589450E+03  0.92133510553E+03  0.25500000920E-02 0. -1.
</event>
<event>
 5   0  0.1623890E-03  0.1285264E+04  0.7818609E-02  0.9041333E-01
        2   -1    0    0  501    0  0.00000000000E+00  0.00000000000E+00  0.91001355482E+03  0.91001355482E+03  0.25500000920E-02 0. -1.
       -2   -1    0    0    0  501  0.00000000000E+00  0.00000000000E+00 -0.45381287013E+03  0.45381287013E+03  0.25500000920E-02 0.  1.
    10030    2    1    2    0    0  0.00000000000E+00  0.00000000000E+00  0.45620068469E+03  0.13638264250E+04  0.12852639623E+04 0.  0.
        3    1    3    3  502    0 -0.80195390704E+02 -0.62801748479E+03  0.34501014061E+03  0.72101960391E+03  0.10100000352E+00 0. -1.
       -3    1    3    3    0  502  0.80195390704E+02  0.62801748479E+03  0.11119054409E+03  0.64280682105E+03  0.10100000352E+00 0.  1.
</event>
<event>
 5   0  0.1714861E-03  0.1299716E+04  0.7818609E-02  0.9029790E-01
       -2   -1    0    0    0  501  0.00000000000E+00  0.00000000000E+00  0.51222335115E+03  0.51222335115E+03  0.25500000920E-02 0. -1.
        2   -1    0    0  501    0  0.00000000000E+00  0.00000000000E+00 -0.82447518797E+03  0.82447518797E+03  0.25500000920E-02 0.  1.
    10030    2    1    2    0    0  0.00000000000E+00  0.00000000000E+00 -0.31225183682E+03  0.13366985391E+04  0.12997160363E+04 0.  0.
        1    1    3    3  502    0 -0.54633920623E+03 -0.33961637813E+03 -0.61364968224E+02  0.64621317837E+03  0.50400001928E-02 0.  1.
       -1    1    3    3    0  502  0.54633920623E+03  0.33961637813E+03 -0.25088686860E+03  0.69048536075E+03  0.50400001928E-02 0. -1.
</event>
<event>
 5   0  0.9027076E-04  0.1303112E+04  0.7818609E-02  0.9027101E-01
       -1   -1    0    0    0  501  0.00000000000E+00  0.00000000000E+00  0.52586066324E+03  0.52586066326E+03  0.50400001928E-02 0.  1.
        1   -1    0    0  501    0  0.00000000000E+00  0.00000000000E+00 -0.80729594404E+03  0.80729594405E+03  0.50400001928E-02 0. -1.
    10030    2    1    2    0    0  0.00000000000E+00  0.00000000000E+00 -0.28143528080E+03  0.13331566073E+04  0.13031119378E+04 0.  0.
        5    1    3    3  502    0 -0.20854785427E+02 -0.64805482545E+03 -0.20617014140E+03  0.68039561732E+03  0.46999998093E+01 0.  1.
       -5    1    3    3    0  502  0.20854785427E+02  0.64805482545E+03 -0.75265139394E+02  0.65276099000E+03  0.46999998093E+01 0. -1.
</event>
<event>
 5   0  0.1623890E-03  0.1324312E+04  0.7818609E-02  0.9010504E-01
       -2   -1    0    0    0  501  0.00000000000E+00  0.00000000000E+00  0.21712082990E+03  0.21712082991E+03  0.25500000920E-02 0.  1.
        2   -1    0    0  501    0  0.00000000000E+00  0.00000000000E+00 -0.20193861404E+04  0.20193861404E+04  0.25500000920E-02 0. -1.
    10030    2    1    2    0    0  0.00000000000E+00  0.00000000000E+00 -0.18022653105E+04  0.22365069703E+04  0.13243123419E+04 0.  0.
        3    1    3    3  502    0 -0.43073171723E+01 -0.29668904231E+03  0.98560547278E+02  0.31266137032E+03  0.10100000352E+00 0.  1.
       -3    1    3    3    0  502  0.43073171723E+01  0.29668904231E+03 -0.19008258578E+04  0.19238456000E+04  0.10100000352E+00 0. -1.
</event>
<event>
 5   0  0.9081324E-04  0.1322284E+04  0.7818609E-02  0.9012078E-01
       -1   -1    0    0    0  501  0.00000000000E+00  0.00000000000E+00  0.40322510645E+03  0.40322510648E+03  0.50400001928E-02 0.  1.
        1   -1    0    0  501    0  0.00000000000E+00  0.00000000000E+00 -0.10840320693E+04  0.10840320693E+04  0.50400001928E-02 0. -1.
    10030    2    1    2    0    0  0.00000000000E+00  0.00000000000E+00 -0.68080696282E+03  0.14872571758E+04  0.13222843061E+04 0.  0.
        4    1    3    3  502    0 -0.11326031686E+03 -0.47472104677E+03 -0.84205225914E+03  0.97326337219E+03  0.12699999809E+01 0. -1.
       -4    1    3    3    0  502  0.11326031686E+03  0.47472104677E+03  0.16124529633E+03  0.51399380357E+03  0.12699999809E+01 0.  1.
</event>
<event>
 5   0  0.9098192E-04  0.1300355E+04  0.7818609E-02  0.9029284E-01
        1   -1    0    0  501    0  0.00000000000E+00  0.00000000000E+00  0.11455797629E+04  0.11455797629E+04  0.50400001928E-02 0.  1.
       -1   -1    0    0    0  501  0.00000000000E+00  0.00000000000E+00 -0.36901036120E+03  0.36901036124E+03  0.50400001928E-02 0. -1.
    10030    2    1    2    0    0  0.00000000000E+00  0.00000000000E+00  0.77656940167E+03  0.15145901241E+04  0.13003550317E+04 0.  0.
        1    1    3    3  502    0  0.26834017500E+03  0.23196846830E+03 -0.24638714663E+03  0.43188244449E+03  0.50400001928E-02 0. -1.
       -1    1    3    3    0  502 -0.26834017500E+03 -0.23196846830E+03  0.10229565483E+04  0.10827076796E+04  0.50400001928E-02 0.  1.
</event>
<event>
 5   0  0.9215829E-04  0.1313838E+04  0.7818609E-02  0.9018663E-01
       -1   -1    0    0    0  501  0.00000000000E+00  0.00000000000E+00  0.48253734492E+03  0.48253734494E+03  0.50400001928E-02 0. -1.
        1   -1    0    0  501    0  0.00000000000E+00  0.00000000000E+00 -0.89431982188E+03  0.89431982189E+03  0.50400001928E-02 0.  1.
    10030    2    1    2    0    0  0.00000000000E+00  0.00000000000E+00 -0.41178247696E+03  0.13768571668E+04  0.13138382128E+04 0.  0.
        3    1    3    3  502    0 -0.40301725216E+03  0.17157641969E+03 -0.71894644866E+03  0.84187016789E+03  0.10100000352E+00 0.  1.
       -3    1    3    3    0  502  0.40301725216E+03 -0.17157641969E+03  0.30716397171E+03  0.53498699895E+03  0.10100000352E+00 0. -1.
</event>
<event>
 5   0  0.1694675E-03  0.1299711E+04  0.7818609E-02  0.9029795E-01
        2   -1    0    0  501    0  0.00000000000E+00  0.00000000000E+00  0.41921637634E+03  0.41921637635E+03  0.25500000920E-02 0. -1.
       -2   -1    0    0    0  501  0.00000000000E+00  0.00000000000E+00 -0.10073844514E+04  0.10073844514E+04  0.25500000920E-02 0.  1.
    10030    2    1    2    0    0  0.00000000000E+00  0.00000000000E+00 -0.58816807510E+03  0.14266008278E+04  0.12997108283E+04 0.  0.
        4    1    3    3  502    0 -0.21980677205E+03 -0.24715699557E+03  0.31991071142E+03  0.46015874835E+03  0.12699999809E+01 0. -1.
       -4    1    3    3    0  502  0.21980677205E+03  0.24715699557E+03 -0.90807878653E+03  0.96644207945E+03  0.12699999809E+01 0.  1.
</event>
<event>
 5   0  0.1694675E-03  0.1277636E+04  0.7818609E-02  0.9047490E-01
       -2   -1    0    0    0  501  0.00000000000E+00  0.00000000000E+00  0.73447221372E+03  0.73447221372E+03  0.25500000920E-02 0. -1.
        2   -1    0    0  501    0  0.00000000000E+00  0.00000000000E+00 -0.55562175316E+03  0.55562175316E+03  0.25500000920E-02 0.  1.
    10030    2    1    2    0    0  0.00000000000E+00  0.00000000000E+00  0.17885046056E+03  0.12900939669E+04  0.12776364726E+04 0.  0.
        4    1    3    3  502    0 -0.58056469668E+03  0.13079453185E+03  0.32390604054E+03  0.67755391858E+03  0.12699999809E+01 0. -1.
       -4    1    3    3    0  502  0.58056469668E+03 -0.13079453185E+03 -0.14505557998E+03  0.61254004830E+03  0.12699999809E+01 0.  1.
</event>
<event>
 5   0  0.9110949E-04  0.1312966E+04  0.7818609E-02  0.9019346E-01
       -1   -1    0    0    0  501  0.00000000000E+00  0.00000000000E+00  0.47973304081E+03  0.47973304083E+03  0.50400001928E-02 0. -1.
        1   -1    0    0  501    0  0.00000000000E+00  0.00000000000E+00 -0.89835326657E+03  0.89835326659E+03  0.50400001928E-02 0.  1.
    10030    2    1    2    0    0  0.00000000000E+00  0.00000000000E+00 -0.41862022577E+03  0.13780863074E+04  0.13129657182E+04 0.  0.
        2    1    3    3  502    0  0.24474947576E+03  0.84839091438E+01 -0.84861397696E+03  0.88324400055E+03  0.25500000920E-02 0.  1.
       -2    1    3    3    0  502 -0.24474947576E+03 -0.84839091438E+01  0.42999375120E+03  0.49484230688E+03  0.25500000920E-02 0. -1.
</event>
<event>
 5   0  0.9215829E-04  0.1293124E+04  0.7818609E-02  0.9035036E-01
        1   -1    0    0  501    0  0.00000000000E+00  0.00000000000E+00  0.75029479445E+03  0.75029479447E+03  0.50400001928E-02 0.  1.
       -1   -1    0    0    0  501  0.00000000000E+00  0.00000000000E+00 -0.55717098323E+03  0.55717098325E+03  0.50400001928E-02 0. -1.
    10030    2    1    2    0    0  0.00000000000E+00  0.00000000000E+00  0.19312381122E+03  0.13074657777E+04  0.12931241060E+04 0.  0.
        3    1    3    3  502    0 -0.36521212432E+03 -0.39279168025E+03 -0.26852064656E+03  0.59980709203E+03  0.10100000352E+00 0. -1.
       -3    1    3    3    0  502  0.36521212432E+03  0.39279168025E+03  0.46164445778E+03  0.70765868569E+03  0.10100000352E+00 0.  1.
</event>
<event>
 5   0  0.9027076E-04  0.1297563E+04  0.7818609E-02  0.9031500E-01
        1   -1    0    0  501    0  0.00000000000E+00  0.00000000000E+00  0.16200081451E+04  0.16200081451E+04  0.50400001928E-02 0.  1.
       -1   -1    0    0    0  501  0.00000000000E+00  0.00000000000E+00 -0.25982413981E+03  0.25982413986E+03  0.50400001928E-02 0. -1.
    10030    2    1    2    0    0  0.00000000000E+00  0.00000000000E+00  0.13601840053E+04  0.18798322850E+04  0.12975626734E+04 0.  0.
        5    1    3    3  502    0  0.28590072739E+03  0.31555575722E+02 -0.16237320757E+03  0.33033638736E+03  0.46999998093E+01 0. -1.
       -5    1    3    3    0  502 -0.28590072739E+03 -0.31555575722E+02  0.15225572129E+04  0.15494958976E+04  0.46999998093E+01 0.  1.
</event>
<event>
 5   0  0.1700511E-03  0.1292373E+04  0.7818609E-02  0.9035636E-01
        2   -1    0    0  501    0  0.00000000000E+00  0.00000000000E+00  0.61280623964E+03  0.61280623964E+03  0.25500000920E-02 0.  1.
       -2   -1    0    0    0  501  0.00000000000E+00  0.00000000000E+00 -0.68138450910E+03  0.68138450910E+03  0.25500000920E-02 0. -1.
    10030    2    1    2    0    0  0.00000000000E+00  0.00000000000E+00 -0.68578269459E+02  0.12941907487E+04  0.12923725141E+04 0.  0.
        2    1    3    3  502    0 -0.31333134038E+03 -0.23299836269E+03 -0.54988427775E+03  0.67441640312E+03  0.25500000920E-02 0. -1.
       -2    1    3    3    0  502  0.31333134038E+03  0.23299836269E+03  0.48130600829E+03  0.61977434563E+03  0.25500000920E-02 0.  1.
</event>
<event>
 5   0  0.1623890E-03  0.1288354E+04  0.7818609E-02  0.9038852E-01
        2   -1    0    0  501    0  0.00000000000E+00  0.00000000000E+00  0.45855275537E+03  0.45855275538E+03  0.25500000920E-02 0. -1.
       -2   -1    0    0    0  501  0.00000000000E+00  0.00000000000E+00 -0.90494268892E+03  0.90494268893E+03  0.25500000920E-02 0.  1.
    10030    2    1    2    0    0  0.00000000000E+00  0.00000000000E+00 -0.44638993355E+03  0.13634954443E+04  0.12883539319E+04 0.  0.
        3    1    3    3  502    0 -0.18653956496E+02  0.39998998949E+03  0.31083811968E+03  0.50691252562E+03  0.10100000352E+00 0. -1.
       -3    1    3    3    0  502  0.18653956496E+02 -0.39998998949E+03 -0.75722805323E+03  0.85658291869E+03  0.10100000352E+00 0.  1.
</event>
<event>
 5   0  0.1714861E-03  0.1273470E+04  0.7818609E-02  0.9050872E-01
        2   -1    0    0  501    0  0.00000000000E+00  0.00000000000E+00  0.84067903468E+03  0.84067903468E+03  0.25500000920E-02 0. -1.
       -2   -1    0    0    0  501  0.00000000000E+00  0.00000000000E+00 -0.48226653807E+03  0.48226653807E+03  0.25500000920E-02 0.  1.
    10030    2    1    2    0    0  0.00000000000E+00  0.00000000000E+00  0.35841249661E+03  0.13229455728E+04  0.12734698547E+04 0.  0.
        1    1    3    3  502    0  0.35175433511E+02 -0.60895196246E+03  0.36898237939E+03  0.71288694758E+03  0.50400001928E-02 0. -1.
       -1    1    3    3    0  502 -0.35175433511E+02  0.60895196246E+03 -0.10569882777E+02  0.61005862518E+03  0.50400001928E-02 0.  1.
</event>
<event>
 5   0  0.1700511E-03  0.1310649E+04  0.7818609E-02  0.9021163E-01
       -2   -1    0    0    0  501  0.00000000000E+00  0.00000000000E+00  0.28448490357E+03  0.28448490358E+03  0.25500000920E-02 0. -1.
        2   -1    0    0  501    0  0.00000000000E+00  0.00000000000E+00 -0.15095708242E+04  0.15095708242E+04  0.25500000920E-02 0.  1.
    10030    2    1    2    0    0  0.00000000000E+00  0.00000000000E+00 -0.12250859207E+04  0.17940557278E+04  0.13106488628E+04 0.  0.
        2    1    3    3  502    0 -0.58784461125E+03  0.16357162195E+03 -0.28535776008E+03  0.67360672037E+03  0.25500000920E-02 0. -1.
       -2    1    3    3    0  502  0.58784461125E+03 -0.16357162195E+03 -0.93972816058E+03  0.11204490074E+04  0.25500000920E-02 0.  1.
</event>
<event>
 5   0  0.1623890E-03  0.1298058E+04  0.7818609E-02  0.9031106E-01
        2   -1    0    0  501    0  0.00000000000E+00  0.00000000000E+00  0.81728336325E+03  0.81728336325E+03  0.25500000920E-02 0.  1.
       -2   -1    0    0    0  501  0.00000000000E+00  0.00000000000E+00 -0.51541344207E+03  0.51541344207E+03  0.25500000920E-02 0. -1.
    10030    2    1    2    0    0  0.00000000000E+00  0.00000000000E+00  0.30186992118E+03  0.13326968053E+04  0.12980582905E+04 0.  0.
        3    1    3    3  502    0 -0.36798537374E+03 -0.38953033878E+02  0.69836911579E+03  0.79034802855E+03  0.10100000352E+00 0.  1.
       -3    1    3    3    0  502  0.36798537374E+03  0.38953033878E+02 -0.39649919461E+03  0.54234877677E+03  0.10100000352E+00 0. -1.
</event>
<event>
 5   0  0.9215829E-04  0.1439589E+04  0.7818609E-02  0.8925650E-01
        1   -1    0    0  501    0  0.00000000000E+00  0.00000000000E+00  0.13918654639E+04  0.13918654639E+04  0.50400001928E-02 0.  1.
       -1   -1    0    0    0  501  0.00000000000E+00  0.00000000000E+00 -0.37223730845E+03  0.37223730848E+03  0.50400001928E-02 0. -1.
    10030    2    1    2    0    0  0.00000000000E+00  0.00000000000E+00  0.10196281554E+04  0.17641027723E+04  0.14395891831E+04 0.  0.
        3    1    3    3  502    0  0.37197489367E+03  0.52896016777E+03  0.12241809069E+03  0.65814161071E+03  0.10100000352E+00 0. -1.
       -3    1    3    3    0  502 -0.37197489367E+03 -0.52896016777E+03  0.89721006472E+03  0.11059611616E+04  0.10100000352E+00 0.  1.
</event>
<event>
 5   0  0.1667342E-03  0.1305743E+04  0.7818609E-02  0.9025023E-01
       -2   -1    0    0    0  501  0.00000000000E+00  0.00000000000E+00  0.53016083737E+03  0.53016083738E+03  0.25500000920E-02 0. -1.
        2   -1    0    0  501    0  0.00000000000E+00  0.00000000000E+00 -0.80398457045E+03  0.80398457045E+03  0.25500000920E-02 0.  1.
    10030    2    1    2    0    0  0.00000000000E+00  0.00000000000E+00 -0.27382373308E+03  0.13341454078E+04  0.13057429044E+04 0.  0.
        5    1    3    3  502    0  0.21074195968E+03  0.60371630247E+03 -0.27143239645E+03  0.69468207352E+03  0.46999998093E+01 0.  1.
       -5    1    3    3    0  502 -0.21074195968E+03 -0.60371630247E+03 -0.23913366304E+01  0.63946333431E+03  0.46999998093E+01 0. -1.
</event>
<event>
 5   0  0.9027076E-04  0.1289079E+04  0.7818609E-02  0.9038270E-01
       -1   -1    0    0    0  501  0.00000000000E+00  0.00000000000E+00  0.26297416026E+03  0.26297416031E+03  0.50400001928E-02 0. -1.
        1   -1    0    0  501    0  0.00000000000E+00  0.00000000000E+00 -0.15797424304E+04  0.15797424304E+04  0.50400001928E-02 0.  1.
    10030    2    1    2    0    0  0.00000000000E+00  0.00000000000E+00 -0.13167682701E+04  0.18427165907E+04  0.12890794221E+04 0.  0.
        5    1    3    3  502    0 -0.17627515337E+03  0.17112550198E+03 -0.15101596402E+04  0.15300199659E+04  0.46999998093E+01 0.  1.
       -5    1    3    3    0  502  0.17627515337E+03 -0.17112550198E+03  0.19339137011E+03  0.31269662479E+03  0.46999998093E+01 0. -1.
</event>
<event>
 5   0  0.9215829E-04  0.1301402E+04  0.7818609E-02  0.9028454E-01
        1   -1    0    0  501    0  0.00000000000E+00  0.00000000000E+00  0.76912804918E+03  0.76912804920E+03  0.50400001928E-02 0.  1.
       -1   -1    0    0    0  501  0.00000000000E+00  0.00000000000E+00 -0.55050853863E+03  0.55050853865E+03  0.50400001928E-02 0. -1.
    10030    2    1    2    0    0  0.00000000000E+00  0.00000000000E+00  0.21861951055E+03  0.13196365879E+04  0.13014016419E+04 0.  0.
        3    1    3    3  502    0  0.56904224358E+03 -0.15318622768E+03  0.38910434831E+03  0.70617087125E+03  0.10100000352E+00 0.  1.
       -3    1    3    3    0  502 -0.56904224358E+03  0.15318622768E+03 -0.17048483776E+03  0.61346571660E+03  0.10100000352E+00 0. -1.
</event>
<event>
 5   0  0.1623890E-03  0.1291369E+04  0.7818609E-02  0.9036438E-01
       -2   -1    0    0    0  501  0.00000000000E+00  0.00000000000E+00  0.65734526465E+03  0.65734526465E+03  0.25500000920E-02 0.  1.
        2   -1    0    0  501    0  0.00000000000E+00  0.00000000000E+00 -0.63423019621E+03  0.63423019621E+03  0.25500000920E-02 0. -1.
    10030    2    1    2    0    0  0.00000000000E+00  0.00000000000E+00  0.23115068438E+02  0.12915754609E+04  0.12913686014E+04 0.  0.
        3    1    3    3  502    0  0.63399295726E+03 -0.11179886595E+03  0.61185535981E+02  0.64667591288E+03  0.10100000352E+00 0.  1.
       -3    1    3    3    0  502 -0.63399295726E+03  0.11179886595E+03 -0.38070467542E+02  0.64489954798E+03  0.10100000352E+00 0. -1.
</event>
<event>
 5   0  0.9098192E-04  0.1321053E+04  0.7818609E-02  0.9013034E-01
       -1   -1    0    0    0  501  0.00000000000E+00  0.00000000000E+00  0.22704064061E+03  0.22704064066E+03  0.50400001928E-02 0.  1.
        1   -1    0    0  501    0  0.00000000000E+00  0.00000000000E+00 -0.19216626475E+04  0.19216626475E+04  0.50400001928E-02 0. -1.
    10030    2    1    2    0    0  0.00000000000E+00  0.00000000000E+00 -0.16946220068E+04  0.21487032881E+04  0.13210533957E+04 0.  0.
        1    1    3    3  502    0 -0.63492766924E+03 -0.36771945965E+02 -0.11374053456E+04  0.13031409138E+04  0.50400001928E-02 0. -1.
       -1    1    3    3    0  502  0.63492766924E+03  0.36771945965E+02 -0.55721666130E+03  0.84556237430E+03  0.50400001928E-02 0.  1.
</event>
<event>
 5   0  0.9215829E-04  0.1302916E+04  0.7818609E-02  0.9027256E-01
       -1   -1    0    0    0  501  0.00000000000E+00  0.00000000000E+00  0.16683150693E+04  0.16683150693E+04  0.50400001928E-02 0. -1.
        1   -1    0    0  501    0  0.00000000000E+00  0.00000000000E+00 -0.25438697081E+03  0.25438697086E+03  0.50400001928E-02 0.  1.
    10030    2    1    2    0    0  0.00000000000E+00  0.00000000000E+00  0.14139280985E+04  0.19227020402E+04  0.13029161399E+04 0.  0.
        3    1    3    3  502    0  0.49863819549E+03 -0.41069155038E+03  0.58270762276E+03  0.86997458777E+03  0.10100000352E+00 0.  1.
       -3    1    3    3    0  502 -0.49863819549E+03  0.41069155038E+03  0.83122047578E+03  0.10527274524E+04  0.10100000352E+00 0. -1.
</event>
<event>
 5   0  0.9110949E-04  0.1313962E+04  0.7818609E-02  0.9018566E-01
       -1   -1    0    0    0  501  0.00000000000E+00  0.00000000000E+00  0.85744680023E+03  0.85744680025E+03  0.50400001928E-02 0. -1.
        1   -1    0    0  501    0  0.00000000000E+00  0.00000000000E+00 -0.50338268589E+03  0.50338268591E+03  0.50400001928E-02 0.  1.
    10030    2    1    2    0    0  0.00000000000E+00  0.00000000000E+00  0.35406411435E+03  0.13608294862E+04  0.13139617549E+04 0.  0.
        2    1    3    3  502    0 -0.36947729407E+03  0.38345540091E+03 -0.22149515631E+03  0.57672490808E+03  0.25500000920E-02 0.  1.
       -2    1    3    3    0  502  0.36947729407E+03 -0.38345540091E+03  0.57555927066E+03  0.78410457808E+03  0.25500000920E-02 0. -1.
</event>
<event>
 5   0  0.9027076E-04  0.1318070E+04  0.7818609E-02  0.9015357E-01
        1   -1    0    0  501    0  0.00000000000E+00  0.00000000000E+00  0.60004221527E+03  0.60004221529E+03  0.50400001928E-02 0. -1.
       -1   -1    0    0    0  501  0.00000000000E+00  0.00000000000E+00 -0.72382754582E+03  0.72382754584E+03  0.50400001928E-02 0.  1.
    10030    2    1    2    0    0  0.00000000000E+00  0.00000000000E+00 -0.12378533055E+03  0.13238697611E+04  0.13180699285E+04 0.  0.
        5    1    3    3  502    0 -0.46844875352E+03 -0.15608111596E+02  0.40341372674E+03  0.61842749998E+03  0.46999998093E+01 0. -1.
       -5    1    3    3    0  502  0.46844875352E+03  0.15608111596E+02 -0.52719905729E+03  0.70544226115E+03  0.46999998093E+01 0.  1.
</event>
<event>
 5   0  0.1694675E-03  0.1297870E+04  0.7818609E-02  0.9031256E-01
        2   -1    0    0  501    0  0.00000000000E+00  0.00000000000E+00  0.21950941631E+04  0.21950941631E+04  0.25500000920E-02 0.  1.
       -2   -1    0    0    0  501  0.00000000000E+00  0.00000000000E+00 -0.19184445250E+03  0.19184445252E+03  0.25500000920E-02 0. -1.
    10030    2    1    2    0    0  0.00000000000E+00  0.00000000000E+00  0.20032497106E+04  0.23869386156E+04  0.12978700057E+04 0.  0.
        4    1    3    3  502    0 -0.36053946502E+03 -0.53939793605E+03  0.97721329808E+03  0.11729817910E+04  0.12699999809E+01 0. -1.
       -4    1    3    3    0  502  0.36053946502E+03  0.53939793605E+03  0.10260364125E+04  0.12139568246E+04  0.12699999809E+01 0.  1.
</event>
<event>
 5   0  0.1714861E-03  0.1306945E+04  0.7818609E-02  0.9024076E-01
        2   -1    0    0  501    0  0.00000000000E+00  0.00000000000E+00  0.82152353507E+03  0.82152353507E+03  0.25500000920E-02 0.  1.
       -2   -1    0    0    0  501  0.00000000000E+00  0.00000000000E+00 -0.51979810263E+03  0.51979810263E+03  0.25500000920E-02 0. -1.
    10030    2    1    2    0    0  0.00000000000E+00  0.00000000000E+00  0.30172543244E+03  0.13413216377E+04  0.13069451018E+04 0.  0.
        1    1    3    3  502    0 -0.50326648538E+02  0.12812481596E+03 -0.50474941611E+03  0.52318325003E+03  0.50400001928E-02 0. -1.
       -1    1    3    3    0  502  0.50326648538E+02 -0.12812481596E+03  0.80647484855E+03  0.81813838768E+03  0.50400001928E-02 0.  1.
</event>
<event>
 5   0  0.9081324E-04  0.1252587E+04  0.7818609E-02  0.9068032E-01
        1   -1    0    0  501    0  0.00000000000E+00  0.00000000000E+00  0.10993183693E+04  0.10993183693E+04  0.50400001928E-02 0.  1.
       -1   -1    0    0    0  501  0.00000000000E+00  0.00000000000E+00 -0.35680639402E+03  0.35680639406E+03  0.50400001928E-02 0. -1.
    10030    2    1    2    0    0  0.00000000000E+00  0.00000000000E+00  0.74251197525E+03  0.14561247633E+04  0.12525874393E+04 0.  0.
        4    1    3    3  502    0  0.56081433075E+03 -0.12672285825E+03  0.65994508034E+03  0.87527168259E+03  0.12699999809E+01 0.  1.
       -4    1    3    3    0  502 -0.56081433075E+03  0.12672285825E+03  0.82566894913E+02  0.58085308075E+03  0.12699999809E+01 0. -1.
</event>
<event>
 5   0  0.1700511E-03  0.1295625E+04  0.7818609E-02  0.9033042E-01
        2   -1    0    0  501    0  0.00000000000E+00  0.00000000000E+00  0.14604399560E+04  0.14604399560E+04  0.25500000920E-02 0. -1.
       -2   -1    0    0    0  501  0.00000000000E+00  0.00000000000E+00 -0.28735243461E+03  0.28735243462E+03  0.25500000920E-02 0.  1.
    10030    2    1    2    0    0  0.00000000000E+00  0.00000000000E+00  0.11730875214E+04  0.17477923907E+04  0.12956249102E+04 0.  0.
        2    1    3    3  502    0  0.13507040947E+03  0.23582856860E+03  0.13798195679E+04  0.14063289690E+04  0.25500000920E-02 0. -1.
       -2    1    3    3    0  502 -0.13507040947E+03 -0.23582856860E+03 -0.20673204643E+03  0.34146342163E+03  0.25500000920E-02 0.  1.
</event>
<event>
 5   0  0.9027076E-04  0.1310826E+04  0.7818609E-02  0.9021024E-01
       -1   -1    0    0    0  501  0.00000000000E+00  0.00000000000E+00  0.44237919729E+03  0.44237919732E+03  0.50400001928E-02 0.  1.
        1   -1    0    0  501    0  0.00000000000E+00  0.00000000000E+00 -0.97103672814E+03  0.97103672815E+03  0.50400001928E-02 0. -1.
    10030    2    1    2    0    0  0.00000000000E+00  0.00000000000E+00 -0.52865753084E+03  0.14134159255E+04  0.13108263781E+04 0.  0.
        5    1    3    3  502    0  0.23617071991E+03 -0.46646922690E+03  0.16178882910E+03  0.54732793078E+03  0.46999998093E+01 0.  1.
       -5    1    3    3    0  502 -0.23617071991E+03  0.46646922690E+03 -0.69044635994E+03  0.86608799469E+03  0.46999998093E+01 0. -1.
</event>
<event>
 5   0  0.1700511E-03  0.1302329E+04  0.7818609E-02  0.9027720E-01
       -2   -1    0    0    0  501  0.00000000000E+00  0.00000000000E+00  0.64497257444E+03  0.64497257445E+03  0.25500000920E-02 0. -1.
        2   -1    0    0  501    0  0.00000000000E+00  0.00000000000E+00 -0.65741561941E+03  0.65741561941E+03  0.25500000920E-02 0.  1.
    10030    2    1    2    0    0  0.00000000000E+00  0.00000000000E+00 -0.12443044968E+02  0.13023881939E+04  0.13023287519E+04 0.  0.
        2    1    3    3  502    0  0.45826695065E+03  0.39014442309E+03  0.24237336204E+03  0.64881901603E+03  0.25500000920E-02 0. -1.
       -2    1    3    3    0  502 -0.45826695065E+03 -0.39014442309E+03 -0.25481640700E+03  0.65356917783E+03  0.25500000920E-02 0.  1.
</event>
<event>
 5   0  0.9081324E-04  0.1295738E+04  0.7818609E-02  0.9032951E-01
        1   -1    0    0  501    0  0.00000000000E+00  0.00000000000E+00  0.12234239323E+04  0.12234239323E+04  0.50400001928E-02 0. -1.
       -1   -1    0    0    0  501  0.00000000000E+00  0.00000000000E+00 -0.34308186239E+03  0.34308186243E+03  0.50400001928E-02 0.  1.
    10030    2    1    2    0    0  0.00000000000E+00  0.00000000000E+00  0.88034206986E+03  0.15665057947E+04  0.12957384940E+04 0.  0.
        4    1    3    3  502    0 -0.14918606708E+03 -0.50785869951E+03 -0.11465339247E+02  0.52944311137E+03  0.12699999809E+01 0.  1.
       -4    1    3    3    0  502  0.14918606708E+03  0.50785869951E+03  0.89180740911E+03  0.10370626833E+04  0.12699999809E+01 0. -1.
</event>
<event>
 5   0  0.9110949E-04  0.1305680E+04  0.7818609E-02  0.9025073E-01
        1   -1    0    0  501    0  0.00000000000E+00  0.00000000000E+00  0.13208028021E+04  0.13208028021E+04  0.50400001928E-02 0.  1.
       -1   -1    0    0    0  501  0.00000000000E+00  0.00000000000E+00 -0.32268278807E+03  0.32268278811E+03  0.50400001928E-02 0. -1.
    10030    2    1    2    0    0  0.00000000000E+00  0.00000000000E+00  0.99812001404E+03  0.16434855902E+04  0.13056804061E+04 0.  0.
        2    1    3    3  502    0  0.27715524106E+03  0.58528824514E+03  0.60303187462E+03  0.88488688507E+03  0.25500000920E-02 0.  1.
       -2    1    3    3    0  502 -0.27715524106E+03 -0.58528824514E+03  0.39508813943E+03  0.75859870516E+03  0.25500000920E-02 0. -1.
</event>
<event>
 5   0  0.9110949E-04  0.1281060E+04  0.7818609E-02  0.9044721E-01
       -1   -1    0    0    0  501  0.00000000000E+00  0.00000000000E+00  0.45239202447E+03  0.45239202450E+03  0.50400001928E-02 0. -1.
        1   -1    0    0  501    0  0.00000000000E+00  0.00000000000E+00 -0.90690964456E+03  0.90690964457E+03  0.50400001928E-02 0.  1.
    10030    2    1    2    0    0  0.00000000000E+00  0.00000000000E+00 -0.45451762009E+03  0.13593016691E+04  0.12810600144E+04 0.  0.
        2    1    3    3  502    0 -0.10099306783E+02  0.55252892599E+03  0.11638638071E+03  0.56474418959E+03  0.25500000920E-02 0. -1.
       -2    1    3    3    0  502  0.10099306783E+02 -0.55252892599E+03 -0.57090400080E+03  0.79455747948E+03  0.25500000920E-02 0.  1.
</event>
<event>
 5   0  0.1694675E-03  0.1281719E+04  0.7818609E-02  0.9044189E-01
       -2   -1    0    0    0  501  0.00000000000E+00  0.00000000000E+00  0.41458690290E+03  0.41458690290E+03  0.25500000920E-02 0. -1.
        2   -1    0    0  501    0  0.00000000000E+00  0.00000000000E+00 -0.99062696193E+03  0.99062696193E+03  0.25500000920E-02 0.  1.
    10030    2    1    2    0    0  0.00000000000E+00  0.00000000000E+00 -0.57604005903E+03  0.14052138648E+04  0.12817191020E+04 0.  0.
        4    1    3    3  502    0 -0.68448024526E+02  0.34302650680E+03  0.30069797004E+03  0.46127345308E+03  0.12699999809E+01 0. -1.
       -4    1    3    3    0  502  0.68448024526E+02 -0.34302650680E+03 -0.87673802907E+03  0.94394041176E+03  0.12699999809E+01 0.  1.
</event>
<event>
 5   0  0.9027076E-04  0.1301231E+04  0.7818609E-02  0.9028590E-01
       -1   -1    0    0    0  501  0.00000000000E+00  0.00000000000E+00  0.11217604172E+04  0.11217604172E+04  0.50400001928E-02 0.  1.
        1   -1    0    0  501    0  0.00000000000E+00  0.00000000000E+00 -0.37735363300E+03  0.37735363303E+03  0.50400001928E-02 0. -1.
    10030    2    1    2    0    0  0.00000000000E+00  0.00000000000E+00  0.74440678420E+03  0.14991140502E+04  0.13012307540E+04 0.  0.
        5    1    3    3  502    0  0.10061436818E+03 -0.62746827476E+03  0.21157853418E+03  0.66979642657E+03  0.46999998093E+01 0. -1.
       -5    1    3    3    0  502 -0.10061436818E+03  0.62746827476E+03  0.53282825002E+03  0.82931762368E+03  0.46999998093E+01 0.  1.
</event>
<event>
 5   0  0.1667342E-03  0.1280603E+04  0.7818609E-02  0.9045090E-01
        2   -1    0    0  501    0  0.00000000000E+00  0.00000000000E+00  0.15843303225E+04  0.15843303225E+04  0.25500000920E-02 0.  1.
       -2   -1    0    0    0  501  0.00000000000E+00  0.00000000000E+00 -0.25877564100E+03  0.25877564102E+03  0.25500000920E-02 0. -1.
    10030    2    1    2    0    0  0.00000000000E+00  0.00000000000E+00  0.13255546815E+04  0.18431059635E+04  0.12806031310E+04 0.  0.
        5    1    3    3  502    0 -0.19362881083E+03  0.41954426225E+03  0.13006981013E+04  0.13803431258E+04  0.46999998093E+01 0.  1.
       -5    1    3    3    0  502  0.19362881083E+03 -0.41954426225E+03  0.24856580231E+02  0.46276283769E+03  0.46999998093E+01 0. -1.
</event>
<event>
 5   0  0.1667342E-03  0.1308808E+04  0.7818609E-02  0.9022609E-01
       -2   -1    0    0    0  501  0.00000000000E+00  0.00000000000E+00  0.20172953837E+04  0.20172953837E+04  0.25500000920E-02 0.  1.
        2   -1    0    0  501    0  0.00000000000E+00  0.00000000000E+00 -0.21228646650E+03  0.21228646652E+03  0.25500000920E-02 0. -1.
    10030    2    1    2    0    0  0.00000000000E+00  0.00000000000E+00  0.18050089172E+04  0.22295818502E+04  0.13088078681E+04 0.  0.
        5    1    3    3  502    0  0.15334238482E+03  0.60287274276E+03  0.55650515211E+03  0.83467928287E+03  0.46999998093E+01 0. -1.
       -5    1    3    3    0  502 -0.15334238482E+03 -0.60287274276E+03  0.12485037651E+04  0.13949025673E+04  0.46999998093E+01 0.  1.
</event>
<event>
 5   0  0.1694675E-03  0.1228535E+04  0.7818609E-02  0.9088240E-01
        2   -1    0    0  501    0  0.00000000000E+00  0.00000000000E+00  0.34841092158E+03  0.34841092159E+03  0.25500000920E-02 0.  1.
       -2   -1    0    0    0  501  0.00000000000E+00  0.00000000000E+00 -0.10829874023E+04  0.10829874023E+04  0.25500000920E-02 0. -1.
    10030    2    1    2    0    0  0.00000000000E+00  0.00000000000E+00 -0.73457648072E+03  0.14313983239E+04  0.12285351259E+04 0.  0.
        4    1    3    3  502    0 -0.47613674581E+03  0.22774732711E+03 -0.73341969155E+03  0.90359343876E+03  0.12699999809E+01 0. -1.
       -4    1    3    3    0  502  0.47613674581E+03 -0.22774732711E+03 -0.11567891718E+01  0.52780488514E+03  0.12699999809E+01 0.  1.
</event>
<event>
 5   0  0.9081324E-04  0.1297824E+04  0.7818609E-02  0.9031293E-01
       -1   -1    0    0    0  501  0.00000000000E+00  0.00000000000E+00  0.68848988525E+03  0.68848988527E+03  0.50400001928E-02 0.  1.
        1   -1    0    0  501    0  0.00000000000E+00  0.00000000000E+00 -0.61160887044E+03  0.61160887046E+03  0.50400001928E-02 0. -1.
    10030    2    1    2    0    0  0.00000000000E+00  0.00000000000E+00  0.76881014809E+02  0.13000987557E+04  0.12978235952E+04 0.  0.
        4    1    3    3  502    0  0.46950343423E+03 -0.40663646816E+03  0.22664806388E+03  0.66117898466E+03  0.12699999809E+01 0. -1.
       -4    1    3    3    0  502 -0.46950343423E+03  0.40663646816E+03 -0.14976704907E+03  0.63891977108E+03  0.12699999809E+01 0.  1.
</event>
<event>
 5   0  0.9110949E-04  0.1291445E+04  0.7818609E-02  0.9036377E-01
       -1   -1    0    0    0  501  0.00000000000E+00  0.00000000000E+00  0.15525691747E+04  0.15525691747E+04  0.50400001928E-02 0.  1.
        1   -1    0    0  501    0  0.00000000000E+00  0.00000000000E+00 -0.26855971292E+03  0.26855971297E+03  0.50400001928E-02 0. -1.
    10030    2    1    2    0    0  0.00000000000E+00  0.00000000000E+00  0.12840094618E+04  0.18211288877E+04  0.12914449766E+04 0.  0.
        2    1    3    3  502    0 -0.37829378740E+03 -0.36771457109E+03  0.11670598284E+04  0.12807610388E+04  0.25500000920E-02 0.  1.
       -2    1    3    3    0  502  0.37829378740E+03  0.36771457109E+03  0.11694963339E+03  0.54036784891E+03  0.25500000920E-02 0. -1.
</event>
<event>
 5   0  0.1700511E-03  0.1294068E+04  0.7818609E-02  0.9034282E-01
       -2   -1    0    0    0  501  0.00000000000E+00  0.00000000000E+00  0.12662640737E+04  0.12662640737E+04  0.25500000920E-02 0. -1.
        2   -1    0    0  501    0  0.00000000000E+00  0.00000000000E+00 -0.33062085811E+03  0.33062085812E+03  0.25500000920E-02 0.  1.
    10030    2    1    2    0    0  0.00000000000E+00  0.00000000000E+00  0.93564321560E+03  0.15968849318E+04  0.12940684907E+04 0.  0.
        2    1    3    3  502    0  0.44243849068E+03  0.28600880588E+03  0.93135451852E+03  0.10700346229E+04  0.25500000920E-02 0. -1.
       -2    1    3    3    0  502 -0.44243849068E+03 -0.28600880588E+03  0.42886970815E+01  0.52685030892E+03  0.25500000920E-02 0.  1.
</event>
<event>
 5   0  0.9110949E-04  0.1297668E+04  0.7818609E-02  0.9031417E-01
       -1   -1    0    0    0  501  0.00000000000E+00  0.00000000000E+00  0.60130088724E+03  0.60130088726E+03  0.50400001928E-02 0. -1.
        1   -1    0    0  501    0  0.00000000000E+00  0.00000000000E+00 -0.70012427685E+03  0.70012427687E+03  0.50400001928E-02 0.  1.
    10030    2    1    2    0    0  0.00000000000E+00  0.00000000000E+00 -0.98823389610E+02  0.13014251641E+04  0.12976676753E+04 0.  0.
        2    1    3    3  502    0 -0.63071342075E+02  0.67706198294E+02  0.59464970344E+03  0.60180594321E+03  0.25500000920E-02 0. -1.
       -2    1    3    3    0  502  0.63071342075E+02 -0.67706198294E+02 -0.69347309305E+03  0.69961922091E+03  0.25500000920E-02 0.  1.
</event>
<event>
 5   0  0.1623890E-03  0.1307877E+04  0.7818609E-02  0.9023342E-01
       -2   -1    0    0    0  501  0.00000000000E+00  0.00000000000E+00  0.36764727998E+03  0.36764727998E+03  0.25500000920E-02 0.  1.
        2   -1    0    0  501    0  0.00000000000E+00  0.00000000000E+00 -0.11631679606E+04  0.11631679606E+04  0.25500000920E-02 0. -1.
    10030    2    1    2    0    0  0.00000000000E+00  0.00000000000E+00 -0.79552068065E+03  0.15308152406E+04  0.13078769619E+04 0.  0.
        3    1    3    3  502    0  0.11966072128E+03  0.10613131135E+03 -0.11399203205E+04  0.11510868303E+04  0.10100000352E+00 0. -1.
       -3    1    3    3    0  502 -0.11966072128E+03 -0.10613131135E+03  0.34439963988E+03  0.37972841034E+03  0.10100000352E+00 0.  1.
</event>
<event>
 5   0  0.1667342E-03  0.1294524E+04  0.7818609E-02  0.9033919E-01
       -2   -1    0    0    0  501  0.00000000000E+00  0.00000000000E+00  0.21072678838E+03  0.21072678840E+03  0.25500000920E-02 0.  1.
        2   -1    0    0  501    0  0.00000000000E+00  0.00000000000E+00 -0.19881102849E+04  0.19881102849E+04  0.25500000920E-02 0. -1.
    10030    2    1    2    0    0  0.00000000000E+00  0.00000000000E+00 -0.17773834966E+04  0.21988370733E+04  0.12945239979E+04 0.  0.
        5    1    3    3  502    0 -0.22626968845E+03  0.60379899558E+03 -0.98409634446E+03  0.11765368265E+04  0.46999998093E+01 0. -1.
       -5    1    3    3    0  502  0.22626968845E+03 -0.60379899558E+03 -0.79328715210E+03  0.10223002468E+04  0.46999998093E+01 0.  1.
</event>
<event>
 5   0  0.9027076E-04  0.1298511E+04  0.7818609E-02  0.9030746E-01
        1   -1    0    0  501    0  0.00000000000E+00  0.00000000000E+00  0.95336312424E+03  0.95336312425E+03  0.50400001928E-02 0. -1.
       -1   -1    0    0    0  501  0.00000000000E+00  0.00000000000E+00 -0.44215363994E+03  0.44215363997E+03  0.50400001928E-02 0.  1.
    10030    2    1    2    0    0  0.00000000000E+00  0.00000000000E+00  0.51120948430E+03  0.13955167642E+04  0.12985114179E+04 0.  0.
        5    1    3    3  502    0  0.57144956983E+03 -0.67003181388E+02 -0.67641895259E+02  0.57934579758E+03  0.46999998093E+01 0.  1.
       -5    1    3    3    0  502 -0.57144956983E+03  0.67003181388E+02  0.57885137956E+03  0.81617096664E+03  0.46999998093E+01 0. -1.
</event>
<event>
 5   0  0.9215829E-04  0.1299889E+04  0.7818609E-02  0.9029653E-01
       -1   -1    0    0    0  501  0.00000000000E+00  0.00000000000E+00  0.50260062349E+03  0.50260062351E+03  0.50400001928E-02 0.  1.
        1   -1    0    0  501    0  0.00000000000E+00  0.00000000000E+00 -0.84048438107E+03  0.84048438108E+03  0.50400001928E-02 0. -1.
    10030    2    1    2    0    0  0.00000000000E+00  0.00000000000E+00 -0.33788375758E+03  0.13430850046E+04  0.12998891860E+04 0.  0.
        3    1    3    3  502    0  0.55526537693E+02 -0.24155582745E+03  0.45185295405E+03  0.51536736067E+03  0.10100000352E+00 0.  1.
       -3    1    3    3    0  502 -0.55526537693E+02  0.24155582745E+03 -0.78973671163E+03  0.82771764392E+03  0.10100000352E+00 0. -1.
</event>
<event>
 5   0  0.1623890E-03  0.1302945E+04  0.7818609E-02  0.9027233E-01
       -2   -1    0    0    0  501  0.00000000000E+00  0.00000000000E+00  0.58332180352E+03  0.58332180352E+03  0.25500000920E-02 0. -1.
        2   -1    0    0  501    0  0.00000000000E+00  0.00000000000E+00 -0.72758558043E+03  0.72758558044E+03  0.25500000920E-02 0.  1.
    10030    2    1    2    0    0  0.00000000000E+00  0.00000000000E+00 -0.14426377691E+03  0.13109073840E+04  0.13029451761E+04 0.  0.
        3    1    3    3  502    0 -0.46932524501E+03 -0.37907261405E+03 -0.31950895292E+03  0.68267723964E+03  0.10100000352E+00 0. -1.
       -3    1    3    3    0  502  0.46932524501E+03  0.37907261405E+03  0.17524517601E+03  0.62823014432E+03  0.10100000352E+00 0.  1.
</event>
<event>
 5   0  0.1714861E-03  0.1291394E+04  0.7818609E-02  0.9036418E-01
        2   -1    0    0  501    0  0.00000000000E+00  0.00000000000E+00  0.65254927730E+03  0.65254927731E+03  0.25500000920E-02 0. -1.
       -2   -1    0    0    0  501  0.00000000000E+00  0.00000000000E+00 -0.63891693113E+03  0.63891693114E+03  0.25500000920E-02 0.  1.
    10030    2    1    2    0    0  0.00000000000E+00  0.00000000000E+00  0.13632346169E+02  0.12914662084E+04  0.12913942569E+04 0.  0.
        1    1    3    3  502    0 -0.19949534703E+03 -0.26128208206E+03  0.56259713669E+03  0.65159976836E+03  0.50400001928E-02 0. -1.
       -1    1    3    3    0  502  0.19949534703E+03  0.26128208206E+03 -0.54896479052E+03  0.63986644008E+03  0.50400001928E-02 0.  1.
</event>
<event>
 5   0  0.1714861E-03  0.1284351E+04  0.7818609E-02  0.9042068E-01
        2   -1    0    0  501    0  0.00000000000E+00  0.00000000000E+00  0.13000297287E+04  0.13000297287E+04  0.25500000920E-02 0. -1.
       -2   -1    0    0    0  501  0.00000000000E+00  0.00000000000E+00 -0.31721545357E+03  0.31721545358E+03  0.25500000920E-02 0.  1.
    10030    2    1    2    0    0  0.00000000000E+00  0.00000000000E+00  0.98281427515E+03  0.16172451823E+04  0.12843512293E+04 0.  0.
        1    1    3    3  502    0  0.47535760183E+03 -0.30746392327E+03  0.10970233973E+03  0.57665719201E+03  0.50400001928E-02 0.  1.
       -1    1    3    3    0  502 -0.47535760183E+03  0.30746392327E+03  0.87311193542E+03  0.10405879903E+04  0.50400001928E-02 0. -1.
</event>
<event>
 5   0  0.1700511E-03  0.1298782E+04  0.7818609E-02  0.9030531E-01
        2   -1    0    0  501    0  0.00000000000E+00  0.00000000000E+00  0.18027751184E+04  0.18027751184E+04  0.25500000920E-02 0.  1.
       -2   -1    0    0    0  501  0.00000000000E+00  0.00000000000E+00 -0.23392201728E+03  0.23392201729E+03  0.25500000920E-02 0. -1.
    10030    2    1    2    0    0  0.00000000000E+00  0.00000000000E+00  0.15688531011E+04  0.20366971357E+04  0.12987821872E+04 0.  0.
        2    1    3    3  502    0  0.15088477944E+03 -0.45803079749E+03  0.10241187478E+03  0.49299758642E+03  0.25500000920E-02 0. -1.
       -2    1    3    3    0  502 -0.15088477944E+03  0.45803079749E+03  0.14664412263E+04  0.15436995493E+04  0.25500000920E-02 0.  1.
</event>
<event>
 5   0  0.9098192E-04  0.1309598E+04  0.7818609E-02  0.9021988E-01
       -1   -1    0    0    0  501  0.00000000000E+00  0.00000000000E+00  0.39743686719E+03  0.39743686722E+03  0.50400001928E-02 0. -1.
        1   -1    0    0  501    0  0.00000000000E+00  0.00000000000E+00 -0.10788171517E+04  0.10788171517E+04  0.50400001928E-02 0.  1.
    10030    2    1    2    0    0  0.00000000000E+00  0.00000000000E+00 -0.68138028447E+03  0.14762540189E+04  0.13095979674E+04 0.  0.
        1    1    3    3  502    0  0.24989316161E+02 -0.45224152081E+02 -0.10765155851E+04  0.10777548399E+04  0.50400001928E-02 0.  1.
       -1    1    3    3    0  502 -0.24989316161E+02  0.45224152081E+02  0.39513530063E+03  0.39849917903E+03  0.50400001928E-02 0. -1.
</event>
<event>
 5   0  0.1714861E-03  0.1320641E+04  0.7818609E-02  0.9013355E-01
        2   -1    0    0  501    0  0.00000000000E+00  0.00000000000E+00  0.37029690419E+03  0.37029690420E+03  0.25500000920E-02 0. -1.
       -2   -1    0    0    0  501  0.00000000000E+00  0.00000000000E+00 -0.11774961975E+04  0.11774961975E+04  0.25500000920E-02 0.  1.
    10030    2    1    2    0    0  0.00000000000E+00  0.00000000000E+00 -0.80719929331E+03  0.15477931017E+04  0.13206410514E+04 0.  0.
        1    1    3    3  502    0  0.33214153030E+03 -0.55633432595E+03 -0.25444057516E+03  0.69610766746E+03  0.50400001928E-02 0. -1.
       -1    1    3    3    0  502 -0.33214153030E+03  0.55633432595E+03 -0.55275871815E+03  0.85168543424E+03  0.50400001928E-02 0.  1.
</event>
<event>
 5   0  0.1694675E-03  0.1303083E+04  0.7818609E-02  0.9027124E-01
       -2   -1    0    0    0  501  0.00000000000E+00  0.00000000000E+00  0.35567892818E+03  0.35567892819E+03  0.25500000920E-02 0. -1.
        2   -1    0    0  501    0  0.00000000000E+00  0.00000000000E+00 -0.11935095669E+04  0.11935095670E+04  0.25500000920E-02 0.  1.
    10030    2    1    2    0    0  0.00000000000E+00  0.00000000000E+00 -0.83783063877E+03  0.15491884951E+04  0.13030828117E+04 0.  0.
        4    1    3    3  502    0 -0.40261015838E+03  0.50458990250E+03 -0.31392655275E+03  0.71781432332E+03  0.12699999809E+01 0.  1.
       -4    1    3    3    0  502  0.40261015838E+03 -0.50458990250E+03 -0.52390408602E+03  0.83137417183E+03  0.12699999809E+01 0. -1.
</event>
<event>
 5   0  0.1623890E-03  0.1313456E+04  0.7818609E-02  0.9018962E-01
        2   -1    0    0  501    0  0.00000000000E+00  0.00000000000E+00  0.95597751118E+03  0.95597751119E+03  0.25500000920E-02 0.  1.
       -2   -1    0    0    0  501  0.00000000000E+00  0.00000000000E+00 -0.45115278784E+03  0.45115278785E+03  0.25500000920E-02 0. -1.
    10030    2    1    2    0    0  0.00000000000E+00  0.00000000000E+00  0.50482472334E+03  0.14071302990E+04  0.13134563857E+04 0.  0.
        3    1    3    3  502    0 -0.48866060802E+03  0.26059643978E+03  0.63056236748E+03  0.83923095971E+03  0.10100000352E+00 0. -1.
       -3    1    3    3    0  502  0.48866060802E+03 -0.26059643978E+03 -0.12573764414E+03  0.56789933933E+03  0.10100000352E+00 0.  1.
</event>
<event>
 5   0  0.9027076E-04  0.1311226E+04  0.7818609E-02  0.9020710E-01
       -1   -1    0    0    0  501  0.00000000000E+00  0.00000000000E+00  0.45663035128E+03  0.45663035130E+03  0.50400001928E-02 0.  1.
        1   -1    0    0  501    0  0.00000000000E+00  0.00000000000E+00 -0.94130549519E+03  0.94130549520E+03  0.50400001928E-02 0. -1.
    10030    2    1    2    0    0  0.00000000000E+00  0.00000000000E+00 -0.48467514391E+03  0.13979358465E+04  0.13112263862E+04 0.  0.
        5    1    3    3  502    0 -0.61788544713E+03  0.64136964059E+02 -0.46574325290E+03  0.77642439655E+03  0.46999998093E+01 0.  1.
       -5    1    3    3    0  502  0.61788544713E+03 -0.64136964059E+02 -0.18931891007E+02  0.62151144996E+03  0.46999998093E+01 0. -1.
</event>
<event>
 5   0  0.9110949E-04  0.1313043E+04  0.7818609E-02  0.9019286E-01
       -1   -1    0    0    0  501  0.00000000000E+00  0.00000000000E+00  0.13075811996E+04  0.13075811996E+04  0.50400001928E-02 0.  1.
        1   -1    0    0  501    0  0.00000000000E+00  0.00000000000E+00 -0.32963180648E+03  0.32963180652E+03  0.50400001928E-02 0. -1.
    10030    2    1    2    0    0  0.00000000000E+00  0.00000000000E+00  0.97794939312E+03  0.16372130061E+04  0.13130428066E+04 0.  0.
        2    1    3    3  502    0  0.26405485178E+03 -0.51019030798E+03  0.88524328652E+03  0.10553079131E+04  0.25500000920E-02 0.  1.
       -2    1    3    3    0  502 -0.26405485178E+03  0.51019030798E+03  0.92706106600E+02  0.58190509304E+03  0.25500000920E-02 0. -1.
</event>
<event>
 5   0  0.1714861E-03  0.1306777E+04  0.7818609E-02  0.9024208E-01
        2   -1    0    0  501    0  0.00000000000E+00  0.00000000000E+00  0.25743652068E+04  0.25743652068E+04  0.25500000920E-02 0. -1.
       -2   -1    0    0    0  501  0.00000000000E+00  0.00000000000E+00 -0.16583383200E+03  0.16583383202E+03  0.25500000920E-02 0.  1.
    10030    2    1    2    0    0  0.00000000000E+00  0.00000000000E+00  0.24085313748E+04  0.27401990388E+04  0.13067774826E+04 0.  0.
        1    1    3    3  502    0 -0.25391319656E+03 -0.59540247525E+03  0.13911244074E+04  0.15343412710E+04  0.50400001928E-02 0. -1.
       -1    1    3    3    0  502  0.25391319656E+03  0.59540247525E+03  0.10174069674E+04  0.12058577678E+04  0.50400001928E-02 0.  1.
</event>
<event>
 5   0  0.1694675E-03  0.1289311E+04  0.7818609E-02  0.9038085E-01
        2   -1    0    0  501    0  0.00000000000E+00  0.00000000000E+00  0.17522908893E+04  0.17522908893E+04  0.25500000920E-02 0.  1.
       -2   -1    0    0    0  501  0.00000000000E+00  0.00000000000E+00 -0.23716407974E+03  0.23716407976E+03  0.25500000920E-02 0. -1.
    10030    2    1    2    0    0  0.00000000000E+00  0.00000000000E+00  0.15151268096E+04  0.19894549691E+04  0.12893106006E+04 0.  0.
        4    1    3    3  502    0 -0.37627912948E+02 -0.63938225548E+03  0.64466496149E+03  0.90874641894E+03  0.12699999809E+01 0.  1.
       -4    1    3    3    0  502  0.37627912948E+02  0.63938225548E+03  0.87046184807E+03  0.10807085501E+04  0.12699999809E+01 0. -1.
</event>
<event>
 5   0  0.1623890E-03  0.1295054E+04  0.7818609E-02  0.9033496E-01
       -2   -1    0    0    0  501  0.00000000000E+00  0.00000000000E+00  0.38708321424E+03  0.38708321425E+03  0.25500000920E-02 0. -1.
        2   -1    0    0  501    0  0.00000000000E+00  0.00000000000E+00 -0.10832072213E+04  0.10832072213E+04  0.25500000920E-02 0.  1.
    10030    2    1    2    0    0  0.00000000000E+00  0.00000000000E+00 -0.69612400710E+03  0.14702904356E+04  0.12950541810E+04 0.  0.
        3    1    3    3  502    0 -0.38322168562E+03  0.51864636619E+03 -0.28148963997E+03  0.70362585307E+03  0.10100000352E+00 0. -1.
       -3    1    3    3    0  502  0.38322168562E+03 -0.51864636619E+03 -0.41463436714E+03  0.76666458253E+03  0.10100000352E+00 0.  1.
</event>
<event>
 5   0  0.9098192E-04  0.1295191E+04  0.7818609E-02  0.9033387E-01
        1   -1    0    0  501    0  0.00000000000E+00  0.00000000000E+00  0.14791546349E+04  0.14791546349E+04  0.50400001928E-02 0.  1.
       -1   -1    0    0    0  501  0.00000000000E+00  0.00000000000E+00 -0.28352678921E+03  0.28352678925E+03  0.50400001928E-02 0. -1.
    10030    2    1    2    0    0  0.00000000000E+00  0.00000000000E+00  0.11956278456E+04  0.17626814241E+04  0.12951910506E+04 0.  0.
        1    1    3    3  502    0  0.28284484461E+03  0.55229746648E+02  0.13870769975E+04  0.14166983193E+04  0.50400001928E-02 0.  1.
       -1    1    3    3    0  502 -0.28284484461E+03 -0.55229746648E+02 -0.19144915183E+03  0.34598310478E+03  0.50400001928E-02 0. -1.
</event>
<event>
 5   0  0.1700511E-03  0.1370681E+04  0.7818609E-02  0.8975319E-01
        2   -1    0    0  501    0  0.00000000000E+00  0.00000000000E+00  0.16065117922E+04  0.16065117922E+04  0.25500000920E-02 0.  1.
       -2   -1    0    0    0  501  0.00000000000E+00  0.00000000000E+00 -0.29236737132E+03  0.29236737133E+03  0.25500000920E-02 0. -1.
    10030    2    1    2    0    0  0.00000000000E+00  0.00000000000E+00  0.13141444209E+04  0.18988791635E+04  0.13706810420E+04 0.  0.
        2    1    3    3  502    0  0.23274425398E+01 -0.48054287165E+02  0.16041694928E+04  0.16048907729E+04  0.25500000920E-02 0.  1.
       -2    1    3    3    0  502 -0.23274425398E+01  0.48054287165E+02 -0.29002507186E+03  0.29398839062E+03  0.25500000920E-02 0. -1.
</event>
<event>
 5   0  0.9098192E-04  0.1297052E+04  0.7818609E-02  0.9031906E-01
       -1   -1    0    0    0  501  0.00000000000E+00  0.00000000000E+00  0.28133503135E+03  0.28133503140E+03  0.50400001928E-02 0. -1.
        1   -1    0    0  501    0  0.00000000000E+00  0.00000000000E+00 -0.14949649731E+04  0.14949649731E+04  0.50400001928E-02 0.  1.
    10030    2    1    2    0    0  0.00000000000E+00  0.00000000000E+00 -0.12136299417E+04  0.17763000045E+04  0.12970520693E+04 0.  0.
        1    1    3    3  502    0  0.43853619469E+03  0.47023729434E+03 -0.72260704610E+03  0.96726317523E+03  0.50400001928E-02 0. -1.
       -1    1    3    3    0  502 -0.43853619469E+03 -0.47023729434E+03 -0.49102289561E+03  0.80903682925E+03  0.50400001928E-02 0.  1.
</event>
<event>
 5   0  0.9110949E-04  0.1298321E+04  0.7818609E-02  0.9030898E-01
       -1   -1    0    0    0  501  0.00000000000E+00  0.00000000000E+00  0.62095063493E+03  0.62095063495E+03  0.50400001928E-02 0. -1.
        1   -1    0    0  501    0  0.00000000000E+00  0.00000000000E+00 -0.67865199353E+03  0.67865199355E+03  0.50400001928E-02 0.  1.
    10030    2    1    2    0    0  0.00000000000E+00  0.00000000000E+00 -0.57701358601E+02  0.12996026285E+04  0.12983210486E+04 0.  0.
        2    1    3    3  502    0  0.38319634623E+03 -0.44719989830E+03  0.24451631062E+03  0.63766402985E+03  0.25500000920E-02 0. -1.
       -2    1    3    3    0  502 -0.38319634623E+03  0.44719989830E+03 -0.30221766922E+03  0.66193859866E+03  0.25500000920E-02 0.  1.
</event>
<event>
 5   0  0.1667342E-03  0.1288332E+04  0.7818609E-02  0.9038870E-01
        2   -1    0    0  501    0  0.00000000000E+00  0.00000000000E+00  0.42545894971E+03  0.42545894971E+03  0.25500000920E-02 0. -1.
       -2   -1    0    0    0  501  0.00000000000E+00  0.00000000000E+00 -0.97529860083E+03  0.97529860083E+03  0.25500000920E-02 0.  1.
    10030    2    1    2    0    0  0.00000000000E+00  0.00000000000E+00 -0.54983965112E+03  0.14007575505E+04  0.12883315076E+04 0.  0.
        5    1    3    3  502    0 -0.45755895486E+03 -0.43250257651E+03 -0.42283881062E+03  0.75844144508E+03  0.46999998093E+01 0. -1.
       -5    1    3    3    0  502  0.45755895486E+03  0.43250257651E+03 -0.12700084051E+03  0.64231610547E+03  0.46999998093E+01 0.  1.
</event>
<event>
 5   0  0.9098192E-04  0.1272388E+04  0.7818609E-02  0.9051753E-01
       -1   -1    0    0    0  501  0.00000000000E+00  0.00000000000E+00  0.11281036743E+04  0.11281036743E+04  0.50400001928E-02 0.  1.
        1   -1    0    0  501    0  0.00000000000E+00  0.00000000000E+00 -0.35878134082E+03  0.35878134086E+03  0.50400001928E-02 0. -1.
    10030    2    1    2    0    0  0.00000000000E+00  0.00000000000E+00  0.76932233351E+03  0.14868850152E+04  0.12723875964E+04 0.  0.
        1    1    3    3  502    0 -0.19016682956E+02 -0.88007217205E+02 -0.35129818458E+03  0.36265316629E+03  0.50400001928E-02 0. -1.
       -1    1    3    3    0  502  0.19016682956E+02  0.88007217205E+02  0.11206205181E+04  0.11242318489E+04  0.50400001928E-02 0.  1.
</event>
<event>
 5   0  0.1694675E-03  0.1302193E+04  0.7818609E-02  0.9027828E-01
       -2   -1    0    0    0  501  0.00000000000E+00  0.00000000000E+00  0.28433737953E+03  0.28433737954E+03  0.25500000920E-02 0.  1.
        2   -1    0    0  501    0  0.00000000000E+00  0.00000000000E+00 -0.14909275881E+04  0.14909275881E+04  0.25500000920E-02 0. -1.
    10030    2    1    2    0    0  0.00000000000E+00  0.00000000000E+00 -0.12065902086E+04  0.17752649677E+04  0.13021926793E+04 0.  0.
        4    1    3    3  502    0 -0.42574129404E+03 -0.16754698659E+03  0.28243564489E+02  0.45839606674E+03  0.12699999809E+01 0.  1.
       -4    1    3    3    0  502  0.42574129404E+03  0.16754698659E+03 -0.12348337731E+04  0.13168689009E+04  0.12699999809E+01 0. -1.
</event>
<event>
 5   0  0.6284125E-04  0.1311121E+04  0.7818609E-02  0.9020792E-01
        3   -1    0    0  501    0  0.00000000000E+00  0.00000000000E+00  0.23944642032E+03  0.23944644163E+03  0.10100000352E+00 0.  1.
       -3   -1    0    0    0  501  0.00000000000E+00  0.00000000000E+00 -0.17948055615E+04  0.17948055644E+04  0.10100000352E+00 0. -1.
    10030    2    1    2    0    0  0.00000000000E+00  0.00000000000E+00 -0.15553591412E+04  0.20342520060E+04  0.13111213391E+04 0.  0.
        2    1    3    3  502    0 -0.34365320611E+03 -0.19934649153E+03 -0.15867475840E+04  0.16357274972E+04  0.25500000920E-02 0. -1.
       -2    1    3    3    0  502  0.34365320611E+03  0.19934649153E+03  0.31388442806E+02  0.39852450879E+03  0.25500000920E-02 0.  1.
</event>
<event>
 5   0  0.1623890E-03  0.1291551E+04  0.7818609E-02  0.9036292E-01
        2   -1    0    0  501    0  0.00000000000E+00  0.00000000000E+00  0.13117239648E+04  0.13117239648E+04  0.25500000920E-02 0. -1.
       -2   -1    0    0    0  501  0.00000000000E+00  0.00000000000E+00 -0.31792194017E+03  0.31792194018E+03  0.25500000920E-02 0.  1.
    10030    2    1    2    0    0  0.00000000000E+00  0.00000000000E+00  0.99380202467E+03  0.16296459050E+04  0.12915507390E+04 0.  0.
        3    1    3    3  502    0  0.55720326900E+02 -0.56885763308E+03  0.87611005512E+03  0.10460748541E+04  0.10100000352E+00 0. -1.
       -3    1    3    3    0  502 -0.55720326900E+02  0.56885763308E+03  0.11769196955E+03  0.58357105090E+03  0.10100000352E+00 0.  1.
</event>
<event>
 5   0  0.1667342E-03  0.1273698E+04  0.7818609E-02  0.9050687E-01
        2   -1    0    0  501    0  0.00000000000E+00  0.00000000000E+00  0.51035930752E+03  0.51035930753E+03  0.25500000920E-02 0.  1.
       -2   -1    0    0    0  501  0.00000000000E+00  0.00000000000E+00 -0.79468807151E+03  0.79468807151E+03  0.25500000920E-02 0. -1.
    10030    2    1    2    0    0  0.00000000000E+00  0.00000000000E+00 -0.28432876399E+03  0.13050473790E+04  0.12736976939E+04 0.  0.
        5    1    3    3  502    0 -0.42487565615E+03 -0.13950480156E+03  0.32239734722E+03  0.55131030495E+03  0.46999998093E+01 0.  1.
       -5    1    3    3    0  502  0.42487565615E+03  0.13950480156E+03 -0.60672611120E+03  0.75373707410E+03  0.46999998093E+01 0. -1.
</event>
<event>
 5   0  0.9215829E-04  0.1300746E+04  0.7818609E-02  0.9028974E-01
       -1   -1    0    0    0  501  0.00000000000E+00  0.00000000000E+00  0.24322527560E+03  0.24322527565E+03  0.50400001928E-02 0.  1.
        1   -1    0    0  501    0  0.00000000000E+00  0.00000000000E+00 -0.17390666226E+04  0.17390666226E+04  0.50400001928E-02 0. -1.
    10030    2    1    2    0    0  0.00000000000E+00  0.00000000000E+00 -0.14958413470E+04  0.19822918983E+04  0.13007458762E+04 0.  0.
        3    1    3    3  502    0 -0.36294889413E+03 -0.38440800678E+03 -0.17065440747E+03  0.55553969472E+03  0.10100000352E+00 0. -1.
       -3    1    3    3    0  502  0.36294889413E+03  0.38440800678E+03 -0.13251869396E+04  0.14267522036E+04  0.10100000352E+00 0.  1.
</event>
<event>
 5   0  0.1700511E-03  0.1314911E+04  0.7818609E-02  0.9017824E-01
        2   -1    0    0  501    0  0.00000000000E+00  0.00000000000E+00  0.51930809382E+03  0.51930809383E+03  0.25500000920E-02 0. -1.
       -2   -1    0    0    0  501  0.00000000000E+00  0.00000000000E+00 -0.83235253921E+03  0.83235253921E+03  0.25500000920E-02 0.  1.
    10030    2    1    2    0    0  0.00000000000E+00  0.00000000000E+00 -0.31304444539E+03  0.13516606330E+04  0.13149105073E+04 0.  0.
        2    1    3    3  502    0  0.25593396382E+03  0.55295514145E+03  0.97332900476E+02  0.61703749952E+03  0.25500000920E-02 0. -1.
       -2    1    3    3    0  502 -0.25593396382E+03 -0.55295514145E+03 -0.41037734586E+03  0.73462313352E+03  0.25500000920E-02 0.  1.
</event>
<event>
 5   0  0.1694675E-03  0.1317267E+04  0.7818609E-02  0.9015983E-01
        2   -1    0    0  501    0  0.00000000000E+00  0.00000000000E+00  0.59964962439E+03  0.59964962439E+03  0.25500000920E-02 0. -1.
       -2   -1    0    0    0  501  0.00000000000E+00  0.00000000000E+00 -0.72341958343E+03  0.72341958343E+03  0.25500000920E-02 0.  1.
    10030    2    1    2    0    0  0.00000000000E+00  0.00000000000E+00 -0.12376995904E+03  0.13230692078E+04  0.13172672948E+04 0.  0.
        4    1    3    3  502    0  0.14633829824E+03  0.10106565929E+03 -0.69884495053E+03  0.72112068532E+03  0.12699999809E+01 0.  1.
       -4    1    3    3    0  502 -0.14633829824E+03 -0.10106565929E+03  0.57507499148E+03  0.60194852251E+03  0.12699999809E+01 0. -1.
</event>
<event>
 5   0  0.1694675E-03  0.1268765E+04  0.7818609E-02  0.9054708E-01
       -2   -1    0    0    0  501  0.00000000000E+00  0.00000000000E+00  0.96397974455E+03  0.96397974455E+03  0.25500000920E-02 0. -1.
        2   -1    0    0  501    0  0.00000000000E+00  0.00000000000E+00 -0.41747869800E+03  0.41747869801E+03  0.25500000920E-02 0.  1.
    10030    2    1    2    0    0  0.00000000000E+00  0.00000000000E+00  0.54650104655E+03  0.13814584426E+04  0.12687647673E+04 0.  0.
        4    1    3    3  502    0 -0.28649784333E+03 -0.48876797453E+03  0.58402134979E+03  0.81366927991E+03  0.12699999809E+01 0. -1.
       -4    1    3    3    0  502  0.28649784333E+03  0.48876797453E+03 -0.37520303243E+02  0.56778916264E+03  0.12699999809E+01 0.  1.
</event>
<event>
 5   0  0.9081324E-04  0.1305647E+04  0.7818609E-02  0.9025099E-01
        1   -1    0    0  501    0  0.00000000000E+00  0.00000000000E+00  0.12434669388E+04  0.12434669388E+04  0.50400001928E-02 0.  1.
       -1   -1    0    0    0  501  0.00000000000E+00  0.00000000000E+00 -0.34273436110E+03  0.34273436114E+03  0.50400001928E-02 0. -1.
    10030    2    1    2    0    0  0.00000000000E+00  0.00000000000E+00  0.90073257772E+03  0.15862013000E+04  0.13056474974E+04 0.  0.
        4    1    3    3  502    0 -0.21908536779E+02  0.68749373957E+02 -0.33787346386E+03  0.34549464668E+03  0.12699999809E+01 0. -1.
       -4    1    3    3    0  502  0.21908536779E+02 -0.68749373957E+02  0.12386060416E+04  0.12407066533E+04  0.12699999809E+01 0.  1.
</event>
<event>
 5   0  0.9215829E-04  0.1299619E+04  0.7818609E-02  0.9029868E-01
       -1   -1    0    0    0  501  0.00000000000E+00  0.00000000000E+00  0.72830874076E+03  0.72830874078E+03  0.50400001928E-02 0. -1.
        1   -1    0    0  501    0  0.00000000000E+00  0.00000000000E+00 -0.57977079558E+03  0.57977079560E+03  0.50400001928E-02 0.  1.
    10030    2    1    2    0    0  0.00000000000E+00  0.00000000000E+00  0.14853794518E+03  0.13080795364E+04  0.12996186180E+04 0.  0.
        3    1    3    3  502    0 -0.50329193821E+03  0.23606153955E+03 -0.26440985991E+03  0.61558135915E+03  0.10100000352E+00 0.  1.
       -3    1    3    3    0  502  0.50329193821E+03 -0.23606153955E+03  0.41294780509E+03  0.69249817722E+03  0.10100000352E+00 0. -1.
</event>
<event>
 5   0  0.9098192E-04  0.1308329E+04  0.7818609E-02  0.9022986E-01
        1   -1    0    0  501    0  0.00000000000E+00  0.00000000000E+00  0.73240389679E+03  0.73240389680E+03  0.50400001928E-02 0. -1.
       -1   -1    0    0    0  501  0.00000000000E+00  0.00000000000E+00 -0.58428329958E+03  0.58428329960E+03  0.50400001928E-02 0.  1.
    10030    2    1    2    0    0  0.00000000000E+00  0.00000000000E+00  0.14812059721E+03  0.13166871964E+04  0.13083292635E+04 0.  0.
        1    1    3    3  502    0  0.11812620025E+03  0.56054294254E+03 -0.24382010031E+03  0.62258367386E+03  0.50400001928E-02 0.  1.
       -1    1    3    3    0  502 -0.11812620025E+03 -0.56054294254E+03  0.39194069752E+03  0.69410352255E+03  0.50400001928E-02 0. -1.
</event>
<event>
 5   0  0.9081324E-04  0.1282092E+04  0.7818609E-02  0.9043888E-01
       -1   -1    0    0    0  501  0.00000000000E+00  0.00000000000E+00  0.31446842112E+03  0.31446842116E+03  0.50400001928E-02 0.  1.
        1   -1    0    0  501    0  0.00000000000E+00  0.00000000000E+00 -0.13067762560E+04  0.13067762560E+04  0.50400001928E-02 0. -1.
    10030    2    1    2    0    0  0.00000000000E+00  0.00000000000E+00 -0.99230783488E+03  0.16212446772E+04  0.12820918314E+04 0.  0.
        4    1    3    3  502    0 -0.17049824386E+03 -0.81085325051E+02 -0.12708210118E+04  0.12847692937E+04  0.12699999809E+01 0. -1.
       -4    1    3    3    0  502  0.17049824386E+03  0.81085325051E+02  0.27851317690E+03  0.33647538350E+03  0.12699999809E+01 0.  1.
</event>
<event>
 5   0  0.9098192E-04  0.1295300E+04  0.7818609E-02  0.9033301E-01
       -1   -1    0    0    0  501  0.00000000000E+00  0.00000000000E+00  0.25371229826E+03  0.25371229831E+03  0.50400001928E-02 0.  1.
        1   -1    0    0  501    0  0.00000000000E+00  0.00000000000E+00 -0.16532529267E+04  0.16532529268E+04  0.50400001928E-02 0. -1.
    10030    2    1    2    0    0  0.00000000000E+00  0.00000000000E+00 -0.13995406285E+04  0.19069652251E+04  0.12953001192E+04 0.  0.
        1    1    3    3  502    0  0.28249158549E+03  0.58083201455E+03 -0.62942236390E+03  0.90185355641E+03  0.50400001928E-02 0. -1.
       -1    1    3    3    0  502 -0.28249158549E+03 -0.58083201455E+03 -0.77011826458E+03  0.10051116687E+04  0.50400001928E-02 0.  1.
</event>
<event>
 5   0  0.1700511E-03  0.1305926E+04  0.7818609E-02  0.9024879E-01
       -2   -1    0    0    0  501  0.00000000000E+00  0.00000000000E+00  0.99518469756E+03  0.99518469756E+03  0.25500000920E-02 0.  1.
        2   -1    0    0  501    0  0.00000000000E+00  0.00000000000E+00 -0.42842373208E+03  0.42842373209E+03  0.25500000920E-02 0. -1.
    10030    2    1    2    0    0  0.00000000000E+00  0.00000000000E+00  0.56676096548E+03  0.14236084297E+04  0.13059260963E+04 0.  0.
        2    1    3    3  502    0  0.56973868725E+03 -0.22972488646E+03  0.52465069992E+03  0.80785769300E+03  0.25500000920E-02 0.  1.
       -2    1    3    3    0  502 -0.56973868725E+03  0.22972488646E+03  0.42110265559E+02  0.61575073665E+03  0.25500000920E-02 0. -1.
</event>
<event>
 5   0  0.9081324E-04  0.1264002E+04  0.7818609E-02  0.9058610E-01
       -1   -1    0    0    0  501  0.00000000000E+00  0.00000000000E+00  0.31013944774E+03  0.31013944778E+03  0.50400001928E-02 0. -1.
        1   -1    0    0  501    0  0.00000000000E+00  0.00000000000E+00 -0.12878886347E+04  0.12878886347E+04  0.50400001928E-02 0.  1.
    10030    2    1    2    0    0  0.00000000000E+00  0.00000000000E+00 -0.97774918694E+03  0.15980280825E+04  0.12640016930E+04 0.  0.
        4    1    3    3  502    0  0.26301831210E+03 -0.57394640606E+03 -0.45244396197E+03  0.77672405727E+03  0.12699999809E+01 0.  1.
       -4    1    3    3    0  502 -0.26301831210E+03  0.57394640606E+03 -0.52530522497E+03  0.82130402520E+03  0.12699999809E+01 0. -1.
</event>
<event>
 5   0  0.1694675E-03  0.1318021E+04  0.7818609E-02  0.9015396E-01
       -2   -1    0    0    0  501  0.00000000000E+00  0.00000000000E+00  0.36415447528E+03  0.36415447529E+03  0.25500000920E-02 0.  1.
        2   -1    0    0  501    0  0.00000000000E+00  0.00000000000E+00 -0.11926107025E+04  0.11926107025E+04  0.25500000920E-02 0. -1.
    10030    2    1    2    0    0  0.00000000000E+00  0.00000000000E+00 -0.82845622725E+03  0.15567651778E+04  0.13180205228E+04 0.  0.
        4    1    3    3  502    0  0.20950024356E+03  0.50597964370E+03 -0.84722006509E+03  0.10088058304E+04  0.12699999809E+01 0. -1.
       -4    1    3    3    0  502 -0.20950024356E+03 -0.50597964370E+03  0.18763837835E+02  0.54795934740E+03  0.12699999809E+01 0.  1.
</event>
<event>
 5   0  0.9098192E-04  0.1369862E+04  0.7818609E-02  0.8975927E-01
       -1   -1    0    0    0  501  0.00000000000E+00  0.00000000000E+00  0.76866845270E+03  0.76866845272E+03  0.50400001928E-02 0. -1.
        1   -1    0    0  501    0  0.00000000000E+00  0.00000000000E+00 -0.61031619402E+03  0.61031619404E+03  0.50400001928E-02 0.  1.
    10030    2    1    2    0    0  0.00000000000E+00  0.00000000000E+00  0.15835225868E+03  0.13789846468E+04  0.13698624815E+04 0.  0.
        1    1    3    3  502    0  0.52496021197E+03  0.40905722773E+03  0.24217960153E+03  0.70821042010E+03  0.50400001928E-02 0.  1.
       -1    1    3    3    0  502 -0.52496021197E+03 -0.40905722773E+03 -0.83827342846E+02  0.67077422666E+03  0.50400001928E-02 0. -1.
</event>
<event>
 5   0  0.9215829E-04  0.1298040E+04  0.7818609E-02  0.9031121E-01
        1   -1    0    0  501    0  0.00000000000E+00  0.00000000000E+00  0.54370703234E+03  0.54370703236E+03  0.50400001928E-02 0.  1.
       -1   -1    0    0    0  501  0.00000000000E+00  0.00000000000E+00 -0.77473112992E+03  0.77473112993E+03  0.50400001928E-02 0. -1.
    10030    2    1    2    0    0  0.00000000000E+00  0.00000000000E+00 -0.23102409758E+03  0.13184381623E+04  0.12980396967E+04 0.  0.
        3    1    3    3  502    0  0.39235825017E+03 -0.14367311145E+03  0.38892080601E+03  0.57082953934E+03  0.10100000352E+00 0.  1.
       -3    1    3    3    0  502 -0.39235825017E+03  0.14367311145E+03 -0.61994490359E+03  0.74760862296E+03  0.10100000352E+00 0. -1.
</event>
<event>
 5   0  0.1700511E-03  0.1310224E+04  0.7818609E-02  0.9021496E-01
        2   -1    0    0  501    0  0.00000000000E+00  0.00000000000E+00  0.58233012642E+03  0.58233012642E+03  0.25500000920E-02 0.  1.
       -2   -1    0    0    0  501  0.00000000000E+00  0.00000000000E+00 -0.73699079047E+03  0.73699079047E+03  0.25500000920E-02 0. -1.
    10030    2    1    2    0    0  0.00000000000E+00  0.00000000000E+00 -0.15466066405E+03  0.13193209169E+04  0.13102243170E+04 0.  0.
        2    1    3    3  502    0 -0.43818364287E+03  0.47766348031E+03  0.18221242148E+02  0.64845918837E+03  0.25500000920E-02 0. -1.
       -2    1    3    3    0  502  0.43818364287E+03 -0.47766348031E+03 -0.17288190620E+03  0.67086172853E+03  0.25500000920E-02 0.  1.
</event>
<event>
 5   0  0.1623890E-03  0.1300497E+04  0.7818609E-02  0.9029171E-01
        2   -1    0    0  501    0  0.00000000000E+00  0.00000000000E+00  0.16310819932E+04  0.16310819932E+04  0.25500000920E-02 0.  1.
       -2   -1    0    0    0  501  0.00000000000E+00  0.00000000000E+00 -0.25922874693E+03  0.25922874694E+03  0.25500000920E-02 0. -1.
    10030    2    1    2    0    0  0.00000000000E+00  0.00000000000E+00  0.13718532463E+04  0.18903107402E+04  0.13004973529E+04 0.  0.
        3    1    3    3  502    0 -0.25818412746E+03 -0.16614927318E+01  0.15533821762E+04  0.15746929859E+04  0.10100000352E+00 0.  1.
       -3    1    3    3    0  502  0.25818412746E+03  0.16614927318E+01 -0.18152892990E+03  0.31561775429E+03  0.10100000352E+00 0. -1.
</event>
<event>
 5   0  0.1667342E-03  0.1303678E+04  0.7818609E-02  0.9026654E-01
       -2   -1    0    0    0  501  0.00000000000E+00  0.00000000000E+00  0.40342848317E+03  0.40342848318E+03  0.25500000920E-02 0.  1.
        2   -1    0    0  501    0  0.00000000000E+00  0.00000000000E+00 -0.10532078512E+04  0.10532078512E+04  0.25500000920E-02 0. -1.
    10030    2    1    2    0    0  0.00000000000E+00  0.00000000000E+00 -0.64977936800E+03  0.14566363344E+04  0.13036779447E+04 0.  0.
        5    1    3    3  502    0  0.71619014610E+02  0.72214833148E+02  0.39448904778E+03  0.40741620512E+03  0.46999998093E+01 0.  1.
       -5    1    3    3    0  502 -0.71619014610E+02 -0.72214833148E+02 -0.10442684158E+04  0.10492201292E+04  0.46999998093E+01 0. -1.
</event>
<event>
 5   0  0.9081324E-04  0.1140076E+04  0.7818609E-02  0.9166988E-01
       -1   -1    0    0    0  501  0.00000000000E+00  0.00000000000E+00  0.31633513021E+03  0.31633513025E+03  0.50400001928E-02 0.  1.
        1   -1    0    0  501    0  0.00000000000E+00  0.00000000000E+00 -0.10272126909E+04  0.10272126909E+04  0.50400001928E-02 0. -1.
    10030    2    1    2    0    0  0.00000000000E+00  0.00000000000E+00 -0.71087756070E+03  0.13435478212E+04  0.11400762437E+04 0.  0.
        4    1    3    3  502    0  0.42829224390E+03  0.26711980463E+03 -0.43300276749E+02  0.50661993948E+03  0.12699999809E+01 0.  1.
       -4    1    3    3    0  502 -0.42829224390E+03 -0.26711980463E+03 -0.66757728395E+03  0.83692788170E+03  0.12699999809E+01 0. -1.
</event>
<event>
 5   0  0.9098192E-04  0.1327744E+04  0.7818609E-02  0.9007849E-01
        1   -1    0    0  501    0  0.00000000000E+00  0.00000000000E+00  0.58476754780E+03  0.58476754782E+03  0.50400001928E-02 0. -1.
       -1   -1    0    0    0  501  0.00000000000E+00  0.00000000000E+00 -0.75367757181E+03  0.75367757183E+03  0.50400001928E-02 0.  1.
    10030    2    1    2    0    0  0.00000000000E+00  0.00000000000E+00 -0.16891002401E+03  0.13384451197E+04  0.13277442307E+04 0.  0.
        1    1    3    3  502    0 -0.55141545772E+03 -0.25405422694E+03  0.18626784752E+03  0.63505768894E+03  0.50400001928E-02 0.  1.
       -1    1    3    3    0  502  0.55141545772E+03  0.25405422694E+03 -0.35517787153E+03  0.70338743072E+03  0.50400001928E-02 0. -1.
</event>
<event>
 5   0  0.9215829E-04  0.1298613E+04  0.7818609E-02  0.9030666E-01
       -1   -1    0    0    0  501  0.00000000000E+00  0.00000000000E+00  0.37908430806E+03  0.37908430809E+03  0.50400001928E-02 0.  1.
        1   -1    0    0  501    0  0.00000000000E+00  0.00000000000E+00 -0.11121500328E+04  0.11121500328E+04  0.50400001928E-02 0. -1.
    10030    2    1    2    0    0  0.00000000000E+00  0.00000000000E+00 -0.73306572477E+03  0.14912343409E+04  0.12986125299E+04 0.  0.
        3    1    3    3  502    0 -0.34759149341E+03 -0.45866167249E+03 -0.21253744649E+02  0.57588376255E+03  0.10100000352E+00 0.  1.
       -3    1    3    3    0  502  0.34759149341E+03  0.45866167249E+03 -0.71181198012E+03  0.91535057838E+03  0.10100000352E+00 0. -1.
</event>
<event>
 5   0  0.1623890E-03  0.1294466E+04  0.7818609E-02  0.9033965E-01
        2   -1    0    0  501    0  0.00000000000E+00  0.00000000000E+00  0.86525481676E+03  0.86525481677E+03  0.25500000920E-02 0.  1.
       -2   -1    0    0    0  501  0.00000000000E+00  0.00000000000E+00 -0.48414686584E+03  0.48414686585E+03  0.25500000920E-02 0. -1.
    10030    2    1    2    0    0  0.00000000000E+00  0.00000000000E+00  0.38110795092E+03  0.13494016826E+04  0.12944657704E+04 0.  0.
        3    1    3    3  502    0 -0.45344529011E+03 -0.43076623433E+03  0.16937892792E+02  0.62566690992E+03  0.10100000352E+00 0. -1.
       -3    1    3    3    0  502  0.45344529011E+03  0.43076623433E+03  0.36417005813E+03  0.72373477269E+03  0.10100000352E+00 0.  1.
</event>
<event>
 5   0  0.1700511E-03  0.1304121E+04  0.7818609E-02  0.9026304E-01
        2   -1    0    0  501    0  0.00000000000E+00  0.00000000000E+00  0.36307124919E+03  0.36307124920E+03  0.25500000920E-02 0. -1.
       -2   -1    0    0    0  501  0.00000000000E+00  0.00000000000E+00 -0.11710728526E+04  0.11710728527E+04  0.25500000920E-02 0.  1.
    10030    2    1    2    0    0  0.00000000000E+00  0.00000000000E+00 -0.80800160346E+03  0.15341441019E+04  0.13041209814E+04 0.  0.
        2    1    3    3  502    0  0.55651662541E+03  0.75340272187E+02 -0.79380048110E+03  0.97237138726E+03  0.25500000920E-02 0.  1.
       -2    1    3    3    0  502 -0.55651662541E+03 -0.75340272187E+02 -0.14201122362E+02  0.56177271459E+03  0.25500000920E-02 0. -1.
</event>
<event>
 5   0  0.9110949E-04  0.1350732E+04  0.7818609E-02  0.8990274E-01
       -1   -1    0    0    0  501  0.00000000000E+00  0.00000000000E+00  0.28009749066E+03  0.28009749071E+03  0.50400001928E-02 0. -1.
        1   -1    0    0  501    0  0.00000000000E+00  0.00000000000E+00 -0.16284313934E+04  0.16284313934E+04  0.50400001928E-02 0.  1.
    10030    2    1    2    0    0  0.00000000000E+00  0.00000000000E+00 -0.13483339027E+04  0.19085288841E+04  0.13507324636E+04 0.  0.
        2    1    3    3  502    0  0.34850526943E+03 -0.53758309160E+03 -0.97611734759E+03  0.11675857911E+04  0.25500000920E-02 0.  1.
       -2    1    3    3    0  502 -0.34850526943E+03  0.53758309160E+03 -0.37221655511E+03  0.74094309302E+03  0.25500000920E-02 0. -1.
</event>
<event>
 5   0  0.9110949E-04  0.1298502E+04  0.7818609E-02  0.9030754E-01
       -1   -1    0    0    0  501  0.00000000000E+00  0.00000000000E+00  0.54575364507E+03  0.54575364509E+03  0.50400001928E-02 0. -1.
        1   -1    0    0  501    0  0.00000000000E+00  0.00000000000E+00 -0.77237528375E+03  0.77237528377E+03  0.50400001928E-02 0.  1.
    10030    2    1    2    0    0  0.00000000000E+00  0.00000000000E+00 -0.22662163868E+03  0.13181289289E+04  0.12985016388E+04 0.  0.
        2    1    3    3  502    0  0.30726457989E+03 -0.35956457375E+03  0.33819123698E+03  0.58143917784E+03  0.25500000920E-02 0. -1.
       -2    1    3    3    0  502 -0.30726457989E+03  0.35956457375E+03 -0.56481287566E+03  0.73668975102E+03  0.25500000920E-02 0.  1.
</event>
<event>
 5   0  0.1714861E-03  0.1309712E+04  0.7818609E-02  0.9021898E-01
        2   -1    0    0  501    0  0.00000000000E+00  0.00000000000E+00  0.11000941576E+04  0.11000941576E+04  0.25500000920E-02 0. -1.
       -2   -1    0    0    0  501  0.00000000000E+00  0.00000000000E+00 -0.38981810697E+03  0.38981810698E+03  0.25500000920E-02 0.  1.
    10030    2    1    2    0    0  0.00000000000E+00  0.00000000000E+00  0.71027605060E+03  0.14899122646E+04  0.13097123684E+04 0.  0.
        1    1    3    3  502    0  0.36495973562E+03 -0.54354012803E+03  0.33884458954E+03  0.73718867008E+03  0.50400001928E-02 0.  1.
       -1    1    3    3    0  502 -0.36495973562E+03  0.54354012803E+03  0.37143146106E+03  0.75272359448E+03  0.50400001928E-02 0. -1.
</event>
<event>
 5   0  0.9215829E-04  0.1261780E+04  0.7818609E-02  0.9060436E-01
       -1   -1    0    0    0  501  0.00000000000E+00  0.00000000000E+00  0.92973203723E+03  0.92973203724E+03  0.50400001928E-02 0.  1.
        1   -1    0    0  501    0  0.00000000000E+00  0.00000000000E+00 -0.42810407588E+03  0.42810407591E+03  0.50400001928E-02 0. -1.
    10030    2    1    2    0    0  0.00000000000E+00  0.00000000000E+00  0.50162796135E+03  0.13578361131E+04  0.12617798138E+04 0.  0.
        3    1    3    3  502    0  0.49164477288E+03  0.13969066199E+03 -0.14719906339E+03  0.53187934553E+03  0.10100000352E+00 0. -1.
       -3    1    3    3    0  502 -0.49164477288E+03 -0.13969066199E+03  0.64882702473E+03  0.82595676761E+03  0.10100000352E+00 0.  1.
</event>
<event>
 5   0  0.1714861E-03  0.1307982E+04  0.7818609E-02  0.9023259E-01
       -2   -1    0    0    0  501  0.00000000000E+00  0.00000000000E+00  0.93677232954E+03  0.93677232954E+03  0.25500000920E-02 0. -1.
        2   -1    0    0  501    0  0.00000000000E+00  0.00000000000E+00 -0.45657212934E+03  0.45657212935E+03  0.25500000920E-02 0.  1.
    10030    2    1    2    0    0  0.00000000000E+00  0.00000000000E+00  0.48020020020E+03  0.13933444589E+04  0.13079818611E+04 0.  0.
        1    1    3    3  502    0  0.27683900090E+03 -0.44673009270E+02 -0.38927880480E+03  0.47976400248E+03  0.50400001928E-02 0.  1.
       -1    1    3    3    0  502 -0.27683900090E+03  0.44673009270E+02  0.86947900500E+03  0.91358045641E+03  0.50400001928E-02 0. -1.
</event>
<event>
 5   0  0.9110949E-04  0.1299042E+04  0.7818609E-02  0.9030326E-01
       -1   -1    0    0    0  501  0.00000000000E+00  0.00000000000E+00  0.38668453812E+03  0.38668453815E+03  0.50400001928E-02 0.  1.
        1   -1    0    0  501    0  0.00000000000E+00  0.00000000000E+00 -0.10910114384E+04  0.10910114384E+04  0.50400001928E-02 0. -1.
    10030    2    1    2    0    0  0.00000000000E+00  0.00000000000E+00 -0.70432690029E+03  0.14776959766E+04  0.12990415762E+04 0.  0.
        2    1    3    3  502    0  0.21946231405E+03 -0.55300822874E+03 -0.55760609132E+02  0.59757096137E+03  0.25500000920E-02 0.  1.
       -2    1    3    3    0  502 -0.21946231405E+03  0.55300822874E+03 -0.64856629116E+03  0.88012501520E+03  0.25500000920E-02 0. -1.
</event>
<event>
 5   0  0.9081324E-04  0.1311208E+04  0.7818609E-02  0.9020724E-01
       -1   -1    0    0    0  501  0.00000000000E+00  0.00000000000E+00  0.30357630918E+03  0.30357630922E+03  0.50400001928E-02 0. -1.
        1   -1    0    0  501    0  0.00000000000E+00  0.00000000000E+00 -0.14158442489E+04  0.14158442489E+04  0.50400001928E-02 0.  1.
    10030    2    1    2    0    0  0.00000000000E+00  0.00000000000E+00 -0.11122679398E+04  0.17194205582E+04  0.13112082543E+04 0.  0.
        4    1    3    3  502    0 -0.10757494577E+03  0.15109889086E+03  0.26845081377E+03  0.32629847700E+03  0.12699999809E+01 0. -1.
       -4    1    3    3    0  502  0.10757494577E+03 -0.15109889086E+03 -0.13807187535E+04  0.13931220812E+04  0.12699999809E+01 0.  1.
</event>
<event>
 5   0  0.1694675E-03  0.1291838E+04  0.7818609E-02  0.9036063E-01
        2   -1    0    0  501    0  0.00000000000E+00  0.00000000000E+00  0.85330737203E+03  0.85330737203E+03  0.25500000920E-02 0.  1.
       -2   -1    0    0    0  501  0.00000000000E+00  0.00000000000E+00 -0.48893419803E+03  0.48893419804E+03  0.25500000920E-02 0. -1.
    10030    2    1    2    0    0  0.00000000000E+00  0.00000000000E+00  0.36437317400E+03  0.13422415701E+04  0.12918376920E+04 0.  0.
        4    1    3    3  502    0  0.23542924634E+03  0.43025337763E+03  0.61890102907E+03  0.78967398063E+03  0.12699999809E+01 0.  1.
       -4    1    3    3    0  502 -0.23542924634E+03 -0.43025337763E+03 -0.25452785507E+03  0.55256758944E+03  0.12699999809E+01 0. -1.
</event>
<event>
 5   0  0.1700511E-03  0.1313745E+04  0.7818609E-02  0.9018735E-01
       -2   -1    0    0    0  501  0.00000000000E+00  0.00000000000E+00  0.92412701805E+03  0.92412701805E+03  0.25500000920E-02 0.  1.
        2   -1    0    0  501    0  0.00000000000E+00  0.00000000000E+00 -0.46690745620E+03  0.46690745620E+03  0.25500000920E-02 0. -1.
    10030    2    1    2    0    0  0.00000000000E+00  0.00000000000E+00  0.45721956185E+03  0.13910344743E+04  0.13137454780E+04 0.  0.
        2    1    3    3  502    0 -0.19987888235E+03 -0.62543471929E+03  0.24874538158E+03  0.70213561408E+03  0.25500000920E-02 0. -1.
       -2    1    3    3    0  502  0.19987888235E+03  0.62543471929E+03  0.20847418027E+03  0.68889886017E+03  0.25500000920E-02 0.  1.
</event>
<event>
 5   0  0.9027076E-04  0.1304083E+04  0.7818609E-02  0.9026334E-01
        1   -1    0    0  501    0  0.00000000000E+00  0.00000000000E+00  0.61783401842E+03  0.61783401844E+03  0.50400001928E-02 0.  1.
       -1   -1    0    0    0  501  0.00000000000E+00  0.00000000000E+00 -0.68814241846E+03  0.68814241848E+03  0.50400001928E-02 0. -1.
    10030    2    1    2    0    0  0.00000000000E+00  0.00000000000E+00 -0.70308400034E+02  0.13059764369E+04  0.13040825061E+04 0.  0.
        5    1    3    3  502    0  0.19492946883E+03 -0.42967970806E+03 -0.48582282331E+03  0.67725036359E+03  0.46999998093E+01 0. -1.
       -5    1    3    3    0  502 -0.19492946883E+03  0.42967970806E+03  0.41551442328E+03  0.62872607333E+03  0.46999998093E+01 0.  1.
</event>
<event>
 5   0  0.1667342E-03  0.1305911E+04  0.7818609E-02  0.9024891E-01
        2   -1    0    0  501    0  0.00000000000E+00  0.00000000000E+00  0.17374690999E+04  0.17374690999E+04  0.25500000920E-02 0.  1.
       -2   -1    0    0    0  501  0.00000000000E+00  0.00000000000E+00 -0.24538613548E+03  0.24538613550E+03  0.25500000920E-02 0. -1.
    10030    2    1    2    0    0  0.00000000000E+00  0.00000000000E+00  0.14920829644E+04  0.19828552354E+04  0.13059109127E+04 0.  0.
        5    1    3    3  502    0  0.47553808833E+03 -0.12136736681E+03  0.13999322299E+04  0.14834752608E+04  0.46999998093E+01 0.  1.
       -5    1    3    3    0  502 -0.47553808833E+03  0.12136736681E+03  0.92150734580E+02  0.49937997463E+03  0.46999998093E+01 0. -1.
</event>
<event>
 5   0  0.1700511E-03  0.1294850E+04  0.7818609E-02  0.9033659E-01
        2   -1    0    0  501    0  0.00000000000E+00  0.00000000000E+00  0.14874933358E+03  0.14874933360E+03  0.25500000920E-02 0.  1.
       -2   -1    0    0    0  501  0.00000000000E+00  0.00000000000E+00 -0.28178898991E+04  0.28178898991E+04  0.25500000920E-02 0. -1.
    10030    2    1    2    0    0  0.00000000000E+00  0.00000000000E+00 -0.26691405656E+04  0.29666392327E+04  0.12948501761E+04 0.  0.
        2    1    3    3  502    0 -0.36819458536E+03 -0.16099919461E+03 -0.17157434217E+03  0.43695051007E+03  0.25500000920E-02 0.  1.
       -2    1    3    3    0  502  0.36819458536E+03  0.16099919461E+03 -0.24975662234E+04  0.25296887227E+04  0.25500000920E-02 0. -1.
</event>
<event>
 5   0  0.6284125E-04  0.1117678E+04  0.7818609E-02  0.9188131E-01
        4   -1    0    0  501    0  0.00000000000E+00  0.00000000000E+00  0.67127314575E+03  0.67127434712E+03  0.12699999809E+01 0.  1.
       -4   -1    0    0    0  501  0.00000000000E+00  0.00000000000E+00 -0.46523400352E+03  0.46523573695E+03  0.12699999809E+01 0. -1.
    10030    2    1    2    0    0  0.00000000000E+00  0.00000000000E+00  0.20603914223E+03  0.11365100841E+04  0.11176775219E+04 0.  0.
        1    1    3    3  502    0 -0.20273625639E+03 -0.66777248171E+02 -0.42215114350E+03  0.47304627523E+03  0.50400001928E-02 0. -1.
       -1    1    3    3    0  502  0.20273625639E+03  0.66777248171E+02  0.62819028573E+03  0.66346380884E+03  0.50400001928E-02 0.  1.
</event>
<event>
 5   0  0.9215829E-04  0.1297852E+04  0.7818609E-02  0.9031270E-01
       -1   -1    0    0    0  501  0.00000000000E+00  0.00000000000E+00  0.63305846927E+03  0.63305846929E+03  0.50400001928E-02 0. -1.
        1   -1    0    0  501    0  0.00000000000E+00  0.00000000000E+00 -0.66519099443E+03  0.66519099445E+03  0.50400001928E-02 0.  1.
    10030    2    1    2    0    0  0.00000000000E+00  0.00000000000E+00 -0.32132525156E+02  0.12982494637E+04  0.12978517523E+04 0.  0.
        3    1    3    3  502    0  0.22347733664E+03  0.52725832136E+03  0.28925067149E+03  0.64156793763E+03  0.10100000352E+00 0. -1.
       -3    1    3    3    0  502 -0.22347733664E+03 -0.52725832136E+03 -0.32138319665E+03  0.65668152610E+03  0.10100000352E+00 0.  1.
</event>
<event>
 5   0  0.1714861E-03  0.1290279E+04  0.7818609E-02  0.9037310E-01
       -2   -1    0    0    0  501  0.00000000000E+00  0.00000000000E+00  0.35108029073E+03  0.35108029074E+03  0.25500000920E-02 0.  1.
        2   -1    0    0  501    0  0.00000000000E+00  0.00000000000E+00 -0.11854976933E+04  0.11854976933E+04  0.25500000920E-02 0. -1.
    10030    2    1    2    0    0  0.00000000000E+00  0.00000000000E+00 -0.83441740261E+03  0.15365779841E+04  0.12902788456E+04 0.  0.
        1    1    3    3  502    0 -0.10779754342E+02 -0.22473279197E+03 -0.11372618053E+04  0.11593038621E+04  0.50400001928E-02 0. -1.
       -1    1    3    3    0  502  0.10779754342E+02  0.22473279197E+03  0.30284440266E+03  0.37727412201E+03  0.50400001928E-02 0.  1.
</event>
<event>
 5   0  0.9215829E-04  0.1294197E+04  0.7818609E-02  0.9034180E-01
       -1   -1    0    0    0  501  0.00000000000E+00  0.00000000000E+00  0.33114914126E+03  0.33114914130E+03  0.50400001928E-02 0.  1.
        1   -1    0    0  501    0  0.00000000000E+00  0.00000000000E+00 -0.12644948254E+04  0.12644948255E+04  0.50400001928E-02 0. -1.
    10030    2    1    2    0    0  0.00000000000E+00  0.00000000000E+00 -0.93334568419E+03  0.15956439668E+04  0.12941968561E+04 0.  0.
        3    1    3    3  502    0 -0.35432353690E+03 -0.49881516327E+03 -0.20695425955E+03  0.64590387184E+03  0.10100000352E+00 0. -1.
       -3    1    3    3    0  502  0.35432353690E+03  0.49881516327E+03 -0.72639142463E+03  0.94974009492E+03  0.10100000352E+00 0.  1.
</event>
<event>
 5   0  0.1700511E-03  0.1219506E+04  0.7818609E-02  0.9095952E-01
       -2   -1    0    0    0  501  0.00000000000E+00  0.00000000000E+00  0.11393304961E+04  0.11393304961E+04  0.25500000920E-02 0. -1.
        2   -1    0    0  501    0  0.00000000000E+00  0.00000000000E+00 -0.32633084826E+03  0.32633084827E+03  0.25500000920E-02 0.  1.
    10030    2    1    2    0    0  0.00000000000E+00  0.00000000000E+00  0.81299964786E+03  0.14656613444E+04  0.12195059446E+04 0.  0.
        2    1    3    3  502    0  0.55883920156E+03 -0.97764371157E+02  0.13792080955E+03  0.58385038767E+03  0.25500000920E-02 0.  1.
       -2    1    3    3    0  502 -0.55883920156E+03  0.97764371157E+02  0.67507883831E+03  0.88181095673E+03  0.25500000920E-02 0. -1.
</event>
<event>
 5   0  0.1623890E-03  0.1315304E+04  0.7818609E-02  0.9017516E-01
       -2   -1    0    0    0  501  0.00000000000E+00  0.00000000000E+00  0.10063947995E+04  0.10063947995E+04  0.25500000920E-02 0.  1.
        2   -1    0    0  501    0  0.00000000000E+00  0.00000000000E+00 -0.42975776638E+03  0.42975776638E+03  0.25500000920E-02 0. -1.
    10030    2    1    2    0    0  0.00000000000E+00  0.00000000000E+00  0.57663703314E+03  0.14361525659E+04  0.13153037385E+04 0.  0.
        3    1    3    3  502    0  0.29098537473E+03  0.35274682135E+03  0.80440107573E+03  0.92529125637E+03  0.10100000352E+00 0.  1.
       -3    1    3    3    0  502 -0.29098537473E+03 -0.35274682135E+03 -0.22776404259E+03  0.51086130953E+03  0.10100000352E+00 0. -1.
</event>
<event>
 5   0  0.1714861E-03  0.1276688E+04  0.7818609E-02  0.9048258E-01
        2   -1    0    0  501    0  0.00000000000E+00  0.00000000000E+00  0.12033745436E+04  0.12033745436E+04  0.25500000920E-02 0.  1.
       -2   -1    0    0    0  501  0.00000000000E+00  0.00000000000E+00 -0.33861720285E+03  0.33861720286E+03  0.25500000920E-02 0. -1.
    10030    2    1    2    0    0  0.00000000000E+00  0.00000000000E+00  0.86475734072E+03  0.15419917464E+04  0.12766884067E+04 0.  0.
        1    1    3    3  502    0  0.46589642949E+03 -0.42195414989E+03  0.29799956469E+03  0.69563534140E+03  0.50400001928E-02 0.  1.
       -1    1    3    3    0  502 -0.46589642949E+03  0.42195414989E+03  0.56675777603E+03  0.84635640503E+03  0.50400001928E-02 0. -1.
</event>
<event>
 5   0  0.1667342E-03  0.1299011E+04  0.7818609E-02  0.9030350E-01
        2   -1    0    0  501    0  0.00000000000E+00  0.00000000000E+00  0.42610166256E+03  0.42610166257E+03  0.25500000920E-02 0. -1.
       -2   -1    0    0    0  501  0.00000000000E+00  0.00000000000E+00 -0.99003949776E+03  0.99003949776E+03  0.25500000920E-02 0.  1.
    10030    2    1    2    0    0  0.00000000000E+00  0.00000000000E+00 -0.56393783520E+03  0.14161411603E+04  0.12990111254E+04 0.  0.
        5    1    3    3  502    0  0.36304628476E+03  0.15940133165E+02 -0.86881863532E+03  0.94176674597E+03  0.46999998093E+01 0.  1.
       -5    1    3    3    0  502 -0.36304628476E+03 -0.15940133165E+02  0.30488080012E+03  0.47437441437E+03  0.46999998093E+01 0. -1.
</event>
<event>
 5   0  0.9081324E-04  0.1299819E+04  0.7818609E-02  0.9029709E-01
        1   -1    0    0  501    0  0.00000000000E+00  0.00000000000E+00  0.85584388053E+03  0.85584388054E+03  0.50400001928E-02 0.  1.
       -1   -1    0    0    0  501  0.00000000000E+00  0.00000000000E+00 -0.49352706702E+03  0.49352706705E+03  0.50400001928E-02 0. -1.
    10030    2    1    2    0    0  0.00000000000E+00  0.00000000000E+00  0.36231681351E+03  0.13493709476E+04  0.12998186338E+04 0.  0.
        4    1    3    3  502    0 -0.17974123750E+03 -0.22084248402E+03 -0.42532390024E+03  0.51184015886E+03  0.12699999809E+01 0. -1.
       -4    1    3    3    0  502  0.17974123750E+03  0.22084248402E+03  0.78764071375E+03  0.83753078873E+03  0.12699999809E+01 0.  1.
</event>
<event>
 5   0  0.9027076E-04  0.1347845E+04  0.7818609E-02  0.8992461E-01
        1   -1    0    0  501    0  0.00000000000E+00  0.00000000000E+00  0.60883782940E+03  0.60883782942E+03  0.50400001928E-02 0. -1.
       -1   -1    0    0    0  501  0.00000000000E+00  0.00000000000E+00 -0.74596520505E+03  0.74596520507E+03  0.50400001928E-02 0.  1.
    10030    2    1    2    0    0  0.00000000000E+00  0.00000000000E+00 -0.13712737565E+03  0.13548030345E+04  0.13478454456E+04 0.  0.
        5    1    3    3  502    0 -0.46209057424E+03 -0.44079957298E+03 -0.28489030126E+03  0.69929717294E+03  0.46999998093E+01 0.  1.
       -5    1    3    3    0  502  0.46209057424E+03  0.44079957298E+03  0.14776292561E+03  0.65550586155E+03  0.46999998093E+01 0. -1.
</event>
<event>
 5   0  0.1694675E-03  0.1354893E+04  0.7818609E-02  0.8987133E-01
        2   -1    0    0  501    0  0.00000000000E+00  0.00000000000E+00  0.22198332319E+04  0.22198332319E+04  0.25500000920E-02 0. -1.
       -2   -1    0    0    0  501  0.00000000000E+00  0.00000000000E+00 -0.20674231024E+03  0.20674231025E+03  0.25500000920E-02 0.  1.
    10030    2    1    2    0    0  0.00000000000E+00  0.00000000000E+00  0.20130909216E+04  0.24265755421E+04  0.13548925429E+04 0.  0.
        4    1    3    3  502    0  0.26541546660E+03  0.60447492357E+03  0.73436159637E+03  0.98748360506E+03  0.12699999809E+01 0.  1.
       -4    1    3    3    0  502 -0.26541546660E+03 -0.60447492357E+03  0.12787293252E+04  0.14390919371E+04  0.12699999809E+01 0. -1.
</event>
<event>
 5   0  0.9081324E-04  0.1310195E+04  0.7818609E-02  0.9021519E-01
       -1   -1    0    0    0  501  0.00000000000E+00  0.00000000000E+00  0.43250654880E+03  0.43250654883E+03  0.50400001928E-02 0. -1.
        1   -1    0    0  501    0  0.00000000000E+00  0.00000000000E+00 -0.99224616550E+03  0.99224616552E+03  0.50400001928E-02 0.  1.
    10030    2    1    2    0    0  0.00000000000E+00  0.00000000000E+00 -0.55973961670E+03  0.14247527143E+04  0.13101953513E+04 0.  0.
        4    1    3    3  502    0 -0.33531314800E+03  0.34051741324E+02  0.33099104631E+03  0.47238873181E+03  0.12699999809E+01 0. -1.
       -4    1    3    3    0  502  0.33531314800E+03 -0.34051741324E+02 -0.89073066301E+03  0.95236398254E+03  0.12699999809E+01 0.  1.
</event>
<event>
 5   0  0.9098192E-04  0.1299104E+04  0.7818609E-02  0.9030276E-01
       -1   -1    0    0    0  501  0.00000000000E+00  0.00000000000E+00  0.50420729057E+03  0.50420729059E+03  0.50400001928E-02 0. -1.
        1   -1    0    0  501    0  0.00000000000E+00  0.00000000000E+00 -0.83679389500E+03  0.83679389501E+03  0.50400001928E-02 0.  1.
    10030    2    1    2    0    0  0.00000000000E+00  0.00000000000E+00 -0.33258660443E+03  0.13410011856E+04  0.12991036642E+04 0.  0.
        1    1    3    3  502    0 -0.21500628245E+03 -0.88605562550E+02  0.45976416883E+03  0.51522979162E+03  0.50400001928E-02 0. -1.
       -1    1    3    3    0  502  0.21500628245E+03  0.88605562550E+02 -0.79235077326E+03  0.82577139398E+03  0.50400001928E-02 0.  1.
</event>
<event>
 5   0  0.1714861E-03  0.1308862E+04  0.7818609E-02  0.9022567E-01
       -2   -1    0    0    0  501  0.00000000000E+00  0.00000000000E+00  0.47711277101E+03  0.47711277102E+03  0.25500000920E-02 0.  1.
        2   -1    0    0  501    0  0.00000000000E+00  0.00000000000E+00 -0.89764899465E+03  0.89764899466E+03  0.25500000920E-02 0. -1.
    10030    2    1    2    0    0  0.00000000000E+00  0.00000000000E+00 -0.42053622364E+03  0.13747617657E+04  0.13088617945E+04 0.  0.
        1    1    3    3  502    0  0.34686483079E+03  0.55001359310E+03 -0.13272961216E+03  0.66366204758E+03  0.50400001928E-02 0. -1.
       -1    1    3    3    0  502 -0.34686483079E+03 -0.55001359310E+03 -0.28780661148E+03  0.71109971809E+03  0.50400001928E-02 0.  1.
</event>
<event>
 5   0  0.9027076E-04  0.1300984E+04  0.7818609E-02  0.9028786E-01
       -1   -1    0    0    0  501  0.00000000000E+00  0.00000000000E+00  0.13016564717E+04  0.13016564717E+04  0.50400001928E-02 0.  1.
        1   -1    0    0  501    0  0.00000000000E+00  0.00000000000E+00 -0.32507776743E+03  0.32507776747E+03  0.50400001928E-02 0. -1.
    10030    2    1    2    0    0  0.00000000000E+00  0.00000000000E+00  0.97657870424E+03  0.16267342392E+04  0.13009835969E+04 0.  0.
        5    1    3    3  502    0 -0.48050626628E+03 -0.37096928956E+03  0.78049783535E+03  0.98878887874E+03  0.46999998093E+01 0. -1.
       -5    1    3    3    0  502  0.48050626628E+03  0.37096928956E+03  0.19608086889E+03  0.63794536042E+03  0.46999998093E+01 0.  1.
</event>
<event>
 5   0  0.1694675E-03  0.1296613E+04  0.7818609E-02  0.9032255E-01
        2   -1    0    0  501    0  0.00000000000E+00  0.00000000000E+00  0.10941026043E+04  0.10941026043E+04  0.25500000920E-02 0.  1.
       -2   -1    0    0    0  501  0.00000000000E+00  0.00000000000E+00 -0.38415168886E+03  0.38415168887E+03  0.25500000920E-02 0. -1.
    10030    2    1    2    0    0  0.00000000000E+00  0.00000000000E+00  0.70995091547E+03  0.14782542932E+04  0.12966130699E+04 0.  0.
        4    1    3    3  502    0  0.21928811337E+03 -0.52462734730E+03  0.71001502392E+03  0.90963953151E+03  0.12699999809E+01 0.  1.
       -4    1    3    3    0  502 -0.21928811337E+03  0.52462734730E+03 -0.64108449569E-01  0.56861476169E+03  0.12699999809E+01 0. -1.
</event>
<event>
 5   0  0.1714861E-03  0.1299996E+04  0.7818609E-02  0.9029569E-01
       -2   -1    0    0    0  501  0.00000000000E+00  0.00000000000E+00  0.14993284447E+04  0.14993284447E+04  0.25500000920E-02 0.  1.
        2   -1    0    0  501    0  0.00000000000E+00  0.00000000000E+00 -0.28179096002E+03  0.28179096003E+03  0.25500000920E-02 0. -1.
    10030    2    1    2    0    0  0.00000000000E+00  0.00000000000E+00  0.12175374847E+04  0.17811194048E+04  0.12999956951E+04 0.  0.
        1    1    3    3  502    0  0.21375708416E+03 -0.35124083498E+03  0.12985071427E+04  0.13620510324E+04  0.50400001928E-02 0.  1.
       -1    1    3    3    0  502 -0.21375708416E+03  0.35124083498E+03 -0.80969657982E+02  0.41906837238E+03  0.50400001928E-02 0. -1.
</event>
<event>
 5   0  0.1623890E-03  0.1315039E+04  0.7818609E-02  0.9017723E-01
       -2   -1    0    0    0  501  0.00000000000E+00  0.00000000000E+00  0.42820236118E+03  0.42820236118E+03  0.25500000920E-02 0. -1.
        2   -1    0    0  501    0  0.00000000000E+00  0.00000000000E+00 -0.10096441963E+04  0.10096441963E+04  0.25500000920E-02 0.  1.
    10030    2    1    2    0    0  0.00000000000E+00  0.00000000000E+00 -0.58144183517E+03  0.14378465575E+04  0.13150392068E+04 0.  0.
        3    1    3    3  502    0 -0.39495613294E+02  0.65254444236E+03 -0.21373323822E+03  0.68779070948E+03  0.10100000352E+00 0.  1.
       -3    1    3    3    0  502  0.39495613294E+02 -0.65254444236E+03 -0.36770859695E+03  0.75005584805E+03  0.10100000352E+00 0. -1.
</event>
<event>
 5   0  0.1700511E-03  0.1302048E+04  0.7818609E-02  0.9027943E-01
       -2   -1    0    0    0  501  0.00000000000E+00  0.00000000000E+00  0.59546892580E+03  0.59546892580E+03  0.25500000920E-02 0. -1.
        2   -1    0    0  501    0  0.00000000000E+00  0.00000000000E+00 -0.71176188929E+03  0.71176188930E+03  0.25500000920E-02 0.  1.
    10030    2    1    2    0    0  0.00000000000E+00  0.00000000000E+00 -0.11629296349E+03  0.13072308151E+04  0.13020477528E+04 0.  0.
        2    1    3    3  502    0 -0.45334953307E+03 -0.14308751512E+03  0.38840744367E+03  0.61388938614E+03  0.25500000920E-02 0. -1.
       -2    1    3    3    0  502  0.45334953307E+03  0.14308751512E+03 -0.50470040716E+03  0.69334142896E+03  0.25500000920E-02 0.  1.
</event>
<event>
 5   0  0.1714861E-03  0.1297135E+04  0.7818609E-02  0.9031841E-01
       -2   -1    0    0    0  501  0.00000000000E+00  0.00000000000E+00  0.43223569548E+03  0.43223569549E+03  0.25500000920E-02 0. -1.
        2   -1    0    0  501    0  0.00000000000E+00  0.00000000000E+00 -0.97317161203E+03  0.97317161204E+03  0.25500000920E-02 0.  1.
    10030    2    1    2    0    0  0.00000000000E+00  0.00000000000E+00 -0.54093591655E+03  0.14054073075E+04  0.12971345475E+04 0.  0.
        1    1    3    3  502    0 -0.38327393210E+03 -0.32968177060E+01 -0.83733103221E+03  0.92088709056E+03  0.50400001928E-02 0.  1.
       -1    1    3    3    0  502  0.38327393210E+03  0.32968177060E+01  0.29639511566E+03  0.48452021696E+03  0.50400001928E-02 0. -1.
</event>
<event>
 5   0  0.1667342E-03  0.1310767E+04  0.7818609E-02  0.9021070E-01
       -2   -1    0    0    0  501  0.00000000000E+00  0.00000000000E+00  0.33420788854E+03  0.33420788855E+03  0.25500000920E-02 0.  1.
        2   -1    0    0  501    0  0.00000000000E+00  0.00000000000E+00 -0.12852114488E+04  0.12852114488E+04  0.25500000920E-02 0. -1.
    10030    2    1    2    0    0  0.00000000000E+00  0.00000000000E+00 -0.95100356030E+03  0.16194193374E+04  0.13107674159E+04 0.  0.
        5    1    3    3  502    0  0.33932223378E+03  0.38304153544E+03 -0.98136068457E+03  0.11067751711E+04  0.46999998093E+01 0. -1.
       -5    1    3    3    0  502 -0.33932223378E+03 -0.38304153544E+03  0.30357124274E+02  0.51264416626E+03  0.46999998093E+01 0.  1.
</event>
<event>
 5   0  0.1700511E-03  0.1254489E+04  0.7818609E-02  0.9066455E-01
        2   -1    0    0  501    0  0.00000000000E+00  0.00000000000E+00  0.16315545220E+04  0.16315545220E+04  0.25500000920E-02 0.  1.
       -2   -1    0    0    0  501  0.00000000000E+00  0.00000000000E+00 -0.24114161172E+03  0.24114161173E+03  0.25500000920E-02 0. -1.
    10030    2    1    2    0    0  0.00000000000E+00  0.00000000000E+00  0.13904129103E+04  0.18726961337E+04  0.12544890387E+04 0.  0.
        2    1    3    3  502    0 -0.19660192807E+01  0.24543344445E+03 -0.16647984752E+03  0.29657542130E+03  0.25500000920E-02 0. -1.
       -2    1    3    3    0  502  0.19660192807E+01 -0.24543344445E+03  0.15568927578E+04  0.15761207124E+04  0.25500000920E-02 0.  1.
</event>
<event>
 5   0  0.9215829E-04  0.1303474E+04  0.7818609E-02  0.9026815E-01
        1   -1    0    0  501    0  0.00000000000E+00  0.00000000000E+00  0.95450154895E+03  0.95450154896E+03  0.50400001928E-02 0. -1.
       -1   -1    0    0    0  501  0.00000000000E+00  0.00000000000E+00 -0.44500804980E+03  0.44500804983E+03  0.50400001928E-02 0.  1.
    10030    2    1    2    0    0  0.00000000000E+00  0.00000000000E+00  0.50949349914E+03  0.13995095988E+04  0.13034736251E+04 0.  0.
        3    1    3    3  502    0  0.52259364987E+03 -0.37906513066E+03  0.15891624502E+03  0.66486756523E+03  0.10100000352E+00 0. -1.
       -3    1    3    3    0  502 -0.52259364987E+03  0.37906513066E+03  0.35057725413E+03  0.73464203356E+03  0.10100000352E+00 0.  1.
</event>
<event>
 5   0  0.9098192E-04  0.1295925E+04  0.7818609E-02  0.9032803E-01
        1   -1    0    0  501    0  0.00000000000E+00  0.00000000000E+00  0.14730560771E+04  0.14730560771E+04  0.50400001928E-02 0.  1.
       -1   -1    0    0    0  501  0.00000000000E+00  0.00000000000E+00 -0.28502355407E+03  0.28502355411E+03  0.50400001928E-02 0. -1.
    10030    2    1    2    0    0  0.00000000000E+00  0.00000000000E+00  0.11880325230E+04  0.17580796312E+04  0.12959254276E+04 0.  0.
        1    1    3    3  502    0  0.29507492166E+03 -0.17796476763E+03 -0.15041522496E+03  0.37598591441E+03  0.50400001928E-02 0. -1.
       -1    1    3    3    0  502 -0.29507492166E+03  0.17796476763E+03  0.13384477480E+04  0.13820937168E+04  0.50400001928E-02 0.  1.
</event>
<event>
 5   0  0.1694675E-03  0.1294155E+04  0.7818609E-02  0.9034213E-01
       -2   -1    0    0    0  501  0.00000000000E+00  0.00000000000E+00  0.24394538072E+03  0.24394538074E+03  0.25500000920E-02 0. -1.
        2   -1    0    0  501    0  0.00000000000E+00  0.00000000000E+00 -0.17164053273E+04  0.17164053273E+04  0.25500000920E-02 0.  1.
    10030    2    1    2    0    0  0.00000000000E+00  0.00000000000E+00 -0.14724599466E+04  0.19603507081E+04  0.12941547837E+04 0.  0.
        4    1    3    3  502    0 -0.42347201669E+03  0.39954119181E+03 -0.11639913121E+04  0.13014757395E+04  0.12699999809E+01 0.  1.
       -4    1    3    3    0  502  0.42347201669E+03 -0.39954119181E+03 -0.30846863450E+03  0.65887496859E+03  0.12699999809E+01 0. -1.
</event>
<event>
 5   0  0.1667342E-03  0.1262352E+04  0.7818609E-02  0.9059965E-01
        2   -1    0    0  501    0  0.00000000000E+00  0.00000000000E+00  0.28532722609E+03  0.28532722610E+03  0.25500000920E-02 0.  1.
       -2   -1    0    0    0  501  0.00000000000E+00  0.00000000000E+00 -0.13962330733E+04  0.13962330733E+04  0.25500000920E-02 0. -1.
    10030    2    1    2    0    0  0.00000000000E+00  0.00000000000E+00 -0.11109058472E+04  0.16815602994E+04  0.12623522643E+04 0.  0.
        5    1    3    3  502    0 -0.27886178149E+03 -0.54076683080E+03 -0.77902327804E+03  0.98847964885E+03  0.46999998093E+01 0. -1.
       -5    1    3    3    0  502  0.27886178149E+03  0.54076683080E+03 -0.33188256920E+03  0.69308065058E+03  0.46999998093E+01 0.  1.
</event>
<event>
 5   0  0.1667342E-03  0.1359891E+04  0.7818609E-02  0.8983374E-01
       -2   -1    0    0    0  501  0.00000000000E+00  0.00000000000E+00  0.31737325878E+03  0.31737325879E+03  0.25500000920E-02 0. -1.
        2   -1    0    0  501    0  0.00000000000E+00  0.00000000000E+00 -0.14567263397E+04  0.14567263397E+04  0.25500000920E-02 0.  1.
    10030    2    1    2    0    0  0.00000000000E+00  0.00000000000E+00 -0.11393530809E+04  0.17740995985E+04  0.13598911509E+04 0.  0.
        5    1    3    3  502    0 -0.58386024387E+03  0.27063213189E+03 -0.28335152703E+03  0.70316762799E+03  0.46999998093E+01 0.  1.
       -5    1    3    3    0  502  0.58386024387E+03 -0.27063213189E+03 -0.85600155389E+03  0.10709319705E+04  0.46999998093E+01 0. -1.
</event>
<event>
 5   0  0.9081324E-04  0.1304184E+04  0.7818609E-02  0.9026254E-01
        1   -1    0    0  501    0  0.00000000000E+00  0.00000000000E+00  0.18166335399E+04  0.18166335399E+04  0.50400001928E-02 0. -1.
       -1   -1    0    0    0  501  0.00000000000E+00  0.00000000000E+00 -0.23407243039E+03  0.23407243044E+03  0.50400001928E-02 0.  1.
    10030    2    1    2    0    0  0.00000000000E+00  0.00000000000E+00  0.15825611095E+04  0.20507059704E+04  0.13041837721E+04 0.  0.
        4    1    3    3  502    0 -0.32623576365E+03  0.25608177994E+03  0.39261862477E-01  0.41473999800E+03  0.12699999809E+01 0.  1.
       -4    1    3    3    0  502  0.32623576365E+03 -0.25608177994E+03  0.15825218477E+04  0.16359659724E+04  0.12699999809E+01 0. -1.
</event>
<event>
 5   0  0.9027076E-04  0.1467861E+04  0.7818609E-02  0.8906111E-01
        1   -1    0    0  501    0  0.00000000000E+00  0.00000000000E+00  0.11863049656E+04  0.11863049656E+04  0.50400001928E-02 0.  1.
       -1   -1    0    0    0  501  0.00000000000E+00  0.00000000000E+00 -0.45406028529E+03  0.45406028532E+03  0.50400001928E-02 0. -1.
    10030    2    1    2    0    0  0.00000000000E+00  0.00000000000E+00  0.73224468029E+03  0.16403652509E+04  0.14678609895E+04 0.  0.
        5    1    3    3  502    0 -0.42758300171E+02  0.23332524207E+03  0.11422668664E+04  0.11666467438E+04  0.46999998093E+01 0.  1.
       -5    1    3    3    0  502  0.42758300171E+02 -0.23332524207E+03 -0.41002218612E+03  0.47371850706E+03  0.46999998093E+01 0. -1.
</event>
<event>
 5   0  0.1714861E-03  0.1303078E+04  0.7818609E-02  0.9027128E-01
       -2   -1    0    0    0  501  0.00000000000E+00  0.00000000000E+00  0.19938612493E+03  0.19938612495E+03  0.25500000920E-02 0. -1.
        2   -1    0    0  501    0  0.00000000000E+00  0.00000000000E+00 -0.21290496747E+04  0.21290496747E+04  0.25500000920E-02 0.  1.
    10030    2    1    2    0    0  0.00000000000E+00  0.00000000000E+00 -0.19296635497E+04  0.23284357996E+04  0.13030778402E+04 0.  0.
        1    1    3    3  502    0 -0.45707981990E+03  0.36019348670E+03 -0.14883634334E+04  0.15980885518E+04  0.50400001928E-02 0.  1.
       -1    1    3    3    0  502  0.45707981990E+03 -0.36019348670E+03 -0.44130011635E+03  0.73034724778E+03  0.50400001928E-02 0. -1.
</event>
<event>
 5   0  0.1694675E-03  0.1201517E+04  0.7818609E-02  0.9111530E-01
       -2   -1    0    0    0  501  0.00000000000E+00  0.00000000000E+00  0.98596131350E+03  0.98596131350E+03  0.25500000920E-02 0.  1.
        2   -1    0    0  501    0  0.00000000000E+00  0.00000000000E+00 -0.36604966041E+03  0.36604966042E+03  0.25500000920E-02 0. -1.
    10030    2    1    2    0    0  0.00000000000E+00  0.00000000000E+00  0.61991165309E+03  0.13520109739E+04  0.12015170477E+04 0.  0.
        4    1    3    3  502    0  0.43746942183E+03  0.18154401561E+03 -0.10588800706E+03  0.48533659204E+03  0.12699999809E+01 0. -1.
       -4    1    3    3    0  502 -0.43746942183E+03 -0.18154401561E+03  0.72579966015E+03  0.86667438188E+03  0.12699999809E+01 0.  1.
</event>
<event>
 5   0  0.1700511E-03  0.1239161E+04  0.7818609E-02  0.9079253E-01
        2   -1    0    0  501    0  0.00000000000E+00  0.00000000000E+00  0.22893510996E+04  0.22893510996E+04  0.25500000920E-02 0.  1.
       -2   -1    0    0    0  501  0.00000000000E+00  0.00000000000E+00 -0.16768083430E+03  0.16768083432E+03  0.25500000920E-02 0. -1.
    10030    2    1    2    0    0  0.00000000000E+00  0.00000000000E+00  0.21216702653E+04  0.24570319339E+04  0.12391614946E+04 0.  0.
        2    1    3    3  502    0 -0.45404584013E+03 -0.13319043848E+03  0.26775003670E+03  0.54367950118E+03  0.25500000920E-02 0. -1.
       -2    1    3    3    0  502  0.45404584013E+03  0.13319043848E+03  0.18539202286E+04  0.19133524327E+04  0.25500000920E-02 0.  1.
</event>
<event>
 5   0  0.1700511E-03  0.1281088E+04  0.7818609E-02  0.9044698E-01
       -2   -1    0    0    0  501  0.00000000000E+00  0.00000000000E+00  0.28166860390E+03  0.28166860392E+03  0.25500000920E-02 0.  1.
        2   -1    0    0  501    0  0.00000000000E+00  0.00000000000E+00 -0.14566651484E+04  0.14566651484E+04  0.25500000920E-02 0. -1.
    10030    2    1    2    0    0  0.00000000000E+00  0.00000000000E+00 -0.11749965445E+04  0.17383337523E+04  0.12810883478E+04 0.  0.
        2    1    3    3  502    0 -0.43134165110E+03 -0.40432551751E+03 -0.25301804469E+03  0.64308076867E+03  0.25500000920E-02 0.  1.
       -2    1    3    3    0  502  0.43134165110E+03  0.40432551751E+03 -0.92197849977E+03  0.10952529836E+04  0.25500000920E-02 0. -1.
</event>
<event>
 5   0  0.9110949E-04  0.1200704E+04  0.7818609E-02  0.9112241E-01
       -1   -1    0    0    0  501  0.00000000000E+00  0.00000000000E+00  0.33703754827E+03  0.33703754831E+03  0.50400001928E-02 0.  1.
        1   -1    0    0  501    0  0.00000000000E+00  0.00000000000E+00 -0.10693836291E+04  0.10693836292E+04  0.50400001928E-02 0. -1.
    10030    2    1    2    0    0  0.00000000000E+00  0.00000000000E+00 -0.73234608088E+03  0.14064211775E+04  0.12007038545E+04 0.  0.
        2    1    3    3  502    0  0.41549710491E+03 -0.40232474867E+03 -0.17759467283E+03  0.60501480594E+03  0.25500000920E-02 0. -1.
       -2    1    3    3    0  502 -0.41549710491E+03  0.40232474867E+03 -0.55475140805E+03  0.80140637152E+03  0.25500000920E-02 0.  1.
</event>
<event>
 5   0  0.9215829E-04  0.1220089E+04  0.7818609E-02  0.9095452E-01
        1   -1    0    0  501    0  0.00000000000E+00  0.00000000000E+00  0.12576300777E+04  0.12576300777E+04  0.50400001928E-02 0. -1.
       -1   -1    0    0    0  501  0.00000000000E+00  0.00000000000E+00 -0.29591713356E+03  0.29591713360E+03  0.50400001928E-02 0.  1.
    10030    2    1    2    0    0  0.00000000000E+00  0.00000000000E+00  0.96171294418E+03  0.15535472113E+04  0.12200889930E+04 0.  0.
        3    1    3    3  502    0  0.74342965472E+02 -0.13918364403E+02 -0.28992388559E+03  0.29962721342E+03  0.10100000352E+00 0.  1.
       -3    1    3    3    0  502 -0.74342965472E+02  0.13918364403E+02  0.12516368298E+04  0.12539199979E+04  0.10100000352E+00 0. -1.
</event>
<event>
 5   0  0.1667342E-03  0.1262906E+04  0.7818609E-02  0.9059510E-01
        2   -1    0    0  501    0  0.00000000000E+00  0.00000000000E+00  0.86921330584E+03  0.86921330584E+03  0.25500000920E-02 0.  1.
       -2   -1    0    0    0  501  0.00000000000E+00  0.00000000000E+00 -0.45872815023E+03  0.45872815024E+03  0.25500000920E-02 0. -1.
    10030    2    1    2    0    0  0.00000000000E+00  0.00000000000E+00  0.41048515561E+03  0.13279414561E+04  0.12629055578E+04 0.  0.
        5    1    3    3  502    0 -0.17586368126E+03  0.34703404844E+03 -0.31771190024E+03  0.50231823251E+03  0.46999998093E+01 0. -1.
       -5    1    3    3    0  502  0.17586368126E+03 -0.34703404844E+03  0.72819705585E+03  0.82562322357E+03  0.46999998093E+01 0.  1.
</event>
<event>
 5   0  0.1714861E-03  0.1332686E+04  0.7818609E-02  0.9004039E-01
        2   -1    0    0  501    0  0.00000000000E+00  0.00000000000E+00  0.44086323433E+03  0.44086323434E+03  0.25500000920E-02 0.  1.
       -2   -1    0    0    0  501  0.00000000000E+00  0.00000000000E+00 -0.10071449130E+04  0.10071449130E+04  0.25500000920E-02 0. -1.
    10030    2    1    2    0    0  0.00000000000E+00  0.00000000000E+00 -0.56628167863E+03  0.14480081473E+04  0.13326862553E+04 0.  0.
        1    1    3    3  502    0  0.47077338578E+03 -0.41976692629E+03 -0.51663510194E+03  0.81531814757E+03  0.50400001928E-02 0. -1.
       -1    1    3    3    0  502 -0.47077338578E+03  0.41976692629E+03 -0.49646576689E+02  0.63268999974E+03  0.50400001928E-02 0.  1.
</event>
<event>
 5   0  0.9081324E-04  0.1292709E+04  0.7818609E-02  0.9035367E-01
        1   -1    0    0  501    0  0.00000000000E+00  0.00000000000E+00  0.61713095448E+03  0.61713095450E+03  0.50400001928E-02 0. -1.
       -1   -1    0    0    0  501  0.00000000000E+00  0.00000000000E+00 -0.67696188043E+03  0.67696188045E+03  0.50400001928E-02 0.  1.
    10030    2    1    2    0    0  0.00000000000E+00  0.00000000000E+00 -0.59830925951E+02  0.12940928349E+04  0.12927089873E+04 0.  0.
        4    1    3    3  502    0 -0.51419116961E+03 -0.31016999425E+03 -0.26928340307E+03  0.65811332482E+03  0.12699999809E+01 0.  1.
       -4    1    3    3    0  502  0.51419116961E+03  0.31016999425E+03  0.20945247711E+03  0.63597951013E+03  0.12699999809E+01 0. -1.
</event>
<event>
 5   0  0.9215829E-04  0.1294624E+04  0.7818609E-02  0.9033839E-01
        1   -1    0    0  501    0  0.00000000000E+00  0.00000000000E+00  0.38025838148E+03  0.38025838152E+03  0.50400001928E-02 0.  1.
       -1   -1    0    0    0  501  0.00000000000E+00  0.00000000000E+00 -0.11019166103E+04  0.11019166103E+04  0.50400001928E-02 0. -1.
    10030    2    1    2    0    0  0.00000000000E+00  0.00000000000E+00 -0.72165822882E+03  0.14821749918E+04  0.12946243112E+04 0.  0.
        3    1    3    3  502    0  0.10011112855E+03 -0.30030496841E+02 -0.10921923741E+04  0.10971819635E+04  0.10100000352E+00 0. -1.
       -3    1    3    3    0  502 -0.10011112855E+03  0.30030496841E+02  0.37053414531E+03  0.38499302830E+03  0.10100000352E+00 0.  1.
</event>
<event>
 5   0  0.1667342E-03  0.1283942E+04  0.7818609E-02  0.9042397E-01
       -2   -1    0    0    0  501  0.00000000000E+00  0.00000000000E+00  0.51377730678E+03  0.51377730678E+03  0.25500000920E-02 0. -1.
        2   -1    0    0  501    0  0.00000000000E+00  0.00000000000E+00 -0.80215030749E+03  0.80215030750E+03  0.25500000920E-02 0.  1.
    10030    2    1    2    0    0  0.00000000000E+00  0.00000000000E+00 -0.28837300072E+03  0.13159276143E+04  0.12839417816E+04 0.  0.
        5    1    3    3  502    0  0.37381298440E+03  0.23653222225E+03 -0.62098651855E+03  0.76244998897E+03  0.46999998093E+01 0.  1.
       -5    1    3    3    0  502 -0.37381298440E+03 -0.23653222225E+03  0.33261351784E+03  0.55347762530E+03  0.46999998093E+01 0. -1.
</event>
<event>
 5   0  0.6284125E-04  0.1243327E+04  0.7818609E-02  0.9075756E-01
        4   -1    0    0  501    0  0.00000000000E+00  0.00000000000E+00  0.12307269275E+04  0.12307275828E+04  0.12699999809E+01 0. -1.
       -4   -1    0    0    0  501  0.00000000000E+00  0.00000000000E+00 -0.31401185885E+03  0.31401442705E+03  0.12699999809E+01 0.  1.
    10030    2    1    2    0    0  0.00000000000E+00  0.00000000000E+00  0.91671506864E+03  0.15447420098E+04  0.12433267309E+04 0.  0.
        4    1    3    3  502    0  0.54816861741E+03  0.19720533750E+02  0.94884633237E+02  0.55667085345E+03  0.12699999809E+01 0.  1.
       -4    1    3    3    0  502 -0.54816861741E+03 -0.19720533750E+02  0.82183043540E+03  0.98807115635E+03  0.12699999809E+01 0. -1.
</event>
<event>
 5   0  0.1700511E-03  0.1316705E+04  0.7818609E-02  0.9016422E-01
       -2   -1    0    0    0  501  0.00000000000E+00  0.00000000000E+00  0.24894518105E+03  0.24894518106E+03  0.25500000920E-02 0. -1.
        2   -1    0    0  501    0  0.00000000000E+00  0.00000000000E+00 -0.17410571046E+04  0.17410571046E+04  0.25500000920E-02 0.  1.
    10030    2    1    2    0    0  0.00000000000E+00  0.00000000000E+00 -0.14921119235E+04  0.19900022856E+04  0.13167046383E+04 0.  0.
        2    1    3    3  502    0  0.29378349746E+03  0.91150929740E+02 -0.16257743430E+04  0.16546176143E+04  0.25500000920E-02 0.  1.
       -2    1    3    3    0  502 -0.29378349746E+03 -0.91150929740E+02  0.13366241944E+03  0.33538467131E+03  0.25500000920E-02 0. -1.
</event>
<event>
 5   0  0.1694675E-03  0.1300208E+04  0.7818609E-02  0.9029400E-01
        2   -1    0    0  501    0  0.00000000000E+00  0.00000000000E+00  0.63183378247E+03  0.63183378248E+03  0.25500000920E-02 0. -1.
       -2   -1    0    0    0  501  0.00000000000E+00  0.00000000000E+00 -0.66890288781E+03  0.66890288782E+03  0.25500000920E-02 0.  1.
    10030    2    1    2    0    0  0.00000000000E+00  0.00000000000E+00 -0.37069105341E+02  0.13007366703E+04  0.13002083552E+04 0.  0.
        4    1    3    3  502    0 -0.25239874827E+03 -0.59594490323E+03  0.42958895524E+02  0.64861586121E+03  0.12699999809E+01 0.  1.
       -4    1    3    3    0  502  0.25239874827E+03  0.59594490323E+03 -0.80028000866E+02  0.65212080908E+03  0.12699999809E+01 0. -1.
</event>
<event>
 5   0  0.9098192E-04  0.1306914E+04  0.7818609E-02  0.9024100E-01
        1   -1    0    0  501    0  0.00000000000E+00  0.00000000000E+00  0.10877551044E+04  0.10877551044E+04  0.50400001928E-02 0.  1.
       -1   -1    0    0    0  501  0.00000000000E+00  0.00000000000E+00 -0.39255731857E+03  0.39255731860E+03  0.50400001928E-02 0. -1.
    10030    2    1    2    0    0  0.00000000000E+00  0.00000000000E+00  0.69519778580E+03  0.14803124230E+04  0.13069142697E+04 0.  0.
        1    1    3    3  502    0 -0.13392298839E+03  0.59540152054E+03  0.83008017777E+02  0.61589663786E+03  0.50400001928E-02 0.  1.
       -1    1    3    3    0  502  0.13392298839E+03 -0.59540152054E+03  0.61218976802E+03  0.86441578513E+03  0.50400001928E-02 0. -1.
</event>
<event>
 5   0  0.9098192E-04  0.1297303E+04  0.7818609E-02  0.9031706E-01
        1   -1    0    0  501    0  0.00000000000E+00  0.00000000000E+00  0.96254176267E+03  0.96254176268E+03  0.50400001928E-02 0. -1.
       -1   -1    0    0    0  501  0.00000000000E+00  0.00000000000E+00 -0.43712294502E+03  0.43712294505E+03  0.50400001928E-02 0.  1.
    10030    2    1    2    0    0  0.00000000000E+00  0.00000000000E+00  0.52541881765E+03  0.13996647077E+04  0.12973034958E+04 0.  0.
        1    1    3    3  502    0  0.58531092393E+03  0.33000730311E+01  0.56431891850E+03  0.81305326391E+03  0.50400001928E-02 0. -1.
       -1    1    3    3    0  502 -0.58531092393E+03 -0.33000730311E+01 -0.38900100849E+02  0.58661144382E+03  0.50400001928E-02 0.  1.
</event>
<event>
 5   0  0.9215829E-04  0.1285883E+04  0.7818609E-02  0.9040836E-01
        1   -1    0    0  501    0  0.00000000000E+00  0.00000000000E+00  0.39094483035E+03  0.39094483038E+03  0.50400001928E-02 0. -1.
       -1   -1    0    0    0  501  0.00000000000E+00  0.00000000000E+00 -0.10573710960E+04  0.10573710960E+04  0.50400001928E-02 0.  1.
    10030    2    1    2    0    0  0.00000000000E+00  0.00000000000E+00 -0.66642626567E+03  0.14483159264E+04  0.12858829866E+04 0.  0.
        3    1    3    3  502    0  0.89286164268E+02  0.61364992260E+03 -0.52447379353E+03  0.81216440265E+03  0.10100000352E+00 0.  1.
       -3    1    3    3    0  502 -0.89286164268E+02 -0.61364992260E+03 -0.14195247214E+03  0.63615152376E+03  0.10100000352E+00 0. -1.
</event>
<event>
 5   0  0.1714861E-03  0.1288797E+04  0.7818609E-02  0.9038496E-01
        2   -1    0    0  501    0  0.00000000000E+00  0.00000000000E+00  0.12342868758E+04  0.12342868758E+04  0.25500000920E-02 0.  1.
       -2   -1    0    0    0  501  0.00000000000E+00  0.00000000000E+00 -0.33642876648E+03  0.33642876649E+03  0.25500000920E-02 0. -1.
    10030    2    1    2    0    0  0.00000000000E+00  0.00000000000E+00  0.89785810929E+03  0.15707156423E+04  0.12887972860E+04 0.  0.
        1    1    3    3  502    0 -0.61869476585E+02  0.22649479518E+03  0.11803000183E+04  0.12034267147E+04  0.50400001928E-02 0.  1.
       -1    1    3    3    0  502  0.61869476585E+02 -0.22649479518E+03 -0.28244190898E+03  0.36728892762E+03  0.50400001928E-02 0. -1.
</event>
<event>
 5   0  0.6284125E-04  0.1306011E+04  0.7818609E-02  0.9024812E-01
       -3   -1    0    0    0  501  0.00000000000E+00  0.00000000000E+00  0.96236707817E+03  0.96236708347E+03  0.10100000352E+00 0.  1.
        3   -1    0    0  501    0  0.00000000000E+00  0.00000000000E+00 -0.44309109674E+03  0.44309110825E+03  0.10100000352E+00 0. -1.
    10030    2    1    2    0    0  0.00000000000E+00  0.00000000000E+00  0.51927598143E+03  0.14054581917E+04  0.13060111729E+04 0.  0.
        1    1    3    3  502    0  0.22306139353E+03  0.31626846850E+03 -0.30637180538E+03  0.49360491550E+03  0.50400001928E-02 0. -1.
       -1    1    3    3    0  502 -0.22306139353E+03 -0.31626846850E+03  0.82564778681E+03  0.91185327621E+03  0.50400001928E-02 0.  1.
</event>
<event>
 5   0  0.1694675E-03  0.1301674E+04  0.7818609E-02  0.9028239E-01
        2   -1    0    0  501    0  0.00000000000E+00  0.00000000000E+00  0.12515740473E+04  0.12515740473E+04  0.25500000920E-02 0.  1.
       -2   -1    0    0    0  501  0.00000000000E+00  0.00000000000E+00 -0.33844489666E+03  0.33844489667E+03  0.25500000920E-02 0. -1.
    10030    2    1    2    0    0  0.00000000000E+00  0.00000000000E+00  0.91312915069E+03  0.15900189440E+04  0.13016740746E+04 0.  0.
        4    1    3    3  502    0 -0.11963328360E+03  0.59155782142E+03  0.75411017494E+03  0.96588640506E+03  0.12699999809E+01 0.  1.
       -4    1    3    3    0  502  0.11963328360E+03 -0.59155782142E+03  0.15901897575E+03  0.62413253895E+03  0.12699999809E+01 0. -1.
</event>
<event>
 5   0  0.9081324E-04  0.1305041E+04  0.7818609E-02  0.9025577E-01
        1   -1    0    0  501    0  0.00000000000E+00  0.00000000000E+00  0.11539894201E+04  0.11539894202E+04  0.50400001928E-02 0.  1.
       -1   -1    0    0    0  501  0.00000000000E+00  0.00000000000E+00 -0.36896636008E+03  0.36896636011E+03  0.50400001928E-02 0. -1.
    10030    2    1    2    0    0  0.00000000000E+00  0.00000000000E+00  0.78502306007E+03  0.15229557803E+04  0.13050414184E+04 0.  0.
        4    1    3    3  502    0 -0.55882936725E+03 -0.32381515550E+03  0.28406944692E+03  0.70558031450E+03  0.12699999809E+01 0. -1.
       -4    1    3    3    0  502  0.55882936725E+03  0.32381515550E+03  0.50095361315E+03  0.81737546578E+03  0.12699999809E+01 0.  1.
</event>
<event>
 5   0  0.9027076E-04  0.1293622E+04  0.7818609E-02  0.9034638E-01
       -1   -1    0    0    0  501  0.00000000000E+00  0.00000000000E+00  0.49429516371E+03  0.49429516373E+03  0.50400001928E-02 0.  1.
        1   -1    0    0  501    0  0.00000000000E+00  0.00000000000E+00 -0.84638626834E+03  0.84638626836E+03  0.50400001928E-02 0. -1.
    10030    2    1    2    0    0  0.00000000000E+00  0.00000000000E+00 -0.35209110463E+03  0.13406814321E+04  0.12936222619E+04 0.  0.
        5    1    3    3  502    0 -0.14759736595E+03 -0.34479368473E+03 -0.72216345239E+03  0.81376274763E+03  0.46999998093E+01 0. -1.
       -5    1    3    3    0  502  0.14759736595E+03  0.34479368473E+03  0.37007234776E+03  0.52691868446E+03  0.46999998093E+01 0.  1.
</event>
<event>
 5   0  0.1714861E-03  0.1302149E+04  0.7818609E-02  0.9027863E-01
       -2   -1    0    0    0  501  0.00000000000E+00  0.00000000000E+00  0.36481153496E+03  0.36481153497E+03  0.25500000920E-02 0.  1.
        2   -1    0    0  501    0  0.00000000000E+00  0.00000000000E+00 -0.11619646848E+04  0.11619646848E+04  0.25500000920E-02 0. -1.
    10030    2    1    2    0    0  0.00000000000E+00  0.00000000000E+00 -0.79715314981E+03  0.15267762197E+04  0.13021491777E+04 0.  0.
        1    1    3    3  502    0  0.34277198359E+03 -0.40009284029E+03 -0.84709792715E+03  0.99756794846E+03  0.50400001928E-02 0. -1.
       -1    1    3    3    0  502 -0.34277198359E+03  0.40009284029E+03  0.49944777340E+02  0.52920827128E+03  0.50400001928E-02 0.  1.
</event>
<event>
 5   0  0.9215829E-04  0.1301308E+04  0.7818609E-02  0.9028528E-01
        1   -1    0    0  501    0  0.00000000000E+00  0.00000000000E+00  0.35118099269E+03  0.35118099273E+03  0.50400001928E-02 0.  1.
       -1   -1    0    0    0  501  0.00000000000E+00  0.00000000000E+00 -0.12055061923E+04  0.12055061923E+04  0.50400001928E-02 0. -1.
    10030    2    1    2    0    0  0.00000000000E+00  0.00000000000E+00 -0.85432519960E+03  0.15566871850E+04  0.13013083591E+04 0.  0.
        3    1    3    3  502    0 -0.35522347313E+03  0.29674274812E+02 -0.10783067089E+04  0.11356978679E+04  0.10100000352E+00 0. -1.
       -3    1    3    3    0  502  0.35522347313E+03 -0.29674274812E+02  0.22398150929E+03  0.42098931715E+03  0.10100000352E+00 0.  1.
</event>
<event>
 5   0  0.1700511E-03  0.1306010E+04  0.7818609E-02  0.9024812E-01
       -2   -1    0    0    0  501  0.00000000000E+00  0.00000000000E+00  0.55492059653E+03  0.55492059653E+03  0.25500000920E-02 0. -1.
        2   -1    0    0  501    0  0.00000000000E+00  0.00000000000E+00 -0.76842664497E+03  0.76842664498E+03  0.25500000920E-02 0.  1.
    10030    2    1    2    0    0  0.00000000000E+00  0.00000000000E+00 -0.21350604845E+03  0.13233472415E+04  0.13060103709E+04 0.  0.
        2    1    3    3  502    0 -0.29130404265E+03 -0.12677081601E+03 -0.68484100412E+03  0.75494111425E+03  0.25500000920E-02 0.  1.
       -2    1    3    3    0  502  0.29130404265E+03  0.12677081601E+03  0.47133495567E+03  0.56840612726E+03  0.25500000920E-02 0. -1.
</event>
<event>
 5   0  0.1700511E-03  0.1303778E+04  0.7818609E-02  0.9026574E-01
       -2   -1    0    0    0  501  0.00000000000E+00  0.00000000000E+00  0.56288104994E+03  0.56288104995E+03  0.25500000920E-02 0.  1.
        2   -1    0    0  501    0  0.00000000000E+00  0.00000000000E+00 -0.75497216394E+03  0.75497216394E+03  0.25500000920E-02 0. -1.
    10030    2    1    2    0    0  0.00000000000E+00  0.00000000000E+00 -0.19209111400E+03  0.13178532139E+04  0.13037783927E+04 0.  0.
        2    1    3    3  502    0 -0.63930019239E+03  0.12735734463E+03 -0.10201653509E+03  0.65979694047E+03  0.25500000920E-02 0. -1.
       -2    1    3    3    0  502  0.63930019239E+03 -0.12735734463E+03 -0.90074578909E+02  0.65805627342E+03  0.25500000920E-02 0.  1.
</event>
<event>
 5   0  0.1694675E-03  0.1291475E+04  0.7818609E-02  0.9036353E-01
        2   -1    0    0  501    0  0.00000000000E+00  0.00000000000E+00  0.12332746558E+04  0.12332746558E+04  0.25500000920E-02 0.  1.
       -2   -1    0    0    0  501  0.00000000000E+00  0.00000000000E+00 -0.33810573904E+03  0.33810573905E+03  0.25500000920E-02 0. -1.
    10030    2    1    2    0    0  0.00000000000E+00  0.00000000000E+00  0.89516891676E+03  0.15713803949E+04  0.12914754956E+04 0.  0.
        4    1    3    3  502    0  0.19687955349E+02 -0.34683833305E+03 -0.21471518740E+03  0.40839768542E+03  0.12699999809E+01 0. -1.
       -4    1    3    3    0  502 -0.19687955349E+02  0.34683833305E+03  0.11098841042E+04  0.11629827094E+04  0.12699999809E+01 0.  1.
</event>
<event>
 5   0  0.1667342E-03  0.1131542E+04  0.7818609E-02  0.9174983E-01
        2   -1    0    0  501    0  0.00000000000E+00  0.00000000000E+00  0.21628437979E+04  0.21628437979E+04  0.25500000920E-02 0.  1.
       -2   -1    0    0    0  501  0.00000000000E+00  0.00000000000E+00 -0.14799809855E+03  0.14799809857E+03  0.25500000920E-02 0. -1.
    10030    2    1    2    0    0  0.00000000000E+00  0.00000000000E+00  0.20148456994E+04  0.23108418965E+04  0.11315419030E+04 0.  0.
        5    1    3    3  502    0  0.24878449514E+03  0.25169607809E+03  0.10600210142E+03  0.36946336253E+03  0.46999998093E+01 0. -1.
       -5    1    3    3    0  502 -0.24878449514E+03 -0.25169607809E+03  0.19088435979E+04  0.19413785340E+04  0.46999998093E+01 0.  1.
</event>
<event>
 5   0  0.1714861E-03  0.1254904E+04  0.7818609E-02  0.9066112E-01
        2   -1    0    0  501    0  0.00000000000E+00  0.00000000000E+00  0.84444325925E+03  0.84444325925E+03  0.25500000920E-02 0.  1.
       -2   -1    0    0    0  501  0.00000000000E+00  0.00000000000E+00 -0.46621950146E+03  0.46621950147E+03  0.25500000920E-02 0. -1.
    10030    2    1    2    0    0  0.00000000000E+00  0.00000000000E+00  0.37822375779E+03  0.13106627607E+04  0.12549038455E+04 0.  0.
        1    1    3    3  502    0 -0.39430033587E+03  0.34922001104E+03  0.54524439469E+03  0.75810211775E+03  0.50400001928E-02 0.  1.
       -1    1    3    3    0  502  0.39430033587E+03 -0.34922001104E+03 -0.16702063690E+03  0.55256064297E+03  0.50400001928E-02 0. -1.
</event>
<event>
 5   0  0.1667342E-03  0.1082310E+04  0.7818609E-02  0.9222607E-01
       -2   -1    0    0    0  501  0.00000000000E+00  0.00000000000E+00  0.38857878075E+03  0.38857878076E+03  0.25500000920E-02 0.  1.
        2   -1    0    0  501    0  0.00000000000E+00  0.00000000000E+00 -0.75364076577E+03  0.75364076577E+03  0.25500000920E-02 0. -1.
    10030    2    1    2    0    0  0.00000000000E+00  0.00000000000E+00 -0.36506198502E+03  0.11422195465E+04  0.10823101402E+04 0.  0.
        5    1    3    3  502    0 -0.87026305989E+02  0.46285086871E+03 -0.46378257047E+03  0.66099989960E+03  0.46999998093E+01 0. -1.
       -5    1    3    3    0  502  0.87026305989E+02 -0.46285086871E+03  0.98720585455E+02  0.48121964693E+03  0.46999998093E+01 0.  1.
</event>
<event>
 5   0  0.9081324E-04  0.1297998E+04  0.7818609E-02  0.9031154E-01
        1   -1    0    0  501    0  0.00000000000E+00  0.00000000000E+00  0.19760059044E+04  0.19760059044E+04  0.50400001928E-02 0.  1.
       -1   -1    0    0    0  501  0.00000000000E+00  0.00000000000E+00 -0.21315705712E+03  0.21315705718E+03  0.50400001928E-02 0. -1.
    10030    2    1    2    0    0  0.00000000000E+00  0.00000000000E+00  0.17628488473E+04  0.21891629616E+04  0.12979978483E+04 0.  0.
        4    1    3    3  502    0  0.63934152846E+03  0.11141245625E+03  0.89029539045E+03  0.11017249296E+04  0.12699999809E+01 0. -1.
       -4    1    3    3    0  502 -0.63934152846E+03 -0.11141245625E+03  0.87255345683E+03  0.10874380320E+04  0.12699999809E+01 0.  1.
</event>
<event>
 5   0  0.9027076E-04  0.1317401E+04  0.7818609E-02  0.9015879E-01
        1   -1    0    0  501    0  0.00000000000E+00  0.00000000000E+00  0.72762873757E+03  0.72762873759E+03  0.50400001928E-02 0.  1.
       -1   -1    0    0    0  501  0.00000000000E+00  0.00000000000E+00 -0.59630163477E+03  0.59630163480E+03  0.50400001928E-02 0. -1.
    10030    2    1    2    0    0  0.00000000000E+00  0.00000000000E+00  0.13132710280E+03  0.13239303724E+04  0.13174007830E+04 0.  0.
        5    1    3    3  502    0 -0.10839704113E+03  0.51242190151E+03  0.46706532688E+03  0.70178218362E+03  0.46999998093E+01 0.  1.
       -5    1    3    3    0  502  0.10839704113E+03 -0.51242190151E+03 -0.33573822408E+03  0.62214818876E+03  0.46999998093E+01 0. -1.
</event>
<event>
 5   0  0.1694675E-03  0.1307814E+04  0.7818609E-02  0.9023392E-01
       -2   -1    0    0    0  501  0.00000000000E+00  0.00000000000E+00  0.60323925134E+03  0.60323925135E+03  0.25500000920E-02 0.  1.
        2   -1    0    0  501    0  0.00000000000E+00  0.00000000000E+00 -0.70883036786E+03  0.70883036787E+03  0.25500000920E-02 0. -1.
    10030    2    1    2    0    0  0.00000000000E+00  0.00000000000E+00 -0.10559111652E+03  0.13120696192E+04  0.13078139018E+04 0.  0.
        4    1    3    3  502    0  0.46692240304E+03  0.43249713623E+03  0.97767390498E+02  0.64391799078E+03  0.12699999809E+01 0.  1.
       -4    1    3    3    0  502 -0.46692240304E+03 -0.43249713623E+03 -0.20335850702E+03  0.66815162844E+03  0.12699999809E+01 0. -1.
</event>
<event>
 5   0  0.1700511E-03  0.1282654E+04  0.7818609E-02  0.9043435E-01
        2   -1    0    0  501    0  0.00000000000E+00  0.00000000000E+00  0.76496286792E+03  0.76496286793E+03  0.25500000920E-02 0.  1.
       -2   -1    0    0    0  501  0.00000000000E+00  0.00000000000E+00 -0.53767317413E+03  0.53767317414E+03  0.25500000920E-02 0. -1.
    10030    2    1    2    0    0  0.00000000000E+00  0.00000000000E+00  0.22728969380E+03  0.13026360421E+04  0.12826535203E+04 0.  0.
        2    1    3    3  502    0  0.19426210358E+03  0.12054098154E+03 -0.49488289899E+03  0.54513941046E+03  0.25500000920E-02 0. -1.
       -2    1    3    3    0  502 -0.19426210358E+03 -0.12054098154E+03  0.72217259278E+03  0.75749663160E+03  0.25500000920E-02 0.  1.
</event>
<event>
 5   0  0.9027076E-04  0.1239105E+04  0.7818609E-02  0.9079300E-01
       -1   -1    0    0    0  501  0.00000000000E+00  0.00000000000E+00  0.10861561273E+04  0.10861561273E+04  0.50400001928E-02 0.  1.
        1   -1    0    0  501    0  0.00000000000E+00  0.00000000000E+00 -0.35339775281E+03  0.35339775285E+03  0.50400001928E-02 0. -1.
    10030    2    1    2    0    0  0.00000000000E+00  0.00000000000E+00  0.73275837448E+03  0.14395538801E+04  0.12391047327E+04 0.  0.
        5    1    3    3  502    0 -0.60788123189E+03  0.90233309101E+01  0.22783103602E+03  0.64925348175E+03  0.46999998093E+01 0. -1.
       -5    1    3    3    0  502  0.60788123189E+03 -0.90233309101E+01  0.50492733846E+03  0.79030039840E+03  0.46999998093E+01 0.  1.
</event>
<event>
 5   0  0.9110949E-04  0.1292722E+04  0.7818609E-02  0.9035357E-01
       -1   -1    0    0    0  501  0.00000000000E+00  0.00000000000E+00  0.59435625736E+03  0.59435625738E+03  0.50400001928E-02 0.  1.
        1   -1    0    0  501    0  0.00000000000E+00  0.00000000000E+00 -0.70291619180E+03  0.70291619182E+03  0.50400001928E-02 0. -1.
    10030    2    1    2    0    0  0.00000000000E+00  0.00000000000E+00 -0.10855993444E+03  0.12972724492E+04  0.12927221465E+04 0.  0.
        2    1    3    3  502    0 -0.36378699927E+03  0.43357092134E+03 -0.36756132894E+03  0.67485261740E+03  0.25500000920E-02 0. -1.
       -2    1    3    3    0  502  0.36378699927E+03 -0.43357092134E+03  0.25900139450E+03  0.62241983181E+03  0.25500000920E-02 0.  1.
</event>
<event>
 5   0  0.1667342E-03  0.1297500E+04  0.7818609E-02  0.9031550E-01
        2   -1    0    0  501    0  0.00000000000E+00  0.00000000000E+00  0.18023594626E+04  0.18023594626E+04  0.25500000920E-02 0.  1.
       -2   -1    0    0    0  501  0.00000000000E+00  0.00000000000E+00 -0.23351416705E+03  0.23351416706E+03  0.25500000920E-02 0. -1.
    10030    2    1    2    0    0  0.00000000000E+00  0.00000000000E+00  0.15688452955E+04  0.20358736296E+04  0.12974998553E+04 0.  0.
        5    1    3    3  502    0 -0.50461096186E+03  0.22216285341E+03  0.13208207822E+04  0.14312855009E+04  0.46999998093E+01 0.  1.
       -5    1    3    3    0  502  0.50461096186E+03 -0.22216285341E+03  0.24802451333E+03  0.60458812879E+03  0.46999998093E+01 0. -1.
</event>
<event>
 5   0  0.9110949E-04  0.1291023E+04  0.7818609E-02  0.9036715E-01
       -1   -1    0    0    0  501  0.00000000000E+00  0.00000000000E+00  0.72102793503E+03  0.72102793505E+03  0.50400001928E-02 0. -1.
        1   -1    0    0  501    0  0.00000000000E+00  0.00000000000E+00 -0.57790397335E+03  0.57790397337E+03  0.50400001928E-02 0.  1.
    10030    2    1    2    0    0  0.00000000000E+00  0.00000000000E+00  0.14312396168E+03  0.12989319084E+04  0.12910227087E+04 0.  0.
        2    1    3    3  502    0 -0.59744946633E+03 -0.21486049198E+01 -0.17434160169E+03  0.62237085038E+03  0.25500000920E-02 0.  1.
       -2    1    3    3    0  502  0.59744946633E+03  0.21486049198E+01  0.31746556337E+03  0.67656105804E+03  0.25500000920E-02 0. -1.
</event>
<event>
 5   0  0.9215829E-04  0.1311731E+04  0.7818609E-02  0.9020314E-01
        1   -1    0    0  501    0  0.00000000000E+00  0.00000000000E+00  0.24435374050E+03  0.24435374055E+03  0.50400001928E-02 0.  1.
       -1   -1    0    0    0  501  0.00000000000E+00  0.00000000000E+00 -0.17603962999E+04  0.17603962999E+04  0.50400001928E-02 0. -1.
    10030    2    1    2    0    0  0.00000000000E+00  0.00000000000E+00 -0.15160425594E+04  0.20047500405E+04  0.13117307966E+04 0.  0.
        3    1    3    3  502    0  0.48494786337E+02 -0.59268502020E+03 -0.11808236612E+04  0.13221088482E+04  0.10100000352E+00 0. -1.
       -3    1    3    3    0  502 -0.48494786337E+02  0.59268502020E+03 -0.33521889825E+03  0.68264119229E+03  0.10100000352E+00 0.  1.
</event>
<event>
 5   0  0.9098192E-04  0.1283612E+04  0.7818609E-02  0.9042663E-01
        1   -1    0    0  501    0  0.00000000000E+00  0.00000000000E+00  0.70820621955E+03  0.70820621957E+03  0.50400001928E-02 0.  1.
       -1   -1    0    0    0  501  0.00000000000E+00  0.00000000000E+00 -0.58163159601E+03  0.58163159603E+03  0.50400001928E-02 0. -1.
    10030    2    1    2    0    0  0.00000000000E+00  0.00000000000E+00  0.12657462354E+03  0.12898378156E+04  0.12836122683E+04 0.  0.
        1    1    3    3  502    0 -0.43493982600E+03  0.10189863819E+03 -0.39977209813E+03  0.59947786880E+03  0.50400001928E-02 0. -1.
       -1    1    3    3    0  502  0.43493982600E+03 -0.10189863819E+03  0.52634672168E+03  0.69035994680E+03  0.50400001928E-02 0.  1.
</event>
<event>
 5   0  0.1714861E-03  0.1293879E+04  0.7818609E-02  0.9034434E-01
        2   -1    0    0  501    0  0.00000000000E+00  0.00000000000E+00  0.74765005537E+03  0.74765005537E+03  0.25500000920E-02 0.  1.
       -2   -1    0    0    0  501  0.00000000000E+00  0.00000000000E+00 -0.55979463856E+03  0.55979463856E+03  0.25500000920E-02 0. -1.
    10030    2    1    2    0    0  0.00000000000E+00  0.00000000000E+00  0.18785541681E+03  0.13074446939E+04  0.12938786535E+04 0.  0.
        1    1    3    3  502    0 -0.16973023200E+03  0.62366353169E+03  0.65961913051E+02  0.64970418378E+03  0.50400001928E-02 0. -1.
       -1    1    3    3    0  502  0.16973023200E+03 -0.62366353169E+03  0.12189350376E+03  0.65774051016E+03  0.50400001928E-02 0.  1.
</event>
<event>
 5   0  0.6284125E-04  0.1291477E+04  0.7818609E-02  0.9036351E-01
        3   -1    0    0  501    0  0.00000000000E+00  0.00000000000E+00  0.16489167116E+04  0.16489167147E+04  0.10100000352E+00 0. -1.
       -3   -1    0    0    0  501  0.00000000000E+00  0.00000000000E+00 -0.25288027455E+03  0.25288029472E+03  0.10100000352E+00 0.  1.
    10030    2    1    2    0    0  0.00000000000E+00  0.00000000000E+00  0.13960364370E+04  0.19017970094E+04  0.12914774994E+04 0.  0.
        3    1    3    3  502    0 -0.53329451361E+03  0.36396883038E+03  0.68313319730E+03  0.93997198000E+03  0.10100000352E+00 0.  1.
       -3    1    3    3    0  502  0.53329451361E+03 -0.36396883038E+03  0.71290323975E+03  0.96182502940E+03  0.10100000352E+00 0. -1.
</event>
<event>
 5   0  0.1623890E-03  0.1308947E+04  0.7818609E-02  0.9022500E-01
       -2   -1    0    0    0  501  0.00000000000E+00  0.00000000000E+00  0.14726687369E+03  0.14726687372E+03  0.25500000920E-02 0. -1.
        2   -1    0    0  501    0  0.00000000000E+00  0.00000000000E+00 -0.29085665467E+04  0.29085665467E+04  0.25500000920E-02 0.  1.
    10030    2    1    2    0    0  0.00000000000E+00  0.00000000000E+00 -0.27612996730E+04  0.30558334204E+04  0.13089469085E+04 0.  0.
        3    1    3    3  502    0 -0.54060879309E+03 -0.19456117809E+02 -0.52065448599E+03  0.75081123571E+03  0.10100000352E+00 0. -1.
       -3    1    3    3    0  502  0.54060879309E+03  0.19456117809E+02 -0.22406451870E+04  0.23050221847E+04  0.10100000352E+00 0.  1.
</event>
<event>
 5   0  0.1667342E-03  0.1301448E+04  0.7818609E-02  0.9028418E-01
       -2   -1    0    0    0  501  0.00000000000E+00  0.00000000000E+00  0.50597252614E+03  0.50597252614E+03  0.25500000920E-02 0. -1.
        2   -1    0    0  501    0  0.00000000000E+00  0.00000000000E+00 -0.83688705536E+03  0.83688705537E+03  0.25500000920E-02 0.  1.
    10030    2    1    2    0    0  0.00000000000E+00  0.00000000000E+00 -0.33091452923E+03  0.13428595815E+04  0.13014482049E+04 0.  0.
        5    1    3    3  502    0 -0.42193079978E+03  0.24526787663E+03  0.27863025014E+03  0.56199540692E+03  0.46999998093E+01 0. -1.
       -5    1    3    3    0  502  0.42193079978E+03 -0.24526787663E+03 -0.60954477937E+03  0.78086417459E+03  0.46999998093E+01 0.  1.
</event>
<event>
 5   0  0.1694675E-03  0.1332619E+04  0.7818609E-02  0.9004090E-01
       -2   -1    0    0    0  501  0.00000000000E+00  0.00000000000E+00  0.34641402352E+03  0.34641402353E+03  0.25500000920E-02 0.  1.
        2   -1    0    0  501    0  0.00000000000E+00  0.00000000000E+00 -0.12816124807E+04  0.12816124807E+04  0.25500000920E-02 0. -1.
    10030    2    1    2    0    0  0.00000000000E+00  0.00000000000E+00 -0.93519845716E+03  0.16280265042E+04  0.13326192795E+04 0.  0.
        4    1    3    3  502    0 -0.30981698471E+03 -0.12400412731E+03 -0.11721603571E+04  0.12187391449E+04  0.12699999809E+01 0. -1.
       -4    1    3    3    0  502  0.30981698471E+03  0.12400412731E+03  0.23696189993E+03  0.40928735935E+03  0.12699999809E+01 0.  1.
</event>
<event>
 5   0  0.1714861E-03  0.1301567E+04  0.7818609E-02  0.9028324E-01
        2   -1    0    0  501    0  0.00000000000E+00  0.00000000000E+00  0.13665683120E+04  0.13665683120E+04  0.25500000920E-02 0. -1.
       -2   -1    0    0    0  501  0.00000000000E+00  0.00000000000E+00 -0.30991432112E+03  0.30991432113E+03  0.25500000920E-02 0.  1.
    10030    2    1    2    0    0  0.00000000000E+00  0.00000000000E+00  0.10566539909E+04  0.16764826332E+04  0.13015668876E+04 0.  0.
        1    1    3    3  502    0  0.44648019352E+03 -0.44438857231E+03  0.31788427932E+03  0.70560341657E+03  0.50400001928E-02 0. -1.
       -1    1    3    3    0  502 -0.44648019352E+03  0.44438857231E+03  0.73876971158E+03  0.97087921658E+03  0.50400001928E-02 0.  1.
</event>
<event>
 5   0  0.9110949E-04  0.1292281E+04  0.7818609E-02  0.9035709E-01
       -1   -1    0    0    0  501  0.00000000000E+00  0.00000000000E+00  0.50335229865E+03  0.50335229868E+03  0.50400001928E-02 0. -1.
        1   -1    0    0  501    0  0.00000000000E+00  0.00000000000E+00 -0.82943378443E+03  0.82943378445E+03  0.50400001928E-02 0.  1.
    10030    2    1    2    0    0  0.00000000000E+00  0.00000000000E+00 -0.32608148578E+03  0.13327860831E+04  0.12922807775E+04 0.  0.
        2    1    3    3  502    0 -0.29817078937E+02 -0.11414652068E+03 -0.81823155628E+03  0.82669303014E+03  0.25500000920E-02 0.  1.
       -2    1    3    3    0  502  0.29817078937E+02  0.11414652068E+03  0.49215007050E+03  0.50609305299E+03  0.25500000920E-02 0. -1.
</event>
<event>
 5   0  0.9215829E-04  0.1460302E+04  0.7818609E-02  0.8911289E-01
        1   -1    0    0  501    0  0.00000000000E+00  0.00000000000E+00  0.49363660480E+03  0.49363660482E+03  0.50400001928E-02 0.  1.
       -1   -1    0    0    0  501  0.00000000000E+00  0.00000000000E+00 -0.10799855745E+04  0.10799855745E+04  0.50400001928E-02 0. -1.
    10030    2    1    2    0    0  0.00000000000E+00  0.00000000000E+00 -0.58634896969E+03  0.15736221793E+04  0.14603019034E+04 0.  0.
        3    1    3    3  502    0  0.16565647083E+03 -0.68799922343E+02  0.46952385199E+03  0.50262128231E+03  0.10100000352E+00 0.  1.
       -3    1    3    3    0  502 -0.16565647083E+03  0.68799922343E+02 -0.10558728217E+04  0.10710008970E+04  0.10100000352E+00 0. -1.
</event>
<event>
 5   0  0.1623890E-03  0.1287175E+04  0.7818609E-02  0.9039798E-01
       -2   -1    0    0    0  501  0.00000000000E+00  0.00000000000E+00  0.50623222166E+03  0.50623222166E+03  0.25500000920E-02 0. -1.
        2   -1    0    0  501    0  0.00000000000E+00  0.00000000000E+00 -0.81821088343E+03  0.81821088344E+03  0.25500000920E-02 0.  1.
    10030    2    1    2    0    0  0.00000000000E+00  0.00000000000E+00 -0.31197866178E+03  0.13244431051E+04  0.12871747563E+04 0.  0.
        3    1    3    3  502    0 -0.20904176396E+03  0.37775765476E+03 -0.64709822403E+03  0.77790450992E+03  0.10100000352E+00 0.  1.
       -3    1    3    3    0  502  0.20904176396E+03 -0.37775765476E+03  0.33511956225E+03  0.54653859518E+03  0.10100000352E+00 0. -1.
</event>
<event>
 5   0  0.1623890E-03  0.1294230E+04  0.7818609E-02  0.9034153E-01
       -2   -1    0    0    0  501  0.00000000000E+00  0.00000000000E+00  0.29705813006E+03  0.29705813008E+03  0.25500000920E-02 0.  1.
        2   -1    0    0  501    0  0.00000000000E+00  0.00000000000E+00 -0.14096839889E+04  0.14096839889E+04  0.25500000920E-02 0. -1.
    10030    2    1    2    0    0  0.00000000000E+00  0.00000000000E+00 -0.11126258588E+04  0.17067421190E+04  0.12942304118E+04 0.  0.
        3    1    3    3  502    0  0.39202595844E+03 -0.78982164434E+02  0.11460324774E+03  0.41600053964E+03  0.10100000352E+00 0.  1.
       -3    1    3    3    0  502 -0.39202595844E+03  0.78982164434E+02 -0.12272291066E+04  0.12907415793E+04  0.10100000352E+00 0. -1.
</event>
<event>
 5   0  0.9110949E-04  0.1320837E+04  0.7818609E-02  0.9013203E-01
        1   -1    0    0  501    0  0.00000000000E+00  0.00000000000E+00  0.85023619334E+03  0.85023619335E+03  0.50400001928E-02 0. -1.
       -1   -1    0    0    0  501  0.00000000000E+00  0.00000000000E+00 -0.51297800531E+03  0.51297800534E+03  0.50400001928E-02 0.  1.
    10030    2    1    2    0    0  0.00000000000E+00  0.00000000000E+00  0.33725818802E+03  0.13632141987E+04  0.13208368053E+04 0.  0.
        2    1    3    3  502    0  0.10130761959E+03  0.26922938551E+03  0.78218076430E+03  0.83339933037E+03  0.25500000920E-02 0. -1.
       -2    1    3    3    0  502 -0.10130761959E+03 -0.26922938551E+03 -0.44492257627E+03  0.52981486832E+03  0.25500000920E-02 0.  1.
</event>
<event>
 5   0  0.9098192E-04  0.1527709E+04  0.7818609E-02  0.8866233E-01
        1   -1    0    0  501    0  0.00000000000E+00  0.00000000000E+00  0.34476435817E+03  0.34476435821E+03  0.50400001928E-02 0. -1.
       -1   -1    0    0    0  501  0.00000000000E+00  0.00000000000E+00 -0.16923829344E+04  0.16923829344E+04  0.50400001928E-02 0.  1.
    10030    2    1    2    0    0  0.00000000000E+00  0.00000000000E+00 -0.13476185762E+04  0.20371472926E+04  0.15277085013E+04 0.  0.
        1    1    3    3  502    0  0.63654699621E+03 -0.19146314252E+03 -0.11756304693E+04  0.13505396009E+04  0.50400001928E-02 0.  1.
       -1    1    3    3    0  502 -0.63654699621E+03  0.19146314252E+03 -0.17198810694E+03  0.68660769168E+03  0.50400001928E-02 0. -1.
</event>
<event>
 5   0  0.1667342E-03  0.1297221E+04  0.7818609E-02  0.9031772E-01
       -2   -1    0    0    0  501  0.00000000000E+00  0.00000000000E+00  0.25174531191E+03  0.25174531192E+03  0.25500000920E-02 0.  1.
        2   -1    0    0  501    0  0.00000000000E+00  0.00000000000E+00 -0.16711151751E+04  0.16711151751E+04  0.25500000920E-02 0. -1.
    10030    2    1    2    0    0  0.00000000000E+00  0.00000000000E+00 -0.14193698632E+04  0.19228604870E+04  0.12972207384E+04 0.  0.
        5    1    3    3  502    0 -0.10880427181E+01 -0.64759088597E+03 -0.76309235345E+03  0.10008532207E+04  0.46999998093E+01 0.  1.
       -5    1    3    3    0  502  0.10880427181E+01  0.64759088597E+03 -0.65627750974E+03  0.92200726636E+03  0.46999998093E+01 0. -1.
</event>
<event>
 5   0  0.9081324E-04  0.1116096E+04  0.7818609E-02  0.9189644E-01
       -1   -1    0    0    0  501  0.00000000000E+00  0.00000000000E+00  0.24921169676E+03  0.24921169681E+03  0.50400001928E-02 0. -1.
        1   -1    0    0  501    0  0.00000000000E+00  0.00000000000E+00 -0.12496112569E+04  0.12496112569E+04  0.50400001928E-02 0.  1.
    10030    2    1    2    0    0  0.00000000000E+00  0.00000000000E+00 -0.10003995601E+04  0.14988229537E+04  0.11160963071E+04 0.  0.
        4    1    3    3  502    0  0.31376374096E+02  0.27905220687E+03  0.14741625121E+03  0.31715575831E+03  0.12699999809E+01 0. -1.
       -4    1    3    3    0  502 -0.31376374096E+02 -0.27905220687E+03 -0.11478158113E+04  0.11816671954E+04  0.12699999809E+01 0.  1.
</event>
<event>
 5   0  0.9098192E-04  0.1319302E+04  0.7818609E-02  0.9014397E-01
       -1   -1    0    0    0  501  0.00000000000E+00  0.00000000000E+00  0.27718423756E+03  0.27718423760E+03  0.50400001928E-02 0. -1.
        1   -1    0    0  501    0  0.00000000000E+00  0.00000000000E+00 -0.15698561622E+04  0.15698561622E+04  0.50400001928E-02 0.  1.
    10030    2    1    2    0    0  0.00000000000E+00  0.00000000000E+00 -0.12926719247E+04  0.18470403998E+04  0.13193019115E+04 0.  0.
        1    1    3    3  502    0 -0.23431234773E+02 -0.14215508263E+03 -0.15475600642E+04  0.15542519882E+04  0.50400001928E-02 0.  1.
       -1    1    3    3    0  502  0.23431234773E+02  0.14215508263E+03  0.25488813957E+03  0.29278841166E+03  0.50400001928E-02 0. -1.
</event>
<event>
 5   0  0.1694675E-03  0.1298945E+04  0.7818609E-02  0.9030402E-01
        2   -1    0    0  501    0  0.00000000000E+00  0.00000000000E+00  0.14319867985E+04  0.14319867985E+04  0.25500000920E-02 0. -1.
       -2   -1    0    0    0  501  0.00000000000E+00  0.00000000000E+00 -0.29456600194E+03  0.29456600195E+03  0.25500000920E-02 0.  1.
    10030    2    1    2    0    0  0.00000000000E+00  0.00000000000E+00  0.11374207965E+04  0.17265528004E+04  0.12989451506E+04 0.  0.
        4    1    3    3  502    0  0.26874126076E+03 -0.51640546109E+03  0.95145551382E+03  0.11154217468E+04  0.12699999809E+01 0.  1.
       -4    1    3    3    0  502 -0.26874126076E+03  0.51640546109E+03  0.18596528272E+03  0.61113105366E+03  0.12699999809E+01 0. -1.
</event>
<event>
 5   0  0.9098192E-04  0.1207534E+04  0.7818609E-02  0.9106288E-01
        1   -1    0    0  501    0  0.00000000000E+00  0.00000000000E+00  0.62713175833E+03  0.62713175835E+03  0.50400001928E-02 0. -1.
       -1   -1    0    0    0  501  0.00000000000E+00  0.00000000000E+00 -0.58127236376E+03  0.58127236378E+03  0.50400001928E-02 0.  1.
    10030    2    1    2    0    0  0.00000000000E+00  0.00000000000E+00  0.45859394574E+02  0.12084041221E+04  0.12075336179E+04 0.  0.
        1    1    3    3  502    0  0.28816321415E+03 -0.24699461927E+03  0.49283180858E+03  0.62203502434E+03  0.50400001928E-02 0. -1.
       -1    1    3    3    0  502 -0.28816321415E+03  0.24699461927E+03 -0.44697241400E+03  0.58636909779E+03  0.50400001928E-02 0.  1.
</event>
<event>
 5   0  0.9098192E-04  0.1294023E+04  0.7818609E-02  0.9034319E-01
        1   -1    0    0  501    0  0.00000000000E+00  0.00000000000E+00  0.73073630972E+03  0.73073630974E+03  0.50400001928E-02 0.  1.
       -1   -1    0    0    0  501  0.00000000000E+00  0.00000000000E+00 -0.57287939847E+03  0.57287939850E+03  0.50400001928E-02 0. -1.
    10030    2    1    2    0    0  0.00000000000E+00  0.00000000000E+00  0.15785691125E+03  0.13036157082E+04  0.12940228400E+04 0.  0.
        1    1    3    3  502    0 -0.21794954561E+03 -0.60735707389E+03  0.12659898831E+03  0.65758035517E+03  0.50400001928E-02 0.  1.
       -1    1    3    3    0  502  0.21794954561E+03  0.60735707389E+03  0.31257922941E+02  0.64603535307E+03  0.50400001928E-02 0. -1.
</event>
<event>
 5   0  0.9098192E-04  0.1301850E+04  0.7818609E-02  0.9028099E-01
       -1   -1    0    0    0  501  0.00000000000E+00  0.00000000000E+00  0.43004492024E+03  0.43004492027E+03  0.50400001928E-02 0. -1.
        1   -1    0    0  501    0  0.00000000000E+00  0.00000000000E+00 -0.98525413447E+03  0.98525413448E+03  0.50400001928E-02 0.  1.
    10030    2    1    2    0    0  0.00000000000E+00  0.00000000000E+00 -0.55520921422E+03  0.14152990548E+04  0.13018502767E+04 0.  0.
        1    1    3    3  502    0 -0.18514409557E+02  0.54607585967E+03  0.10700777711E+03  0.55676951449E+03  0.50400001928E-02 0. -1.
       -1    1    3    3    0  502  0.18514409557E+02 -0.54607585967E+03 -0.66221699133E+03  0.85852954027E+03  0.50400001928E-02 0.  1.
</event>
<event>
 5   0  0.9027076E-04  0.1300614E+04  0.7818609E-02  0.9029078E-01
       -1   -1    0    0    0  501  0.00000000000E+00  0.00000000000E+00  0.10881471861E+04  0.10881471861E+04  0.50400001928E-02 0.  1.
        1   -1    0    0  501    0  0.00000000000E+00  0.00000000000E+00 -0.38864162993E+03  0.38864162996E+03  0.50400001928E-02 0. -1.
    10030    2    1    2    0    0  0.00000000000E+00  0.00000000000E+00  0.69950555618E+03  0.14767888161E+04  0.13006141565E+04 0.  0.
        5    1    3    3  502    0 -0.58166197036E+03 -0.54835306808E+02  0.25521929817E+02  0.58481708041E+03  0.46999998093E+01 0. -1.
       -5    1    3    3    0  502  0.58166197036E+03  0.54835306808E+02  0.67398362636E+03  0.89197173567E+03  0.46999998093E+01 0.  1.
</event>
<event>
 5   0  0.9027076E-04  0.1295616E+04  0.7818609E-02  0.9033049E-01
        1   -1    0    0  501    0  0.00000000000E+00  0.00000000000E+00  0.65255779017E+03  0.65255779019E+03  0.50400001928E-02 0. -1.
       -1   -1    0    0    0  501  0.00000000000E+00  0.00000000000E+00 -0.64309320616E+03  0.64309320618E+03  0.50400001928E-02 0.  1.
    10030    2    1    2    0    0  0.00000000000E+00  0.00000000000E+00  0.94645840049E+01  0.12956509964E+04  0.12956164270E+04 0.  0.
        5    1    3    3  502    0 -0.42044236299E+03 -0.46757121699E+03  0.16042449295E+03  0.64896281210E+03  0.46999998093E+01 0. -1.
       -5    1    3    3    0  502  0.42044236299E+03  0.46757121699E+03 -0.15095990894E+03  0.64668818426E+03  0.46999998093E+01 0.  1.
</event>
<event>
 5   0  0.9110949E-04  0.1302640E+04  0.7818609E-02  0.9027474E-01
       -1   -1    0    0    0  501  0.00000000000E+00  0.00000000000E+00  0.25848838172E+03  0.25848838177E+03  0.50400001928E-02 0.  1.
        1   -1    0    0  501    0  0.00000000000E+00  0.00000000000E+00 -0.16411484766E+04  0.16411484766E+04  0.50400001928E-02 0. -1.
    10030    2    1    2    0    0  0.00000000000E+00  0.00000000000E+00 -0.13826600949E+04  0.18996368584E+04  0.13026401098E+04 0.  0.
        2    1    3    3  502    0 -0.43207785451E+03 -0.12245682675E+02  0.19171584359E+02  0.43267629789E+03  0.25500000920E-02 0.  1.
       -2    1    3    3    0  502  0.43207785451E+03  0.12245682675E+02 -0.14018316793E+04  0.14669605605E+04  0.25500000920E-02 0. -1.
</event>
<event>
 5   0  0.9110949E-04  0.1302319E+04  0.7818609E-02  0.9027728E-01
       -1   -1    0    0    0  501  0.00000000000E+00  0.00000000000E+00  0.63375377483E+03  0.63375377485E+03  0.50400001928E-02 0. -1.
        1   -1    0    0  501    0  0.00000000000E+00  0.00000000000E+00 -0.66904331175E+03  0.66904331177E+03  0.50400001928E-02 0.  1.
    10030    2    1    2    0    0  0.00000000000E+00  0.00000000000E+00 -0.35289536921E+02  0.13027970866E+04  0.13023190460E+04 0.  0.
        2    1    3    3  502    0  0.11451203065E+03 -0.60823670368E+03  0.18477532789E+03  0.64591548571E+03  0.25500000920E-02 0. -1.
       -2    1    3    3    0  502 -0.11451203065E+03  0.60823670368E+03 -0.22006486482E+03  0.65688160090E+03  0.25500000920E-02 0.  1.
</event>
<event>
 5   0  0.9110949E-04  0.1299368E+04  0.7818609E-02  0.9030066E-01
        1   -1    0    0  501    0  0.00000000000E+00  0.00000000000E+00  0.95434045196E+03  0.95434045197E+03  0.50400001928E-02 0.  1.
       -1   -1    0    0    0  501  0.00000000000E+00  0.00000000000E+00 -0.44228405076E+03  0.44228405078E+03  0.50400001928E-02 0. -1.
    10030    2    1    2    0    0  0.00000000000E+00  0.00000000000E+00  0.51205640120E+03  0.13966245028E+04  0.12993684018E+04 0.  0.
        2    1    3    3  502    0  0.59479019652E+03 -0.11120889587E+03  0.17934904176E+01  0.60510000249E+03  0.25500000920E-02 0. -1.
       -2    1    3    3    0  502 -0.59479019652E+03  0.11120889587E+03  0.51026291078E+03  0.79152450027E+03  0.25500000920E-02 0.  1.
</event>
<event>
 5   0  0.1667342E-03  0.1292366E+04  0.7818609E-02  0.9035641E-01
        2   -1    0    0  501    0  0.00000000000E+00  0.00000000000E+00  0.15249940782E+04  0.15249940782E+04  0.25500000920E-02 0.  1.
       -2   -1    0    0    0  501  0.00000000000E+00  0.00000000000E+00 -0.27380616234E+03  0.27380616235E+03  0.25500000920E-02 0. -1.
    10030    2    1    2    0    0  0.00000000000E+00  0.00000000000E+00  0.12511879158E+04  0.17988002405E+04  0.12923664746E+04 0.  0.
        5    1    3    3  502    0  0.60774998364E+03 -0.11198378440E+03  0.36286566489E+03  0.71665472254E+03  0.46999998093E+01 0.  1.
       -5    1    3    3    0  502 -0.60774998364E+03  0.11198378440E+03  0.88832225096E+03  0.10821455180E+04  0.46999998093E+01 0. -1.
</event>
<event>
 5   0  0.9098192E-04  0.1288983E+04  0.7818609E-02  0.9038348E-01
       -1   -1    0    0    0  501  0.00000000000E+00  0.00000000000E+00  0.44884671359E+03  0.44884671362E+03  0.50400001928E-02 0. -1.
        1   -1    0    0  501    0  0.00000000000E+00  0.00000000000E+00 -0.92541419756E+03  0.92541419757E+03  0.50400001928E-02 0.  1.
    10030    2    1    2    0    0  0.00000000000E+00  0.00000000000E+00 -0.47656748397E+03  0.13742609112E+04  0.12889827327E+04 0.  0.
        1    1    3    3  502    0  0.31698536762E+03 -0.11925098248E+03  0.34632611388E+03  0.48439890306E+03  0.50400001928E-02 0. -1.
       -1    1    3    3    0  502 -0.31698536762E+03  0.11925098248E+03 -0.82289359785E+03  0.88986200813E+03  0.50400001928E-02 0.  1.
</event>
<event>
 5   0  0.6284125E-04  0.1302734E+04  0.7818609E-02  0.9027400E-01
       -3   -1    0    0    0  501  0.00000000000E+00  0.00000000000E+00  0.76248792590E+03  0.76248793258E+03  0.10100000352E+00 0.  1.
        3   -1    0    0  501    0  0.00000000000E+00  0.00000000000E+00 -0.55644020099E+03  0.55644021016E+03  0.10100000352E+00 0. -1.
    10030    2    1    2    0    0  0.00000000000E+00  0.00000000000E+00  0.20604772490E+03  0.13189281427E+04  0.13027339639E+04 0.  0.
        2    1    3    3  502    0  0.29426197621E+03  0.74252678904E+02 -0.48048722918E+03  0.56830585813E+03  0.25500000920E-02 0. -1.
       -2    1    3    3    0  502 -0.29426197621E+03 -0.74252678904E+02  0.68653495409E+03  0.75062228461E+03  0.25500000920E-02 0.  1.
</event>
<event>
 5   0  0.1667342E-03  0.1298266E+04  0.7818609E-02  0.9030941E-01
        2   -1    0    0  501    0  0.00000000000E+00  0.00000000000E+00  0.85892721067E+03  0.85892721068E+03  0.25500000920E-02 0. -1.
       -2   -1    0    0    0  501  0.00000000000E+00  0.00000000000E+00 -0.49058149280E+03  0.49058149281E+03  0.25500000920E-02 0.  1.
    10030    2    1    2    0    0  0.00000000000E+00  0.00000000000E+00  0.36834571787E+03  0.13495087035E+04  0.12982662180E+04 0.  0.
        5    1    3    3  502    0 -0.26080698293E+03 -0.25056249643E+03 -0.37612926114E+03  0.52182100192E+03  0.46999998093E+01 0.  1.
       -5    1    3    3    0  502  0.26080698293E+03  0.25056249643E+03  0.74447497901E+03  0.82768770157E+03  0.46999998093E+01 0. -1.
</event>
<event>
 5   0  0.9081324E-04  0.1280744E+04  0.7818609E-02  0.9044976E-01
       -1   -1    0    0    0  501  0.00000000000E+00  0.00000000000E+00  0.69346100381E+03  0.69346100382E+03  0.50400001928E-02 0.  1.
        1   -1    0    0  501    0  0.00000000000E+00  0.00000000000E+00 -0.59134714607E+03  0.59134714609E+03  0.50400001928E-02 0. -1.
    10030    2    1    2    0    0  0.00000000000E+00  0.00000000000E+00  0.10211385774E+03  0.12848081499E+04  0.12807438238E+04 0.  0.
        4    1    3    3  502    0 -0.92945364666E+02 -0.47610561478E+02  0.68486008461E+03  0.69277742080E+03  0.12699999809E+01 0.  1.
       -4    1    3    3    0  502  0.92945364666E+02  0.47610561478E+02 -0.58274622688E+03  0.59203072911E+03  0.12699999809E+01 0. -1.
</event>
<event>
 5   0  0.1694675E-03  0.1293474E+04  0.7818609E-02  0.9034756E-01
        2   -1    0    0  501    0  0.00000000000E+00  0.00000000000E+00  0.10595677970E+04  0.10595677970E+04  0.25500000920E-02 0.  1.
       -2   -1    0    0    0  501  0.00000000000E+00  0.00000000000E+00 -0.39475419266E+03  0.39475419267E+03  0.25500000920E-02 0. -1.
    10030    2    1    2    0    0  0.00000000000E+00  0.00000000000E+00  0.66481360432E+03  0.14543219896E+04  0.12934741285E+04 0.  0.
        4    1    3    3  502    0  0.52466629691E+02 -0.14303915033E+02  0.10569911518E+04  0.10583899363E+04  0.12699999809E+01 0.  1.
       -4    1    3    3    0  502 -0.52466629691E+02  0.14303915033E+02 -0.39217754752E+03  0.39593205338E+03  0.12699999809E+01 0. -1.
</event>
<event>
 5   0  0.1714861E-03  0.1304099E+04  0.7818609E-02  0.9026321E-01
        2   -1    0    0  501    0  0.00000000000E+00  0.00000000000E+00  0.60438628299E+03  0.60438628300E+03  0.25500000920E-02 0. -1.
       -2   -1    0    0    0  501  0.00000000000E+00  0.00000000000E+00 -0.70347138528E+03  0.70347138528E+03  0.25500000920E-02 0.  1.
    10030    2    1    2    0    0  0.00000000000E+00  0.00000000000E+00 -0.99085102284E+02  0.13078576683E+04  0.13040988548E+04 0.  0.
        1    1    3    3  502    0  0.70051858280E+02 -0.22514736213E+03 -0.65921734659E+03  0.70011863822E+03  0.50400001928E-02 0.  1.
       -1    1    3    3    0  502 -0.70051858280E+02  0.22514736213E+03  0.56013224430E+03  0.60773903006E+03  0.50400001928E-02 0. -1.
</event>
<event>
 5   0  0.9215829E-04  0.1292709E+04  0.7818609E-02  0.9035367E-01
       -1   -1    0    0    0  501  0.00000000000E+00  0.00000000000E+00  0.30996943424E+03  0.30996943428E+03  0.50400001928E-02 0. -1.
        1   -1    0    0  501    0  0.00000000000E+00  0.00000000000E+00 -0.13477914242E+04  0.13477914242E+04  0.50400001928E-02 0.  1.
    10030    2    1    2    0    0  0.00000000000E+00  0.00000000000E+00 -0.10378219900E+04  0.16577608585E+04  0.12927090087E+04 0.  0.
        3    1    3    3  502    0 -0.61864629709E+03  0.10768284299E+03 -0.32251094353E+03  0.70592645118E+03  0.10100000352E+00 0. -1.
       -3    1    3    3    0  502  0.61864629709E+03 -0.10768284299E+03 -0.71531104642E+03  0.95183440730E+03  0.10100000352E+00 0.  1.
</event>
<event>
 5   0  0.1623890E-03  0.1284220E+04  0.7818609E-02  0.9042173E-01
       -2   -1    0    0    0  501  0.00000000000E+00  0.00000000000E+00  0.69643995677E+03  0.69643995678E+03  0.25500000920E-02 0.  1.
        2   -1    0    0  501    0  0.00000000000E+00  0.00000000000E+00 -0.59201852915E+03  0.59201852916E+03  0.25500000920E-02 0. -1.
    10030    2    1    2    0    0  0.00000000000E+00  0.00000000000E+00  0.10442142762E+03  0.12884584859E+04  0.12842201663E+04 0.  0.
        3    1    3    3  502    0  0.41288058313E+03 -0.32274270063E+03 -0.32005577909E+03  0.61405939344E+03  0.10100000352E+00 0. -1.
       -3    1    3    3    0  502 -0.41288058313E+03  0.32274270063E+03  0.42447720671E+03  0.67439909249E+03  0.10100000352E+00 0.  1.
</event>
<event>
 5   0  0.9081324E-04  0.1294434E+04  0.7818609E-02  0.9033991E-01
        1   -1    0    0  501    0  0.00000000000E+00  0.00000000000E+00  0.51191747943E+03  0.51191747945E+03  0.50400001928E-02 0.  1.
       -1   -1    0    0    0  501  0.00000000000E+00  0.00000000000E+00 -0.81827630213E+03  0.81827630214E+03  0.50400001928E-02 0. -1.
    10030    2    1    2    0    0  0.00000000000E+00  0.00000000000E+00 -0.30635882270E+03  0.13301937816E+04  0.12944341499E+04 0.  0.
        4    1    3    3  502    0  0.46648132825E+03  0.41319732946E+03 -0.33279787698E+03  0.70646507521E+03  0.12699999809E+01 0. -1.
       -4    1    3    3    0  502 -0.46648132825E+03 -0.41319732946E+03  0.26439054281E+02  0.62372870638E+03  0.12699999809E+01 0.  1.
</event>
<event>
 5   0  0.1700511E-03  0.1291477E+04  0.7818609E-02  0.9036351E-01
        2   -1    0    0  501    0  0.00000000000E+00  0.00000000000E+00  0.11137550402E+04  0.11137550402E+04  0.25500000920E-02 0.  1.
       -2   -1    0    0    0  501  0.00000000000E+00  0.00000000000E+00 -0.37438974960E+03  0.37438974961E+03  0.25500000920E-02 0. -1.
    10030    2    1    2    0    0  0.00000000000E+00  0.00000000000E+00  0.73936529058E+03  0.14881447898E+04  0.12914774030E+04 0.  0.
        2    1    3    3  502    0  0.12264502791E+03  0.43770301474E+03  0.89816739765E+03  0.10066431375E+04  0.25500000920E-02 0.  1.
       -2    1    3    3    0  502 -0.12264502791E+03 -0.43770301474E+03 -0.15880210707E+03  0.48150165233E+03  0.25500000920E-02 0. -1.
</event>
<event>
 5   0  0.9081324E-04  0.1291044E+04  0.7818609E-02  0.9036697E-01
        1   -1    0    0  501    0  0.00000000000E+00  0.00000000000E+00  0.95643600602E+03  0.95643600603E+03  0.50400001928E-02 0. -1.
       -1   -1    0    0    0  501  0.00000000000E+00  0.00000000000E+00 -0.43567887019E+03  0.43567887022E+03  0.50400001928E-02 0.  1.
    10030    2    1    2    0    0  0.00000000000E+00  0.00000000000E+00  0.52075713583E+03  0.13921148762E+04  0.12910444741E+04 0.  0.
        4    1    3    3  502    0 -0.11824264623E+03 -0.30839877712E+03  0.85842020993E+03  0.91977062295E+03  0.12699999809E+01 0. -1.
       -4    1    3    3    0  502  0.11824264623E+03  0.30839877712E+03 -0.33766307410E+03  0.47234425330E+03  0.12699999809E+01 0.  1.
</event>
<event>
 5   0  0.9081324E-04  0.1292870E+04  0.7818609E-02  0.9035238E-01
       -1   -1    0    0    0  501  0.00000000000E+00  0.00000000000E+00  0.35964501807E+03  0.35964501810E+03  0.50400001928E-02 0.  1.
        1   -1    0    0  501    0  0.00000000000E+00  0.00000000000E+00 -0.11619193024E+04  0.11619193025E+04  0.50400001928E-02 0. -1.
    10030    2    1    2    0    0  0.00000000000E+00  0.00000000000E+00 -0.80227428438E+03  0.15215643206E+04  0.12928704321E+04 0.  0.
        4    1    3    3  502    0  0.21250551436E+03 -0.23843420951E+03 -0.10625729800E+04  0.11095370281E+04  0.12699999809E+01 0. -1.
       -4    1    3    3    0  502 -0.21250551436E+03  0.23843420951E+03  0.26029869564E+03  0.41202729248E+03  0.12699999809E+01 0.  1.
</event>
<event>
 5   0  0.9110949E-04  0.1284952E+04  0.7818609E-02  0.9041584E-01
       -1   -1    0    0    0  501  0.00000000000E+00  0.00000000000E+00  0.50950551172E+03  0.50950551174E+03  0.50400001928E-02 0.  1.
        1   -1    0    0  501    0  0.00000000000E+00  0.00000000000E+00 -0.81014917554E+03  0.81014917556E+03  0.50400001928E-02 0. -1.
    10030    2    1    2    0    0  0.00000000000E+00  0.00000000000E+00 -0.30064366382E+03  0.13196546873E+04  0.12849520929E+04 0.  0.
        2    1    3    3  502    0 -0.22218257888E+03 -0.39285231998E+03 -0.61992059204E+03  0.76681130933E+03  0.25500000920E-02 0. -1.
       -2    1    3    3    0  502  0.22218257888E+03  0.39285231998E+03  0.31927692821E+03  0.55284337797E+03  0.25500000920E-02 0.  1.
</event>
<event>
 5   0  0.1700511E-03  0.1303977E+04  0.7818609E-02  0.9026417E-01
       -2   -1    0    0    0  501  0.00000000000E+00  0.00000000000E+00  0.29774216049E+03  0.29774216050E+03  0.25500000920E-02 0. -1.
        2   -1    0    0  501    0  0.00000000000E+00  0.00000000000E+00 -0.14277091756E+04  0.14277091756E+04  0.25500000920E-02 0.  1.
    10030    2    1    2    0    0  0.00000000000E+00  0.00000000000E+00 -0.11299670151E+04  0.17254513361E+04  0.13039773227E+04 0.  0.
        2    1    3    3  502    0 -0.42101828586E+03 -0.48184107476E+03 -0.39938507074E+03  0.75427823321E+03  0.25500000920E-02 0. -1.
       -2    1    3    3    0  502  0.42101828586E+03  0.48184107476E+03 -0.73058194435E+03  0.97117310288E+03  0.25500000920E-02 0.  1.
</event>
<event>
 5   0  0.1714861E-03  0.1293232E+04  0.7818609E-02  0.9034950E-01
        2   -1    0    0  501    0  0.00000000000E+00  0.00000000000E+00  0.18880341796E+04  0.18880341796E+04  0.25500000920E-02 0. -1.
       -2   -1    0    0    0  501  0.00000000000E+00  0.00000000000E+00 -0.22145363123E+03  0.22145363125E+03  0.25500000920E-02 0.  1.
    10030    2    1    2    0    0  0.00000000000E+00  0.00000000000E+00  0.16665805484E+04  0.21094878109E+04  0.12932316498E+04 0.  0.
        1    1    3    3  502    0 -0.38120696001E+03  0.47400436189E+03  0.47549667910E+03  0.77207251817E+03  0.50400001928E-02 0.  1.
       -1    1    3    3    0  502  0.38120696001E+03 -0.47400436189E+03  0.11910838693E+04  0.13374152927E+04  0.50400001928E-02 0. -1.
</event>
<event>
 5   0  0.6284125E-04  0.1304349E+04  0.7818609E-02  0.9026123E-01
        4   -1    0    0  501    0  0.00000000000E+00  0.00000000000E+00  0.41887036951E+03  0.41887229480E+03  0.12699999809E+01 0. -1.
       -4   -1    0    0    0  501  0.00000000000E+00  0.00000000000E+00 -0.10154211055E+04  0.10154218997E+04  0.12699999809E+01 0.  1.
    10030    2    1    2    0    0  0.00000000000E+00  0.00000000000E+00 -0.59655073598E+03  0.14342941945E+04  0.13043492844E+04 0.  0.
        4    1    3    3  502    0 -0.28796648548E+03 -0.18962534590E+03  0.31045155028E+03  0.46396578165E+03  0.12699999809E+01 0. -1.
       -4    1    3    3    0  502  0.28796648548E+03  0.18962534590E+03 -0.90700228627E+03  0.97032841284E+03  0.12699999809E+01 0.  1.
</event>
<event>
 5   0  0.1714861E-03  0.1231800E+04  0.7818609E-02  0.9085468E-01
        2   -1    0    0  501    0  0.00000000000E+00  0.00000000000E+00  0.18373381797E+04  0.18373381797E+04  0.25500000920E-02 0. -1.
       -2   -1    0    0    0  501  0.00000000000E+00  0.00000000000E+00 -0.20645787059E+03  0.20645787061E+03  0.25500000920E-02 0.  1.
    10030    2    1    2    0    0  0.00000000000E+00  0.00000000000E+00  0.16308803091E+04  0.20437960503E+04  0.12318001919E+04 0.  0.
        1    1    3    3  502    0 -0.44948612602E+03  0.23899555822E+03  0.13906239672E+04  0.14808753062E+04  0.50400001928E-02 0. -1.
       -1    1    3    3    0  502  0.44948612602E+03 -0.23899555822E+03  0.24025634197E+03  0.56292074417E+03  0.50400001928E-02 0.  1.
</event>
<event>
 5   0  0.9098192E-04  0.1229069E+04  0.7818609E-02  0.9087786E-01
        1   -1    0    0  501    0  0.00000000000E+00  0.00000000000E+00  0.12378737187E+04  0.12378737187E+04  0.50400001928E-02 0. -1.
       -1   -1    0    0    0  501  0.00000000000E+00  0.00000000000E+00 -0.30508181840E+03  0.30508181844E+03  0.50400001928E-02 0.  1.
    10030    2    1    2    0    0  0.00000000000E+00  0.00000000000E+00  0.93279190026E+03  0.15429555371E+04  0.12290691845E+04 0.  0.
        1    1    3    3  502    0 -0.12200497920E+03  0.57302310463E+03  0.69927610999E+03  0.91226518700E+03  0.50400001928E-02 0. -1.
       -1    1    3    3    0  502  0.12200497920E+03 -0.57302310463E+03  0.23351579027E+03  0.63069035011E+03  0.50400001928E-02 0.  1.
</event>
<event>
 5   0  0.1667342E-03  0.1313649E+04  0.7818609E-02  0.9018811E-01
       -2   -1    0    0    0  501  0.00000000000E+00  0.00000000000E+00  0.34353810720E+03  0.34353810721E+03  0.25500000920E-02 0. -1.
        2   -1    0    0  501    0  0.00000000000E+00  0.00000000000E+00 -0.12558091940E+04  0.12558091940E+04  0.25500000920E-02 0.  1.
    10030    2    1    2    0    0  0.00000000000E+00  0.00000000000E+00 -0.91227108679E+03  0.15993473012E+04  0.13136488321E+04 0.  0.
        5    1    3    3  502    0 -0.17895357239E+03 -0.41784580091E+03 -0.10333526206E+04  0.11289194935E+04  0.46999998093E+01 0.  1.
       -5    1    3    3    0  502  0.17895357239E+03  0.41784580091E+03  0.12108153379E+03  0.47042780767E+03  0.46999998093E+01 0. -1.
</event>
<event>
 5   0  0.6284125E-04  0.1298529E+04  0.7818609E-02  0.9030733E-01
        3   -1    0    0  501    0  0.00000000000E+00  0.00000000000E+00  0.93413308351E+03  0.93413308897E+03  0.10100000352E+00 0.  1.
       -3   -1    0    0    0  501  0.00000000000E+00  0.00000000000E+00 -0.45126772567E+03  0.45126773697E+03  0.10100000352E+00 0. -1.
    10030    2    1    2    0    0  0.00000000000E+00  0.00000000000E+00  0.48286535784E+03  0.13854008259E+04  0.12985285883E+04 0.  0.
        1    1    3    3  502    0 -0.91257599718E+02 -0.90706605334E+02 -0.43752900267E+03  0.45605620921E+03  0.50400001928E-02 0. -1.
       -1    1    3    3    0  502  0.91257599718E+02  0.90706605334E+02  0.92039436051E+03  0.92934461673E+03  0.50400001928E-02 0.  1.
</event>
<event>
 5   0  0.1694675E-03  0.1299344E+04  0.7818609E-02  0.9030085E-01
       -2   -1    0    0    0  501  0.00000000000E+00  0.00000000000E+00  0.58883600475E+03  0.58883600475E+03  0.25500000920E-02 0.  1.
        2   -1    0    0  501    0  0.00000000000E+00  0.00000000000E+00 -0.71679384904E+03  0.71679384904E+03  0.25500000920E-02 0. -1.
    10030    2    1    2    0    0  0.00000000000E+00  0.00000000000E+00 -0.12795784429E+03  0.13056298538E+04  0.12993444906E+04 0.  0.
        4    1    3    3  502    0  0.39340012683E+03 -0.51694378400E+03 -0.55111393780E+02  0.65194586756E+03  0.12699999809E+01 0.  1.
       -4    1    3    3    0  502 -0.39340012683E+03  0.51694378400E+03 -0.72846450510E+02  0.65368398623E+03  0.12699999809E+01 0. -1.
</event>
<event>
 5   0  0.1694675E-03  0.1325815E+04  0.7818609E-02  0.9009340E-01
       -2   -1    0    0    0  501  0.00000000000E+00  0.00000000000E+00  0.16031299515E+03  0.16031299517E+03  0.25500000920E-02 0.  1.
        2   -1    0    0  501    0  0.00000000000E+00  0.00000000000E+00 -0.27411774232E+04  0.27411774232E+04  0.25500000920E-02 0. -1.
    10030    2    1    2    0    0  0.00000000000E+00  0.00000000000E+00 -0.25808644280E+04  0.29014904183E+04  0.13258150142E+04 0.  0.
        4    1    3    3  502    0 -0.51785870854E+03 -0.21610571471E+03 -0.51804163074E+03  0.76370679323E+03  0.12699999809E+01 0.  1.
       -4    1    3    3    0  502  0.51785870854E+03  0.21610571471E+03 -0.20628227973E+04  0.21377836251E+04  0.12699999809E+01 0. -1.
</event>
<event>
 5   0  0.9110949E-04  0.1055073E+04  0.7818609E-02  0.9250122E-01
       -1   -1    0    0    0  501  0.00000000000E+00  0.00000000000E+00  0.50997819744E+03  0.50997819747E+03  0.50400001928E-02 0. -1.
        1   -1    0    0  501    0  0.00000000000E+00  0.00000000000E+00 -0.54569911014E+03  0.54569911016E+03  0.50400001928E-02 0.  1.
    10030    2    1    2    0    0  0.00000000000E+00  0.00000000000E+00 -0.35720912697E+02  0.10556773076E+04  0.10550727910E+04 0.  0.
        2    1    3    3  502    0  0.24645880047E+03  0.40998250446E+03  0.20467887947E+03  0.52030859882E+03  0.25500000920E-02 0. -1.
       -2    1    3    3    0  502 -0.24645880047E+03 -0.40998250446E+03 -0.24039979217E+03  0.53536870881E+03  0.25500000920E-02 0.  1.
</event>
<event>
 5   0  0.9098192E-04  0.1283374E+04  0.7818609E-02  0.9042855E-01
       -1   -1    0    0    0  501  0.00000000000E+00  0.00000000000E+00  0.36330530119E+03  0.36330530123E+03  0.50400001928E-02 0.  1.
        1   -1    0    0  501    0  0.00000000000E+00  0.00000000000E+00 -0.11333777632E+04  0.11333777633E+04  0.50400001928E-02 0. -1.
    10030    2    1    2    0    0  0.00000000000E+00  0.00000000000E+00 -0.77007246205E+03  0.14966830645E+04  0.12833739123E+04 0.  0.
        1    1    3    3  502    0 -0.62547170859E+03 -0.14763825700E+02 -0.21875697500E+03  0.66278763034E+03  0.50400001928E-02 0.  1.
       -1    1    3    3    0  502  0.62547170859E+03  0.14763825700E+02 -0.55131548706E+03  0.83389543414E+03  0.50400001928E-02 0. -1.
</event>
<event>
 5   0  0.9027076E-04  0.1318646E+04  0.7818609E-02  0.9014908E-01
       -1   -1    0    0    0  501  0.00000000000E+00  0.00000000000E+00  0.36627608707E+03  0.36627608711E+03  0.50400001928E-02 0. -1.
        1   -1    0    0  501    0  0.00000000000E+00  0.00000000000E+00 -0.11868281778E+04  0.11868281778E+04  0.50400001928E-02 0.  1.
    10030    2    1    2    0    0  0.00000000000E+00  0.00000000000E+00 -0.82055209075E+03  0.15531042649E+04  0.13186459434E+04 0.  0.
        5    1    3    3  502    0 -0.41756209555E+03 -0.16695335202E+02 -0.10108950164E+04  0.10938773524E+04  0.46999998093E+01 0.  1.
       -5    1    3    3    0  502  0.41756209555E+03  0.16695335202E+02  0.19034292567E+03  0.45922691255E+03  0.46999998093E+01 0. -1.
</event>
<event>
 5   0  0.1694675E-03  0.1253271E+04  0.7818609E-02  0.9067465E-01
       -2   -1    0    0    0  501  0.00000000000E+00  0.00000000000E+00  0.26359634563E+03  0.26359634564E+03  0.25500000920E-02 0. -1.
        2   -1    0    0  501    0  0.00000000000E+00  0.00000000000E+00 -0.14896727409E+04  0.14896727409E+04  0.25500000920E-02 0.  1.
    10030    2    1    2    0    0  0.00000000000E+00  0.00000000000E+00 -0.12260763953E+04  0.17532690865E+04  0.12532713843E+04 0.  0.
        4    1    3    3  502    0  0.20418450133E+03  0.50851635903E+03 -0.10382615070E+04  0.11739969198E+04  0.12699999809E+01 0.  1.
       -4    1    3    3    0  502 -0.20418450133E+03 -0.50851635903E+03 -0.18781488831E+03  0.57927216674E+03  0.12699999809E+01 0. -1.
</event>
<event>
 5   0  0.1667342E-03  0.1281887E+04  0.7818609E-02  0.9044053E-01
       -2   -1    0    0    0  501  0.00000000000E+00  0.00000000000E+00  0.26338499750E+03  0.26338499751E+03  0.25500000920E-02 0.  1.
        2   -1    0    0  501    0  0.00000000000E+00  0.00000000000E+00 -0.15597269168E+04  0.15597269168E+04  0.25500000920E-02 0. -1.
    10030    2    1    2    0    0  0.00000000000E+00  0.00000000000E+00 -0.12963419193E+04  0.18231119143E+04  0.12818871559E+04 0.  0.
        5    1    3    3  502    0  0.46503277862E+03  0.13120036350E+03 -0.12470504027E+04  0.13373951613E+04  0.46999998093E+01 0. -1.
       -5    1    3    3    0  502 -0.46503277862E+03 -0.13120036350E+03 -0.49291516615E+02  0.48571675304E+03  0.46999998093E+01 0.  1.
</event>
<event>
 5   0  0.1714861E-03  0.1306692E+04  0.7818609E-02  0.9024275E-01
       -2   -1    0    0    0  501  0.00000000000E+00  0.00000000000E+00  0.40926929034E+03  0.40926929035E+03  0.25500000920E-02 0. -1.
        2   -1    0    0  501    0  0.00000000000E+00  0.00000000000E+00 -0.10429832082E+04  0.10429832082E+04  0.25500000920E-02 0.  1.
    10030    2    1    2    0    0  0.00000000000E+00  0.00000000000E+00 -0.63371391790E+03  0.14522524986E+04  0.13066920027E+04 0.  0.
        1    1    3    3  502    0 -0.62490571962E+03 -0.11371823298E+03 -0.48694779311E+03  0.80034814185E+03  0.50400001928E-02 0. -1.
       -1    1    3    3    0  502  0.62490571962E+03  0.11371823298E+03 -0.14676612479E+03  0.65190435674E+03  0.50400001928E-02 0.  1.
</event>
<event>
 5   0  0.1714861E-03  0.1470568E+04  0.7818609E-02  0.8904264E-01
       -2   -1    0    0    0  501  0.00000000000E+00  0.00000000000E+00  0.36722921895E+03  0.36722921896E+03  0.25500000920E-02 0. -1.
        2   -1    0    0  501    0  0.00000000000E+00  0.00000000000E+00 -0.14722205194E+04  0.14722205194E+04  0.25500000920E-02 0.  1.
    10030    2    1    2    0    0  0.00000000000E+00  0.00000000000E+00 -0.11049913004E+04  0.18394497384E+04  0.14705677699E+04 0.  0.
        1    1    3    3  502    0  0.70958895378E+03  0.13490965100E+03 -0.38041810504E+03  0.81635472187E+03  0.50400001928E-02 0. -1.
       -1    1    3    3    0  502 -0.70958895378E+03 -0.13490965100E+03 -0.72457319541E+03  0.10230950165E+04  0.50400001928E-02 0.  1.
</event>
<event>
 5   0  0.9027076E-04  0.1239028E+04  0.7818609E-02  0.9079365E-01
        1   -1    0    0  501    0  0.00000000000E+00  0.00000000000E+00  0.25264931373E+03  0.25264931378E+03  0.50400001928E-02 0. -1.
       -1   -1    0    0    0  501  0.00000000000E+00  0.00000000000E+00 -0.15190929054E+04  0.15190929054E+04  0.50400001928E-02 0.  1.
    10030    2    1    2    0    0  0.00000000000E+00  0.00000000000E+00 -0.12664435917E+04  0.17717422192E+04  0.12390282968E+04 0.  0.
        5    1    3    3  502    0  0.60045494746E+03  0.72822072710E+02 -0.44176668517E+03  0.74901875299E+03  0.46999998093E+01 0. -1.
       -5    1    3    3    0  502 -0.60045494746E+03 -0.72822072710E+02 -0.82467690649E+03  0.10227234662E+04  0.46999998093E+01 0.  1.
</event>
<event>
 5   0  0.9027076E-04  0.1294302E+04  0.7818609E-02  0.9034096E-01
       -1   -1    0    0    0  501  0.00000000000E+00  0.00000000000E+00  0.21047167202E+03  0.21047167208E+03  0.50400001928E-02 0.  1.
        1   -1    0    0  501    0  0.00000000000E+00  0.00000000000E+00 -0.19898380441E+04  0.19898380441E+04  0.50400001928E-02 0. -1.
    10030    2    1    2    0    0  0.00000000000E+00  0.00000000000E+00 -0.17793663721E+04  0.22003097162E+04  0.12943021908E+04 0.  0.
        5    1    3    3  502    0  0.34818745128E+03  0.25634720675E+03 -0.17082172345E+04  0.17620943794E+04  0.46999998093E+01 0. -1.
       -5    1    3    3    0  502 -0.34818745128E+03 -0.25634720675E+03 -0.71149137585E+02  0.43821533680E+03  0.46999998093E+01 0.  1.
</event>
<event>
 5   0  0.1694675E-03  0.1305282E+04  0.7818609E-02  0.9025387E-01
       -2   -1    0    0    0  501  0.00000000000E+00  0.00000000000E+00  0.26365090814E+03  0.26365090815E+03  0.25500000920E-02 0.  1.
        2   -1    0    0  501    0  0.00000000000E+00  0.00000000000E+00 -0.16155474898E+04  0.16155474898E+04  0.25500000920E-02 0. -1.
    10030    2    1    2    0    0  0.00000000000E+00  0.00000000000E+00 -0.13518965816E+04  0.18791983979E+04  0.13052824412E+04 0.  0.
        4    1    3    3  502    0 -0.18396464871E+00  0.37556759768E+03  0.92483168280E+02  0.38678909445E+03  0.12699999809E+01 0.  1.
       -4    1    3    3    0  502  0.18396464871E+00 -0.37556759768E+03 -0.14443797499E+04  0.14924093035E+04  0.12699999809E+01 0. -1.
</event>
<event>
 5   0  0.9081324E-04  0.1308133E+04  0.7818609E-02  0.9023140E-01
        1   -1    0    0  501    0  0.00000000000E+00  0.00000000000E+00  0.13072654638E+04  0.13072654638E+04  0.50400001928E-02 0. -1.
       -1   -1    0    0    0  501  0.00000000000E+00  0.00000000000E+00 -0.32725043415E+03  0.32725043419E+03  0.50400001928E-02 0.  1.
    10030    2    1    2    0    0  0.00000000000E+00  0.00000000000E+00  0.98001502966E+03  0.16345158980E+04  0.13081333122E+04 0.  0.
        4    1    3    3  502    0 -0.36060040409E+03  0.38200668242E+03  0.31184898751E+01  0.52533141418E+03  0.12699999809E+01 0.  1.
       -4    1    3    3    0  502  0.36060040409E+03 -0.38200668242E+03  0.97689653978E+03  0.11091844838E+04  0.12699999809E+01 0. -1.
</event>
<event>
 5   0  0.1694675E-03  0.1297574E+04  0.7818609E-02  0.9031491E-01
        2   -1    0    0  501    0  0.00000000000E+00  0.00000000000E+00  0.77545320209E+03  0.77545320209E+03  0.25500000920E-02 0. -1.
       -2   -1    0    0    0  501  0.00000000000E+00  0.00000000000E+00 -0.54281096880E+03  0.54281096881E+03  0.25500000920E-02 0.  1.
    10030    2    1    2    0    0  0.00000000000E+00  0.00000000000E+00  0.23264223329E+03  0.13182641709E+04  0.12975738960E+04 0.  0.
        4    1    3    3  502    0 -0.60199888219E+02  0.30407521523E+03 -0.46271170200E+03  0.55694658193E+03  0.12699999809E+01 0.  1.
       -4    1    3    3    0  502  0.60199888219E+02 -0.30407521523E+03  0.69535393529E+03  0.76131758897E+03  0.12699999809E+01 0. -1.
</event>
<event>
 5   0  0.9215829E-04  0.1372715E+04  0.7818609E-02  0.8973809E-01
       -1   -1    0    0    0  501  0.00000000000E+00  0.00000000000E+00  0.36679849845E+03  0.36679849849E+03  0.50400001928E-02 0. -1.
        1   -1    0    0  501    0  0.00000000000E+00  0.00000000000E+00 -0.12843190295E+04  0.12843190295E+04  0.50400001928E-02 0.  1.
    10030    2    1    2    0    0  0.00000000000E+00  0.00000000000E+00 -0.91752053101E+03  0.16511175280E+04  0.13727145247E+04 0.  0.
        3    1    3    3  502    0 -0.24387894196E+03 -0.20866935838E+03 -0.11884880296E+04  0.12310660609E+04  0.10100000352E+00 0.  1.
       -3    1    3    3    0  502  0.24387894196E+03  0.20866935838E+03  0.27096749864E+03  0.42005146706E+03  0.10100000352E+00 0. -1.
</event>
<event>
 5   0  0.9081324E-04  0.1300843E+04  0.7818609E-02  0.9028897E-01
       -1   -1    0    0    0  501  0.00000000000E+00  0.00000000000E+00  0.34830804214E+03  0.34830804217E+03  0.50400001928E-02 0.  1.
        1   -1    0    0  501    0  0.00000000000E+00  0.00000000000E+00 -0.12145799108E+04  0.12145799109E+04  0.50400001928E-02 0. -1.
    10030    2    1    2    0    0  0.00000000000E+00  0.00000000000E+00 -0.86627186870E+03  0.15628879530E+04  0.13008427281E+04 0.  0.
        4    1    3    3  502    0 -0.29105509097E+03 -0.29484095930E+03 -0.10355394308E+04  0.11153420026E+04  0.12699999809E+01 0. -1.
       -4    1    3    3    0  502  0.29105509097E+03  0.29484095930E+03  0.16926756206E+03  0.44754595040E+03  0.12699999809E+01 0.  1.
</event>
<event>
 5   0  0.9110949E-04  0.1318695E+04  0.7818609E-02  0.9014870E-01
        1   -1    0    0  501    0  0.00000000000E+00  0.00000000000E+00  0.44263587885E+03  0.44263587888E+03  0.50400001928E-02 0.  1.
       -1   -1    0    0    0  501  0.00000000000E+00  0.00000000000E+00 -0.98215927453E+03  0.98215927455E+03  0.50400001928E-02 0. -1.
    10030    2    1    2    0    0  0.00000000000E+00  0.00000000000E+00 -0.53952339569E+03  0.14247951534E+04  0.13186947087E+04 0.  0.
        2    1    3    3  502    0  0.41340217979E+03 -0.99564499697E+02 -0.81421477038E+03  0.91856417532E+03  0.25500000920E-02 0. -1.
       -2    1    3    3    0  502 -0.41340217979E+03  0.99564499697E+02  0.27469137469E+03  0.50623097811E+03  0.25500000920E-02 0.  1.
</event>
<event>
 5   0  0.1714861E-03  0.1293094E+04  0.7818609E-02  0.9035060E-01
        2   -1    0    0  501    0  0.00000000000E+00  0.00000000000E+00  0.86585077907E+03  0.86585077907E+03  0.25500000920E-02 0.  1.
       -2   -1    0    0    0  501  0.00000000000E+00  0.00000000000E+00 -0.48278876648E+03  0.48278876649E+03  0.25500000920E-02 0. -1.
    10030    2    1    2    0    0  0.00000000000E+00  0.00000000000E+00  0.38306201259E+03  0.13486395456E+04  0.12930940099E+04 0.  0.
        1    1    3    3  502    0 -0.18271238094E+03 -0.53210983658E+03 -0.14074214784E+03  0.57994227690E+03  0.50400001928E-02 0. -1.
       -1    1    3    3    0  502  0.18271238094E+03  0.53210983658E+03  0.52380416043E+03  0.76869726866E+03  0.50400001928E-02 0.  1.
</event>
<event>
 5   0  0.9098192E-04  0.1315481E+04  0.7818609E-02  0.9017378E-01
        1   -1    0    0  501    0  0.00000000000E+00  0.00000000000E+00  0.35641358206E+03  0.35641358209E+03  0.50400001928E-02 0.  1.
       -1   -1    0    0    0  501  0.00000000000E+00  0.00000000000E+00 -0.12138225774E+04  0.12138225775E+04  0.50400001928E-02 0. -1.
    10030    2    1    2    0    0  0.00000000000E+00  0.00000000000E+00 -0.85740899539E+03  0.15702361596E+04  0.13154814371E+04 0.  0.
        1    1    3    3  502    0 -0.26711548398E+03 -0.56836172714E+03 -0.19529268758E+03  0.65766630482E+03  0.50400001928E-02 0.  1.
       -1    1    3    3    0  502  0.26711548398E+03  0.56836172714E+03 -0.66211630781E+03  0.91256985473E+03  0.50400001928E-02 0. -1.
</event>
<event>
 5   0  0.1623890E-03  0.1292465E+04  0.7818609E-02  0.9035562E-01
        2   -1    0    0  501    0  0.00000000000E+00  0.00000000000E+00  0.97927547861E+03  0.97927547861E+03  0.25500000920E-02 0. -1.
       -2   -1    0    0    0  501  0.00000000000E+00  0.00000000000E+00 -0.42645458850E+03  0.42645458851E+03  0.25500000920E-02 0.  1.
    10030    2    1    2    0    0  0.00000000000E+00  0.00000000000E+00  0.55282089011E+03  0.14057300671E+04  0.12924651195E+04 0.  0.
        3    1    3    3  502    0  0.62441416444E+02  0.63932783244E+03  0.19967626118E+03  0.67268835824E+03  0.10100000352E+00 0.  1.
       -3    1    3    3    0  502 -0.62441416444E+02 -0.63932783244E+03  0.35314462893E+03  0.73304170889E+03  0.10100000352E+00 0. -1.
</event>
<event>
 5   0  0.1700511E-03  0.1278219E+04  0.7818609E-02  0.9047019E-01
        2   -1    0    0  501    0  0.00000000000E+00  0.00000000000E+00  0.36984451267E+03  0.36984451268E+03  0.25500000920E-02 0.  1.
       -2   -1    0    0    0  501  0.00000000000E+00  0.00000000000E+00 -0.11044118391E+04  0.11044118391E+04  0.25500000920E-02 0. -1.
    10030    2    1    2    0    0  0.00000000000E+00  0.00000000000E+00 -0.73456732639E+03  0.14742563517E+04  0.12782185391E+04 0.  0.
        2    1    3    3  502    0  0.43438011704E+03  0.28142171562E+03 -0.79972190116E+03  0.95259613022E+03  0.25500000920E-02 0. -1.
       -2    1    3    3    0  502 -0.43438011704E+03 -0.28142171562E+03  0.65154574766E+02  0.52166022153E+03  0.25500000920E-02 0.  1.
</event>
<event>
 5   0  0.1694675E-03  0.1292909E+04  0.7818609E-02  0.9035207E-01
       -2   -1    0    0    0  501  0.00000000000E+00  0.00000000000E+00  0.41436162773E+03  0.41436162773E+03  0.25500000920E-02 0.  1.
        2   -1    0    0  501    0  0.00000000000E+00  0.00000000000E+00 -0.10085474056E+04  0.10085474056E+04  0.25500000920E-02 0. -1.
    10030    2    1    2    0    0  0.00000000000E+00  0.00000000000E+00 -0.59418577787E+03  0.14229090333E+04  0.12929088825E+04 0.  0.
        4    1    3    3  502    0  0.75709568698E+02 -0.38672285891E+03  0.26689420546E+03  0.47594184330E+03  0.12699999809E+01 0.  1.
       -4    1    3    3    0  502 -0.75709568698E+02  0.38672285891E+03 -0.86107998333E+03  0.94696719003E+03  0.12699999809E+01 0. -1.
</event>
<event>
 5   0  0.9081324E-04  0.1265463E+04  0.7818609E-02  0.9057411E-01
       -1   -1    0    0    0  501  0.00000000000E+00  0.00000000000E+00  0.14586147891E+04  0.14586147891E+04  0.50400001928E-02 0.  1.
        1   -1    0    0  501    0  0.00000000000E+00  0.00000000000E+00 -0.27447198160E+03  0.27447198165E+03  0.50400001928E-02 0. -1.
    10030    2    1    2    0    0  0.00000000000E+00  0.00000000000E+00  0.11841428075E+04  0.17330867707E+04  0.12654625899E+04 0.  0.
        4    1    3    3  502    0 -0.32600994356E+03  0.13329734393E+03 -0.12780639039E+03  0.37468220070E+03  0.12699999809E+01 0. -1.
       -4    1    3    3    0  502  0.32600994356E+03 -0.13329734393E+03  0.13119491978E+04  0.13584045700E+04  0.12699999809E+01 0.  1.
</event>
<event>
 5   0  0.9098192E-04  0.1287312E+04  0.7818609E-02  0.9039688E-01
        1   -1    0    0  501    0  0.00000000000E+00  0.00000000000E+00  0.78907604249E+03  0.78907604250E+03  0.50400001928E-02 0.  1.
       -1   -1    0    0    0  501  0.00000000000E+00  0.00000000000E+00 -0.52503541395E+03  0.52503541397E+03  0.50400001928E-02 0. -1.
    10030    2    1    2    0    0  0.00000000000E+00  0.00000000000E+00  0.26404062854E+03  0.13141114565E+04  0.12873117208E+04 0.  0.
        1    1    3    3  502    0 -0.42142576781E+03  0.46956773784E+03  0.26194658798E+03  0.68316144005E+03  0.50400001928E-02 0.  1.
       -1    1    3    3    0  502  0.42142576781E+03 -0.46956773784E+03  0.20940405591E+01  0.63095001642E+03  0.50400001928E-02 0. -1.
</event>
<event>
 5   0  0.1694675E-03  0.1295127E+04  0.7818609E-02  0.9033438E-01
       -2   -1    0    0    0  501  0.00000000000E+00  0.00000000000E+00  0.19852729732E+03  0.19852729734E+03  0.25500000920E-02 0. -1.
        2   -1    0    0  501    0  0.00000000000E+00  0.00000000000E+00 -0.21122475174E+04  0.21122475174E+04  0.25500000920E-02 0.  1.
    10030    2    1    2    0    0  0.00000000000E+00  0.00000000000E+00 -0.19137202200E+04  0.23107748147E+04  0.12951274701E+04 0.  0.
        4    1    3    3  502    0 -0.20992679102E+03 -0.29810571940E+03 -0.20163812822E+01  0.36461206264E+03  0.12699999809E+01 0. -1.
       -4    1    3    3    0  502  0.20992679102E+03  0.29810571940E+03 -0.19117038388E+04  0.19461627521E+04  0.12699999809E+01 0.  1.
</event>
<event>
 5   0  0.1667342E-03  0.1308067E+04  0.7818609E-02  0.9023192E-01
       -2   -1    0    0    0  501  0.00000000000E+00  0.00000000000E+00  0.26703153417E+03  0.26703153418E+03  0.25500000920E-02 0.  1.
        2   -1    0    0  501    0  0.00000000000E+00  0.00000000000E+00 -0.16019076335E+04  0.16019076335E+04  0.25500000920E-02 0. -1.
    10030    2    1    2    0    0  0.00000000000E+00  0.00000000000E+00 -0.13348760993E+04  0.18689391677E+04  0.13080670518E+04 0.  0.
        5    1    3    3  502    0  0.23663396409E+03  0.21966819550E+02 -0.15380086543E+04  0.15562682560E+04  0.46999998093E+01 0. -1.
       -5    1    3    3    0  502 -0.23663396409E+03 -0.21966819550E+02  0.20313255494E+03  0.31267091166E+03  0.46999998093E+01 0.  1.
</event>
<event>
 5   0  0.9110949E-04  0.1288682E+04  0.7818609E-02  0.9038589E-01
        1   -1    0    0  501    0  0.00000000000E+00  0.00000000000E+00  0.58208133811E+03  0.58208133814E+03  0.50400001928E-02 0.  1.
       -1   -1    0    0    0  501  0.00000000000E+00  0.00000000000E+00 -0.71326022967E+03  0.71326022969E+03  0.50400001928E-02 0. -1.
    10030    2    1    2    0    0  0.00000000000E+00  0.00000000000E+00 -0.13117889156E+03  0.12953415678E+04  0.12886822245E+04 0.  0.
        2    1    3    3  502    0  0.47070743249E+03 -0.34004422417E+03  0.21510241669E+03  0.61924519463E+03  0.25500000920E-02 0.  1.
       -2    1    3    3    0  502 -0.47070743249E+03  0.34004422417E+03 -0.34628130825E+03  0.67609637320E+03  0.25500000920E-02 0. -1.
</event>
<event>
 5   0  0.6284125E-04  0.1289011E+04  0.7818609E-02  0.9038325E-01
        3   -1    0    0  501    0  0.00000000000E+00  0.00000000000E+00  0.32808888630E+03  0.32808890185E+03  0.10100000352E+00 0.  1.
       -3   -1    0    0    0  501  0.00000000000E+00  0.00000000000E+00 -0.12660815612E+04  0.12660815652E+04  0.10100000352E+00 0. -1.
    10030    2    1    2    0    0  0.00000000000E+00  0.00000000000E+00 -0.93799267489E+03  0.15941704671E+04  0.12890109464E+04 0.  0.
        3    1    3    3  502    0  0.41246887332E+03 -0.14056101485E+03 -0.10562838633E+04  0.11426388671E+04  0.10100000352E+00 0. -1.
       -3    1    3    3    0  502 -0.41246887332E+03  0.14056101485E+03  0.11829118845E+03  0.45153160002E+03  0.10100000352E+00 0.  1.
</event>
<event>
 5   0  0.9215829E-04  0.1302969E+04  0.7818609E-02  0.9027214E-01
        1   -1    0    0  501    0  0.00000000000E+00  0.00000000000E+00  0.21385009010E+04  0.21385009010E+04  0.50400001928E-02 0.  1.
       -1   -1    0    0    0  501  0.00000000000E+00  0.00000000000E+00 -0.19847176033E+03  0.19847176040E+03  0.50400001928E-02 0. -1.
    10030    2    1    2    0    0  0.00000000000E+00  0.00000000000E+00  0.19400291406E+04  0.23369726614E+04  0.13029689764E+04 0.  0.
        3    1    3    3  502    0  0.42654677473E+03 -0.33814787056E+02  0.18511446002E+04  0.18999531394E+04  0.10100000352E+00 0.  1.
       -3    1    3    3    0  502 -0.42654677473E+03  0.33814787056E+02  0.88884540444E+02  0.43701952198E+03  0.10100000352E+00 0. -1.
</event>
<event>
 5   0  0.1700511E-03  0.1275883E+04  0.7818609E-02  0.9048912E-01
        2   -1    0    0  501    0  0.00000000000E+00  0.00000000000E+00  0.79835492803E+03  0.79835492803E+03  0.25500000920E-02 0.  1.
       -2   -1    0    0    0  501  0.00000000000E+00  0.00000000000E+00 -0.50976010072E+03  0.50976010072E+03  0.25500000920E-02 0. -1.
    10030    2    1    2    0    0  0.00000000000E+00  0.00000000000E+00  0.28859482731E+03  0.13081150288E+04  0.12758832055E+04 0.  0.
        2    1    3    3  502    0  0.62697208690E+03 -0.33259419892E+02  0.26015342946E+03  0.67961753482E+03  0.25500000920E-02 0. -1.
       -2    1    3    3    0  502 -0.62697208690E+03  0.33259419892E+02  0.28441397850E+02  0.62849749394E+03  0.25500000920E-02 0.  1.
</event>
<event>
 5   0  0.1694675E-03  0.1310938E+04  0.7818609E-02  0.9020936E-01
        2   -1    0    0  501    0  0.00000000000E+00  0.00000000000E+00  0.15010446352E+04  0.15010446352E+04  0.25500000920E-02 0. -1.
       -2   -1    0    0    0  501  0.00000000000E+00  0.00000000000E+00 -0.28622689898E+03  0.28622689899E+03  0.25500000920E-02 0.  1.
    10030    2    1    2    0    0  0.00000000000E+00  0.00000000000E+00  0.12148177362E+04  0.17872715342E+04  0.13109376052E+04 0.  0.
        4    1    3    3  502    0  0.59579048892E+03 -0.20981305959E+03  0.36872496564E+03  0.73140108001E+03  0.12699999809E+01 0.  1.
       -4    1    3    3    0  502 -0.59579048892E+03  0.20981305959E+03  0.84609277055E+03  0.10558704541E+04  0.12699999809E+01 0. -1.
</event>
<event>
 5   0  0.9098192E-04  0.1273450E+04  0.7818609E-02  0.9050889E-01
        1   -1    0    0  501    0  0.00000000000E+00  0.00000000000E+00  0.23861615442E+04  0.23861615442E+04  0.50400001928E-02 0. -1.
       -1   -1    0    0    0  501  0.00000000000E+00  0.00000000000E+00 -0.16990409031E+03  0.16990409038E+03  0.50400001928E-02 0.  1.
    10030    2    1    2    0    0  0.00000000000E+00  0.00000000000E+00  0.22162574539E+04  0.25560656346E+04  0.12734498131E+04 0.  0.
        1    1    3    3  502    0 -0.19983936878E+03 -0.44645572716E+03  0.28993986706E+03  0.56861552578E+03  0.50400001928E-02 0.  1.
       -1    1    3    3    0  502  0.19983936878E+03  0.44645572716E+03  0.19263175869E+04  0.19874501088E+04  0.50400001928E-02 0. -1.
</event>
<event>
 5   0  0.9098192E-04  0.1305368E+04  0.7818609E-02  0.9025319E-01
       -1   -1    0    0    0  501  0.00000000000E+00  0.00000000000E+00  0.29070478627E+03  0.29070478631E+03  0.50400001928E-02 0. -1.
        1   -1    0    0  501    0  0.00000000000E+00  0.00000000000E+00 -0.14653926494E+04  0.14653926494E+04  0.50400001928E-02 0.  1.
    10030    2    1    2    0    0  0.00000000000E+00  0.00000000000E+00 -0.11746878631E+04  0.17560974357E+04  0.13053683878E+04 0.  0.
        1    1    3    3  502    0 -0.37770469039E+03 -0.26670933373E+03  0.32368499677E+02  0.46351097251E+03  0.50400001928E-02 0. -1.
       -1    1    3    3    0  502  0.37770469039E+03  0.26670933373E+03 -0.12070563628E+04  0.12925864632E+04  0.50400001928E-02 0.  1.
</event>
<event>
 5   0  0.1623890E-03  0.1306437E+04  0.7818609E-02  0.9024476E-01
        2   -1    0    0  501    0  0.00000000000E+00  0.00000000000E+00  0.14115915383E+04  0.14115915383E+04  0.25500000920E-02 0. -1.
       -2   -1    0    0    0  501  0.00000000000E+00  0.00000000000E+00 -0.30227900901E+03  0.30227900903E+03  0.25500000920E-02 0.  1.
    10030    2    1    2    0    0  0.00000000000E+00  0.00000000000E+00  0.11093125293E+04  0.17138705473E+04  0.13064371265E+04 0.  0.
        3    1    3    3  502    0 -0.34126841870E+03 -0.38131224179E+03  0.22046195707E+02  0.51220035561E+03  0.10100000352E+00 0.  1.
       -3    1    3    3    0  502  0.34126841870E+03  0.38131224179E+03  0.10872663336E+04  0.12016701917E+04  0.10100000352E+00 0. -1.
</event>
<event>
 5   0  0.9081324E-04  0.1297087E+04  0.7818609E-02  0.9031878E-01
        1   -1    0    0  501    0  0.00000000000E+00  0.00000000000E+00  0.98641365325E+03  0.98641365326E+03  0.50400001928E-02 0. -1.
       -1   -1    0    0    0  501  0.00000000000E+00  0.00000000000E+00 -0.42640222168E+03  0.42640222171E+03  0.50400001928E-02 0.  1.
    10030    2    1    2    0    0  0.00000000000E+00  0.00000000000E+00  0.56001143157E+03  0.14128158750E+04  0.12970874655E+04 0.  0.
        4    1    3    3  502    0  0.50045353725E+03 -0.39888369480E+03  0.16553159109E+03  0.66103272647E+03  0.12699999809E+01 0. -1.
       -4    1    3    3    0  502 -0.50045353725E+03  0.39888369480E+03  0.39447984048E+03  0.75178314850E+03  0.12699999809E+01 0.  1.
</event>
<event>
 5   0  0.9098192E-04  0.1318009E+04  0.7818609E-02  0.9015404E-01
        1   -1    0    0  501    0  0.00000000000E+00  0.00000000000E+00  0.59212266428E+03  0.59212266430E+03  0.50400001928E-02 0.  1.
       -1   -1    0    0    0  501  0.00000000000E+00  0.00000000000E+00 -0.73344090686E+03  0.73344090688E+03  0.50400001928E-02 0. -1.
    10030    2    1    2    0    0  0.00000000000E+00  0.00000000000E+00 -0.14131824258E+03  0.13255635712E+04  0.13180090802E+04 0.  0.
        1    1    3    3  502    0  0.14821906703E+03  0.34545326756E+03 -0.61503797060E+03  0.72081797786E+03  0.50400001928E-02 0. -1.
       -1    1    3    3    0  502 -0.14821906703E+03 -0.34545326756E+03  0.47371972802E+03  0.60474559332E+03  0.50400001928E-02 0.  1.
</event>
<event>
 5   0  0.9098192E-04  0.1313034E+04  0.7818609E-02  0.9019292E-01
        1   -1    0    0  501    0  0.00000000000E+00  0.00000000000E+00  0.11439351093E+04  0.11439351093E+04  0.50400001928E-02 0.  1.
       -1   -1    0    0    0  501  0.00000000000E+00  0.00000000000E+00 -0.37678251938E+03  0.37678251942E+03  0.50400001928E-02 0. -1.
    10030    2    1    2    0    0  0.00000000000E+00  0.00000000000E+00  0.76715258993E+03  0.15207176287E+04  0.13130342761E+04 0.  0.
        1    1    3    3  502    0 -0.17104145315E+03  0.17204003159E+03 -0.32296640692E+03  0.40393099805E+03  0.50400001928E-02 0. -1.
       -1    1    3    3    0  502  0.17104145315E+03 -0.17204003159E+03  0.10901189969E+04  0.11167866307E+04  0.50400001928E-02 0.  1.
</event>
<event>
 5   0  0.9215829E-04  0.1301310E+04  0.7818609E-02  0.9028527E-01
        1   -1    0    0  501    0  0.00000000000E+00  0.00000000000E+00  0.13439744375E+04  0.13439744375E+04  0.50400001928E-02 0.  1.
       -1   -1    0    0    0  501  0.00000000000E+00  0.00000000000E+00 -0.31499988802E+03  0.31499988806E+03  0.50400001928E-02 0. -1.
    10030    2    1    2    0    0  0.00000000000E+00  0.00000000000E+00  0.10289745495E+04  0.16589743256E+04  0.13013097976E+04 0.  0.
        3    1    3    3  502    0  0.45642115328E+03  0.66103592088E+02 -0.70642091354E+02  0.46656218162E+03  0.10100000352E+00 0. -1.
       -3    1    3    3    0  502 -0.45642115328E+03 -0.66103592088E+02  0.10996166408E+04  0.11924121439E+04  0.10100000352E+00 0.  1.
</event>
<event>
 5   0  0.6284125E-04  0.1426137E+04  0.7818609E-02  0.8935114E-01
       -4   -1    0    0    0  501  0.00000000000E+00  0.00000000000E+00  0.67933326685E+03  0.67933445397E+03  0.12699999809E+01 0.  1.
        4   -1    0    0  501    0  0.00000000000E+00  0.00000000000E+00 -0.74847653229E+03  0.74847760975E+03  0.12699999809E+01 0. -1.
    10030    2    1    2    0    0  0.00000000000E+00  0.00000000000E+00 -0.69143265446E+02  0.14278120637E+04  0.14261369142E+04 0.  0.
        2    1    3    3  502    0 -0.74713055333E+02 -0.29755816250E+02  0.67477959956E+03  0.67955496998E+03  0.25500000920E-02 0.  1.
       -2    1    3    3    0  502  0.74713055333E+02  0.29755816250E+02 -0.74392286501E+03  0.74825709373E+03  0.25500000920E-02 0. -1.
</event>
<event>
 5   0  0.9081324E-04  0.1300231E+04  0.7818609E-02  0.9029382E-01
       -1   -1    0    0    0  501  0.00000000000E+00  0.00000000000E+00  0.67520965354E+03  0.67520965355E+03  0.50400001928E-02 0. -1.
        1   -1    0    0  501    0  0.00000000000E+00  0.00000000000E+00 -0.62595374634E+03  0.62595374636E+03  0.50400001928E-02 0.  1.
    10030    2    1    2    0    0  0.00000000000E+00  0.00000000000E+00  0.49255907200E+02  0.13011633999E+04  0.13002307675E+04 0.  0.
        4    1    3    3  502    0  0.39818452528E+03  0.44783884025E+03 -0.22762001595E+03  0.64103278198E+03  0.12699999809E+01 0.  1.
       -4    1    3    3    0  502 -0.39818452528E+03 -0.44783884025E+03  0.27687592315E+03  0.66013061793E+03  0.12699999809E+01 0. -1.
</event>
<event>
 5   0  0.9098192E-04  0.1296202E+04  0.7818609E-02  0.9032583E-01
        1   -1    0    0  501    0  0.00000000000E+00  0.00000000000E+00  0.22045990354E+04  0.22045990354E+04  0.50400001928E-02 0. -1.
       -1   -1    0    0    0  501  0.00000000000E+00  0.00000000000E+00 -0.19052658341E+03  0.19052658348E+03  0.50400001928E-02 0.  1.
    10030    2    1    2    0    0  0.00000000000E+00  0.00000000000E+00  0.20140724520E+04  0.23951256189E+04  0.12962017159E+04 0.  0.
        1    1    3    3  502    0  0.36606479413E+03  0.95436494185E+02  0.34657728289E+02  0.37988513538E+03  0.50400001928E-02 0.  1.
       -1    1    3    3    0  502 -0.36606479413E+03 -0.95436494185E+02  0.19794147237E+04  0.20152404835E+04  0.50400001928E-02 0. -1.
</event>
<event>
 5   0  0.9098192E-04  0.1287643E+04  0.7818609E-02  0.9039422E-01
        1   -1    0    0  501    0  0.00000000000E+00  0.00000000000E+00  0.13965052984E+04  0.13965052984E+04  0.50400001928E-02 0.  1.
       -1   -1    0    0    0  501  0.00000000000E+00  0.00000000000E+00 -0.29681665170E+03  0.29681665174E+03  0.50400001928E-02 0. -1.
    10030    2    1    2    0    0  0.00000000000E+00  0.00000000000E+00  0.10996886467E+04  0.16933219501E+04  0.12876428492E+04 0.  0.
        1    1    3    3  502    0 -0.23968438481E+03 -0.28290924103E+03  0.12419931877E+04  0.12961609936E+04  0.50400001928E-02 0.  1.
       -1    1    3    3    0  502  0.23968438481E+03  0.28290924103E+03 -0.14230454102E+03  0.39716095654E+03  0.50400001928E-02 0. -1.
</event>
<event>
 5   0  0.1667342E-03  0.1212839E+04  0.7818609E-02  0.9101693E-01
        2   -1    0    0  501    0  0.00000000000E+00  0.00000000000E+00  0.74500482796E+03  0.74500482797E+03  0.25500000920E-02 0.  1.
       -2   -1    0    0    0  501  0.00000000000E+00  0.00000000000E+00 -0.49361340571E+03  0.49361340571E+03  0.25500000920E-02 0. -1.
    10030    2    1    2    0    0  0.00000000000E+00  0.00000000000E+00  0.25139142226E+03  0.12386182337E+04  0.12128386049E+04 0.  0.
        5    1    3    3  502    0  0.28578528286E+02  0.81667248263E+02  0.73864990071E+03  0.74371502441E+03  0.46999998093E+01 0.  1.
       -5    1    3    3    0  502 -0.28578528286E+02 -0.81667248263E+02 -0.48725847846E+03  0.49490320927E+03  0.46999998093E+01 0. -1.
</event>
<event>
 5   0  0.1694675E-03  0.1294525E+04  0.7818609E-02  0.9033919E-01
        2   -1    0    0  501    0  0.00000000000E+00  0.00000000000E+00  0.13436723995E+04  0.13436723995E+04  0.25500000920E-02 0.  1.
       -2   -1    0    0    0  501  0.00000000000E+00  0.00000000000E+00 -0.31179360386E+03  0.31179360387E+03  0.25500000920E-02 0. -1.
    10030    2    1    2    0    0  0.00000000000E+00  0.00000000000E+00  0.10318787956E+04  0.16554660033E+04  0.12945245611E+04 0.  0.
        4    1    3    3  502    0  0.42452503122E+03 -0.42726912018E+03  0.21286556925E+03  0.63882217139E+03  0.12699999809E+01 0. -1.
       -4    1    3    3    0  502 -0.42452503122E+03  0.42726912018E+03  0.81901322636E+03  0.10166438320E+04  0.12699999809E+01 0.  1.
</event>
<event>
 5   0  0.9027076E-04  0.1312666E+04  0.7818609E-02  0.9019581E-01
       -1   -1    0    0    0  501  0.00000000000E+00  0.00000000000E+00  0.28588996811E+03  0.28588996815E+03  0.50400001928E-02 0.  1.
        1   -1    0    0  501    0  0.00000000000E+00  0.00000000000E+00 -0.15067780240E+04  0.15067780241E+04  0.50400001928E-02 0. -1.
    10030    2    1    2    0    0  0.00000000000E+00  0.00000000000E+00 -0.12208880559E+04  0.17926679922E+04  0.13126655649E+04 0.  0.
        5    1    3    3  502    0 -0.38307895962E+01 -0.41053907181E+03  0.88845198367E+02  0.42008637647E+03  0.46999998093E+01 0.  1.
       -5    1    3    3    0  502  0.38307895962E+01  0.41053907181E+03 -0.13097332543E+04  0.13725816157E+04  0.46999998093E+01 0. -1.
</event>
<event>
 5   0  0.1694675E-03  0.1314833E+04  0.7818609E-02  0.9017885E-01
       -2   -1    0    0    0  501  0.00000000000E+00  0.00000000000E+00  0.70307641748E+03  0.70307641748E+03  0.25500000920E-02 0.  1.
        2   -1    0    0  501    0  0.00000000000E+00  0.00000000000E+00 -0.61472183653E+03  0.61472183653E+03  0.25500000920E-02 0. -1.
    10030    2    1    2    0    0  0.00000000000E+00  0.00000000000E+00  0.88354580947E+02  0.13177982540E+04  0.13148329576E+04 0.  0.
        4    1    3    3  502    0  0.32910896862E+02  0.30921770376E+03 -0.53634925474E+03  0.61997649262E+03  0.12699999809E+01 0. -1.
       -4    1    3    3    0  502 -0.32910896862E+02 -0.30921770376E+03  0.62470383569E+03  0.69782176139E+03  0.12699999809E+01 0.  1.
</event>
<event>
 5   0  0.9215829E-04  0.1360830E+04  0.7818609E-02  0.8982670E-01
        1   -1    0    0  501    0  0.00000000000E+00  0.00000000000E+00  0.68942217935E+03  0.68942217936E+03  0.50400001928E-02 0. -1.
       -1   -1    0    0    0  501  0.00000000000E+00  0.00000000000E+00 -0.67152510119E+03  0.67152510120E+03  0.50400001928E-02 0.  1.
    10030    2    1    2    0    0  0.00000000000E+00  0.00000000000E+00  0.17897078161E+02  0.13609472806E+04  0.13608295981E+04 0.  0.
        3    1    3    3  502    0 -0.55990616852E+03 -0.18571830572E+03 -0.33016496561E+03  0.67601414286E+03  0.10100000352E+00 0.  1.
       -3    1    3    3    0  502  0.55990616852E+03  0.18571830572E+03  0.34806204377E+03  0.68493313771E+03  0.10100000352E+00 0. -1.
</event>
<event>
 5   0  0.1700511E-03  0.1291907E+04  0.7818609E-02  0.9036007E-01
       -2   -1    0    0    0  501  0.00000000000E+00  0.00000000000E+00  0.59227553280E+03  0.59227553280E+03  0.25500000920E-02 0.  1.
        2   -1    0    0  501    0  0.00000000000E+00  0.00000000000E+00 -0.70449677526E+03  0.70449677526E+03  0.25500000920E-02 0. -1.
    10030    2    1    2    0    0  0.00000000000E+00  0.00000000000E+00 -0.11222124246E+03  0.12967723081E+04  0.12919074316E+04 0.  0.
        2    1    3    3  502    0 -0.45978583123E+03  0.61631392616E+02  0.39508708004E+03  0.60934000359E+03  0.25500000920E-02 0.  1.
       -2    1    3    3    0  502  0.45978583123E+03 -0.61631392616E+02 -0.50730832250E+03  0.68743230447E+03  0.25500000920E-02 0. -1.
</event>
<event>
 5   0  0.1714861E-03  0.1295059E+04  0.7818609E-02  0.9033493E-01
        2   -1    0    0  501    0  0.00000000000E+00  0.00000000000E+00  0.27721302598E+04  0.27721302598E+04  0.25500000920E-02 0. -1.
       -2   -1    0    0    0  501  0.00000000000E+00  0.00000000000E+00 -0.15125354774E+03  0.15125354776E+03  0.25500000920E-02 0.  1.
    10030    2    1    2    0    0  0.00000000000E+00  0.00000000000E+00  0.26208767121E+04  0.29233838076E+04  0.12950591286E+04 0.  0.
        1    1    3    3  502    0 -0.42631979169E+03  0.27840097843E+03  0.40739422655E+03  0.65209334105E+03  0.50400001928E-02 0.  1.
       -1    1    3    3    0  502  0.42631979169E+03 -0.27840097843E+03  0.22134824856E+04  0.22712904666E+04  0.50400001928E-02 0. -1.
</event>
<event>
 5   0  0.9081324E-04  0.1279062E+04  0.7818609E-02  0.9046336E-01
        1   -1    0    0  501    0  0.00000000000E+00  0.00000000000E+00  0.12803363084E+04  0.12803363084E+04  0.50400001928E-02 0.  1.
       -1   -1    0    0    0  501  0.00000000000E+00  0.00000000000E+00 -0.31944720466E+03  0.31944720470E+03  0.50400001928E-02 0. -1.
    10030    2    1    2    0    0  0.00000000000E+00  0.00000000000E+00  0.96088910375E+03  0.15997835131E+04  0.12790619294E+04 0.  0.
        4    1    3    3  502    0 -0.34998075430E+03 -0.26822287179E+03 -0.98920544532E+02  0.45190366713E+03  0.12699999809E+01 0. -1.
       -4    1    3    3    0  502  0.34998075430E+03  0.26822287179E+03  0.10598096483E+04  0.11478798460E+04  0.12699999809E+01 0.  1.
</event>
<event>
 5   0  0.1714861E-03  0.1297467E+04  0.7818609E-02  0.9031576E-01
        2   -1    0    0  501    0  0.00000000000E+00  0.00000000000E+00  0.51398489944E+03  0.51398489944E+03  0.25500000920E-02 0.  1.
       -2   -1    0    0    0  501  0.00000000000E+00  0.00000000000E+00 -0.81880862280E+03  0.81880862281E+03  0.25500000920E-02 0. -1.
    10030    2    1    2    0    0  0.00000000000E+00  0.00000000000E+00 -0.30482372337E+03  0.13327935223E+04  0.12974671752E+04 0.  0.
        1    1    3    3  502    0  0.65425278266E+02 -0.56747555715E+03 -0.46826758144E+03  0.73863624529E+03  0.50400001928E-02 0. -1.
       -1    1    3    3    0  502 -0.65425278266E+02  0.56747555715E+03  0.16344385808E+03  0.59415727696E+03  0.50400001928E-02 0.  1.
</event>
<event>
 5   0  0.9110949E-04  0.1304132E+04  0.7818609E-02  0.9026295E-01
       -1   -1    0    0    0  501  0.00000000000E+00  0.00000000000E+00  0.30723858274E+03  0.30723858278E+03  0.50400001928E-02 0. -1.
        1   -1    0    0  501    0  0.00000000000E+00  0.00000000000E+00 -0.13839074118E+04  0.13839074118E+04  0.50400001928E-02 0.  1.
    10030    2    1    2    0    0  0.00000000000E+00  0.00000000000E+00 -0.10766688290E+04  0.16911459945E+04  0.13041315146E+04 0.  0.
        2    1    3    3  502    0  0.30825759506E+03  0.60843843125E+02  0.20259706671E+03  0.37385864923E+03  0.25500000920E-02 0. -1.
       -2    1    3    3    0  502 -0.30825759506E+03 -0.60843843125E+02 -0.12792658957E+04  0.13172873453E+04  0.25500000920E-02 0.  1.
</event>
<event>
 5   0  0.1694675E-03  0.1304336E+04  0.7818609E-02  0.9026134E-01
       -2   -1    0    0    0  501  0.00000000000E+00  0.00000000000E+00  0.10543869002E+04  0.10543869002E+04  0.25500000920E-02 0.  1.
        2   -1    0    0  501    0  0.00000000000E+00  0.00000000000E+00 -0.40338406792E+03  0.40338406793E+03  0.25500000920E-02 0. -1.
    10030    2    1    2    0    0  0.00000000000E+00  0.00000000000E+00  0.65100283232E+03  0.14577709682E+04  0.13043356577E+04 0.  0.
        4    1    3    3  502    0  0.14995024446E+02  0.29109102240E+03 -0.32653332734E+03  0.43770362215E+03  0.12699999809E+01 0. -1.
       -4    1    3    3    0  502 -0.14995024446E+02 -0.29109102240E+03  0.97753615966E+03  0.10200673460E+04  0.12699999809E+01 0.  1.
</event>
<event>
 5   0  0.1623890E-03  0.1260123E+04  0.7818609E-02  0.9061800E-01
       -2   -1    0    0    0  501  0.00000000000E+00  0.00000000000E+00  0.96638134287E+03  0.96638134288E+03  0.25500000920E-02 0.  1.
        2   -1    0    0  501    0  0.00000000000E+00  0.00000000000E+00 -0.41078740564E+03  0.41078740565E+03  0.25500000920E-02 0. -1.
    10030    2    1    2    0    0  0.00000000000E+00  0.00000000000E+00  0.55559393723E+03  0.13771687485E+04  0.12601226682E+04 0.  0.
        3    1    3    3  502    0  0.35778213025E+03 -0.49186005307E+03  0.45751888711E+03  0.76108994659E+03  0.10100000352E+00 0.  1.
       -3    1    3    3    0  502 -0.35778213025E+03  0.49186005307E+03  0.98075050122E+02  0.61607880194E+03  0.10100000352E+00 0. -1.
</event>
<event>
 5   0  0.9110949E-04  0.1300668E+04  0.7818609E-02  0.9029036E-01
        1   -1    0    0  501    0  0.00000000000E+00  0.00000000000E+00  0.11844456865E+04  0.11844456865E+04  0.50400001928E-02 0. -1.
       -1   -1    0    0    0  501  0.00000000000E+00  0.00000000000E+00 -0.35707347754E+03  0.35707347758E+03  0.50400001928E-02 0.  1.
    10030    2    1    2    0    0  0.00000000000E+00  0.00000000000E+00  0.82737220895E+03  0.15415191641E+04  0.13006677366E+04 0.  0.
        2    1    3    3  502    0 -0.47157383469E+03  0.21831200905E+03 -0.49734265514E+02  0.52203018306E+03  0.25500000920E-02 0.  1.
       -2    1    3    3    0  502  0.47157383469E+03 -0.21831200905E+03  0.87710647446E+03  0.10194889810E+04  0.25500000920E-02 0. -1.
</event>
<event>
 5   0  0.9081324E-04  0.1327768E+04  0.7818609E-02  0.9007830E-01
       -1   -1    0    0    0  501  0.00000000000E+00  0.00000000000E+00  0.46299543670E+03  0.46299543673E+03  0.50400001928E-02 0. -1.
        1   -1    0    0  501    0  0.00000000000E+00  0.00000000000E+00 -0.95193575470E+03  0.95193575471E+03  0.50400001928E-02 0.  1.
    10030    2    1    2    0    0  0.00000000000E+00  0.00000000000E+00 -0.48894031800E+03  0.14149311914E+04  0.13277679172E+04 0.  0.
        4    1    3    3  502    0 -0.25908310442E+03 -0.58310064145E+03 -0.49105204702E+02  0.63995573838E+03  0.12699999809E+01 0. -1.
       -4    1    3    3    0  502  0.25908310442E+03  0.58310064145E+03 -0.43983511329E+03  0.77497545306E+03  0.12699999809E+01 0.  1.
</event>
<event>
 5   0  0.9215829E-04  0.1300575E+04  0.7818609E-02  0.9029109E-01
        1   -1    0    0  501    0  0.00000000000E+00  0.00000000000E+00  0.85915813141E+03  0.85915813143E+03  0.50400001928E-02 0.  1.
       -1   -1    0    0    0  501  0.00000000000E+00  0.00000000000E+00 -0.49219551203E+03  0.49219551206E+03  0.50400001928E-02 0. -1.
    10030    2    1    2    0    0  0.00000000000E+00  0.00000000000E+00  0.36696261938E+03  0.13513536435E+04  0.13005749135E+04 0.  0.
        3    1    3    3  502    0 -0.52834256812E+03 -0.12774338414E+03  0.55436231547E+03  0.77639025528E+03  0.10100000352E+00 0.  1.
       -3    1    3    3    0  502  0.52834256812E+03  0.12774338414E+03 -0.18739969609E+03  0.57496338820E+03  0.10100000352E+00 0. -1.
</event>
<event>
 5   0  0.9215829E-04  0.1293644E+04  0.7818609E-02  0.9034620E-01
       -1   -1    0    0    0  501  0.00000000000E+00  0.00000000000E+00  0.45252437856E+03  0.45252437859E+03  0.50400001928E-02 0. -1.
        1   -1    0    0  501    0  0.00000000000E+00  0.00000000000E+00 -0.92454453122E+03  0.92454453123E+03  0.50400001928E-02 0.  1.
    10030    2    1    2    0    0  0.00000000000E+00  0.00000000000E+00 -0.47202015266E+03  0.13770689098E+04  0.12936443707E+04 0.  0.
        3    1    3    3  502    0 -0.97285808197E+02  0.29806727123E+03 -0.83824156630E+03  0.89496232341E+03  0.10100000352E+00 0.  1.
       -3    1    3    3    0  502  0.97285808197E+02 -0.29806727123E+03  0.36622141364E+03  0.48210658641E+03  0.10100000352E+00 0. -1.
</event>
<event>
 5   0  0.1623890E-03  0.1308134E+04  0.7818609E-02  0.9023139E-01
       -2   -1    0    0    0  501  0.00000000000E+00  0.00000000000E+00  0.53136700994E+03  0.53136700994E+03  0.25500000920E-02 0.  1.
        2   -1    0    0  501    0  0.00000000000E+00  0.00000000000E+00 -0.80510059921E+03  0.80510059922E+03  0.25500000920E-02 0. -1.
    10030    2    1    2    0    0  0.00000000000E+00  0.00000000000E+00 -0.27373358928E+03  0.13364676092E+04  0.13081343939E+04 0.  0.
        3    1    3    3  502    0  0.59994877662E+03  0.19698172147E+03  0.37306047597E+02  0.63255994542E+03  0.10100000352E+00 0. -1.
       -3    1    3    3    0  502 -0.59994877662E+03 -0.19698172147E+03 -0.31103963687E+03  0.70390766374E+03  0.10100000352E+00 0.  1.
</event>
<event>
 5   0  0.1667342E-03  0.1292869E+04  0.7818609E-02  0.9035239E-01
        2   -1    0    0  501    0  0.00000000000E+00  0.00000000000E+00  0.38381145047E+03  0.38381145047E+03  0.25500000920E-02 0. -1.
       -2   -1    0    0    0  501  0.00000000000E+00  0.00000000000E+00 -0.10887575077E+04  0.10887575077E+04  0.25500000920E-02 0.  1.
    10030    2    1    2    0    0  0.00000000000E+00  0.00000000000E+00 -0.70494605721E+03  0.14725689581E+04  0.12928690548E+04 0.  0.
        5    1    3    3  502    0  0.46754760327E+03  0.44217533802E+03 -0.28285718255E+03  0.70295808310E+03  0.46999998093E+01 0.  1.
       -5    1    3    3    0  502 -0.46754760327E+03 -0.44217533802E+03 -0.42208887466E+03  0.76961087505E+03  0.46999998093E+01 0. -1.
</event>
<event>
 5   0  0.1700511E-03  0.1301519E+04  0.7818609E-02  0.9028361E-01
        2   -1    0    0  501    0  0.00000000000E+00  0.00000000000E+00  0.16094814570E+04  0.16094814570E+04  0.25500000920E-02 0.  1.
       -2   -1    0    0    0  501  0.00000000000E+00  0.00000000000E+00 -0.26312075304E+03  0.26312075306E+03  0.25500000920E-02 0. -1.
    10030    2    1    2    0    0  0.00000000000E+00  0.00000000000E+00  0.13463607040E+04  0.18726022101E+04  0.13015190709E+04 0.  0.
        2    1    3    3  502    0 -0.19814599344E+02  0.64721972749E+03  0.76644604759E+03  0.10033571338E+04  0.25500000920E-02 0.  1.
       -2    1    3    3    0  502  0.19814599344E+02 -0.64721972749E+03  0.57991465637E+03  0.86924507630E+03  0.25500000920E-02 0. -1.
</event>
<event>
 5   0  0.9098192E-04  0.1298103E+04  0.7818609E-02  0.9031071E-01
       -1   -1    0    0    0  501  0.00000000000E+00  0.00000000000E+00  0.29062771036E+03  0.29062771040E+03  0.50400001928E-02 0.  1.
        1   -1    0    0  501    0  0.00000000000E+00  0.00000000000E+00 -0.14495103100E+04  0.14495103100E+04  0.50400001928E-02 0. -1.
    10030    2    1    2    0    0  0.00000000000E+00  0.00000000000E+00 -0.11588825997E+04  0.17401380204E+04  0.12981030199E+04 0.  0.
        1    1    3    3  502    0  0.59810853900E+02  0.64319614856E+03 -0.66410934892E+03  0.92645553111E+03  0.50400001928E-02 0. -1.
       -1    1    3    3    0  502 -0.59810853900E+02 -0.64319614856E+03 -0.49477325076E+03  0.81368248934E+03  0.50400001928E-02 0.  1.
</event>
<event>
 5   0  0.1700511E-03  0.1301041E+04  0.7818609E-02  0.9028740E-01
        2   -1    0    0  501    0  0.00000000000E+00  0.00000000000E+00  0.14752893742E+04  0.14752893742E+04  0.25500000920E-02 0.  1.
       -2   -1    0    0    0  501  0.00000000000E+00  0.00000000000E+00 -0.28684341648E+03  0.28684341649E+03  0.25500000920E-02 0. -1.
    10030    2    1    2    0    0  0.00000000000E+00  0.00000000000E+00  0.11884459577E+04  0.17621327907E+04  0.13010411898E+04 0.  0.
        2    1    3    3  502    0 -0.23579852686E+03  0.20673900586E+03  0.13661549889E+04  0.14016852056E+04  0.25500000920E-02 0.  1.
       -2    1    3    3    0  502  0.23579852686E+03 -0.20673900586E+03 -0.17770903121E+03  0.36044758509E+03  0.25500000920E-02 0. -1.
</event>
<event>
 5   0  0.9098192E-04  0.1300675E+04  0.7818609E-02  0.9029030E-01
        1   -1    0    0  501    0  0.00000000000E+00  0.00000000000E+00  0.11416280681E+04  0.11416280681E+04  0.50400001928E-02 0. -1.
       -1   -1    0    0    0  501  0.00000000000E+00  0.00000000000E+00 -0.37046967543E+03  0.37046967546E+03  0.50400001928E-02 0.  1.
    10030    2    1    2    0    0  0.00000000000E+00  0.00000000000E+00  0.77115839263E+03  0.15120977435E+04  0.13006745632E+04 0.  0.
        1    1    3    3  502    0 -0.53525270162E+03 -0.95537423304E+02 -0.29233694102E+02  0.54449744053E+03  0.50400001928E-02 0.  1.
       -1    1    3    3    0  502  0.53525270162E+03  0.95537423304E+02  0.80039208674E+03  0.96760030301E+03  0.50400001928E-02 0. -1.
</event>
<event>
 5   0  0.9027076E-04  0.1311547E+04  0.7818609E-02  0.9020458E-01
       -1   -1    0    0    0  501  0.00000000000E+00  0.00000000000E+00  0.51872237668E+03  0.51872237671E+03  0.50400001928E-02 0. -1.
        1   -1    0    0  501    0  0.00000000000E+00  0.00000000000E+00 -0.82903524984E+03  0.82903524986E+03  0.50400001928E-02 0.  1.
    10030    2    1    2    0    0  0.00000000000E+00  0.00000000000E+00 -0.31031287316E+03  0.13477576266E+04  0.13115473841E+04 0.  0.
        5    1    3    3  502    0  0.48316735559E+03 -0.16290089192E+03 -0.57888734517E+03  0.77144023909E+03  0.46999998093E+01 0.  1.
       -5    1    3    3    0  502 -0.48316735559E+03  0.16290089192E+03  0.26857447201E+03  0.57631738748E+03  0.46999998093E+01 0. -1.
</event>
<event>
 5   0  0.1694675E-03  0.1303760E+04  0.7818609E-02  0.9026589E-01
       -2   -1    0    0    0  501  0.00000000000E+00  0.00000000000E+00  0.12093200279E+04  0.12093200279E+04  0.25500000920E-02 0. -1.
        2   -1    0    0  501    0  0.00000000000E+00  0.00000000000E+00 -0.35139358431E+03  0.35139358432E+03  0.25500000920E-02 0.  1.
    10030    2    1    2    0    0  0.00000000000E+00  0.00000000000E+00  0.85792644357E+03  0.15607136122E+04  0.13037596392E+04 0.  0.
        4    1    3    3  502    0 -0.12543428525E+03 -0.62589729681E+03  0.27076420980E+03  0.69339458916E+03  0.12699999809E+01 0. -1.
       -4    1    3    3    0  502  0.12543428525E+03  0.62589729681E+03  0.58716223377E+03  0.86731902304E+03  0.12699999809E+01 0.  1.
</event>
<event>
 5   0  0.9215829E-04  0.1369549E+04  0.7818609E-02  0.8976160E-01
       -1   -1    0    0    0  501  0.00000000000E+00  0.00000000000E+00  0.44254754875E+03  0.44254754878E+03  0.50400001928E-02 0. -1.
        1   -1    0    0  501    0  0.00000000000E+00  0.00000000000E+00 -0.10595833810E+04  0.10595833810E+04  0.50400001928E-02 0.  1.
    10030    2    1    2    0    0  0.00000000000E+00  0.00000000000E+00 -0.61703583223E+03  0.15021309298E+04  0.13695488717E+04 0.  0.
        3    1    3    3  502    0  0.39890250722E+03  0.13209720342E+03  0.28451214019E+03  0.50746433327E+03  0.10100000352E+00 0. -1.
       -3    1    3    3    0  502 -0.39890250722E+03 -0.13209720342E+03 -0.90154797242E+03  0.99466659651E+03  0.10100000352E+00 0.  1.
</event>
<event>
 5   0  0.6284125E-04  0.1294208E+04  0.7818609E-02  0.9034171E-01
       -3   -1    0    0    0  501  0.00000000000E+00  0.00000000000E+00  0.99310111858E+03  0.99310112372E+03  0.10100000352E+00 0.  1.
        3   -1    0    0  501    0  0.00000000000E+00  0.00000000000E+00 -0.42165243726E+03  0.42165244936E+03  0.10100000352E+00 0. -1.
    10030    2    1    2    0    0  0.00000000000E+00  0.00000000000E+00  0.57144868132E+03  0.14147535731E+04  0.12942078956E+04 0.  0.
        2    1    3    3  502    0 -0.57564591356E+03  0.23142015442E+03  0.48675562323E+03  0.78857754370E+03  0.25500000920E-02 0. -1.
       -2    1    3    3    0  502  0.57564591356E+03 -0.23142015442E+03  0.84693058095E+02  0.62617602938E+03  0.25500000920E-02 0.  1.
</event>
<event>
 5   0  0.9098192E-04  0.1346179E+04  0.7818609E-02  0.8993726E-01
        1   -1    0    0  501    0  0.00000000000E+00  0.00000000000E+00  0.57109727847E+03  0.57109727849E+03  0.50400001928E-02 0. -1.
       -1   -1    0    0    0  501  0.00000000000E+00  0.00000000000E+00 -0.79329608247E+03  0.79329608248E+03  0.50400001928E-02 0.  1.
    10030    2    1    2    0    0  0.00000000000E+00  0.00000000000E+00 -0.22219880400E+03  0.13643933610E+04  0.13461786415E+04 0.  0.
        1    1    3    3  502    0  0.11568763414E+03 -0.43224925258E+03  0.39852231956E+03  0.59920203960E+03  0.50400001928E-02 0. -1.
       -1    1    3    3    0  502 -0.11568763414E+03  0.43224925258E+03 -0.62072112356E+03  0.76519132137E+03  0.50400001928E-02 0.  1.
</event>
<event>
 5   0  0.9110949E-04  0.1304984E+04  0.7818609E-02  0.9025622E-01
       -1   -1    0    0    0  501  0.00000000000E+00  0.00000000000E+00  0.41029372287E+03  0.41029372290E+03  0.50400001928E-02 0. -1.
        1   -1    0    0  501    0  0.00000000000E+00  0.00000000000E+00 -0.10376606674E+04  0.10376606675E+04  0.50400001928E-02 0.  1.
    10030    2    1    2    0    0  0.00000000000E+00  0.00000000000E+00 -0.62736694458E+03  0.14479543904E+04  0.13049837675E+04 0.  0.
        2    1    3    3  502    0  0.17769648898E+03  0.50716475388E+03  0.96933017072E+02  0.54606605789E+03  0.25500000920E-02 0. -1.
       -2    1    3    3    0  502 -0.17769648898E+03 -0.50716475388E+03 -0.72429996166E+03  0.90188833247E+03  0.25500000920E-02 0.  1.
</event>
<event>
 5   0  0.9081324E-04  0.1303630E+04  0.7818609E-02  0.9026691E-01
        1   -1    0    0  501    0  0.00000000000E+00  0.00000000000E+00  0.10071154947E+04  0.10071154947E+04  0.50400001928E-02 0.  1.
       -1   -1    0    0    0  501  0.00000000000E+00  0.00000000000E+00 -0.42186123728E+03  0.42186123731E+03  0.50400001928E-02 0. -1.
    10030    2    1    2    0    0  0.00000000000E+00  0.00000000000E+00  0.58525425742E+03  0.14289767320E+04  0.13036302984E+04 0.  0.
        4    1    3    3  502    0 -0.38900679899E+03 -0.26143092653E+03  0.78915965543E+03  0.91784911269E+03  0.12699999809E+01 0.  1.
       -4    1    3    3    0  502  0.38900679899E+03  0.26143092653E+03 -0.20390539800E+03  0.51112761933E+03  0.12699999809E+01 0. -1.
</event>
<event>
 5   0  0.9027076E-04  0.1298744E+04  0.7818609E-02  0.9030562E-01
        1   -1    0    0  501    0  0.00000000000E+00  0.00000000000E+00  0.60857707266E+03  0.60857707268E+03  0.50400001928E-02 0. -1.
       -1   -1    0    0    0  501  0.00000000000E+00  0.00000000000E+00 -0.69290142447E+03  0.69290142449E+03  0.50400001928E-02 0.  1.
    10030    2    1    2    0    0  0.00000000000E+00  0.00000000000E+00 -0.84324351807E+02  0.13014784972E+04  0.12987438863E+04 0.  0.
        5    1    3    3  502    0  0.49609521271E+03  0.34700481336E+03  0.19314926429E+03  0.63549313833E+03  0.46999998093E+01 0. -1.
       -5    1    3    3    0  502 -0.49609521271E+03 -0.34700481336E+03 -0.27747361609E+03  0.66598535884E+03  0.46999998093E+01 0.  1.
</event>
<event>
 5   0  0.1714861E-03  0.1296156E+04  0.7818609E-02  0.9032619E-01
       -2   -1    0    0    0  501  0.00000000000E+00  0.00000000000E+00  0.19531945317E+03  0.19531945318E+03  0.25500000920E-02 0. -1.
        2   -1    0    0  501    0  0.00000000000E+00  0.00000000000E+00 -0.21503489444E+04  0.21503489444E+04  0.25500000920E-02 0.  1.
    10030    2    1    2    0    0  0.00000000000E+00  0.00000000000E+00 -0.19550294912E+04  0.23456683976E+04  0.12961558239E+04 0.  0.
        1    1    3    3  502    0 -0.36427925592E+03 -0.34611088033E+03 -0.17181996282E+04  0.17901681709E+04  0.50400001928E-02 0.  1.
       -1    1    3    3    0  502  0.36427925592E+03  0.34611088033E+03 -0.23682986302E+03  0.55550022666E+03  0.50400001928E-02 0. -1.
</event>
<event>
 5   0  0.9110949E-04  0.1303388E+04  0.7818609E-02  0.9026883E-01
        1   -1    0    0  501    0  0.00000000000E+00  0.00000000000E+00  0.10767482665E+04  0.10767482665E+04  0.50400001928E-02 0. -1.
       -1   -1    0    0    0  501  0.00000000000E+00  0.00000000000E+00 -0.39443314046E+03  0.39443314050E+03  0.50400001928E-02 0.  1.
    10030    2    1    2    0    0  0.00000000000E+00  0.00000000000E+00  0.68231512599E+03  0.14711814070E+04  0.13033882004E+04 0.  0.
        2    1    3    3  502    0 -0.61597768979E+03  0.15548938327E+03  0.17720018293E+03  0.65954936697E+03  0.25500000920E-02 0.  1.
       -2    1    3    3    0  502  0.61597768979E+03 -0.15548938327E+03  0.50511494306E+03  0.81163203999E+03  0.25500000920E-02 0. -1.
</event>
<event>
 5   0  0.1623890E-03  0.1300172E+04  0.7818609E-02  0.9029429E-01
        2   -1    0    0  501    0  0.00000000000E+00  0.00000000000E+00  0.95339745242E+03  0.95339745242E+03  0.25500000920E-02 0.  1.
       -2   -1    0    0    0  501  0.00000000000E+00  0.00000000000E+00 -0.44326937057E+03  0.44326937057E+03  0.25500000920E-02 0. -1.
    10030    2    1    2    0    0  0.00000000000E+00  0.00000000000E+00  0.51012808186E+03  0.13966668230E+04  0.13001721250E+04 0.  0.
        3    1    3    3  502    0  0.16186886899E+03 -0.29310847256E+03  0.85364267311E+03  0.91696233892E+03  0.10100000352E+00 0.  1.
       -3    1    3    3    0  502 -0.16186886899E+03  0.29310847256E+03 -0.34351459126E+03  0.47970448408E+03  0.10100000352E+00 0. -1.
</event>
<event>
 5   0  0.9081324E-04  0.1304241E+04  0.7818609E-02  0.9026208E-01
       -1   -1    0    0    0  501  0.00000000000E+00  0.00000000000E+00  0.75037331202E+03  0.75037331204E+03  0.50400001928E-02 0.  1.
        1   -1    0    0  501    0  0.00000000000E+00  0.00000000000E+00 -0.56673318769E+03  0.56673318771E+03  0.50400001928E-02 0. -1.
    10030    2    1    2    0    0  0.00000000000E+00  0.00000000000E+00  0.18364012433E+03  0.13171064998E+04  0.13042414793E+04 0.  0.
        4    1    3    3  502    0  0.16945820450E+03 -0.13158968353E+03 -0.53006916809E+03  0.57184513965E+03  0.12699999809E+01 0. -1.
       -4    1    3    3    0  502 -0.16945820450E+03  0.13158968353E+03  0.71370929242E+03  0.74526136010E+03  0.12699999809E+01 0.  1.
</event>
<event>
 5   0  0.1714861E-03  0.1313552E+04  0.7818609E-02  0.9018887E-01
        2   -1    0    0  501    0  0.00000000000E+00  0.00000000000E+00  0.93927230491E+03  0.93927230491E+03  0.25500000920E-02 0.  1.
       -2   -1    0    0    0  501  0.00000000000E+00  0.00000000000E+00 -0.45924365182E+03  0.45924365183E+03  0.25500000920E-02 0. -1.
    10030    2    1    2    0    0  0.00000000000E+00  0.00000000000E+00  0.48002865309E+03  0.13985159567E+04  0.13135521967E+04 0.  0.
        1    1    3    3  502    0 -0.45579391996E+03 -0.34901988964E+03  0.57969952351E+03  0.81585201993E+03  0.50400001928E-02 0.  1.
       -1    1    3    3    0  502  0.45579391996E+03  0.34901988964E+03 -0.99670870420E+02  0.58266393682E+03  0.50400001928E-02 0. -1.
</event>
<event>
 5   0  0.9215829E-04  0.1303577E+04  0.7818609E-02  0.9026734E-01
       -1   -1    0    0    0  501  0.00000000000E+00  0.00000000000E+00  0.24434587260E+03  0.24434587265E+03  0.50400001928E-02 0.  1.
        1   -1    0    0  501    0  0.00000000000E+00  0.00000000000E+00 -0.17386339452E+04  0.17386339452E+04  0.50400001928E-02 0. -1.
    10030    2    1    2    0    0  0.00000000000E+00  0.00000000000E+00 -0.14942880726E+04  0.19829798178E+04  0.13035766621E+04 0.  0.
        3    1    3    3  502    0 -0.60464335551E+03  0.85429758427E+02 -0.40047364574E+03  0.73025405313E+03  0.10100000352E+00 0.  1.
       -3    1    3    3    0  502  0.60464335551E+03 -0.85429758427E+02 -0.10938144268E+04  0.12527257647E+04  0.10100000352E+00 0. -1.
</event>
<event>
 5   0  0.1694675E-03  0.1295806E+04  0.7818609E-02  0.9032898E-01
       -2   -1    0    0    0  501  0.00000000000E+00  0.00000000000E+00  0.52686865155E+03  0.52686865156E+03  0.25500000920E-02 0. -1.
        2   -1    0    0  501    0  0.00000000000E+00  0.00000000000E+00 -0.79674206776E+03  0.79674206776E+03  0.25500000920E-02 0.  1.
    10030    2    1    2    0    0  0.00000000000E+00  0.00000000000E+00 -0.26987341621E+03  0.13236107193E+04  0.12958061875E+04 0.  0.
        4    1    3    3  502    0 -0.29672275793E+03 -0.44750313023E+03 -0.50530952639E+03  0.73732135260E+03  0.12699999809E+01 0.  1.
       -4    1    3    3    0  502  0.29672275793E+03  0.44750313023E+03  0.23543611019E+03  0.58628936671E+03  0.12699999809E+01 0. -1.
</event>
<event>
 5   0  0.6284125E-04  0.1287611E+04  0.7818609E-02  0.9039448E-01
        3   -1    0    0  501    0  0.00000000000E+00  0.00000000000E+00  0.42054520272E+03  0.42054521485E+03  0.10100000352E+00 0. -1.
       -3   -1    0    0    0  501  0.00000000000E+00  0.00000000000E+00 -0.98559113138E+03  0.98559113656E+03  0.10100000352E+00 0.  1.
    10030    2    1    2    0    0  0.00000000000E+00  0.00000000000E+00 -0.56504592866E+03  0.14061363514E+04  0.12876111747E+04 0.  0.
        3    1    3    3  502    0  0.61633222829E+03 -0.69936786753E+02 -0.47081556159E+03  0.77873222163E+03  0.10100000352E+00 0. -1.
       -3    1    3    3    0  502 -0.61633222829E+03  0.69936786753E+02 -0.94230367074E+02  0.62740412977E+03  0.10100000352E+00 0.  1.
</event>
<event>
 5   0  0.1694675E-03  0.1287034E+04  0.7818609E-02  0.9039911E-01
       -2   -1    0    0    0  501  0.00000000000E+00  0.00000000000E+00  0.72640856055E+03  0.72640856055E+03  0.25500000920E-02 0. -1.
        2   -1    0    0  501    0  0.00000000000E+00  0.00000000000E+00 -0.57008392617E+03  0.57008392618E+03  0.25500000920E-02 0.  1.
    10030    2    1    2    0    0  0.00000000000E+00  0.00000000000E+00  0.15632463438E+03  0.12964924867E+04  0.12870335570E+04 0.  0.
        4    1    3    3  502    0 -0.13632066280E+03  0.40284795512E+03 -0.40833888256E+03  0.58958634140E+03  0.12699999809E+01 0.  1.
       -4    1    3    3    0  502  0.13632066280E+03 -0.40284795512E+03  0.56466351694E+03  0.70690614534E+03  0.12699999809E+01 0. -1.
</event>
<event>
 5   0  0.1667342E-03  0.1295342E+04  0.7818609E-02  0.9033267E-01
       -2   -1    0    0    0  501  0.00000000000E+00  0.00000000000E+00  0.38029880825E+03  0.38029880826E+03  0.25500000920E-02 0. -1.
        2   -1    0    0  501    0  0.00000000000E+00  0.00000000000E+00 -0.11030210508E+04  0.11030210508E+04  0.25500000920E-02 0.  1.
    10030    2    1    2    0    0  0.00000000000E+00  0.00000000000E+00 -0.72272224253E+03  0.14833198591E+04  0.12953417944E+04 0.  0.
        5    1    3    3  502    0  0.63742315922E+03 -0.85580578890E+02 -0.44874485637E+03  0.78423616054E+03  0.46999998093E+01 0.  1.
       -5    1    3    3    0  502 -0.63742315922E+03  0.85580578890E+02 -0.27397738617E+03  0.69908369851E+03  0.46999998093E+01 0. -1.
</event>
<event>
 5   0  0.1700511E-03  0.1289719E+04  0.7818609E-02  0.9037758E-01
       -2   -1    0    0    0  501  0.00000000000E+00  0.00000000000E+00  0.31006965300E+03  0.31006965301E+03  0.25500000920E-02 0. -1.
        2   -1    0    0  501    0  0.00000000000E+00  0.00000000000E+00 -0.13411299057E+04  0.13411299057E+04  0.25500000920E-02 0.  1.
    10030    2    1    2    0    0  0.00000000000E+00  0.00000000000E+00 -0.10310602527E+04  0.16511995587E+04  0.12897188600E+04 0.  0.
        2    1    3    3  502    0  0.39195013779E+03 -0.32721710348E+03 -0.11243742957E+02  0.51070771004E+03  0.25500000920E-02 0. -1.
       -2    1    3    3    0  502 -0.39195013779E+03  0.32721710348E+03 -0.10198165097E+04  0.11404918487E+04  0.25500000920E-02 0.  1.
</event>
<event>
 5   0  0.1623890E-03  0.1308696E+04  0.7818609E-02  0.9022698E-01
        2   -1    0    0  501    0  0.00000000000E+00  0.00000000000E+00  0.10517774982E+04  0.10517774982E+04  0.25500000920E-02 0.  1.
       -2   -1    0    0    0  501  0.00000000000E+00  0.00000000000E+00 -0.40709281969E+03  0.40709281970E+03  0.25500000920E-02 0. -1.
    10030    2    1    2    0    0  0.00000000000E+00  0.00000000000E+00  0.64468467847E+03  0.14588703179E+04  0.13086956368E+04 0.  0.
        3    1    3    3  502    0 -0.45820538121E+03 -0.15995845451E+03  0.81160542724E+03  0.94564383267E+03  0.10100000352E+00 0.  1.
       -3    1    3    3    0  502  0.45820538121E+03  0.15995845451E+03 -0.16692074876E+03  0.51322648520E+03  0.10100000352E+00 0. -1.
</event>
<event>
 5   0  0.1623890E-03  0.1297129E+04  0.7818609E-02  0.9031845E-01
        2   -1    0    0  501    0  0.00000000000E+00  0.00000000000E+00  0.17577100700E+04  0.17577100700E+04  0.25500000920E-02 0.  1.
       -2   -1    0    0    0  501  0.00000000000E+00  0.00000000000E+00 -0.23930906017E+03  0.23930906019E+03  0.25500000920E-02 0. -1.
    10030    2    1    2    0    0  0.00000000000E+00  0.00000000000E+00  0.15184010099E+04  0.19970191302E+04  0.12971290528E+04 0.  0.
        3    1    3    3  502    0  0.44735935215E+03 -0.37071656491E+03  0.12029456564E+04  0.13359039726E+04  0.10100000352E+00 0.  1.
       -3    1    3    3    0  502 -0.44735935215E+03  0.37071656491E+03  0.31545535345E+03  0.66111515765E+03  0.10100000352E+00 0. -1.
</event>
<event>
 5   0  0.1700511E-03  0.1311887E+04  0.7818609E-02  0.9020191E-01
       -2   -1    0    0    0  501  0.00000000000E+00  0.00000000000E+00  0.44805292591E+03  0.44805292591E+03  0.25500000920E-02 0. -1.
        2   -1    0    0  501    0  0.00000000000E+00  0.00000000000E+00 -0.96029261813E+03  0.96029261813E+03  0.25500000920E-02 0.  1.
    10030    2    1    2    0    0  0.00000000000E+00  0.00000000000E+00 -0.51223969222E+03  0.14083455440E+04  0.13118870642E+04 0.  0.
        2    1    3    3  502    0 -0.41912502830E+03  0.47079697026E+03 -0.61262686762E+02  0.63329984474E+03  0.25500000920E-02 0. -1.
       -2    1    3    3    0  502  0.41912502830E+03 -0.47079697026E+03 -0.45097700546E+03  0.77504569930E+03  0.25500000920E-02 0.  1.
</event>
<event>
 5   0  0.6284125E-04  0.1329659E+04  0.7818609E-02  0.9006370E-01
        3   -1    0    0  501    0  0.00000000000E+00  0.00000000000E+00  0.31085382862E+03  0.31085384502E+03  0.10100000352E+00 0. -1.
       -3   -1    0    0    0  501  0.00000000000E+00  0.00000000000E+00 -0.14218846416E+04  0.14218846452E+04  0.10100000352E+00 0.  1.
    10030    2    1    2    0    0  0.00000000000E+00  0.00000000000E+00 -0.11110308130E+04  0.17327384902E+04  0.13296590571E+04 0.  0.
        1    1    3    3  502    0  0.52965046591E+02  0.14227481267E+03 -0.13989944209E+04  0.14072074503E+04  0.50400001928E-02 0.  1.
       -1    1    3    3    0  502 -0.52965046591E+02 -0.14227481267E+03  0.28796360787E+03  0.32553103994E+03  0.50400001928E-02 0. -1.
</event>
<event>
 5   0  0.6284125E-04  0.1297613E+04  0.7818609E-02  0.9031461E-01
        4   -1    0    0  501    0  0.00000000000E+00  0.00000000000E+00  0.81429729274E+03  0.81429828310E+03  0.12699999809E+01 0. -1.
       -4   -1    0    0    0  501  0.00000000000E+00  0.00000000000E+00 -0.51694625291E+03  0.51694781293E+03  0.12699999809E+01 0.  1.
    10030    2    1    2    0    0  0.00000000000E+00  0.00000000000E+00  0.29735103983E+03  0.13312460960E+04  0.12976126261E+04 0.  0.
        4    1    3    3  502    0  0.48010974044E+03 -0.61969892989E+02 -0.29449604145E+03  0.56663494582E+03  0.12699999809E+01 0.  1.
       -4    1    3    3    0  502 -0.48010974044E+03  0.61969892989E+02  0.59184708128E+03  0.76461115020E+03  0.12699999809E+01 0. -1.
</event>
<event>
 5   0  0.1623890E-03  0.1267851E+04  0.7818609E-02  0.9055456E-01
       -2   -1    0    0    0  501  0.00000000000E+00  0.00000000000E+00  0.37206001642E+03  0.37206001643E+03  0.25500000920E-02 0. -1.
        2   -1    0    0  501    0  0.00000000000E+00  0.00000000000E+00 -0.10800981671E+04  0.10800981671E+04  0.25500000920E-02 0.  1.
    10030    2    1    2    0    0  0.00000000000E+00  0.00000000000E+00 -0.70803815070E+03  0.14521581836E+04  0.12678506881E+04 0.  0.
        3    1    3    3  502    0 -0.82773988145E+02 -0.54955793214E+03 -0.70330224930E+03  0.89638134628E+03  0.10100000352E+00 0.  1.
       -3    1    3    3    0  502  0.82773988145E+02  0.54955793214E+03 -0.47359014064E+01  0.55577683728E+03  0.10100000352E+00 0. -1.
</event>
<event>
 5   0  0.9081324E-04  0.1064781E+04  0.7818609E-02  0.9240215E-01
       -1   -1    0    0    0  501  0.00000000000E+00  0.00000000000E+00  0.10393526262E+04  0.10393526262E+04  0.50400001928E-02 0.  1.
        1   -1    0    0  501    0  0.00000000000E+00  0.00000000000E+00 -0.27270792294E+03  0.27270792299E+03  0.50400001928E-02 0. -1.
    10030    2    1    2    0    0  0.00000000000E+00  0.00000000000E+00  0.76664470322E+03  0.13120605492E+04  0.10647810966E+04 0.  0.
        4    1    3    3  502    0  0.41578982654E+03 -0.29811605597E+03  0.20187090134E+03  0.55000712395E+03  0.12699999809E+01 0. -1.
       -4    1    3    3    0  502 -0.41578982654E+03  0.29811605597E+03  0.56477380188E+03  0.76205342521E+03  0.12699999809E+01 0.  1.
</event>
<event>
 5   0  0.1714861E-03  0.1279665E+04  0.7818609E-02  0.9045848E-01
       -2   -1    0    0    0  501  0.00000000000E+00  0.00000000000E+00  0.76185999421E+03  0.76185999422E+03  0.25500000920E-02 0.  1.
        2   -1    0    0  501    0  0.00000000000E+00  0.00000000000E+00 -0.53735034682E+03  0.53735034683E+03  0.25500000920E-02 0. -1.
    10030    2    1    2    0    0  0.00000000000E+00  0.00000000000E+00  0.22450964739E+03  0.12992103410E+04  0.12796651627E+04 0.  0.
        1    1    3    3  502    0 -0.26520986182E+03 -0.82965715957E+02 -0.47288655270E+03  0.54848999314E+03  0.50400001928E-02 0. -1.
       -1    1    3    3    0  502  0.26520986182E+03  0.82965715957E+02  0.69739620009E+03  0.75072034790E+03  0.50400001928E-02 0.  1.
</event>
<event>
 5   0  0.1700511E-03  0.1295313E+04  0.7818609E-02  0.9033290E-01
       -2   -1    0    0    0  501  0.00000000000E+00  0.00000000000E+00  0.60830628186E+03  0.60830628186E+03  0.25500000920E-02 0.  1.
        2   -1    0    0  501    0  0.00000000000E+00  0.00000000000E+00 -0.68955221653E+03  0.68955221653E+03  0.25500000920E-02 0. -1.
    10030    2    1    2    0    0  0.00000000000E+00  0.00000000000E+00 -0.81245934672E+02  0.12978584984E+04  0.12953130046E+04 0.  0.
        2    1    3    3  502    0  0.43494664889E+02 -0.46079914539E+03 -0.49453785239E+03  0.67734431844E+03  0.25500000920E-02 0. -1.
       -2    1    3    3    0  502 -0.43494664889E+02  0.46079914539E+03  0.41329191772E+03  0.62051417996E+03  0.25500000920E-02 0.  1.
</event>
<event>
 5   0  0.9110949E-04  0.1280311E+04  0.7818609E-02  0.9045326E-01
       -1   -1    0    0    0  501  0.00000000000E+00  0.00000000000E+00  0.30285860824E+03  0.30285860828E+03  0.50400001928E-02 0.  1.
        1   -1    0    0  501    0  0.00000000000E+00  0.00000000000E+00 -0.13531034422E+04  0.13531034423E+04  0.50400001928E-02 0. -1.
    10030    2    1    2    0    0  0.00000000000E+00  0.00000000000E+00 -0.10502448340E+04  0.16559620505E+04  0.12803109394E+04 0.  0.
        2    1    3    3  502    0 -0.55070070864E+03  0.16522402304E+03 -0.88918529663E+03  0.10588771128E+04  0.25500000920E-02 0. -1.
       -2    1    3    3    0  502  0.55070070864E+03 -0.16522402304E+03 -0.16105953738E+03  0.59708493773E+03  0.25500000920E-02 0.  1.
</event>
<event>
 5   0  0.1667342E-03  0.1302618E+04  0.7818609E-02  0.9027492E-01
        2   -1    0    0  501    0  0.00000000000E+00  0.00000000000E+00  0.11552491252E+04  0.11552491252E+04  0.25500000920E-02 0.  1.
       -2   -1    0    0    0  501  0.00000000000E+00  0.00000000000E+00 -0.36719640616E+03  0.36719640617E+03  0.25500000920E-02 0. -1.
    10030    2    1    2    0    0  0.00000000000E+00  0.00000000000E+00  0.78805271906E+03  0.15224455314E+04  0.13026178672E+04 0.  0.
        5    1    3    3  502    0 -0.55346853225E+03 -0.94103256853E+02  0.81618902869E+01  0.56149046795E+03  0.46999998093E+01 0. -1.
       -5    1    3    3    0  502  0.55346853225E+03  0.94103256853E+02  0.77989082877E+03  0.96095506344E+03  0.46999998093E+01 0.  1.
</event>
<event>
 5   0  0.9215829E-04  0.1291864E+04  0.7818609E-02  0.9036042E-01
        1   -1    0    0  501    0  0.00000000000E+00  0.00000000000E+00  0.11777363756E+04  0.11777363756E+04  0.50400001928E-02 0. -1.
       -1   -1    0    0    0  501  0.00000000000E+00  0.00000000000E+00 -0.35426298138E+03  0.35426298141E+03  0.50400001928E-02 0.  1.
    10030    2    1    2    0    0  0.00000000000E+00  0.00000000000E+00  0.82347339424E+03  0.15319993570E+04  0.12918643888E+04 0.  0.
        3    1    3    3  502    0 -0.41454503344E+03  0.34192230275E+03  0.83678904861E+03  0.99447190405E+03  0.10100000352E+00 0.  1.
       -3    1    3    3    0  502  0.41454503344E+03 -0.34192230275E+03 -0.13315654367E+02  0.53752745299E+03  0.10100000352E+00 0. -1.
</event>
<event>
 5   0  0.9215829E-04  0.1318604E+04  0.7818609E-02  0.9014941E-01
       -1   -1    0    0    0  501  0.00000000000E+00  0.00000000000E+00  0.77349199715E+03  0.77349199717E+03  0.50400001928E-02 0.  1.
        1   -1    0    0  501    0  0.00000000000E+00  0.00000000000E+00 -0.56196997142E+03  0.56196997145E+03  0.50400001928E-02 0. -1.
    10030    2    1    2    0    0  0.00000000000E+00  0.00000000000E+00  0.21152202573E+03  0.13354619686E+04  0.13186042250E+04 0.  0.
        3    1    3    3  502    0 -0.13082530296E+03 -0.15007710515E+03  0.74231915147E+03  0.76855457205E+03  0.10100000352E+00 0.  1.
       -3    1    3    3    0  502  0.13082530296E+03  0.15007710515E+03 -0.53079712574E+03  0.56690739656E+03  0.10100000352E+00 0. -1.
</event>
<event>
 5   0  0.9081324E-04  0.1299771E+04  0.7818609E-02  0.9029747E-01
        1   -1    0    0  501    0  0.00000000000E+00  0.00000000000E+00  0.33036877755E+03  0.33036877759E+03  0.50400001928E-02 0. -1.
       -1   -1    0    0    0  501  0.00000000000E+00  0.00000000000E+00 -0.12784234972E+04  0.12784234972E+04  0.50400001928E-02 0.  1.
    10030    2    1    2    0    0  0.00000000000E+00  0.00000000000E+00 -0.94805471965E+03  0.16087922748E+04  0.12997710691E+04 0.  0.
        4    1    3    3  502    0  0.53398364923E+03  0.22866137853E+03 -0.83473136469E+03  0.10169575349E+04  0.12699999809E+01 0.  1.
       -4    1    3    3    0  502 -0.53398364923E+03 -0.22866137853E+03 -0.11332335496E+03  0.59183473991E+03  0.12699999809E+01 0. -1.
</event>
<event>
 5   0  0.1694675E-03  0.1300787E+04  0.7818609E-02  0.9028941E-01
       -2   -1    0    0    0  501  0.00000000000E+00  0.00000000000E+00  0.32822521713E+03  0.32822521714E+03  0.25500000920E-02 0. -1.
        2   -1    0    0  501    0  0.00000000000E+00  0.00000000000E+00 -0.12887851602E+04  0.12887851602E+04  0.25500000920E-02 0.  1.
    10030    2    1    2    0    0  0.00000000000E+00  0.00000000000E+00 -0.96055994309E+03  0.16170103774E+04  0.13007871295E+04 0.  0.
        4    1    3    3  502    0  0.37496947401E+03 -0.52929662040E+03 -0.42127313440E+03  0.77345309197E+03  0.12699999809E+01 0.  1.
       -4    1    3    3    0  502 -0.37496947401E+03  0.52929662040E+03 -0.53928680869E+03  0.84355728539E+03  0.12699999809E+01 0. -1.
</event>
<event>
 5   0  0.1700511E-03  0.1297688E+04  0.7818609E-02  0.9031401E-01
        2   -1    0    0  501    0  0.00000000000E+00  0.00000000000E+00  0.97852269800E+03  0.97852269800E+03  0.25500000920E-02 0.  1.
       -2   -1    0    0    0  501  0.00000000000E+00  0.00000000000E+00 -0.43023877575E+03  0.43023877575E+03  0.25500000920E-02 0. -1.
    10030    2    1    2    0    0  0.00000000000E+00  0.00000000000E+00  0.54828392225E+03  0.14087614738E+04  0.12976878016E+04 0.  0.
        2    1    3    3  502    0 -0.22378074247E+03 -0.37014846240E+03  0.79918183966E+03  0.90872400527E+03  0.25500000920E-02 0.  1.
       -2    1    3    3    0  502  0.22378074247E+03  0.37014846240E+03 -0.25089791741E+03  0.50003746848E+03  0.25500000920E-02 0. -1.
</event>
<event>
 5   0  0.1694675E-03  0.1309132E+04  0.7818609E-02  0.9022355E-01
        2   -1    0    0  501    0  0.00000000000E+00  0.00000000000E+00  0.54056741432E+03  0.54056741432E+03  0.25500000920E-02 0. -1.
       -2   -1    0    0    0  501  0.00000000000E+00  0.00000000000E+00 -0.79260497452E+03  0.79260497452E+03  0.25500000920E-02 0.  1.
    10030    2    1    2    0    0  0.00000000000E+00  0.00000000000E+00 -0.25203756020E+03  0.13331723888E+04  0.13091316537E+04 0.  0.
        4    1    3    3  502    0 -0.20589138070E+03  0.49947074293E+03 -0.50239004047E+03  0.73773955387E+03  0.12699999809E+01 0.  1.
       -4    1    3    3    0  502  0.20589138070E+03 -0.49947074293E+03  0.25035248026E+03  0.59543283497E+03  0.12699999809E+01 0. -1.
</event>
<event>
 5   0  0.1714861E-03  0.1267763E+04  0.7818609E-02  0.9055527E-01
        2   -1    0    0  501    0  0.00000000000E+00  0.00000000000E+00  0.16456799234E+04  0.16456799234E+04  0.25500000920E-02 0. -1.
       -2   -1    0    0    0  501  0.00000000000E+00  0.00000000000E+00 -0.24415802122E+03  0.24415802123E+03  0.25500000920E-02 0.  1.
    10030    2    1    2    0    0  0.00000000000E+00  0.00000000000E+00  0.14015219022E+04  0.18898379446E+04  0.12677633118E+04 0.  0.
        1    1    3    3  502    0  0.53996257387E+02 -0.61904726272E+03  0.51415195188E+03  0.80652795298E+03  0.50400001928E-02 0.  1.
       -1    1    3    3    0  502 -0.53996257387E+02  0.61904726272E+03  0.88736995032E+03  0.10833099917E+04  0.50400001928E-02 0. -1.
</event>
<event>
 5   0  0.1623890E-03  0.1300412E+04  0.7818609E-02  0.9029239E-01
        2   -1    0    0  501    0  0.00000000000E+00  0.00000000000E+00  0.79301006815E+03  0.79301006816E+03  0.25500000920E-02 0. -1.
       -2   -1    0    0    0  501  0.00000000000E+00  0.00000000000E+00 -0.53311767891E+03  0.53311767891E+03  0.25500000920E-02 0.  1.
    10030    2    1    2    0    0  0.00000000000E+00  0.00000000000E+00  0.25989238925E+03  0.13261277471E+04  0.13004117608E+04 0.  0.
        3    1    3    3  502    0 -0.18003791833E+03 -0.56809050846E+03 -0.13524870858E+03  0.61109140168E+03  0.10100000352E+00 0.  1.
       -3    1    3    3    0  502  0.18003791833E+03  0.56809050846E+03  0.39514109782E+03  0.71503634539E+03  0.10100000352E+00 0. -1.
</event>
<event>
 5   0  0.9098192E-04  0.1306062E+04  0.7818609E-02  0.9024771E-01
        1   -1    0    0  501    0  0.00000000000E+00  0.00000000000E+00  0.18482697735E+04  0.18482697736E+04  0.50400001928E-02 0.  1.
       -1   -1    0    0    0  501  0.00000000000E+00  0.00000000000E+00 -0.23072918539E+03  0.23072918544E+03  0.50400001928E-02 0. -1.
    10030    2    1    2    0    0  0.00000000000E+00  0.00000000000E+00  0.16175405882E+04  0.20789989590E+04  0.13060624477E+04 0.  0.
        1    1    3    3  502    0 -0.19194131772E+01 -0.20397034367E+03  0.17962579381E+04  0.18078025792E+04  0.50400001928E-02 0.  1.
       -1    1    3    3    0  502  0.19194131772E+01  0.20397034367E+03 -0.17871734990E+03  0.27119637981E+03  0.50400001928E-02 0. -1.
</event>
<event>
 5   0  0.1700511E-03  0.1285382E+04  0.7818609E-02  0.9041239E-01
        2   -1    0    0  501    0  0.00000000000E+00  0.00000000000E+00  0.12560807004E+04  0.12560807004E+04  0.25500000920E-02 0. -1.
       -2   -1    0    0    0  501  0.00000000000E+00  0.00000000000E+00 -0.32884160907E+03  0.32884160908E+03  0.25500000920E-02 0.  1.
    10030    2    1    2    0    0  0.00000000000E+00  0.00000000000E+00  0.92723909136E+03  0.15849223095E+04  0.12853818089E+04 0.  0.
        2    1    3    3  502    0  0.19272308611E+03 -0.19807238312E+03  0.11790746510E+04  0.12110292687E+04  0.25500000920E-02 0. -1.
       -2    1    3    3    0  502 -0.19272308611E+03  0.19807238312E+03 -0.25183555966E+03  0.37389304084E+03  0.25500000920E-02 0.  1.
</event>
<event>
 5   0  0.9110949E-04  0.1316769E+04  0.7818609E-02  0.9016372E-01
        1   -1    0    0  501    0  0.00000000000E+00  0.00000000000E+00  0.92285506036E+03  0.92285506038E+03  0.50400001928E-02 0. -1.
       -1   -1    0    0    0  501  0.00000000000E+00  0.00000000000E+00 -0.46970524370E+03  0.46970524372E+03  0.50400001928E-02 0.  1.
    10030    2    1    2    0    0  0.00000000000E+00  0.00000000000E+00  0.45314981667E+03  0.13925603041E+04  0.13167685614E+04 0.  0.
        2    1    3    3  502    0 -0.19422255922E+02 -0.15759290988E+03 -0.44915235500E+03  0.47639331154E+03  0.25500000920E-02 0.  1.
       -2    1    3    3    0  502  0.19422255922E+02  0.15759290988E+03  0.90230217167E+03  0.91616699257E+03  0.25500000920E-02 0. -1.
</event>
<event>
 5   0  0.1694675E-03  0.1295202E+04  0.7818609E-02  0.9033379E-01
        2   -1    0    0  501    0  0.00000000000E+00  0.00000000000E+00  0.65743016455E+03  0.65743016455E+03  0.25500000920E-02 0. -1.
       -2   -1    0    0    0  501  0.00000000000E+00  0.00000000000E+00 -0.63791863544E+03  0.63791863544E+03  0.25500000920E-02 0.  1.
    10030    2    1    2    0    0  0.00000000000E+00  0.00000000000E+00  0.19511529110E+02  0.12953488000E+04  0.12952018429E+04 0.  0.
        4    1    3    3  502    0 -0.44482760569E+03  0.16572220508E+03 -0.43080516184E+03  0.64103833615E+03  0.12699999809E+01 0.  1.
       -4    1    3    3    0  502  0.44482760569E+03 -0.16572220508E+03  0.45031669096E+03  0.65431046384E+03  0.12699999809E+01 0. -1.
</event>
<event>
 5   0  0.1694675E-03  0.1374455E+04  0.7818609E-02  0.8972519E-01
        2   -1    0    0  501    0  0.00000000000E+00  0.00000000000E+00  0.17184952609E+04  0.17184952609E+04  0.25500000920E-02 0.  1.
       -2   -1    0    0    0  501  0.00000000000E+00  0.00000000000E+00 -0.27482292940E+03  0.27482292941E+03  0.25500000920E-02 0. -1.
    10030    2    1    2    0    0  0.00000000000E+00  0.00000000000E+00  0.14436723315E+04  0.19933181903E+04  0.13744553856E+04 0.  0.
        4    1    3    3  502    0 -0.41068247085E+03  0.31449077004E+03  0.65658243898E+02  0.52141840608E+03  0.12699999809E+01 0. -1.
       -4    1    3    3    0  502  0.41068247085E+03 -0.31449077004E+03  0.13780140876E+04  0.14718997842E+04  0.12699999809E+01 0.  1.
</event>
<event>
 5   0  0.9098192E-04  0.1281387E+04  0.7818609E-02  0.9044457E-01
        1   -1    0    0  501    0  0.00000000000E+00  0.00000000000E+00  0.23498149596E+03  0.23498149601E+03  0.50400001928E-02 0.  1.
       -1   -1    0    0    0  501  0.00000000000E+00  0.00000000000E+00 -0.17468960572E+04  0.17468960572E+04  0.50400001928E-02 0. -1.
    10030    2    1    2    0    0  0.00000000000E+00  0.00000000000E+00 -0.15119145612E+04  0.19818775532E+04  0.12813871372E+04 0.  0.
        1    1    3    3  502    0 -0.35604247134E+03 -0.16667174460E+03 -0.15384272776E+04  0.15878615180E+04  0.50400001928E-02 0. -1.
       -1    1    3    3    0  502  0.35604247134E+03  0.16667174460E+03  0.26512716376E+02  0.39401603521E+03  0.50400001928E-02 0.  1.
</event>
<event>
 5   0  0.9215829E-04  0.1291178E+04  0.7818609E-02  0.9036590E-01
        1   -1    0    0  501    0  0.00000000000E+00  0.00000000000E+00  0.70714498340E+03  0.70714498342E+03  0.50400001928E-02 0. -1.
       -1   -1    0    0    0  501  0.00000000000E+00  0.00000000000E+00 -0.58939139315E+03  0.58939139318E+03  0.50400001928E-02 0.  1.
    10030    2    1    2    0    0  0.00000000000E+00  0.00000000000E+00  0.11775359025E+03  0.12965363766E+04  0.12911780155E+04 0.  0.
        3    1    3    3  502    0  0.16122000193E+03  0.59877654186E+03 -0.12147905369E+03  0.63188797012E+03  0.10100000352E+00 0.  1.
       -3    1    3    3    0  502 -0.16122000193E+03 -0.59877654186E+03  0.23923264394E+03  0.66464840647E+03  0.10100000352E+00 0. -1.
</event>
<event>
 5   0  0.1623890E-03  0.1303611E+04  0.7818609E-02  0.9026707E-01
       -2   -1    0    0    0  501  0.00000000000E+00  0.00000000000E+00  0.14200632942E+04  0.14200632942E+04  0.25500000920E-02 0. -1.
        2   -1    0    0  501    0  0.00000000000E+00  0.00000000000E+00 -0.29917688944E+03  0.29917688945E+03  0.25500000920E-02 0.  1.
    10030    2    1    2    0    0  0.00000000000E+00  0.00000000000E+00  0.11208864048E+04  0.17192401837E+04  0.13036105541E+04 0.  0.
        3    1    3    3  502    0  0.19845168591E+03 -0.99009898128E+01  0.13791475145E+04  0.13933875908E+04  0.10100000352E+00 0. -1.
       -3    1    3    3    0  502 -0.19845168591E+03  0.99009898128E+01 -0.25826110976E+03  0.32585259283E+03  0.10100000352E+00 0.  1.
</event>
<event>
 5   0  0.9027076E-04  0.1306719E+04  0.7818609E-02  0.9024254E-01
        1   -1    0    0  501    0  0.00000000000E+00  0.00000000000E+00  0.72751960350E+03  0.72751960352E+03  0.50400001928E-02 0. -1.
       -1   -1    0    0    0  501  0.00000000000E+00  0.00000000000E+00 -0.58675864942E+03  0.58675864944E+03  0.50400001928E-02 0.  1.
    10030    2    1    2    0    0  0.00000000000E+00  0.00000000000E+00  0.14076095409E+03  0.13142782530E+04  0.13067186690E+04 0.  0.
        5    1    3    3  502    0  0.15180047111E+03 -0.62865537809E+03 -0.22921277894E+02  0.64714638407E+03  0.46999998093E+01 0. -1.
       -5    1    3    3    0  502 -0.15180047111E+03  0.62865537809E+03  0.16368223198E+03  0.66713186889E+03  0.46999998093E+01 0.  1.
</event>
<event>
 5   0  0.9081324E-04  0.1052874E+04  0.7818609E-02  0.9252382E-01
        1   -1    0    0  501    0  0.00000000000E+00  0.00000000000E+00  0.24368688197E+04  0.24368688197E+04  0.50400001928E-02 0. -1.
       -1   -1    0    0    0  501  0.00000000000E+00  0.00000000000E+00 -0.11372629791E+03  0.11372629802E+03  0.50400001928E-02 0.  1.
    10030    2    1    2    0    0  0.00000000000E+00  0.00000000000E+00  0.23231425218E+04  0.25505951178E+04  0.10528742936E+04 0.  0.
        4    1    3    3  502    0 -0.89246933787E+02 -0.52000151319E+02 -0.88933746285E+02  0.13630794201E+03  0.12699999809E+01 0.  1.
       -4    1    3    3    0  502  0.89246933787E+02  0.52000151319E+02  0.24120762681E+04  0.24142871758E+04  0.12699999809E+01 0. -1.
</event>
<event>
 5   0  0.1694675E-03  0.1285603E+04  0.7818609E-02  0.9041061E-01
       -2   -1    0    0    0  501  0.00000000000E+00  0.00000000000E+00  0.18367955169E+03  0.18367955171E+03  0.25500000920E-02 0.  1.
        2   -1    0    0  501    0  0.00000000000E+00  0.00000000000E+00 -0.22495342780E+04  0.22495342780E+04  0.25500000920E-02 0. -1.
    10030    2    1    2    0    0  0.00000000000E+00  0.00000000000E+00 -0.20658547263E+04  0.24332138298E+04  0.12856025011E+04 0.  0.
        4    1    3    3  502    0  0.46663095107E+03  0.13806288404E+03 -0.23803987561E+03  0.54172908333E+03  0.12699999809E+01 0.  1.
       -4    1    3    3    0  502 -0.46663095107E+03 -0.13806288404E+03 -0.18278148507E+04  0.18914847464E+04  0.12699999809E+01 0. -1.
</event>
<event>
 5   0  0.1714861E-03  0.1307166E+04  0.7818609E-02  0.9023902E-01
        2   -1    0    0  501    0  0.00000000000E+00  0.00000000000E+00  0.63108552263E+03  0.63108552263E+03  0.25500000920E-02 0. -1.
       -2   -1    0    0    0  501  0.00000000000E+00  0.00000000000E+00 -0.67688201516E+03  0.67688201516E+03  0.25500000920E-02 0.  1.
    10030    2    1    2    0    0  0.00000000000E+00  0.00000000000E+00 -0.45796492529E+02  0.13079675378E+04  0.13071655447E+04 0.  0.
        1    1    3    3  502    0  0.19014114867E+03 -0.35374562241E+03 -0.53885093157E+03  0.67204906686E+03  0.50400001928E-02 0.  1.
       -1    1    3    3    0  502 -0.19014114867E+03  0.35374562241E+03  0.49305443904E+03  0.63591847093E+03  0.50400001928E-02 0. -1.
</event>
<event>
 5   0  0.9110949E-04  0.1298746E+04  0.7818609E-02  0.9030560E-01
        1   -1    0    0  501    0  0.00000000000E+00  0.00000000000E+00  0.95506782085E+03  0.95506782086E+03  0.50400001928E-02 0. -1.
       -1   -1    0    0    0  501  0.00000000000E+00  0.00000000000E+00 -0.44152424868E+03  0.44152424871E+03  0.50400001928E-02 0.  1.
    10030    2    1    2    0    0  0.00000000000E+00  0.00000000000E+00  0.51354357217E+03  0.13965920696E+04  0.12987464758E+04 0.  0.
        2    1    3    3  502    0  0.14005012669E+03 -0.41831623547E+02 -0.42360540272E+03  0.44811322223E+03  0.25500000920E-02 0.  1.
       -2    1    3    3    0  502 -0.14005012669E+03  0.41831623547E+02  0.93714897489E+03  0.94847884734E+03  0.25500000920E-02 0. -1.
</event>
<event>
 5   0  0.1700511E-03  0.1434012E+04  0.7818609E-02  0.8929560E-01
       -2   -1    0    0    0  501  0.00000000000E+00  0.00000000000E+00  0.68683530887E+03  0.68683530887E+03  0.25500000920E-02 0. -1.
        2   -1    0    0  501    0  0.00000000000E+00  0.00000000000E+00 -0.74850217811E+03  0.74850217811E+03  0.25500000920E-02 0.  1.
    10030    2    1    2    0    0  0.00000000000E+00  0.00000000000E+00 -0.61666869240E+02  0.14353374870E+04  0.14340121683E+04 0.  0.
        2    1    3    3  502    0 -0.21689568526E+03 -0.54295929887E+03 -0.44624614484E+03  0.73551625428E+03  0.25500000920E-02 0.  1.
       -2    1    3    3    0  502  0.21689568526E+03  0.54295929887E+03  0.38457927560E+03  0.69982123270E+03  0.25500000920E-02 0. -1.
</event>
<event>
 5   0  0.1714861E-03  0.1298063E+04  0.7818609E-02  0.9031102E-01
       -2   -1    0    0    0  501  0.00000000000E+00  0.00000000000E+00  0.41949296177E+03  0.41949296178E+03  0.25500000920E-02 0.  1.
        2   -1    0    0  501    0  0.00000000000E+00  0.00000000000E+00 -0.10041696830E+04  0.10041696830E+04  0.25500000920E-02 0. -1.
    10030    2    1    2    0    0  0.00000000000E+00  0.00000000000E+00 -0.58467672126E+03  0.14236626448E+04  0.12980633489E+04 0.  0.
        1    1    3    3  502    0  0.38154761019E+03  0.13477126047E+03 -0.84888302524E+03  0.94039580074E+03  0.50400001928E-02 0. -1.
       -1    1    3    3    0  502 -0.38154761019E+03 -0.13477126047E+03  0.26420630398E+03  0.48326684407E+03  0.50400001928E-02 0.  1.
</event>
<event>
 5   0  0.1623890E-03  0.1280825E+04  0.7818609E-02  0.9044910E-01
       -2   -1    0    0    0  501  0.00000000000E+00  0.00000000000E+00  0.41263671495E+03  0.41263671496E+03  0.25500000920E-02 0.  1.
        2   -1    0    0  501    0  0.00000000000E+00  0.00000000000E+00 -0.99392139541E+03  0.99392139541E+03  0.25500000920E-02 0. -1.
    10030    2    1    2    0    0  0.00000000000E+00  0.00000000000E+00 -0.58128468046E+03  0.14065581104E+04  0.12808254518E+04 0.  0.
        3    1    3    3  502    0 -0.19081180990E+03 -0.60387753707E+03 -0.18616518073E+03  0.66010204612E+03  0.10100000352E+00 0.  1.
       -3    1    3    3    0  502  0.19081180990E+03  0.60387753707E+03 -0.39511949973E+03  0.74645606424E+03  0.10100000352E+00 0. -1.
</event>
<event>
 5   0  0.1700511E-03  0.1291582E+04  0.7818609E-02  0.9036268E-01
        2   -1    0    0  501    0  0.00000000000E+00  0.00000000000E+00  0.10300932049E+04  0.10300932049E+04  0.25500000920E-02 0.  1.
       -2   -1    0    0    0  501  0.00000000000E+00  0.00000000000E+00 -0.40486237165E+03  0.40486237166E+03  0.25500000920E-02 0. -1.
    10030    2    1    2    0    0  0.00000000000E+00  0.00000000000E+00  0.62523083320E+03  0.14349555765E+04  0.12915819416E+04 0.  0.
        2    1    3    3  502    0  0.54033105774E+03 -0.67374868146E+02 -0.73127725495E+02  0.54940393979E+03  0.25500000920E-02 0. -1.
       -2    1    3    3    0  502 -0.54033105774E+03  0.67374868146E+02  0.69835855870E+03  0.88555163673E+03  0.25500000920E-02 0.  1.
</event>
<event>
 5   0  0.9027076E-04  0.1292016E+04  0.7818609E-02  0.9035920E-01
        1   -1    0    0  501    0  0.00000000000E+00  0.00000000000E+00  0.19496158287E+04  0.19496158287E+04  0.50400001928E-02 0.  1.
       -1   -1    0    0    0  501  0.00000000000E+00  0.00000000000E+00 -0.21405579569E+03  0.21405579575E+03  0.50400001928E-02 0. -1.
    10030    2    1    2    0    0  0.00000000000E+00  0.00000000000E+00  0.17355600330E+04  0.21636716245E+04  0.12920163584E+04 0.  0.
        5    1    3    3  502    0 -0.12858845953E+03 -0.35073394408E+03  0.17503607152E+04  0.17897860248E+04  0.46999998093E+01 0.  1.
       -5    1    3    3    0  502  0.12858845953E+03  0.35073394408E+03 -0.14800682123E+02  0.37388559967E+03  0.46999998093E+01 0. -1.
</event>
<event>
 5   0  0.1694675E-03  0.1285030E+04  0.7818609E-02  0.9041521E-01
       -2   -1    0    0    0  501  0.00000000000E+00  0.00000000000E+00  0.94461390899E+03  0.94461390900E+03  0.25500000920E-02 0.  1.
        2   -1    0    0  501    0  0.00000000000E+00  0.00000000000E+00 -0.43703103221E+03  0.43703103222E+03  0.25500000920E-02 0. -1.
    10030    2    1    2    0    0  0.00000000000E+00  0.00000000000E+00  0.50758287678E+03  0.13816449412E+04  0.12850301035E+04 0.  0.
        4    1    3    3  502    0  0.50185797139E+03 -0.21417029558E+03 -0.11096990959E+03  0.55681798884E+03  0.12699999809E+01 0. -1.
       -4    1    3    3    0  502 -0.50185797139E+03  0.21417029558E+03  0.61855278637E+03  0.82482695238E+03  0.12699999809E+01 0.  1.
</event>
<event>
 5   0  0.9215829E-04  0.1301429E+04  0.7818609E-02  0.9028433E-01
       -1   -1    0    0    0  501  0.00000000000E+00  0.00000000000E+00  0.69748225630E+03  0.69748225631E+03  0.50400001928E-02 0.  1.
        1   -1    0    0  501    0  0.00000000000E+00  0.00000000000E+00 -0.60708286572E+03  0.60708286574E+03  0.50400001928E-02 0. -1.
    10030    2    1    2    0    0  0.00000000000E+00  0.00000000000E+00  0.90399390580E+02  0.13045651220E+04  0.13014292558E+04 0.  0.
        3    1    3    3  502    0  0.44616364878E+03  0.12319255337E+03 -0.41327651987E+03  0.62051260969E+03  0.10100000352E+00 0. -1.
       -3    1    3    3    0  502 -0.44616364878E+03 -0.12319255337E+03  0.50367591045E+03  0.68405251236E+03  0.10100000352E+00 0.  1.
</event>
<event>
 5   0  0.9098192E-04  0.1278751E+04  0.7818609E-02  0.9046587E-01
        1   -1    0    0  501    0  0.00000000000E+00  0.00000000000E+00  0.10747602937E+04  0.10747602937E+04  0.50400001928E-02 0. -1.
       -1   -1    0    0    0  501  0.00000000000E+00  0.00000000000E+00 -0.38036495212E+03  0.38036495216E+03  0.50400001928E-02 0.  1.
    10030    2    1    2    0    0  0.00000000000E+00  0.00000000000E+00  0.69439534155E+03  0.14551252458E+04  0.12787511841E+04 0.  0.
        1    1    3    3  502    0  0.39226621705E+03 -0.50168158369E+03  0.28238625877E+03  0.69663419068E+03  0.50400001928E-02 0.  1.
       -1    1    3    3    0  502 -0.39226621705E+03  0.50168158369E+03  0.41200908278E+03  0.75849105517E+03  0.50400001928E-02 0. -1.
</event>
<event>
 5   0  0.1623890E-03  0.1317105E+04  0.7818609E-02  0.9016109E-01
        2   -1    0    0  501    0  0.00000000000E+00  0.00000000000E+00  0.87158808165E+03  0.87158808165E+03  0.25500000920E-02 0. -1.
       -2   -1    0    0    0  501  0.00000000000E+00  0.00000000000E+00 -0.49758779149E+03  0.49758779150E+03  0.25500000920E-02 0.  1.
    10030    2    1    2    0    0  0.00000000000E+00  0.00000000000E+00  0.37400029015E+03  0.13691758732E+04  0.13171052937E+04 0.  0.
        3    1    3    3  502    0 -0.49018294238E+03  0.38102990793E+03 -0.41291747172E+02  0.62222835545E+03  0.10100000352E+00 0.  1.
       -3    1    3    3    0  502  0.49018294238E+03 -0.38102990793E+03  0.41529203732E+03  0.74694751770E+03  0.10100000352E+00 0. -1.
</event>
<event>
 5   0  0.6284125E-04  0.1297145E+04  0.7818609E-02  0.9031833E-01
       -3   -1    0    0    0  501  0.00000000000E+00  0.00000000000E+00  0.66349236304E+03  0.66349237073E+03  0.10100000352E+00 0.  1.
        3   -1    0    0  501    0  0.00000000000E+00  0.00000000000E+00 -0.63398777406E+03  0.63398778210E+03  0.10100000352E+00 0. -1.
    10030    2    1    2    0    0  0.00000000000E+00  0.00000000000E+00  0.29504588984E+02  0.12974801528E+04  0.12971446435E+04 0.  0.
        2    1    3    3  502    0  0.38835704210E+03  0.46860257763E+03  0.23894524613E+03  0.65383820518E+03  0.25500000920E-02 0.  1.
       -2    1    3    3    0  502 -0.38835704210E+03 -0.46860257763E+03 -0.20944065714E+03  0.64364194765E+03  0.25500000920E-02 0. -1.
</event>
<event>
 5   0  0.9215829E-04  0.1298852E+04  0.7818609E-02  0.9030476E-01
       -1   -1    0    0    0  501  0.00000000000E+00  0.00000000000E+00  0.20674752632E+03  0.20674752638E+03  0.50400001928E-02 0. -1.
        1   -1    0    0  501    0  0.00000000000E+00  0.00000000000E+00 -0.20399482915E+04  0.20399482915E+04  0.50400001928E-02 0.  1.
    10030    2    1    2    0    0  0.00000000000E+00  0.00000000000E+00 -0.18332007651E+04  0.22466958179E+04  0.12988522059E+04 0.  0.
        3    1    3    3  502    0  0.89906794686E+02 -0.63260343536E+03 -0.71574080713E+03  0.95945570578E+03  0.10100000352E+00 0. -1.
       -3    1    3    3    0  502 -0.89906794686E+02  0.63260343536E+03 -0.11174599580E+04  0.12872401121E+04  0.10100000352E+00 0.  1.
</event>
<event>
 5   0  0.9081324E-04  0.1299541E+04  0.7818609E-02  0.9029930E-01
        1   -1    0    0  501    0  0.00000000000E+00  0.00000000000E+00  0.10410469380E+04  0.10410469380E+04  0.50400001928E-02 0. -1.
       -1   -1    0    0    0  501  0.00000000000E+00  0.00000000000E+00 -0.40555460992E+03  0.40555460995E+03  0.50400001928E-02 0.  1.
    10030    2    1    2    0    0  0.00000000000E+00  0.00000000000E+00  0.63549232805E+03  0.14466015479E+04  0.12995405109E+04 0.  0.
        4    1    3    3  502    0  0.16353195845E+03 -0.60115525449E+03  0.52321290871E+03  0.81356235298E+03  0.12699999809E+01 0.  1.
       -4    1    3    3    0  502 -0.16353195845E+03  0.60115525449E+03  0.11227941935E+03  0.63303919495E+03  0.12699999809E+01 0. -1.
</event>
<event>
 5   0  0.9027076E-04  0.1294810E+04  0.7818609E-02  0.9033691E-01
        1   -1    0    0  501    0  0.00000000000E+00  0.00000000000E+00  0.81957396529E+03  0.81957396531E+03  0.50400001928E-02 0. -1.
       -1   -1    0    0    0  501  0.00000000000E+00  0.00000000000E+00 -0.51140371665E+03  0.51140371668E+03  0.50400001928E-02 0.  1.
    10030    2    1    2    0    0  0.00000000000E+00  0.00000000000E+00  0.30817024864E+03  0.13309776820E+04  0.12948099041E+04 0.  0.
        5    1    3    3  502    0  0.99878231012E+02  0.52476849572E+03  0.53002401175E+03  0.75253250970E+03  0.46999998093E+01 0. -1.
       -5    1    3    3    0  502 -0.99878231012E+02 -0.52476849572E+03 -0.22185376311E+03  0.57844517228E+03  0.46999998093E+01 0.  1.
</event>
<event>
 5   0  0.9081324E-04  0.1289026E+04  0.7818609E-02  0.9038313E-01
        1   -1    0    0  501    0  0.00000000000E+00  0.00000000000E+00  0.64213114478E+03  0.64213114480E+03  0.50400001928E-02 0.  1.
       -1   -1    0    0    0  501  0.00000000000E+00  0.00000000000E+00 -0.64690397187E+03  0.64690397189E+03  0.50400001928E-02 0. -1.
    10030    2    1    2    0    0  0.00000000000E+00  0.00000000000E+00 -0.47728270917E+01  0.12890351167E+04  0.12890262806E+04 0.  0.
        4    1    3    3  502    0  0.30593819993E+03 -0.42018748234E+03 -0.38349251930E+03  0.64592865531E+03  0.12699999809E+01 0. -1.
       -4    1    3    3    0  502 -0.30593819993E+03  0.42018748234E+03  0.37871969221E+03  0.64310646137E+03  0.12699999809E+01 0.  1.
</event>
<event>
 5   0  0.1623890E-03  0.1295961E+04  0.7818609E-02  0.9032774E-01
        2   -1    0    0  501    0  0.00000000000E+00  0.00000000000E+00  0.13771705249E+04  0.13771705249E+04  0.25500000920E-02 0. -1.
       -2   -1    0    0    0  501  0.00000000000E+00  0.00000000000E+00 -0.30488528899E+03  0.30488528900E+03  0.25500000920E-02 0.  1.
    10030    2    1    2    0    0  0.00000000000E+00  0.00000000000E+00  0.10722852359E+04  0.16820558139E+04  0.12959614708E+04 0.  0.
        3    1    3    3  502    0 -0.16659910521E+03 -0.46585556269E+03 -0.69755207271E+01  0.49479827732E+03  0.10100000352E+00 0.  1.
       -3    1    3    3    0  502  0.16659910521E+03  0.46585556269E+03  0.10792607566E+04  0.11872575366E+04  0.10100000352E+00 0. -1.
</event>
<event>
 5   0  0.9098192E-04  0.1248131E+04  0.7818609E-02  0.9071740E-01
        1   -1    0    0  501    0  0.00000000000E+00  0.00000000000E+00  0.33859525434E+03  0.33859525437E+03  0.50400001928E-02 0. -1.
       -1   -1    0    0    0  501  0.00000000000E+00  0.00000000000E+00 -0.11502163374E+04  0.11502163374E+04  0.50400001928E-02 0.  1.
    10030    2    1    2    0    0  0.00000000000E+00  0.00000000000E+00 -0.81162108307E+03  0.14888115918E+04  0.12481310722E+04 0.  0.
        1    1    3    3  502    0 -0.58883548158E+03  0.17694861960E+03 -0.27834055522E+03  0.67491592295E+03  0.50400001928E-02 0.  1.
       -1    1    3    3    0  502  0.58883548158E+03 -0.17694861960E+03 -0.53328052785E+03  0.81389566884E+03  0.50400001928E-02 0. -1.
</event>
<event>
 5   0  0.1623890E-03  0.1292070E+04  0.7818609E-02  0.9035877E-01
       -2   -1    0    0    0  501  0.00000000000E+00  0.00000000000E+00  0.59543220320E+03  0.59543220320E+03  0.25500000920E-02 0.  1.
        2   -1    0    0  501    0  0.00000000000E+00  0.00000000000E+00 -0.70093832330E+03  0.70093832330E+03  0.25500000920E-02 0. -1.
    10030    2    1    2    0    0  0.00000000000E+00  0.00000000000E+00 -0.10550612010E+03  0.12963705265E+04  0.12920700448E+04 0.  0.
        3    1    3    3  502    0  0.63929293579E+03  0.24700107789E+02  0.37299150722E+02  0.64085629428E+03  0.10100000352E+00 0. -1.
       -3    1    3    3    0  502 -0.63929293579E+03 -0.24700107789E+02 -0.14280527083E+03  0.65551423223E+03  0.10100000352E+00 0.  1.
</event>
<event>
 5   0  0.1694675E-03  0.1291269E+04  0.7818609E-02  0.9036517E-01
       -2   -1    0    0    0  501  0.00000000000E+00  0.00000000000E+00  0.22398125196E+03  0.22398125197E+03  0.25500000920E-02 0.  1.
        2   -1    0    0  501    0  0.00000000000E+00  0.00000000000E+00 -0.18610670917E+04  0.18610670917E+04  0.25500000920E-02 0. -1.
    10030    2    1    2    0    0  0.00000000000E+00  0.00000000000E+00 -0.16370858398E+04  0.20850483437E+04  0.12912693556E+04 0.  0.
        4    1    3    3  502    0  0.22382479360E+03 -0.57796263996E+03 -0.11105550346E+04  0.12717989028E+04  0.12699999809E+01 0. -1.
       -4    1    3    3    0  502 -0.22382479360E+03  0.57796263996E+03 -0.52653080519E+03  0.81324944091E+03  0.12699999809E+01 0.  1.
</event>
<event>
 5   0  0.9081324E-04  0.1298462E+04  0.7818609E-02  0.9030786E-01
        1   -1    0    0  501    0  0.00000000000E+00  0.00000000000E+00  0.12152458560E+04  0.12152458560E+04  0.50400001928E-02 0.  1.
       -1   -1    0    0    0  501  0.00000000000E+00  0.00000000000E+00 -0.34684388321E+03  0.34684388324E+03  0.50400001928E-02 0. -1.
    10030    2    1    2    0    0  0.00000000000E+00  0.00000000000E+00  0.86840197278E+03  0.15620897392E+04  0.12984615386E+04 0.  0.
        4    1    3    3  502    0 -0.19304040218E+03 -0.55603526739E+02  0.11769133488E+04  0.11939359248E+04  0.12699999809E+01 0.  1.
       -4    1    3    3    0  502  0.19304040218E+03  0.55603526739E+02 -0.30851137601E+03  0.36815381444E+03  0.12699999809E+01 0. -1.
</event>
<event>
 5   0  0.9098192E-04  0.1317536E+04  0.7818609E-02  0.9015773E-01
       -1   -1    0    0    0  501  0.00000000000E+00  0.00000000000E+00  0.87000306975E+03  0.87000306977E+03  0.50400001928E-02 0.  1.
        1   -1    0    0  501    0  0.00000000000E+00  0.00000000000E+00 -0.49882047973E+03  0.49882047975E+03  0.50400001928E-02 0. -1.
    10030    2    1    2    0    0  0.00000000000E+00  0.00000000000E+00  0.37118259003E+03  0.13688235495E+04  0.13175361075E+04 0.  0.
        1    1    3    3  502    0 -0.59662421248E+03  0.66221741593E+01  0.47569389314E+03  0.76307862250E+03  0.50400001928E-02 0. -1.
       -1    1    3    3    0  502  0.59662421248E+03 -0.66221741593E+01 -0.10451130312E+03  0.60574492703E+03  0.50400001928E-02 0.  1.
</event>
<event>
 5   0  0.1700511E-03  0.1279814E+04  0.7818609E-02  0.9045728E-01
        2   -1    0    0  501    0  0.00000000000E+00  0.00000000000E+00  0.11280432345E+04  0.11280432345E+04  0.25500000920E-02 0.  1.
       -2   -1    0    0    0  501  0.00000000000E+00  0.00000000000E+00 -0.36300118285E+03  0.36300118286E+03  0.25500000920E-02 0. -1.
    10030    2    1    2    0    0  0.00000000000E+00  0.00000000000E+00  0.76504205167E+03  0.14910444174E+04  0.12798140935E+04 0.  0.
        2    1    3    3  502    0  0.43194886944E+03 -0.13393089123E+03 -0.14493005789E+03  0.47489159934E+03  0.25500000920E-02 0. -1.
       -2    1    3    3    0  502 -0.43194886944E+03  0.13393089123E+03  0.90997210957E+03  0.10161528181E+04  0.25500000920E-02 0.  1.
</event>
<event>
 5   0  0.1623890E-03  0.1300728E+04  0.7818609E-02  0.9028988E-01
        2   -1    0    0  501    0  0.00000000000E+00  0.00000000000E+00  0.17861604174E+04  0.17861604174E+04  0.25500000920E-02 0. -1.
       -2   -1    0    0    0  501  0.00000000000E+00  0.00000000000E+00 -0.23680593688E+03  0.23680593689E+03  0.25500000920E-02 0.  1.
    10030    2    1    2    0    0  0.00000000000E+00  0.00000000000E+00  0.15493544805E+04  0.20229663543E+04  0.13007280901E+04 0.  0.
        3    1    3    3  502    0 -0.21382441554E+03 -0.37230054548E+03  0.14914254036E+02  0.42959402000E+03  0.10100000352E+00 0.  1.
       -3    1    3    3    0  502  0.21382441554E+03  0.37230054548E+03  0.15344402265E+04  0.15933723343E+04  0.10100000352E+00 0. -1.
</event>
<event>
 5   0  0.9081324E-04  0.1328722E+04  0.7818609E-02  0.9007094E-01
       -1   -1    0    0    0  501  0.00000000000E+00  0.00000000000E+00  0.26828518633E+03  0.26828518638E+03  0.50400001928E-02 0.  1.
        1   -1    0    0  501    0  0.00000000000E+00  0.00000000000E+00 -0.16451721105E+04  0.16451721106E+04  0.50400001928E-02 0. -1.
    10030    2    1    2    0    0  0.00000000000E+00  0.00000000000E+00 -0.13768869242E+04  0.19134572969E+04  0.13287216507E+04 0.  0.
        4    1    3    3  502    0 -0.26085162049E+03  0.60988292865E+03 -0.63508413384E+03  0.91833230616E+03  0.12699999809E+01 0. -1.
       -4    1    3    3    0  502  0.26085162049E+03 -0.60988292865E+03 -0.74180279037E+03  0.99512499077E+03  0.12699999809E+01 0.  1.
</event>
<event>
 5   0  0.9110949E-04  0.1306694E+04  0.7818609E-02  0.9024274E-01
       -1   -1    0    0    0  501  0.00000000000E+00  0.00000000000E+00  0.48089826385E+03  0.48089826388E+03  0.50400001928E-02 0. -1.
        1   -1    0    0  501    0  0.00000000000E+00  0.00000000000E+00 -0.88763500436E+03  0.88763500438E+03  0.50400001928E-02 0.  1.
    10030    2    1    2    0    0  0.00000000000E+00  0.00000000000E+00 -0.40673674051E+03  0.13685332683E+04  0.13066937400E+04 0.  0.
        2    1    3    3  502    0 -0.25145571272E+03  0.59257951675E+03 -0.86359723563E+02  0.64949092449E+03  0.25500000920E-02 0.  1.
       -2    1    3    3    0  502  0.25145571272E+03 -0.59257951675E+03 -0.32037701695E+03  0.71904234377E+03  0.25500000920E-02 0. -1.
</event>
<event>
 5   0  0.9098192E-04  0.1306127E+04  0.7818609E-02  0.9024720E-01
        1   -1    0    0  501    0  0.00000000000E+00  0.00000000000E+00  0.26627180333E+03  0.26627180337E+03  0.50400001928E-02 0.  1.
       -1   -1    0    0    0  501  0.00000000000E+00  0.00000000000E+00 -0.16017175682E+04  0.16017175682E+04  0.50400001928E-02 0. -1.
    10030    2    1    2    0    0  0.00000000000E+00  0.00000000000E+00 -0.13354457648E+04  0.18679893715E+04  0.13061274445E+04 0.  0.
        1    1    3    3  502    0 -0.77367787658E+02 -0.53729200213E+03 -0.14846190635E+03  0.56276940907E+03  0.50400001928E-02 0.  1.
       -1    1    3    3    0  502  0.77367787658E+02  0.53729200213E+03 -0.11869838585E+04  0.13052199625E+04  0.50400001928E-02 0. -1.
</event>
<event>
 5   0  0.1700511E-03  0.1305493E+04  0.7818609E-02  0.9025221E-01
       -2   -1    0    0    0  501  0.00000000000E+00  0.00000000000E+00  0.56229920152E+03  0.56229920153E+03  0.25500000920E-02 0. -1.
        2   -1    0    0  501    0  0.00000000000E+00  0.00000000000E+00 -0.75774242374E+03  0.75774242374E+03  0.25500000920E-02 0.  1.
    10030    2    1    2    0    0  0.00000000000E+00  0.00000000000E+00 -0.19544322221E+03  0.13200416253E+04  0.13054929488E+04 0.  0.
        2    1    3    3  502    0 -0.45737181304E+03 -0.44625954087E+03  0.36959633441E+02  0.64008012599E+03  0.25500000920E-02 0.  1.
       -2    1    3    3    0  502  0.45737181304E+03  0.44625954087E+03 -0.23240285565E+03  0.67996149928E+03  0.25500000920E-02 0. -1.
</event>
<event>
 5   0  0.9027076E-04  0.1063276E+04  0.7818609E-02  0.9241744E-01
        1   -1    0    0  501    0  0.00000000000E+00  0.00000000000E+00  0.10482731008E+04  0.10482731008E+04  0.50400001928E-02 0.  1.
       -1   -1    0    0    0  501  0.00000000000E+00  0.00000000000E+00 -0.26962351605E+03  0.26962351609E+03  0.50400001928E-02 0. -1.
    10030    2    1    2    0    0  0.00000000000E+00  0.00000000000E+00  0.77864958472E+03  0.13178966169E+04  0.10632762186E+04 0.  0.
        5    1    3    3  502    0 -0.94432798782E+02 -0.45634161493E+03  0.70642456306E+03  0.84629957834E+03  0.46999998093E+01 0.  1.
       -5    1    3    3    0  502  0.94432798782E+02  0.45634161493E+03  0.72225021669E+02  0.47159703854E+03  0.46999998093E+01 0. -1.
</event>
<event>
 5   0  0.9215829E-04  0.1296350E+04  0.7818609E-02  0.9032465E-01
       -1   -1    0    0    0  501  0.00000000000E+00  0.00000000000E+00  0.61668345216E+03  0.61668345218E+03  0.50400001928E-02 0. -1.
        1   -1    0    0  501    0  0.00000000000E+00  0.00000000000E+00 -0.68127464287E+03  0.68127464288E+03  0.50400001928E-02 0.  1.
    10030    2    1    2    0    0  0.00000000000E+00  0.00000000000E+00 -0.64591190710E+02  0.12979580951E+04  0.12963499507E+04 0.  0.
        3    1    3    3  502    0  0.58350032488E+03  0.42558358755E+02  0.24706117681E+03  0.63507722234E+03  0.10100000352E+00 0.  1.
       -3    1    3    3    0  502 -0.58350032488E+03 -0.42558358755E+02 -0.31165236752E+03  0.66288087272E+03  0.10100000352E+00 0. -1.
</event>
<event>
 5   0  0.1623890E-03  0.1363510E+04  0.7818609E-02  0.8980664E-01
       -2   -1    0    0    0  501  0.00000000000E+00  0.00000000000E+00  0.81470251732E+03  0.81470251732E+03  0.25500000920E-02 0. -1.
        2   -1    0    0  501    0  0.00000000000E+00  0.00000000000E+00 -0.57050275271E+03  0.57050275272E+03  0.25500000920E-02 0.  1.
    10030    2    1    2    0    0  0.00000000000E+00  0.00000000000E+00  0.24419976461E+03  0.13852052700E+04  0.13635102182E+04 0.  0.
        3    1    3    3  502    0 -0.11982964167E+03  0.64745812000E+03 -0.57428779015E+02  0.66095327749E+03  0.10100000352E+00 0. -1.
       -3    1    3    3    0  502  0.11982964167E+03 -0.64745812000E+03  0.30162854362E+03  0.72425199254E+03  0.10100000352E+00 0.  1.
</event>
<event>
 5   0  0.1623890E-03  0.1299360E+04  0.7818609E-02  0.9030073E-01
        2   -1    0    0  501    0  0.00000000000E+00  0.00000000000E+00  0.71478308377E+03  0.71478308378E+03  0.25500000920E-02 0. -1.
       -2   -1    0    0    0  501  0.00000000000E+00  0.00000000000E+00 -0.59050692073E+03  0.59050692073E+03  0.25500000920E-02 0.  1.
    10030    2    1    2    0    0  0.00000000000E+00  0.00000000000E+00  0.12427616305E+03  0.13052900045E+04  0.12993603931E+04 0.  0.
        3    1    3    3  502    0  0.21803296914E+03 -0.24536620661E+02 -0.55216208011E+03  0.59415771837E+03  0.10100000352E+00 0.  1.
       -3    1    3    3    0  502 -0.21803296914E+03  0.24536620661E+02  0.67643824315E+03  0.71113228614E+03  0.10100000352E+00 0. -1.
</event>
<event>
 5   0  0.9098192E-04  0.1228896E+04  0.7818609E-02  0.9087933E-01
        1   -1    0    0  501    0  0.00000000000E+00  0.00000000000E+00  0.17434916187E+04  0.17434916187E+04  0.50400001928E-02 0.  1.
       -1   -1    0    0    0  501  0.00000000000E+00  0.00000000000E+00 -0.21654604990E+03  0.21654604995E+03  0.50400001928E-02 0. -1.
    10030    2    1    2    0    0  0.00000000000E+00  0.00000000000E+00  0.15269455688E+04  0.19600376686E+04  0.12288958021E+04 0.  0.
        1    1    3    3  502    0 -0.26822472718E+03 -0.25216094105E+03 -0.21169874222E+02  0.36875168889E+03  0.50400001928E-02 0. -1.
       -1    1    3    3    0  502  0.26822472718E+03  0.25216094105E+03  0.15481154430E+04  0.15912859797E+04  0.50400001928E-02 0.  1.
</event>
<event>
 5   0  0.1714861E-03  0.1293422E+04  0.7818609E-02  0.9034798E-01
        2   -1    0    0  501    0  0.00000000000E+00  0.00000000000E+00  0.69926143654E+03  0.69926143655E+03  0.25500000920E-02 0.  1.
       -2   -1    0    0    0  501  0.00000000000E+00  0.00000000000E+00 -0.59811006398E+03  0.59811006398E+03  0.25500000920E-02 0. -1.
    10030    2    1    2    0    0  0.00000000000E+00  0.00000000000E+00  0.10115137257E+03  0.12973715005E+04  0.12934222861E+04 0.  0.
        1    1    3    3  502    0  0.50976325777E+02  0.52124267385E+02  0.69512604748E+03  0.69893901519E+03  0.50400001928E-02 0.  1.
       -1    1    3    3    0  502 -0.50976325777E+02 -0.52124267385E+02 -0.59397467492E+03  0.59843248534E+03  0.50400001928E-02 0. -1.
</event>
<event>
 5   0  0.9110949E-04  0.1297697E+04  0.7818609E-02  0.9031393E-01
       -1   -1    0    0    0  501  0.00000000000E+00  0.00000000000E+00  0.19214310420E+04  0.19214310420E+04  0.50400001928E-02 0. -1.
        1   -1    0    0  501    0  0.00000000000E+00  0.00000000000E+00 -0.21910987328E+03  0.21910987334E+03  0.50400001928E-02 0.  1.
    10030    2    1    2    0    0  0.00000000000E+00  0.00000000000E+00  0.17023211688E+04  0.21405409154E+04  0.12976972100E+04 0.  0.
        2    1    3    3  502    0  0.52728736227E+03  0.30515805476E+03  0.12194485987E+04  0.13631611371E+04  0.25500000920E-02 0. -1.
       -2    1    3    3    0  502 -0.52728736227E+03 -0.30515805476E+03  0.48287257011E+03  0.77737977833E+03  0.25500000920E-02 0.  1.
</event>
<event>
 5   0  0.9098192E-04  0.1300096E+04  0.7818609E-02  0.9029489E-01
        1   -1    0    0  501    0  0.00000000000E+00  0.00000000000E+00  0.95485632857E+03  0.95485632859E+03  0.50400001928E-02 0.  1.
       -1   -1    0    0    0  501  0.00000000000E+00  0.00000000000E+00 -0.44254058823E+03  0.44254058826E+03  0.50400001928E-02 0. -1.
    10030    2    1    2    0    0  0.00000000000E+00  0.00000000000E+00  0.51231574034E+03  0.13973969168E+04  0.13000964293E+04 0.  0.
        1    1    3    3  502    0  0.32923371017E+03  0.11818975514E+03 -0.33275203025E+03  0.48279143302E+03  0.50400001928E-02 0. -1.
       -1    1    3    3    0  502 -0.32923371017E+03 -0.11818975514E+03  0.84506777059E+03  0.91460548383E+03  0.50400001928E-02 0.  1.
</event>
<event>
 5   0  0.6284125E-04  0.1305699E+04  0.7818609E-02  0.9025058E-01
       -4   -1    0    0    0  501  0.00000000000E+00  0.00000000000E+00  0.11133197239E+04  0.11133204482E+04  0.12699999809E+01 0. -1.
        4   -1    0    0  501    0  0.00000000000E+00  0.00000000000E+00 -0.38282810545E+03  0.38283021200E+03  0.12699999809E+01 0.  1.
    10030    2    1    2    0    0  0.00000000000E+00  0.00000000000E+00  0.73049161842E+03  0.14961506602E+04  0.13056985845E+04 0.  0.
        3    1    3    3  502    0  0.35477346468E+02  0.64100527003E+03  0.50114424498E+03  0.81442738337E+03  0.10100000352E+00 0.  1.
       -3    1    3    3    0  502 -0.35477346468E+02 -0.64100527003E+03  0.22934737344E+03  0.68172327686E+03  0.10100000352E+00 0. -1.
</event>
<event>
 5   0  0.1623890E-03  0.1307417E+04  0.7818609E-02  0.9023704E-01
        2   -1    0    0  501    0  0.00000000000E+00  0.00000000000E+00  0.75955071914E+03  0.75955071915E+03  0.25500000920E-02 0. -1.
       -2   -1    0    0    0  501  0.00000000000E+00  0.00000000000E+00 -0.56261547372E+03  0.56261547372E+03  0.25500000920E-02 0.  1.
    10030    2    1    2    0    0  0.00000000000E+00  0.00000000000E+00  0.19693524542E+03  0.13221661929E+04  0.13074172825E+04 0.  0.
        3    1    3    3  502    0  0.51209650531E+03 -0.11400593569E+03 -0.29592519763E+03  0.60233870614E+03  0.10100000352E+00 0.  1.
       -3    1    3    3    0  502 -0.51209650531E+03  0.11400593569E+03  0.49286044305E+03  0.71982748673E+03  0.10100000352E+00 0. -1.
</event>
<event>
 5   0  0.9110949E-04  0.1277174E+04  0.7818609E-02  0.9047865E-01
        1   -1    0    0  501    0  0.00000000000E+00  0.00000000000E+00  0.63322825303E+03  0.63322825305E+03  0.50400001928E-02 0. -1.
       -1   -1    0    0    0  501  0.00000000000E+00  0.00000000000E+00 -0.64399103460E+03  0.64399103462E+03  0.50400001928E-02 0.  1.
    10030    2    1    2    0    0  0.00000000000E+00  0.00000000000E+00 -0.10762781571E+02  0.12772192877E+04  0.12771739393E+04 0.  0.
        2    1    3    3  502    0  0.28954527935E+03  0.41698733822E+03 -0.39279469282E+03  0.64187427098E+03  0.25500000920E-02 0.  1.
       -2    1    3    3    0  502 -0.28954527935E+03 -0.41698733822E+03  0.38203191125E+03  0.63534501670E+03  0.25500000920E-02 0. -1.
</event>
<event>
 5   0  0.9110949E-04  0.1308990E+04  0.7818609E-02  0.9022466E-01
        1   -1    0    0  501    0  0.00000000000E+00  0.00000000000E+00  0.48561262985E+03  0.48561262988E+03  0.50400001928E-02 0.  1.
       -1   -1    0    0    0  501  0.00000000000E+00  0.00000000000E+00 -0.88211015397E+03  0.88211015399E+03  0.50400001928E-02 0. -1.
    10030    2    1    2    0    0  0.00000000000E+00  0.00000000000E+00 -0.39649752412E+03  0.13677227839E+04  0.13089901936E+04 0.  0.
        2    1    3    3  502    0  0.81409475160E+02  0.49031732919E+03  0.24668035312E+03  0.55487816912E+03  0.25500000920E-02 0.  1.
       -2    1    3    3    0  502 -0.81409475160E+02 -0.49031732919E+03 -0.64317787723E+03  0.81284461474E+03  0.25500000920E-02 0. -1.
</event>
<event>
 5   0  0.1700511E-03  0.1294961E+04  0.7818609E-02  0.9033570E-01
        2   -1    0    0  501    0  0.00000000000E+00  0.00000000000E+00  0.16011622788E+04  0.16011622788E+04  0.25500000920E-02 0.  1.
       -2   -1    0    0    0  501  0.00000000000E+00  0.00000000000E+00 -0.26182928293E+03  0.26182928294E+03  0.25500000920E-02 0. -1.
    10030    2    1    2    0    0  0.00000000000E+00  0.00000000000E+00  0.13393329959E+04  0.18629915618E+04  0.12949612679E+04 0.  0.
        2    1    3    3  502    0  0.32556169245E+02  0.49007959411E+03  0.62712347048E+02  0.49514720155E+03  0.25500000920E-02 0. -1.
       -2    1    3    3    0  502 -0.32556169245E+02 -0.49007959411E+03  0.12766206489E+04  0.13678443602E+04  0.25500000920E-02 0.  1.
</event>
<event>
 5   0  0.6284125E-04  0.1257759E+04  0.7818609E-02  0.9063750E-01
       -3   -1    0    0    0  501  0.00000000000E+00  0.00000000000E+00  0.32928437292E+03  0.32928438841E+03  0.10100000352E+00 0. -1.
        3   -1    0    0  501    0  0.00000000000E+00  0.00000000000E+00 -0.12010582786E+04  0.12010582828E+04  0.10100000352E+00 0.  1.
    10030    2    1    2    0    0  0.00000000000E+00  0.00000000000E+00 -0.87177390566E+03  0.15303426712E+04  0.12577594956E+04 0.  0.
        3    1    3    3  502    0 -0.47840710268E+03  0.19973938605E+03 -0.27606026530E+01  0.51843689043E+03  0.10100000352E+00 0. -1.
       -3    1    3    3    0  502  0.47840710268E+03 -0.19973938605E+03 -0.86901330301E+03  0.10119057808E+04  0.10100000352E+00 0.  1.
</event>
<event>
 5   0  0.9215829E-04  0.1281110E+04  0.7818609E-02  0.9044680E-01
        1   -1    0    0  501    0  0.00000000000E+00  0.00000000000E+00  0.82745946618E+03  0.82745946619E+03  0.50400001928E-02 0. -1.
       -1   -1    0    0    0  501  0.00000000000E+00  0.00000000000E+00 -0.49586826582E+03  0.49586826585E+03  0.50400001928E-02 0.  1.
    10030    2    1    2    0    0  0.00000000000E+00  0.00000000000E+00  0.33159120035E+03  0.13233277320E+04  0.12811102850E+04 0.  0.
        3    1    3    3  502    0 -0.44594111556E+03 -0.25986105510E+03  0.55766460928E+03  0.75985595553E+03  0.10100000352E+00 0. -1.
       -3    1    3    3    0  502  0.44594111556E+03  0.25986105510E+03 -0.22607340893E+03  0.56347177651E+03  0.10100000352E+00 0.  1.
</event>
<event>
 5   0  0.1667342E-03  0.1296966E+04  0.7818609E-02  0.9031974E-01
        2   -1    0    0  501    0  0.00000000000E+00  0.00000000000E+00  0.37312204227E+03  0.37312204228E+03  0.25500000920E-02 0. -1.
       -2   -1    0    0    0  501  0.00000000000E+00  0.00000000000E+00 -0.11270587330E+04  0.11270587330E+04  0.25500000920E-02 0.  1.
    10030    2    1    2    0    0  0.00000000000E+00  0.00000000000E+00 -0.75393669072E+03  0.15001807753E+04  0.12969663931E+04 0.  0.
        5    1    3    3  502    0 -0.53567755478E+03  0.11761684851E+03  0.23258158924E+02  0.54895099754E+03  0.46999998093E+01 0. -1.
       -5    1    3    3    0  502  0.53567755478E+03 -0.11761684851E+03 -0.77719484964E+03  0.95122977774E+03  0.46999998093E+01 0.  1.
</event>
<event>
 5   0  0.9215829E-04  0.1314040E+04  0.7818609E-02  0.9018505E-01
       -1   -1    0    0    0  501  0.00000000000E+00  0.00000000000E+00  0.27780292054E+03  0.27780292058E+03  0.50400001928E-02 0. -1.
        1   -1    0    0  501    0  0.00000000000E+00  0.00000000000E+00 -0.15538900191E+04  0.15538900191E+04  0.50400001928E-02 0.  1.
    10030    2    1    2    0    0  0.00000000000E+00  0.00000000000E+00 -0.12760870985E+04  0.18316929397E+04  0.13140398556E+04 0.  0.
        3    1    3    3  502    0 -0.11653623599E+03  0.29649456621E+03  0.16293908702E+03  0.35782520645E+03  0.10100000352E+00 0. -1.
       -3    1    3    3    0  502  0.11653623599E+03 -0.29649456621E+03 -0.14390261855E+04  0.14738677332E+04  0.10100000352E+00 0.  1.
</event>
<event>
 5   0  0.1700511E-03  0.1289893E+04  0.7818609E-02  0.9037619E-01
        2   -1    0    0  501    0  0.00000000000E+00  0.00000000000E+00  0.15543208556E+04  0.15543208556E+04  0.25500000920E-02 0. -1.
       -2   -1    0    0    0  501  0.00000000000E+00  0.00000000000E+00 -0.26761263181E+03  0.26761263182E+03  0.25500000920E-02 0.  1.
    10030    2    1    2    0    0  0.00000000000E+00  0.00000000000E+00  0.12867082238E+04  0.18219334875E+04  0.12898928558E+04 0.  0.
        2    1    3    3  502    0  0.13850339677E+03 -0.34646516381E+03  0.13863913980E+04  0.14357236535E+04  0.25500000920E-02 0. -1.
       -2    1    3    3    0  502 -0.13850339677E+03  0.34646516381E+03 -0.99683174171E+02  0.38620983399E+03  0.25500000920E-02 0.  1.
</event>
<event>
 5   0  0.1700511E-03  0.1311933E+04  0.7818609E-02  0.9020155E-01
        2   -1    0    0  501    0  0.00000000000E+00  0.00000000000E+00  0.21459922988E+04  0.21459922988E+04  0.25500000920E-02 0.  1.
       -2   -1    0    0    0  501  0.00000000000E+00  0.00000000000E+00 -0.20050960318E+03  0.20050960320E+03  0.25500000920E-02 0. -1.
    10030    2    1    2    0    0  0.00000000000E+00  0.00000000000E+00  0.19454826956E+04  0.23465019020E+04  0.13119330231E+04 0.  0.
        2    1    3    3  502    0 -0.16018527094E+03 -0.19237847259E+03  0.20571943651E+04  0.20723700088E+04  0.25500000920E-02 0.  1.
       -2    1    3    3    0  502  0.16018527094E+03  0.19237847259E+03 -0.11171166949E+03  0.27413189316E+03  0.25500000920E-02 0. -1.
</event>
<event>
 5   0  0.9098192E-04  0.1307508E+04  0.7818609E-02  0.9023633E-01
        1   -1    0    0  501    0  0.00000000000E+00  0.00000000000E+00  0.97395043948E+03  0.97395043949E+03  0.50400001928E-02 0. -1.
       -1   -1    0    0    0  501  0.00000000000E+00  0.00000000000E+00 -0.43882523905E+03  0.43882523908E+03  0.50400001928E-02 0.  1.
    10030    2    1    2    0    0  0.00000000000E+00  0.00000000000E+00  0.53512520042E+03  0.14127756786E+04  0.13075076053E+04 0.  0.
        1    1    3    3  502    0  0.19580715920E+03  0.22142643917E+02  0.94109714064E+03  0.96150640581E+03  0.50400001928E-02 0. -1.
       -1    1    3    3    0  502 -0.19580715920E+03 -0.22142643917E+02 -0.40597194021E+03  0.45126927276E+03  0.50400001928E-02 0.  1.
</event>
<event>
 5   0  0.1623890E-03  0.1301966E+04  0.7818609E-02  0.9028008E-01
       -2   -1    0    0    0  501  0.00000000000E+00  0.00000000000E+00  0.27811995671E+03  0.27811995672E+03  0.25500000920E-02 0.  1.
        2   -1    0    0  501    0  0.00000000000E+00  0.00000000000E+00 -0.15237266663E+04  0.15237266663E+04  0.25500000920E-02 0. -1.
    10030    2    1    2    0    0  0.00000000000E+00  0.00000000000E+00 -0.12456067096E+04  0.18018466230E+04  0.13019658897E+04 0.  0.
        3    1    3    3  502    0  0.24857001885E+03 -0.46499146843E+03 -0.94407698439E+02  0.53564628601E+03  0.10100000352E+00 0.  1.
       -3    1    3    3    0  502 -0.24857001885E+03  0.46499146843E+03 -0.11511990111E+04  0.12662003370E+04  0.10100000352E+00 0. -1.
</event>
<event>
 5   0  0.1700511E-03  0.1300282E+04  0.7818609E-02  0.9029341E-01
       -2   -1    0    0    0  501  0.00000000000E+00  0.00000000000E+00  0.40184227220E+03  0.40184227221E+03  0.25500000920E-02 0. -1.
        2   -1    0    0  501    0  0.00000000000E+00  0.00000000000E+00 -0.10518645224E+04  0.10518645224E+04  0.25500000920E-02 0.  1.
    10030    2    1    2    0    0  0.00000000000E+00  0.00000000000E+00 -0.65002225024E+03  0.14537067947E+04  0.13002824766E+04 0.  0.
        2    1    3    3  502    0  0.26294197841E+02  0.60231960061E+03 -0.52983989760E+02  0.60521697704E+03  0.25500000920E-02 0. -1.
       -2    1    3    3    0  502 -0.26294197841E+02 -0.60231960061E+03 -0.59703826048E+03  0.84848981762E+03  0.25500000920E-02 0.  1.
</event>
<event>
 5   0  0.9215829E-04  0.1320141E+04  0.7818609E-02  0.9013744E-01
       -1   -1    0    0    0  501  0.00000000000E+00  0.00000000000E+00  0.28993946267E+03  0.28993946272E+03  0.50400001928E-02 0. -1.
        1   -1    0    0  501    0  0.00000000000E+00  0.00000000000E+00 -0.15027043765E+04  0.15027043765E+04  0.50400001928E-02 0.  1.
    10030    2    1    2    0    0  0.00000000000E+00  0.00000000000E+00 -0.12127649138E+04  0.17926438392E+04  0.13201413553E+04 0.  0.
        3    1    3    3  502    0 -0.52217943776E+03 -0.20094340022E+03 -0.10819324205E+04  0.12180424410E+04  0.10100000352E+00 0.  1.
       -3    1    3    3    0  502  0.52217943776E+03  0.20094340022E+03 -0.13083249330E+03  0.57460139820E+03  0.10100000352E+00 0. -1.
</event>
<event>
 5   0  0.9215829E-04  0.1324261E+04  0.7818609E-02  0.9010544E-01
       -1   -1    0    0    0  501  0.00000000000E+00  0.00000000000E+00  0.43313639205E+03  0.43313639208E+03  0.50400001928E-02 0. -1.
        1   -1    0    0  501    0  0.00000000000E+00  0.00000000000E+00 -0.10121912883E+04  0.10121912883E+04  0.50400001928E-02 0.  1.
    10030    2    1    2    0    0  0.00000000000E+00  0.00000000000E+00 -0.57905489627E+03  0.14453276804E+04  0.13242611264E+04 0.  0.
        3    1    3    3  502    0 -0.53668295378E+03 -0.21185131733E+03  0.64987002285E+02  0.58063146160E+03  0.10100000352E+00 0. -1.
       -3    1    3    3    0  502  0.53668295378E+03  0.21185131733E+03 -0.64404189855E+03  0.86469621881E+03  0.10100000352E+00 0.  1.
</event>
<event>
 5   0  0.9081324E-04  0.1431237E+04  0.7818609E-02  0.8931513E-01
       -1   -1    0    0    0  501  0.00000000000E+00  0.00000000000E+00  0.28226748474E+03  0.28226748479E+03  0.50400001928E-02 0.  1.
        1   -1    0    0  501    0  0.00000000000E+00  0.00000000000E+00 -0.18142717252E+04  0.18142717252E+04  0.50400001928E-02 0. -1.
    10030    2    1    2    0    0  0.00000000000E+00  0.00000000000E+00 -0.15320042404E+04  0.20965392100E+04  0.14312371104E+04 0.  0.
        4    1    3    3  502    0 -0.17336962249E+03 -0.33140369492E+03 -0.16597045250E+04  0.17013248244E+04  0.12699999809E+01 0. -1.
       -4    1    3    3    0  502  0.17336962249E+03  0.33140369492E+03  0.12770028453E+03  0.39521438558E+03  0.12699999809E+01 0.  1.
</event>
<event>
 5   0  0.1623890E-03  0.1305464E+04  0.7818609E-02  0.9025244E-01
        2   -1    0    0  501    0  0.00000000000E+00  0.00000000000E+00  0.60935607535E+03  0.60935607535E+03  0.25500000920E-02 0. -1.
       -2   -1    0    0    0  501  0.00000000000E+00  0.00000000000E+00 -0.69919515354E+03  0.69919515354E+03  0.25500000920E-02 0.  1.
    10030    2    1    2    0    0  0.00000000000E+00  0.00000000000E+00 -0.89839078187E+02  0.13085512289E+04  0.13054636183E+04 0.  0.
        3    1    3    3  502    0 -0.23285493554E+03 -0.42013278323E+03  0.39808256961E+03  0.62386113758E+03  0.10100000352E+00 0. -1.
       -3    1    3    3    0  502  0.23285493554E+03  0.42013278323E+03 -0.48792164780E+03  0.68469009132E+03  0.10100000352E+00 0.  1.
</event>
<event>
 5   0  0.1700511E-03  0.1297542E+04  0.7818609E-02  0.9031517E-01
       -2   -1    0    0    0  501  0.00000000000E+00  0.00000000000E+00  0.21308596812E+03  0.21308596813E+03  0.25500000920E-02 0.  1.
        2   -1    0    0  501    0  0.00000000000E+00  0.00000000000E+00 -0.19752763689E+04  0.19752763689E+04  0.25500000920E-02 0. -1.
    10030    2    1    2    0    0  0.00000000000E+00  0.00000000000E+00 -0.17621904008E+04  0.21883623370E+04  0.12975417949E+04 0.  0.
        2    1    3    3  502    0  0.35440511042E+02  0.88120379315E+02  0.20129666007E+03  0.22257937109E+03  0.25500000920E-02 0.  1.
       -2    1    3    3    0  502 -0.35440511042E+02 -0.88120379315E+02 -0.19634870609E+04  0.19657829660E+04  0.25500000920E-02 0. -1.
</event>
<event>
 5   0  0.1694675E-03  0.1300516E+04  0.7818609E-02  0.9029156E-01
       -2   -1    0    0    0  501  0.00000000000E+00  0.00000000000E+00  0.49285291081E+03  0.49285291082E+03  0.25500000920E-02 0.  1.
        2   -1    0    0  501    0  0.00000000000E+00  0.00000000000E+00 -0.85793477892E+03  0.85793477892E+03  0.25500000920E-02 0. -1.
    10030    2    1    2    0    0  0.00000000000E+00  0.00000000000E+00 -0.36508186810E+03  0.13507876897E+04  0.13005162868E+04 0.  0.
        4    1    3    3  502    0 -0.32977617827E+03  0.26735414802E+03  0.32904642475E+03  0.53712543299E+03  0.12699999809E+01 0.  1.
       -4    1    3    3    0  502  0.32977617827E+03 -0.26735414802E+03 -0.69412829285E+03  0.81366225675E+03  0.12699999809E+01 0. -1.
</event>
<event>
 5   0  0.9110949E-04  0.1302010E+04  0.7818609E-02  0.9027973E-01
        1   -1    0    0  501    0  0.00000000000E+00  0.00000000000E+00  0.69655509887E+03  0.69655509889E+03  0.50400001928E-02 0.  1.
       -1   -1    0    0    0  501  0.00000000000E+00  0.00000000000E+00 -0.60843376281E+03  0.60843376283E+03  0.50400001928E-02 0. -1.
    10030    2    1    2    0    0  0.00000000000E+00  0.00000000000E+00  0.88121336065E+02  0.13049888617E+04  0.13020101994E+04 0.  0.
        2    1    3    3  502    0  0.34185700820E+02 -0.26004300997E+03  0.64125648261E+03  0.69282097664E+03  0.25500000920E-02 0.  1.
       -2    1    3    3    0  502 -0.34185700820E+02  0.26004300997E+03 -0.55313514654E+03  0.61216788508E+03  0.25500000920E-02 0. -1.
</event>
<event>
 5   0  0.6284125E-04  0.1298381E+04  0.7818609E-02  0.9030850E-01
       -3   -1    0    0    0  501  0.00000000000E+00  0.00000000000E+00  0.13265506509E+04  0.13265506548E+04  0.10100000352E+00 0. -1.
        3   -1    0    0  501    0  0.00000000000E+00  0.00000000000E+00 -0.31770221917E+03  0.31770223522E+03  0.10100000352E+00 0.  1.
    10030    2    1    2    0    0  0.00000000000E+00  0.00000000000E+00  0.10088484318E+04  0.16442528900E+04  0.12983806869E+04 0.  0.
        4    1    3    3  502    0  0.13780565372E+03  0.54894648140E+03  0.10173324349E+03  0.57505121804E+03  0.12699999809E+01 0.  1.
       -4    1    3    3    0  502 -0.13780565372E+03 -0.54894648140E+03  0.90711518827E+03  0.10692016720E+04  0.12699999809E+01 0. -1.
</event>
<event>
 5   0  0.1623890E-03  0.1296711E+04  0.7818609E-02  0.9032178E-01
        2   -1    0    0  501    0  0.00000000000E+00  0.00000000000E+00  0.55749807404E+03  0.55749807405E+03  0.25500000920E-02 0. -1.
       -2   -1    0    0    0  501  0.00000000000E+00  0.00000000000E+00 -0.75402009094E+03  0.75402009095E+03  0.25500000920E-02 0.  1.
    10030    2    1    2    0    0  0.00000000000E+00  0.00000000000E+00 -0.19652201690E+03  0.13115181650E+04  0.12967108367E+04 0.  0.
        3    1    3    3  502    0  0.20433379229E+03 -0.38396556919E+03  0.38804429507E+03  0.58288956255E+03  0.10100000352E+00 0. -1.
       -3    1    3    3    0  502 -0.20433379229E+03  0.38396556919E+03 -0.58456631198E+03  0.72862860244E+03  0.10100000352E+00 0.  1.
</event>
<event>
 5   0  0.1700511E-03  0.1309964E+04  0.7818609E-02  0.9021701E-01
        2   -1    0    0  501    0  0.00000000000E+00  0.00000000000E+00  0.21420080672E+03  0.21420080673E+03  0.25500000920E-02 0. -1.
       -2   -1    0    0    0  501  0.00000000000E+00  0.00000000000E+00 -0.20027993837E+04  0.20027993837E+04  0.25500000920E-02 0.  1.
    10030    2    1    2    0    0  0.00000000000E+00  0.00000000000E+00 -0.17885985770E+04  0.22170001904E+04  0.13099637303E+04 0.  0.
        2    1    3    3  502    0  0.24293990244E+03 -0.60717588275E+03 -0.95576197712E+03  0.11580860528E+04  0.25500000920E-02 0.  1.
       -2    1    3    3    0  502 -0.24293990244E+03  0.60717588275E+03 -0.83283659987E+03  0.10589141376E+04  0.25500000920E-02 0. -1.
</event>
<event>
 5   0  0.9098192E-04  0.1298644E+04  0.7818609E-02  0.9030641E-01
        1   -1    0    0  501    0  0.00000000000E+00  0.00000000000E+00  0.72604019472E+03  0.72604019474E+03  0.50400001928E-02 0. -1.
       -1   -1    0    0    0  501  0.00000000000E+00  0.00000000000E+00 -0.58071074492E+03  0.58071074494E+03  0.50400001928E-02 0.  1.
    10030    2    1    2    0    0  0.00000000000E+00  0.00000000000E+00  0.14532944980E+03  0.13067509397E+04  0.12986444353E+04 0.  0.
        1    1    3    3  502    0 -0.36116324600E+03 -0.68821338121E+02  0.61121032769E+03  0.71326946629E+03  0.50400001928E-02 0. -1.
       -1    1    3    3    0  502  0.36116324600E+03  0.68821338121E+02 -0.46588087789E+03  0.59348147339E+03  0.50400001928E-02 0.  1.
</event>
<event>
 5   0  0.9215829E-04  0.1292945E+04  0.7818609E-02  0.9035179E-01
       -1   -1    0    0    0  501  0.00000000000E+00  0.00000000000E+00  0.24451626381E+03  0.24451626387E+03  0.50400001928E-02 0. -1.
        1   -1    0    0  501    0  0.00000000000E+00  0.00000000000E+00 -0.17091976812E+04  0.17091976812E+04  0.50400001928E-02 0.  1.
    10030    2    1    2    0    0  0.00000000000E+00  0.00000000000E+00 -0.14646814174E+04  0.19537139450E+04  0.12929449040E+04 0.  0.
        3    1    3    3  502    0  0.36481605221E+03 -0.39493404481E+03 -0.12747723621E+04  0.13835130057E+04  0.10100000352E+00 0.  1.
       -3    1    3    3    0  502 -0.36481605221E+03  0.39493404481E+03 -0.18990905525E+03  0.57020093929E+03  0.10100000352E+00 0. -1.
</event>
<event>
 5   0  0.9081324E-04  0.1285353E+04  0.7818609E-02  0.9041262E-01
       -1   -1    0    0    0  501  0.00000000000E+00  0.00000000000E+00  0.60098151503E+03  0.60098151505E+03  0.50400001928E-02 0. -1.
        1   -1    0    0  501    0  0.00000000000E+00  0.00000000000E+00 -0.68726403523E+03  0.68726403525E+03  0.50400001928E-02 0.  1.
    10030    2    1    2    0    0  0.00000000000E+00  0.00000000000E+00 -0.86282520193E+02  0.12882455503E+04  0.12853528405E+04 0.  0.
        4    1    3    3  502    0  0.15406222925E+03 -0.43844976557E+03 -0.48805244684E+03  0.67392148739E+03  0.12699999809E+01 0.  1.
       -4    1    3    3    0  502 -0.15406222925E+03  0.43844976557E+03  0.40176992664E+03  0.61432406291E+03  0.12699999809E+01 0. -1.
</event>
<event>
 5   0  0.6284125E-04  0.1277248E+04  0.7818609E-02  0.9047805E-01
        3   -1    0    0  501    0  0.00000000000E+00  0.00000000000E+00  0.64776996802E+03  0.64776997590E+03  0.10100000352E+00 0.  1.
       -3   -1    0    0    0  501  0.00000000000E+00  0.00000000000E+00 -0.62960711295E+03  0.62960712105E+03  0.10100000352E+00 0. -1.
    10030    2    1    2    0    0  0.00000000000E+00  0.00000000000E+00  0.18162855072E+02  0.12773770969E+04  0.12772479628E+04 0.  0.
        3    1    3    3  502    0  0.18874513952E+03  0.43370779385E+03 -0.42004632985E+03  0.63258683796E+03  0.10100000352E+00 0. -1.
       -3    1    3    3    0  502 -0.18874513952E+03 -0.43370779385E+03  0.43820918492E+03  0.64479025899E+03  0.10100000352E+00 0.  1.
</event>
<event>
 5   0  0.9098192E-04  0.1274750E+04  0.7818609E-02  0.9049832E-01
       -1   -1    0    0    0  501  0.00000000000E+00  0.00000000000E+00  0.40056009921E+03  0.40056009924E+03  0.50400001928E-02 0.  1.
        1   -1    0    0  501    0  0.00000000000E+00  0.00000000000E+00 -0.10141976592E+04  0.10141976592E+04  0.50400001928E-02 0. -1.
    10030    2    1    2    0    0  0.00000000000E+00  0.00000000000E+00 -0.61363755999E+03  0.14147577585E+04  0.12747503521E+04 0.  0.
        1    1    3    3  502    0  0.50725975393E+03 -0.13410281928E+03 -0.70843524022E+03  0.88157615310E+03  0.50400001928E-02 0. -1.
       -1    1    3    3    0  502 -0.50725975393E+03  0.13410281928E+03  0.94797680231E+02  0.53318160536E+03  0.50400001928E-02 0.  1.
</event>
<event>
 5   0  0.1623890E-03  0.1322249E+04  0.7818609E-02  0.9012105E-01
       -2   -1    0    0    0  501  0.00000000000E+00  0.00000000000E+00  0.64577997665E+03  0.64577997666E+03  0.25500000920E-02 0.  1.
        2   -1    0    0  501    0  0.00000000000E+00  0.00000000000E+00 -0.67683335746E+03  0.67683335747E+03  0.25500000920E-02 0. -1.
    10030    2    1    2    0    0  0.00000000000E+00  0.00000000000E+00 -0.31053380809E+02  0.13226133341E+04  0.13222487357E+04 0.  0.
        3    1    3    3  502    0 -0.44403343635E+03 -0.45656291963E+03 -0.19297354152E+03  0.66547290711E+03  0.10100000352E+00 0. -1.
       -3    1    3    3    0  502  0.44403343635E+03  0.45656291963E+03  0.16192016071E+03  0.65714042701E+03  0.10100000352E+00 0.  1.
</event>
<event>
 5   0  0.9110949E-04  0.1323322E+04  0.7818609E-02  0.9011272E-01
       -1   -1    0    0    0  501  0.00000000000E+00  0.00000000000E+00  0.34663117463E+03  0.34663117467E+03  0.50400001928E-02 0.  1.
        1   -1    0    0  501    0  0.00000000000E+00  0.00000000000E+00 -0.12630000028E+04  0.12630000028E+04  0.50400001928E-02 0. -1.
    10030    2    1    2    0    0  0.00000000000E+00  0.00000000000E+00 -0.91636882814E+03  0.16096311774E+04  0.13233218423E+04 0.  0.
        2    1    3    3  502    0  0.80023073520E+02 -0.65369623013E+03 -0.38055912635E+03  0.76062323277E+03  0.25500000920E-02 0.  1.
       -2    1    3    3    0  502 -0.80023073520E+02  0.65369623013E+03 -0.53580970179E+03  0.84900794468E+03  0.25500000920E-02 0. -1.
</event>
<event>
 5   0  0.1714861E-03  0.1302239E+04  0.7818609E-02  0.9027791E-01
       -2   -1    0    0    0  501  0.00000000000E+00  0.00000000000E+00  0.14209919040E+04  0.14209919040E+04  0.25500000920E-02 0. -1.
        2   -1    0    0  501    0  0.00000000000E+00  0.00000000000E+00 -0.29835276584E+03  0.29835276585E+03  0.25500000920E-02 0.  1.
    10030    2    1    2    0    0  0.00000000000E+00  0.00000000000E+00  0.11226391381E+04  0.17193446698E+04  0.13022394016E+04 0.  0.
        1    1    3    3  502    0 -0.24576896495E+03  0.80715494131E+02  0.13502346199E+04  0.13747912219E+04  0.50400001928E-02 0. -1.
       -1    1    3    3    0  502  0.24576896495E+03 -0.80715494131E+02 -0.22759548175E+03  0.34455344790E+03  0.50400001928E-02 0.  1.
</event>
<event>
 5   0  0.9110949E-04  0.1322740E+04  0.7818609E-02  0.9011724E-01
       -1   -1    0    0    0  501  0.00000000000E+00  0.00000000000E+00  0.56902165155E+03  0.56902165157E+03  0.50400001928E-02 0. -1.
        1   -1    0    0  501    0  0.00000000000E+00  0.00000000000E+00 -0.76870536834E+03  0.76870536835E+03  0.50400001928E-02 0.  1.
    10030    2    1    2    0    0  0.00000000000E+00  0.00000000000E+00 -0.19968371679E+03  0.13377270199E+04  0.13227395787E+04 0.  0.
        2    1    3    3  502    0 -0.60074416193E+03  0.27474724404E+03 -0.13230544576E+03  0.67370937888E+03  0.25500000920E-02 0.  1.
       -2    1    3    3    0  502  0.60074416193E+03 -0.27474724404E+03 -0.67378271024E+02  0.66401764104E+03  0.25500000920E-02 0. -1.
</event>
<event>
 5   0  0.9215829E-04  0.1288275E+04  0.7818609E-02  0.9038915E-01
       -1   -1    0    0    0  501  0.00000000000E+00  0.00000000000E+00  0.63323267219E+03  0.63323267221E+03  0.50400001928E-02 0.  1.
        1   -1    0    0  501    0  0.00000000000E+00  0.00000000000E+00 -0.65523018562E+03  0.65523018564E+03  0.50400001928E-02 0. -1.
    10030    2    1    2    0    0  0.00000000000E+00  0.00000000000E+00 -0.21997513424E+02  0.12884628579E+04  0.12882750659E+04 0.  0.
        3    1    3    3  502    0  0.15743196168E+03 -0.61848388051E+03  0.76226444764E+02  0.64274226102E+03  0.10100000352E+00 0.  1.
       -3    1    3    3    0  502 -0.15743196168E+03  0.61848388051E+03 -0.98223958187E+02  0.64572059683E+03  0.10100000352E+00 0. -1.
</event>
<event>
 5   0  0.1714861E-03  0.1314021E+04  0.7818609E-02  0.9018520E-01
       -2   -1    0    0    0  501  0.00000000000E+00  0.00000000000E+00  0.26817555359E+03  0.26817555360E+03  0.25500000920E-02 0.  1.
        2   -1    0    0  501    0  0.00000000000E+00  0.00000000000E+00 -0.16096279387E+04  0.16096279387E+04  0.25500000920E-02 0. -1.
    10030    2    1    2    0    0  0.00000000000E+00  0.00000000000E+00 -0.13414523851E+04  0.18778034923E+04  0.13140211011E+04 0.  0.
        1    1    3    3  502    0  0.25022038379E+03 -0.59545076417E+03 -0.84275339981E+03  0.10617933631E+04  0.50400001928E-02 0. -1.
       -1    1    3    3    0  502 -0.25022038379E+03  0.59545076417E+03 -0.49869898531E+03  0.81601012922E+03  0.50400001928E-02 0.  1.
</event>
<event>
 5   0  0.9081324E-04  0.1258374E+04  0.7818609E-02  0.9063242E-01
       -1   -1    0    0    0  501  0.00000000000E+00  0.00000000000E+00  0.58147390348E+03  0.58147390350E+03  0.50400001928E-02 0. -1.
        1   -1    0    0  501    0  0.00000000000E+00  0.00000000000E+00 -0.68081501555E+03  0.68081501557E+03  0.50400001928E-02 0.  1.
    10030    2    1    2    0    0  0.00000000000E+00  0.00000000000E+00 -0.99341112066E+02  0.12622889191E+04  0.12583738151E+04 0.  0.
        4    1    3    3  502    0  0.74734181018E+02  0.31320982929E+03 -0.59189737712E+03  0.67381726968E+03  0.12699999809E+01 0.  1.
       -4    1    3    3    0  502 -0.74734181018E+02 -0.31320982929E+03  0.49255626506E+03  0.58847164938E+03  0.12699999809E+01 0. -1.
</event>
<event>
 5   0  0.1700511E-03  0.1300154E+04  0.7818609E-02  0.9029443E-01
       -2   -1    0    0    0  501  0.00000000000E+00  0.00000000000E+00  0.29800531917E+03  0.29800531918E+03  0.25500000920E-02 0.  1.
        2   -1    0    0  501    0  0.00000000000E+00  0.00000000000E+00 -0.14180966872E+04  0.14180966872E+04  0.25500000920E-02 0. -1.
    10030    2    1    2    0    0  0.00000000000E+00  0.00000000000E+00 -0.11200913681E+04  0.17161020064E+04  0.13001543845E+04 0.  0.
        2    1    3    3  502    0 -0.39241059933E+03 -0.61817097755E-01  0.12404348969E+03  0.41154935261E+03  0.25500000920E-02 0.  1.
       -2    1    3    3    0  502  0.39241059933E+03  0.61817097755E-01 -0.12441348578E+04  0.13045526538E+04  0.25500000920E-02 0. -1.
</event>
<event>
 5   0  0.9027076E-04  0.1342869E+04  0.7818609E-02  0.8996243E-01
       -1   -1    0    0    0  501  0.00000000000E+00  0.00000000000E+00  0.32512329144E+03  0.32512329148E+03  0.50400001928E-02 0. -1.
        1   -1    0    0  501    0  0.00000000000E+00  0.00000000000E+00 -0.13866265734E+04  0.13866265734E+04  0.50400001928E-02 0.  1.
    10030    2    1    2    0    0  0.00000000000E+00  0.00000000000E+00 -0.10615032820E+04  0.17117498649E+04  0.13428694584E+04 0.  0.
        5    1    3    3  502    0  0.24720712384E+03 -0.32650343126E+03 -0.12089647853E+04  0.12764536007E+04  0.46999998093E+01 0.  1.
       -5    1    3    3    0  502 -0.24720712384E+03  0.32650343126E+03  0.14746150327E+03  0.43529626422E+03  0.46999998093E+01 0. -1.
</event>
<event>
 5   0  0.1623890E-03  0.1316367E+04  0.7818609E-02  0.9016686E-01
       -2   -1    0    0    0  501  0.00000000000E+00  0.00000000000E+00  0.48748029371E+03  0.48748029372E+03  0.25500000920E-02 0.  1.
        2   -1    0    0  501    0  0.00000000000E+00  0.00000000000E+00 -0.88866214005E+03  0.88866214006E+03  0.25500000920E-02 0. -1.
    10030    2    1    2    0    0  0.00000000000E+00  0.00000000000E+00 -0.40118184634E+03  0.13761424338E+04  0.13163666375E+04 0.  0.
        3    1    3    3  502    0  0.29877939093E+03 -0.71386958408E+02 -0.80912357713E+03  0.86547454934E+03  0.10100000352E+00 0. -1.
       -3    1    3    3    0  502 -0.29877939093E+03  0.71386958408E+02  0.40794173079E+03  0.51066788444E+03  0.10100000352E+00 0.  1.
</event>
<event>
 5   0  0.9110949E-04  0.1300749E+04  0.7818609E-02  0.9028972E-01
       -1   -1    0    0    0  501  0.00000000000E+00  0.00000000000E+00  0.12386339362E+04  0.12386339362E+04  0.50400001928E-02 0.  1.
        1   -1    0    0  501    0  0.00000000000E+00  0.00000000000E+00 -0.34149453850E+03  0.34149453854E+03  0.50400001928E-02 0. -1.
    10030    2    1    2    0    0  0.00000000000E+00  0.00000000000E+00  0.89713939771E+03  0.15801284748E+04  0.13007485913E+04 0.  0.
        2    1    3    3  502    0 -0.36186004117E+03  0.90214144733E+02 -0.19870092127E+03  0.42256755368E+03  0.25500000920E-02 0. -1.
       -2    1    3    3    0  502  0.36186004117E+03 -0.90214144733E+02  0.10958403190E+04  0.11575609211E+04  0.25500000920E-02 0.  1.
</event>
<event>
 5   0  0.1700511E-03  0.1286667E+04  0.7818609E-02  0.9040206E-01
        2   -1    0    0  501    0  0.00000000000E+00  0.00000000000E+00  0.50548568161E+03  0.50548568161E+03  0.25500000920E-02 0. -1.
       -2   -1    0    0    0  501  0.00000000000E+00  0.00000000000E+00 -0.81877313722E+03  0.81877313722E+03  0.25500000920E-02 0.  1.
    10030    2    1    2    0    0  0.00000000000E+00  0.00000000000E+00 -0.31328745561E+03  0.13242588188E+04  0.12866671634E+04 0.  0.
        2    1    3    3  502    0  0.44861706305E+03 -0.15380260364E+03  0.29075837075E+03  0.55628494526E+03  0.25500000920E-02 0. -1.
       -2    1    3    3    0  502 -0.44861706305E+03  0.15380260364E+03 -0.60404582637E+03  0.76797387358E+03  0.25500000920E-02 0.  1.
</event>
<event>
 5   0  0.1714861E-03  0.1286842E+04  0.7818609E-02  0.9040065E-01
        2   -1    0    0  501    0  0.00000000000E+00  0.00000000000E+00  0.56572985737E+03  0.56572985738E+03  0.25500000920E-02 0.  1.
       -2   -1    0    0    0  501  0.00000000000E+00  0.00000000000E+00 -0.73178095576E+03  0.73178095576E+03  0.25500000920E-02 0. -1.
    10030    2    1    2    0    0  0.00000000000E+00  0.00000000000E+00 -0.16605109838E+03  0.12975108131E+04  0.12868416153E+04 0.  0.
        1    1    3    3  502    0  0.60852104558E+03  0.18192905441E+03 -0.18680750650E+03  0.66203707469E+03  0.50400001928E-02 0.  1.
       -1    1    3    3    0  502 -0.60852104558E+03 -0.18192905441E+03  0.20756408116E+02  0.63547373845E+03  0.50400001928E-02 0. -1.
</event>
<event>
 5   0  0.9215829E-04  0.1285026E+04  0.7818609E-02  0.9041525E-01
        1   -1    0    0  501    0  0.00000000000E+00  0.00000000000E+00  0.12242981221E+04  0.12242981221E+04  0.50400001928E-02 0.  1.
       -1   -1    0    0    0  501  0.00000000000E+00  0.00000000000E+00 -0.33719161282E+03  0.33719161286E+03  0.50400001928E-02 0. -1.
    10030    2    1    2    0    0  0.00000000000E+00  0.00000000000E+00  0.88710650927E+03  0.15614897350E+04  0.12850261607E+04 0.  0.
        3    1    3    3  502    0  0.56740218668E+03 -0.19589777349E+03  0.72198230539E+03  0.93892472468E+03  0.10100000352E+00 0.  1.
       -3    1    3    3    0  502 -0.56740218668E+03  0.19589777349E+03  0.16512420388E+03  0.62256501028E+03  0.10100000352E+00 0. -1.
</event>
<event>
 5   0  0.9081324E-04  0.1313671E+04  0.7818609E-02  0.9018793E-01
       -1   -1    0    0    0  501  0.00000000000E+00  0.00000000000E+00  0.57688600862E+03  0.57688600864E+03  0.50400001928E-02 0.  1.
        1   -1    0    0  501    0  0.00000000000E+00  0.00000000000E+00 -0.74786537782E+03  0.74786537783E+03  0.50400001928E-02 0. -1.
    10030    2    1    2    0    0  0.00000000000E+00  0.00000000000E+00 -0.17097936920E+03  0.13247513865E+04  0.13136713026E+04 0.  0.
        4    1    3    3  502    0  0.10979585779E+03  0.21420940382E+03 -0.70178312220E+03  0.74191775998E+03  0.12699999809E+01 0. -1.
       -4    1    3    3    0  502 -0.10979585779E+03 -0.21420940382E+03  0.53080375300E+03  0.58283362649E+03  0.12699999809E+01 0.  1.
</event>
<event>
 5   0  0.1700511E-03  0.1276292E+04  0.7818609E-02  0.9048580E-01
        2   -1    0    0  501    0  0.00000000000E+00  0.00000000000E+00  0.41550329844E+03  0.41550329845E+03  0.25500000920E-02 0.  1.
       -2   -1    0    0    0  501  0.00000000000E+00  0.00000000000E+00 -0.98008962633E+03  0.98008962633E+03  0.25500000920E-02 0. -1.
    10030    2    1    2    0    0  0.00000000000E+00  0.00000000000E+00 -0.56458632789E+03  0.13955929248E+04  0.12762922432E+04 0.  0.
        2    1    3    3  502    0  0.15220296507E+03  0.50391953893E+03 -0.67674779343E+03  0.85737285951E+03  0.25500000920E-02 0. -1.
       -2    1    3    3    0  502 -0.15220296507E+03 -0.50391953893E+03  0.11216146555E+03  0.53822006527E+03  0.25500000920E-02 0.  1.
</event>
<event>
 5   0  0.1694675E-03  0.1295934E+04  0.7818609E-02  0.9032795E-01
        2   -1    0    0  501    0  0.00000000000E+00  0.00000000000E+00  0.83459799579E+03  0.83459799579E+03  0.25500000920E-02 0.  1.
       -2   -1    0    0    0  501  0.00000000000E+00  0.00000000000E+00 -0.50307028553E+03  0.50307028554E+03  0.25500000920E-02 0. -1.
    10030    2    1    2    0    0  0.00000000000E+00  0.00000000000E+00  0.33152771026E+03  0.13376682813E+04  0.12959343379E+04 0.  0.
        4    1    3    3  502    0  0.50525186657E+03 -0.40568335756E+03  0.16698686318E+03  0.66913725098E+03  0.12699999809E+01 0.  1.
       -4    1    3    3    0  502 -0.50525186657E+03  0.40568335756E+03  0.16454084707E+03  0.66853103034E+03  0.12699999809E+01 0. -1.
</event>
<event>
 5   0  0.1623890E-03  0.1325754E+04  0.7818609E-02  0.9009387E-01
       -2   -1    0    0    0  501  0.00000000000E+00  0.00000000000E+00  0.57876346278E+03  0.57876346278E+03  0.25500000920E-02 0.  1.
        2   -1    0    0  501    0  0.00000000000E+00  0.00000000000E+00 -0.75921533813E+03  0.75921533813E+03  0.25500000920E-02 0. -1.
    10030    2    1    2    0    0  0.00000000000E+00  0.00000000000E+00 -0.18045187535E+03  0.13379788009E+04  0.13257542730E+04 0.  0.
        3    1    3    3  502    0 -0.95251521030E+02 -0.45932974969E+03 -0.56289201957E+03  0.73273740665E+03  0.10100000352E+00 0. -1.
       -3    1    3    3    0  502  0.95251521030E+02  0.45932974969E+03  0.38244014422E+03  0.60524139426E+03  0.10100000352E+00 0.  1.
</event>
<event>
 5   0  0.1667342E-03  0.1259328E+04  0.7818609E-02  0.9062455E-01
       -2   -1    0    0    0  501  0.00000000000E+00  0.00000000000E+00  0.36492546631E+03  0.36492546631E+03  0.25500000920E-02 0. -1.
        2   -1    0    0  501    0  0.00000000000E+00  0.00000000000E+00 -0.10864589377E+04  0.10864589377E+04  0.25500000920E-02 0.  1.
    10030    2    1    2    0    0  0.00000000000E+00  0.00000000000E+00 -0.72153347137E+03  0.14513844040E+04  0.12593276531E+04 0.  0.
        5    1    3    3  502    0  0.81789943067E+02 -0.62378044542E+03 -0.39043805055E+03  0.74044284060E+03  0.46999998093E+01 0.  1.
       -5    1    3    3    0  502 -0.81789943067E+02  0.62378044542E+03 -0.33109542082E+03  0.71094156339E+03  0.46999998093E+01 0. -1.
</event>
<event>
 5   0  0.9081324E-04  0.1288395E+04  0.7818609E-02  0.9038819E-01
        1   -1    0    0  501    0  0.00000000000E+00  0.00000000000E+00  0.38403559320E+03  0.38403559323E+03  0.50400001928E-02 0.  1.
       -1   -1    0    0    0  501  0.00000000000E+00  0.00000000000E+00 -0.10806040262E+04  0.10806040262E+04  0.50400001928E-02 0. -1.
    10030    2    1    2    0    0  0.00000000000E+00  0.00000000000E+00 -0.69656843300E+03  0.14646396195E+04  0.12883949833E+04 0.  0.
        4    1    3    3  502    0  0.95053508943E+02  0.63432893693E+03 -0.28026226651E+03  0.69996922841E+03  0.12699999809E+01 0.  1.
       -4    1    3    3    0  502 -0.95053508943E+02 -0.63432893693E+03 -0.41630616649E+03  0.76467039105E+03  0.12699999809E+01 0. -1.
</event>
<event>
 5   0  0.9027076E-04  0.1311507E+04  0.7818609E-02  0.9020490E-01
       -1   -1    0    0    0  501  0.00000000000E+00  0.00000000000E+00  0.24257790975E+03  0.24257790980E+03  0.50400001928E-02 0.  1.
        1   -1    0    0  501    0  0.00000000000E+00  0.00000000000E+00 -0.17726778200E+04  0.17726778200E+04  0.50400001928E-02 0. -1.
    10030    2    1    2    0    0  0.00000000000E+00  0.00000000000E+00 -0.15300999102E+04  0.20152557298E+04  0.13115067370E+04 0.  0.
        5    1    3    3  502    0  0.58952861614E+03 -0.63857849508E+02 -0.33488936744E+03  0.68102481057E+03  0.46999998093E+01 0.  1.
       -5    1    3    3    0  502 -0.58952861614E+03  0.63857849508E+02 -0.11952105428E+04  0.13342309192E+04  0.46999998093E+01 0. -1.
</event>
<event>
 5   0  0.9098192E-04  0.1287847E+04  0.7818609E-02  0.9039258E-01
       -1   -1    0    0    0  501  0.00000000000E+00  0.00000000000E+00  0.44335999120E+03  0.44335999123E+03  0.50400001928E-02 0.  1.
        1   -1    0    0  501    0  0.00000000000E+00  0.00000000000E+00 -0.93521656157E+03  0.93521656158E+03  0.50400001928E-02 0. -1.
    10030    2    1    2    0    0  0.00000000000E+00  0.00000000000E+00 -0.49185657036E+03  0.13785765528E+04  0.12878472061E+04 0.  0.
        1    1    3    3  502    0  0.18609714857E+03  0.54193468953E+03 -0.56041533520E+03  0.80149279746E+03  0.50400001928E-02 0. -1.
       -1    1    3    3    0  502 -0.18609714857E+03 -0.54193468953E+03  0.68558764840E+02  0.57708375535E+03  0.50400001928E-02 0.  1.
</event>
<event>
 5   0  0.1694675E-03  0.1290927E+04  0.7818609E-02  0.9036791E-01
       -2   -1    0    0    0  501  0.00000000000E+00  0.00000000000E+00  0.31280084267E+03  0.31280084268E+03  0.25500000920E-02 0.  1.
        2   -1    0    0  501    0  0.00000000000E+00  0.00000000000E+00 -0.13319113996E+04  0.13319113996E+04  0.25500000920E-02 0. -1.
    10030    2    1    2    0    0  0.00000000000E+00  0.00000000000E+00 -0.10191105570E+04  0.16447122423E+04  0.12909268115E+04 0.  0.
        4    1    3    3  502    0  0.33992881633E+03  0.30934662626E+03  0.67824436008E+02  0.46459520270E+03  0.12699999809E+01 0.  1.
       -4    1    3    3    0  502 -0.33992881633E+03 -0.30934662626E+03 -0.10869349930E+04  0.11801170396E+04  0.12699999809E+01 0. -1.
</event>
<event>
 5   0  0.1694675E-03  0.1398425E+04  0.7818609E-02  0.8954960E-01
       -2   -1    0    0    0  501  0.00000000000E+00  0.00000000000E+00  0.34951720532E+03  0.34951720533E+03  0.25500000920E-02 0. -1.
        2   -1    0    0  501    0  0.00000000000E+00  0.00000000000E+00 -0.13987809246E+04  0.13987809246E+04  0.25500000920E-02 0.  1.
    10030    2    1    2    0    0  0.00000000000E+00  0.00000000000E+00 -0.10492637193E+04  0.17482981299E+04  0.13984248276E+04 0.  0.
        4    1    3    3  502    0  0.65470541969E+03  0.17492164472E+03 -0.73993935386E+03  0.10033686405E+04  0.12699999809E+01 0. -1.
       -4    1    3    3    0  502 -0.65470541969E+03 -0.17492164472E+03 -0.30932436543E+03  0.74492948949E+03  0.12699999809E+01 0.  1.
</event>
<event>
 5   0  0.9027076E-04  0.1230384E+04  0.7818609E-02  0.9086670E-01
        1   -1    0    0  501    0  0.00000000000E+00  0.00000000000E+00  0.12725405698E+04  0.12725405698E+04  0.50400001928E-02 0. -1.
       -1   -1    0    0    0  501  0.00000000000E+00  0.00000000000E+00 -0.29740585099E+03  0.29740585103E+03  0.50400001928E-02 0.  1.
    10030    2    1    2    0    0  0.00000000000E+00  0.00000000000E+00  0.97513471885E+03  0.15699464209E+04  0.12303836981E+04 0.  0.
        5    1    3    3  502    0 -0.48462373877E+03  0.31089542243E+03  0.21116854689E+03  0.61329469023E+03  0.46999998093E+01 0.  1.
       -5    1    3    3    0  502  0.48462373877E+03 -0.31089542243E+03  0.76396617196E+03  0.95665173065E+03  0.46999998093E+01 0. -1.
</event>
<event>
 5   0  0.1700511E-03  0.1305086E+04  0.7818609E-02  0.9025542E-01
        2   -1    0    0  501    0  0.00000000000E+00  0.00000000000E+00  0.35679955421E+03  0.35679955422E+03  0.25500000920E-02 0.  1.
       -2   -1    0    0    0  501  0.00000000000E+00  0.00000000000E+00 -0.11934212483E+04  0.11934212483E+04  0.25500000920E-02 0. -1.
    10030    2    1    2    0    0  0.00000000000E+00  0.00000000000E+00 -0.83662169408E+03  0.15502208025E+04  0.13050856974E+04 0.  0.
        2    1    3    3  502    0  0.34577959845E+03 -0.43207412004E+03 -0.82903340988E+03  0.99676876487E+03  0.25500000920E-02 0. -1.
       -2    1    3    3    0  502 -0.34577959845E+03  0.43207412004E+03 -0.75882842023E+01  0.55345203765E+03  0.25500000920E-02 0.  1.
</event>
<event>
 5   0  0.9110949E-04  0.1296625E+04  0.7818609E-02  0.9032246E-01
       -1   -1    0    0    0  501  0.00000000000E+00  0.00000000000E+00  0.48457392669E+03  0.48457392671E+03  0.50400001928E-02 0. -1.
        1   -1    0    0  501    0  0.00000000000E+00  0.00000000000E+00 -0.86737904604E+03  0.86737904606E+03  0.50400001928E-02 0.  1.
    10030    2    1    2    0    0  0.00000000000E+00  0.00000000000E+00 -0.38280511936E+03  0.13519529728E+04  0.12966252663E+04 0.  0.
        2    1    3    3  502    0 -0.14591927093E+03 -0.47447909723E+03 -0.62619295499E+03  0.79908726947E+03  0.25500000920E-02 0.  1.
       -2    1    3    3    0  502  0.14591927093E+03  0.47447909723E+03  0.24338783564E+03  0.55286570330E+03  0.25500000920E-02 0. -1.
</event>
<event>
 5   0  0.9215829E-04  0.1307434E+04  0.7818609E-02  0.9023691E-01
       -1   -1    0    0    0  501  0.00000000000E+00  0.00000000000E+00  0.92194434980E+03  0.92194434981E+03  0.50400001928E-02 0. -1.
        1   -1    0    0  501    0  0.00000000000E+00  0.00000000000E+00 -0.46352677879E+03  0.46352677882E+03  0.50400001928E-02 0.  1.
    10030    2    1    2    0    0  0.00000000000E+00  0.00000000000E+00  0.45841757101E+03  0.13854711286E+04  0.13074339673E+04 0.  0.
        3    1    3    3  502    0 -0.26785914733E+03 -0.48948619331E+03 -0.13170867007E+03  0.57331705035E+03  0.10100000352E+00 0.  1.
       -3    1    3    3    0  502  0.26785914733E+03  0.48948619331E+03  0.59012624108E+03  0.81215407828E+03  0.10100000352E+00 0. -1.
</event>
<event>
 5   0  0.1667342E-03  0.1305689E+04  0.7818609E-02  0.9025066E-01
       -2   -1    0    0    0  501  0.00000000000E+00  0.00000000000E+00  0.39601412205E+03  0.39601412205E+03  0.25500000920E-02 0. -1.
        2   -1    0    0  501    0  0.00000000000E+00  0.00000000000E+00 -0.10762385445E+04  0.10762385445E+04  0.25500000920E-02 0.  1.
    10030    2    1    2    0    0  0.00000000000E+00  0.00000000000E+00 -0.68022442250E+03  0.14722526666E+04  0.13056885729E+04 0.  0.
        5    1    3    3  502    0 -0.68548890946E+02  0.64921626981E+03 -0.34201807019E+03  0.73700689669E+03  0.46999998093E+01 0.  1.
       -5    1    3    3    0  502  0.68548890946E+02 -0.64921626981E+03 -0.33820635231E+03  0.73524576991E+03  0.46999998093E+01 0. -1.
</event>
<event>
 5   0  0.1714861E-03  0.1301599E+04  0.7818609E-02  0.9028298E-01
        2   -1    0    0  501    0  0.00000000000E+00  0.00000000000E+00  0.15862079074E+04  0.15862079075E+04  0.25500000920E-02 0. -1.
       -2   -1    0    0    0  501  0.00000000000E+00  0.00000000000E+00 -0.26701422243E+03  0.26701422244E+03  0.25500000920E-02 0.  1.
    10030    2    1    2    0    0  0.00000000000E+00  0.00000000000E+00  0.13191936850E+04  0.18532221299E+04  0.13015991257E+04 0.  0.
        1    1    3    3  502    0  0.41773851965E+03 -0.49106918528E+03  0.53316131390E+03  0.83660946815E+03  0.50400001928E-02 0.  1.
       -1    1    3    3    0  502 -0.41773851965E+03  0.49106918528E+03  0.78603237112E+03  0.10166126617E+04  0.50400001928E-02 0. -1.
</event>
<event>
 5   0  0.9081324E-04  0.1273787E+04  0.7818609E-02  0.9050614E-01
        1   -1    0    0  501    0  0.00000000000E+00  0.00000000000E+00  0.85429326590E+03  0.85429326592E+03  0.50400001928E-02 0.  1.
       -1   -1    0    0    0  501  0.00000000000E+00  0.00000000000E+00 -0.47481753595E+03  0.47481753598E+03  0.50400001928E-02 0. -1.
    10030    2    1    2    0    0  0.00000000000E+00  0.00000000000E+00  0.37947572995E+03  0.13291108019E+04  0.12737871463E+04 0.  0.
        4    1    3    3  502    0  0.55093404143E+03  0.30602784634E+03  0.93818953717E+02  0.63716949842E+03  0.12699999809E+01 0.  1.
       -4    1    3    3    0  502 -0.55093404143E+03 -0.30602784634E+03  0.28565677623E+03  0.69194130347E+03  0.12699999809E+01 0. -1.
</event>
<event>
 5   0  0.9081324E-04  0.1280881E+04  0.7818609E-02  0.9044866E-01
        1   -1    0    0  501    0  0.00000000000E+00  0.00000000000E+00  0.12198382488E+04  0.12198382489E+04  0.50400001928E-02 0.  1.
       -1   -1    0    0    0  501  0.00000000000E+00  0.00000000000E+00 -0.33624458844E+03  0.33624458847E+03  0.50400001928E-02 0. -1.
    10030    2    1    2    0    0  0.00000000000E+00  0.00000000000E+00  0.88359366041E+03  0.15560828373E+04  0.12808809624E+04 0.  0.
        4    1    3    3  502    0  0.13718753223E+03  0.22527150320E+03 -0.26719772911E+03  0.37545160606E+03  0.12699999809E+01 0. -1.
       -4    1    3    3    0  502 -0.13718753223E+03 -0.22527150320E+03  0.11507913895E+04  0.11806312313E+04  0.12699999809E+01 0.  1.
</event>
<event>
 5   0  0.9027076E-04  0.1295718E+04  0.7818609E-02  0.9032968E-01
        1   -1    0    0  501    0  0.00000000000E+00  0.00000000000E+00  0.72870090401E+03  0.72870090403E+03  0.50400001928E-02 0.  1.
       -1   -1    0    0    0  501  0.00000000000E+00  0.00000000000E+00 -0.57598586198E+03  0.57598586200E+03  0.50400001928E-02 0. -1.
    10030    2    1    2    0    0  0.00000000000E+00  0.00000000000E+00  0.15271504203E+03  0.13046867660E+04  0.12957182075E+04 0.  0.
        5    1    3    3  502    0  0.16835534961E+03  0.14576293751E+03  0.68893425978E+03  0.72404617394E+03  0.46999998093E+01 0.  1.
       -5    1    3    3    0  502 -0.16835534961E+03 -0.14576293751E+03 -0.53621921775E+03  0.58064059208E+03  0.46999998093E+01 0. -1.
</event>
<event>
 5   0  0.1694675E-03  0.1301201E+04  0.7818609E-02  0.9028613E-01
       -2   -1    0    0    0  501  0.00000000000E+00  0.00000000000E+00  0.50863174079E+03  0.50863174079E+03  0.25500000920E-02 0. -1.
        2   -1    0    0  501    0  0.00000000000E+00  0.00000000000E+00 -0.83219558943E+03  0.83219558943E+03  0.25500000920E-02 0.  1.
    10030    2    1    2    0    0  0.00000000000E+00  0.00000000000E+00 -0.32356384864E+03  0.13408273302E+04  0.13012011241E+04 0.  0.
        4    1    3    3  502    0 -0.42086341084E+03 -0.25536742174E+03 -0.60010754279E+03  0.77618889871E+03  0.12699999809E+01 0.  1.
       -4    1    3    3    0  502  0.42086341084E+03  0.25536742174E+03  0.27654369415E+03  0.56463843151E+03  0.12699999809E+01 0. -1.
</event>
<event>
 5   0  0.9027076E-04  0.1299969E+04  0.7818609E-02  0.9029590E-01
        1   -1    0    0  501    0  0.00000000000E+00  0.00000000000E+00  0.43707594574E+03  0.43707594577E+03  0.50400001928E-02 0. -1.
       -1   -1    0    0    0  501  0.00000000000E+00  0.00000000000E+00 -0.96660481919E+03  0.96660481920E+03  0.50400001928E-02 0.  1.
    10030    2    1    2    0    0  0.00000000000E+00  0.00000000000E+00 -0.52952887345E+03  0.14036807650E+04  0.12999687928E+04 0.  0.
        5    1    3    3  502    0  0.31565343770E+03  0.43133016651E+03  0.13457159539E+03  0.55119362256E+03  0.46999998093E+01 0. -1.
       -5    1    3    3    0  502 -0.31565343770E+03 -0.43133016651E+03 -0.66410046883E+03  0.85248714241E+03  0.46999998093E+01 0.  1.
</event>
<event>
 5   0  0.1623890E-03  0.1294656E+04  0.7818609E-02  0.9033814E-01
        2   -1    0    0  501    0  0.00000000000E+00  0.00000000000E+00  0.16721150530E+04  0.16721150530E+04  0.25500000920E-02 0. -1.
       -2   -1    0    0    0  501  0.00000000000E+00  0.00000000000E+00 -0.25060071819E+03  0.25060071821E+03  0.25500000920E-02 0.  1.
    10030    2    1    2    0    0  0.00000000000E+00  0.00000000000E+00  0.14215143348E+04  0.19227157712E+04  0.12946555267E+04 0.  0.
        3    1    3    3  502    0  0.24309881564E+03 -0.46213764423E+03  0.12789286837E+04  0.13814220298E+04  0.10100000352E+00 0. -1.
       -3    1    3    3    0  502 -0.24309881564E+03  0.46213764423E+03  0.14258565118E+03  0.54129374143E+03  0.10100000352E+00 0.  1.
</event>
<event>
 5   0  0.1623890E-03  0.1292900E+04  0.7818609E-02  0.9035215E-01
        2   -1    0    0  501    0  0.00000000000E+00  0.00000000000E+00  0.92867615380E+03  0.92867615381E+03  0.25500000920E-02 0. -1.
       -2   -1    0    0    0  501  0.00000000000E+00  0.00000000000E+00 -0.44999283959E+03  0.44999283960E+03  0.25500000920E-02 0.  1.
    10030    2    1    2    0    0  0.00000000000E+00  0.00000000000E+00  0.47868331422E+03  0.13786689934E+04  0.12929000263E+04 0.  0.
        3    1    3    3  502    0 -0.29905447884E+03 -0.53302100312E+03  0.46391323637E+03  0.76730728666E+03  0.10100000352E+00 0.  1.
       -3    1    3    3    0  502  0.29905447884E+03  0.53302100312E+03  0.14770077847E+02  0.61136170675E+03  0.10100000352E+00 0. -1.
</event>
<event>
 5   0  0.6284125E-04  0.1305332E+04  0.7818609E-02  0.9025348E-01
       -3   -1    0    0    0  501  0.00000000000E+00  0.00000000000E+00  0.10691500925E+04  0.10691500972E+04  0.10100000352E+00 0.  1.
        3   -1    0    0  501    0  0.00000000000E+00  0.00000000000E+00 -0.39842182455E+03  0.39842183735E+03  0.10100000352E+00 0. -1.
    10030    2    1    2    0    0  0.00000000000E+00  0.00000000000E+00  0.67072826790E+03  0.14675719346E+04  0.13053317486E+04 0.  0.
        2    1    3    3  502    0 -0.13824584985E+03  0.51997287248E+03  0.75072673156E+03  0.92362022964E+03  0.25500000920E-02 0.  1.
       -2    1    3    3    0  502  0.13824584985E+03 -0.51997287248E+03 -0.79998463653E+02  0.54395170494E+03  0.25500000920E-02 0. -1.
</event>
<event>
 5   0  0.9027076E-04  0.1271071E+04  0.7818609E-02  0.9052826E-01
       -1   -1    0    0    0  501  0.00000000000E+00  0.00000000000E+00  0.23301772957E+03  0.23301772962E+03  0.50400001928E-02 0. -1.
        1   -1    0    0  501    0  0.00000000000E+00  0.00000000000E+00 -0.17333667124E+04  0.17333667124E+04  0.50400001928E-02 0.  1.
    10030    2    1    2    0    0  0.00000000000E+00  0.00000000000E+00 -0.15003489828E+04  0.19663844420E+04  0.12710706918E+04 0.  0.
        5    1    3    3  502    0  0.21507624311E+03 -0.44729733729E+03 -0.13611780819E+03  0.51466770445E+03  0.46999998093E+01 0. -1.
       -5    1    3    3    0  502 -0.21507624311E+03  0.44729733729E+03 -0.13642311746E+04  0.14517167376E+04  0.46999998093E+01 0.  1.
</event>
<event>
 5   0  0.1623890E-03  0.1300789E+04  0.7818609E-02  0.9028940E-01
        2   -1    0    0  501    0  0.00000000000E+00  0.00000000000E+00  0.19163714887E+04  0.19163714887E+04  0.25500000920E-02 0. -1.
       -2   -1    0    0    0  501  0.00000000000E+00  0.00000000000E+00 -0.22073638786E+03  0.22073638787E+03  0.25500000920E-02 0.  1.
    10030    2    1    2    0    0  0.00000000000E+00  0.00000000000E+00  0.16956351008E+04  0.21371078766E+04  0.13007888687E+04 0.  0.
        3    1    3    3  502    0  0.23452009462E+03 -0.54837343139E+03  0.12740304289E+04  0.14067219480E+04  0.10100000352E+00 0. -1.
       -3    1    3    3    0  502 -0.23452009462E+03  0.54837343139E+03  0.42160467192E+03  0.73038592855E+03  0.10100000352E+00 0.  1.
</event>
<event>
 5   0  0.6284125E-04  0.1293490E+04  0.7818609E-02  0.9034743E-01
        3   -1    0    0  501    0  0.00000000000E+00  0.00000000000E+00  0.56446518063E+03  0.56446518967E+03  0.10100000352E+00 0. -1.
       -3   -1    0    0    0  501  0.00000000000E+00  0.00000000000E+00 -0.74101889582E+03  0.74101890270E+03  0.10100000352E+00 0.  1.
    10030    2    1    2    0    0  0.00000000000E+00  0.00000000000E+00 -0.17655371518E+03  0.13054840924E+04  0.12934904333E+04 0.  0.
        1    1    3    3  502    0  0.33013681160E+02  0.18866185701E+03  0.53518569036E+03  0.56842494898E+03  0.50400001928E-02 0. -1.
       -1    1    3    3    0  502 -0.33013681160E+02 -0.18866185701E+03 -0.71173940554E+03  0.73705914339E+03  0.50400001928E-02 0.  1.
</event>
<event>
 5   0  0.1700511E-03  0.1258876E+04  0.7818609E-02  0.9062828E-01
        2   -1    0    0  501    0  0.00000000000E+00  0.00000000000E+00  0.11988522192E+04  0.11988522192E+04  0.25500000920E-02 0. -1.
       -2   -1    0    0    0  501  0.00000000000E+00  0.00000000000E+00 -0.33047649248E+03  0.33047649249E+03  0.25500000920E-02 0.  1.
    10030    2    1    2    0    0  0.00000000000E+00  0.00000000000E+00  0.86837572674E+03  0.15293287117E+04  0.12588764458E+04 0.  0.
        2    1    3    3  502    0 -0.49286252074E+02 -0.56964435880E+03  0.11445587800E+03  0.58311575023E+03  0.25500000920E-02 0.  1.
       -2    1    3    3    0  502  0.49286252074E+02  0.56964435880E+03  0.75391984875E+03  0.94621296149E+03  0.25500000920E-02 0. -1.
</event>
<event>
 5   0  0.1714861E-03  0.1289079E+04  0.7818609E-02  0.9038271E-01
        2   -1    0    0  501    0  0.00000000000E+00  0.00000000000E+00  0.15955622181E+04  0.15955622181E+04  0.25500000920E-02 0.  1.
       -2   -1    0    0    0  501  0.00000000000E+00  0.00000000000E+00 -0.26036664668E+03  0.26036664669E+03  0.25500000920E-02 0. -1.
    10030    2    1    2    0    0  0.00000000000E+00  0.00000000000E+00  0.13351955714E+04  0.18559288648E+04  0.12890790268E+04 0.  0.
        1    1    3    3  502    0  0.79378372224E+02 -0.17779018841E+03  0.15522086886E+04  0.15643727465E+04  0.50400001928E-02 0.  1.
       -1    1    3    3    0  502 -0.79378372224E+02  0.17779018841E+03 -0.21701311716E+03  0.29155611830E+03  0.50400001928E-02 0. -1.
</event>
<event>
 5   0  0.9098192E-04  0.1328693E+04  0.7818609E-02  0.9007116E-01
        1   -1    0    0  501    0  0.00000000000E+00  0.00000000000E+00  0.11471818021E+04  0.11471818021E+04  0.50400001928E-02 0. -1.
       -1   -1    0    0    0  501  0.00000000000E+00  0.00000000000E+00 -0.38473083670E+03  0.38473083674E+03  0.50400001928E-02 0.  1.
    10030    2    1    2    0    0  0.00000000000E+00  0.00000000000E+00  0.76245096541E+03  0.15319126389E+04  0.13286929135E+04 0.  0.
        1    1    3    3  502    0 -0.23528387988E+03  0.57682649288E+03  0.64732634123E+03  0.89839785123E+03  0.50400001928E-02 0. -1.
       -1    1    3    3    0  502  0.23528387988E+03 -0.57682649288E+03  0.11512462418E+03  0.63351478763E+03  0.50400001928E-02 0.  1.
</event>
<event>
 5   0  0.1694675E-03  0.1295894E+04  0.7818609E-02  0.9032828E-01
       -2   -1    0    0    0  501  0.00000000000E+00  0.00000000000E+00  0.64088719597E+03  0.64088719598E+03  0.25500000920E-02 0. -1.
        2   -1    0    0  501    0  0.00000000000E+00  0.00000000000E+00 -0.65508440899E+03  0.65508440899E+03  0.25500000920E-02 0.  1.
    10030    2    1    2    0    0  0.00000000000E+00  0.00000000000E+00 -0.14197213014E+02  0.12959716050E+04  0.12958938383E+04 0.  0.
        4    1    3    3  502    0  0.67888354009E+01 -0.51000920845E+03  0.39252281595E+03  0.64360799788E+03  0.12699999809E+01 0. -1.
       -4    1    3    3    0  502 -0.67888354009E+01  0.51000920845E+03 -0.40672002897E+03  0.65236360709E+03  0.12699999809E+01 0.  1.
</event>
<event>
 5   0  0.1694675E-03  0.1305799E+04  0.7818609E-02  0.9024979E-01
       -2   -1    0    0    0  501  0.00000000000E+00  0.00000000000E+00  0.70223177938E+03  0.70223177939E+03  0.25500000920E-02 0.  1.
        2   -1    0    0  501    0  0.00000000000E+00  0.00000000000E+00 -0.60703319904E+03  0.60703319905E+03  0.25500000920E-02 0. -1.
    10030    2    1    2    0    0  0.00000000000E+00  0.00000000000E+00  0.95198580343E+02  0.13092649784E+04  0.13057993774E+04 0.  0.
        4    1    3    3  502    0  0.34511703868E+02 -0.48187841715E+03 -0.39274567073E+03  0.62261436009E+03  0.12699999809E+01 0.  1.
       -4    1    3    3    0  502 -0.34511703868E+02  0.48187841715E+03  0.48794425107E+03  0.68665061834E+03  0.12699999809E+01 0. -1.
</event>
<event>
 5   0  0.1667342E-03  0.1281308E+04  0.7818609E-02  0.9044521E-01
        2   -1    0    0  501    0  0.00000000000E+00  0.00000000000E+00  0.85267628002E+03  0.85267628002E+03  0.25500000920E-02 0.  1.
       -2   -1    0    0    0  501  0.00000000000E+00  0.00000000000E+00 -0.48135194802E+03  0.48135194803E+03  0.25500000920E-02 0. -1.
    10030    2    1    2    0    0  0.00000000000E+00  0.00000000000E+00  0.37132433200E+03  0.13340282281E+04  0.12813077514E+04 0.  0.
        5    1    3    3  502    0  0.39478628842E+03  0.27070837375E+03 -0.25762156663E+03  0.54362689295E+03  0.46999998093E+01 0. -1.
       -5    1    3    3    0  502 -0.39478628842E+03 -0.27070837375E+03  0.62894589863E+03  0.79040133511E+03  0.46999998093E+01 0.  1.
</event>
<event>
 5   0  0.9081324E-04  0.1313028E+04  0.7818609E-02  0.9019297E-01
       -1   -1    0    0    0  501  0.00000000000E+00  0.00000000000E+00  0.39733509941E+03  0.39733509944E+03  0.50400001928E-02 0. -1.
        1   -1    0    0  501    0  0.00000000000E+00  0.00000000000E+00 -0.10847536315E+04  0.10847536315E+04  0.50400001928E-02 0.  1.
    10030    2    1    2    0    0  0.00000000000E+00  0.00000000000E+00 -0.68741853213E+03  0.14820887310E+04  0.13130280912E+04 0.  0.
        4    1    3    3  502    0  0.36178356615E+03 -0.32580360148E+03 -0.84084119991E+03  0.97162280327E+03  0.12699999809E+01 0.  1.
       -4    1    3    3    0  502 -0.36178356615E+03  0.32580360148E+03  0.15342266778E+03  0.51046592772E+03  0.12699999809E+01 0. -1.
</event>
<event>
 5   0  0.9110949E-04  0.1272319E+04  0.7818609E-02  0.9051809E-01
       -1   -1    0    0    0  501  0.00000000000E+00  0.00000000000E+00  0.18368170007E+04  0.18368170007E+04  0.50400001928E-02 0.  1.
        1   -1    0    0  501    0  0.00000000000E+00  0.00000000000E+00 -0.22032614637E+03  0.22032614642E+03  0.50400001928E-02 0. -1.
    10030    2    1    2    0    0  0.00000000000E+00  0.00000000000E+00  0.16164908543E+04  0.20571431471E+04  0.12723188459E+04 0.  0.
        2    1    3    3  502    0 -0.12030788885E+03  0.62436768897E+03  0.84016788308E+03  0.10536560496E+04  0.25500000920E-02 0.  1.
       -2    1    3    3    0  502  0.12030788885E+03 -0.62436768897E+03  0.77632297126E+03  0.10034870975E+04  0.25500000920E-02 0. -1.
</event>
<event>
 5   0  0.1623890E-03  0.1305275E+04  0.7818609E-02  0.9025393E-01
        2   -1    0    0  501    0  0.00000000000E+00  0.00000000000E+00  0.10837527037E+04  0.10837527037E+04  0.25500000920E-02 0.  1.
       -2   -1    0    0    0  501  0.00000000000E+00  0.00000000000E+00 -0.39301908826E+03  0.39301908827E+03  0.25500000920E-02 0. -1.
    10030    2    1    2    0    0  0.00000000000E+00  0.00000000000E+00  0.69073361544E+03  0.14767717920E+04  0.13052746830E+04 0.  0.
        3    1    3    3  502    0 -0.48016274378E+03 -0.26971506245E+03  0.74156744941E+03  0.92370166594E+03  0.10100000352E+00 0.  1.
       -3    1    3    3    0  502  0.48016274378E+03  0.26971506245E+03 -0.50833833971E+02  0.55307012603E+03  0.10100000352E+00 0. -1.
</event>
<event>
 5   0  0.1714861E-03  0.1310458E+04  0.7818609E-02  0.9021313E-01
       -2   -1    0    0    0  501  0.00000000000E+00  0.00000000000E+00  0.29112092403E+03  0.29112092404E+03  0.25500000920E-02 0.  1.
        2   -1    0    0  501    0  0.00000000000E+00  0.00000000000E+00 -0.14747313771E+04  0.14747313771E+04  0.25500000920E-02 0. -1.
    10030    2    1    2    0    0  0.00000000000E+00  0.00000000000E+00 -0.11836104530E+04  0.17658523011E+04  0.13104581813E+04 0.  0.
        1    1    3    3  502    0 -0.33376569542E+03 -0.45160596569E+03 -0.10467315876E+04  0.11878528967E+04  0.50400001928E-02 0. -1.
       -1    1    3    3    0  502  0.33376569542E+03  0.45160596569E+03 -0.13687886544E+03  0.57799940442E+03  0.50400001928E-02 0.  1.
</event>
<event>
 5   0  0.1694675E-03  0.1287729E+04  0.7818609E-02  0.9039353E-01
        2   -1    0    0  501    0  0.00000000000E+00  0.00000000000E+00  0.21591559385E+04  0.21591559385E+04  0.25500000920E-02 0. -1.
       -2   -1    0    0    0  501  0.00000000000E+00  0.00000000000E+00 -0.19200178206E+03  0.19200178207E+03  0.25500000920E-02 0.  1.
    10030    2    1    2    0    0  0.00000000000E+00  0.00000000000E+00  0.19671541565E+04  0.23511577206E+04  0.12877294560E+04 0.  0.
        4    1    3    3  502    0 -0.57774252196E+02  0.39360975852E+02  0.21522038131E+04  0.21533392711E+04  0.12699999809E+01 0. -1.
       -4    1    3    3    0  502  0.57774252196E+02 -0.39360975852E+02 -0.18504965661E+03  0.19781844947E+03  0.12699999809E+01 0.  1.
</event>
<event>
 5   0  0.9215829E-04  0.1305577E+04  0.7818609E-02  0.9025154E-01
       -1   -1    0    0    0  501  0.00000000000E+00  0.00000000000E+00  0.34408755971E+03  0.34408755974E+03  0.50400001928E-02 0. -1.
        1   -1    0    0  501    0  0.00000000000E+00  0.00000000000E+00 -0.12384427846E+04  0.12384427846E+04  0.50400001928E-02 0.  1.
    10030    2    1    2    0    0  0.00000000000E+00  0.00000000000E+00 -0.89435522488E+03  0.15825303443E+04  0.13055768926E+04 0.  0.
        3    1    3    3  502    0  0.55121967666E+03 -0.40525039959E+01 -0.87103056604E+03  0.10308025087E+04  0.10100000352E+00 0.  1.
       -3    1    3    3    0  502 -0.55121967666E+03  0.40525039959E+01 -0.23324658842E+02  0.55172783566E+03  0.10100000352E+00 0. -1.
</event>
<event>
 5   0  0.9098192E-04  0.1294780E+04  0.7818609E-02  0.9033715E-01
        1   -1    0    0  501    0  0.00000000000E+00  0.00000000000E+00  0.11791349753E+04  0.11791349753E+04  0.50400001928E-02 0. -1.
       -1   -1    0    0    0  501  0.00000000000E+00  0.00000000000E+00 -0.35544181432E+03  0.35544181436E+03  0.50400001928E-02 0.  1.
    10030    2    1    2    0    0  0.00000000000E+00  0.00000000000E+00  0.82369316097E+03  0.15345767897E+04  0.12947800971E+04 0.  0.
        1    1    3    3  502    0  0.44746672698E+03 -0.39656879185E+03  0.70605531327E+03  0.92520667088E+03  0.50400001928E-02 0. -1.
       -1    1    3    3    0  502 -0.44746672698E+03  0.39656879185E+03  0.11763784770E+03  0.60937011878E+03  0.50400001928E-02 0.  1.
</event>
<event>
 5   0  0.9110949E-04  0.1301381E+04  0.7818609E-02  0.9028471E-01
       -1   -1    0    0    0  501  0.00000000000E+00  0.00000000000E+00  0.48935738623E+03  0.48935738626E+03  0.50400001928E-02 0.  1.
        1   -1    0    0  501    0  0.00000000000E+00  0.00000000000E+00 -0.86521202456E+03  0.86521202457E+03  0.50400001928E-02 0. -1.
    10030    2    1    2    0    0  0.00000000000E+00  0.00000000000E+00 -0.37585463832E+03  0.13545694108E+04  0.13013806436E+04 0.  0.
        2    1    3    3  502    0 -0.31132192701E+03 -0.29382693834E+03  0.32214439281E+03  0.53575425501E+03  0.25500000920E-02 0.  1.
       -2    1    3    3    0  502  0.31132192701E+03  0.29382693834E+03 -0.69799903114E+03  0.81881515582E+03  0.25500000920E-02 0. -1.
</event>
<event>
 5   0  0.1714861E-03  0.1300981E+04  0.7818609E-02  0.9028787E-01
       -2   -1    0    0    0  501  0.00000000000E+00  0.00000000000E+00  0.29612747816E+03  0.29612747817E+03  0.25500000920E-02 0.  1.
        2   -1    0    0  501    0  0.00000000000E+00  0.00000000000E+00 -0.14289054216E+04  0.14289054216E+04  0.25500000920E-02 0. -1.
    10030    2    1    2    0    0  0.00000000000E+00  0.00000000000E+00 -0.11327779434E+04  0.17250328997E+04  0.13009814127E+04 0.  0.
        1    1    3    3  502    0 -0.54918841584E+01 -0.64283055581E+03 -0.43461304972E+03  0.77598311018E+03  0.50400001928E-02 0. -1.
       -1    1    3    3    0  502  0.54918841584E+01  0.64283055581E+03 -0.69816489368E+03  0.94904978956E+03  0.50400001928E-02 0.  1.
</event>
<event>
 5   0  0.1694675E-03  0.1310248E+04  0.7818609E-02  0.9021478E-01
        2   -1    0    0  501    0  0.00000000000E+00  0.00000000000E+00  0.73579872527E+03  0.73579872528E+03  0.25500000920E-02 0.  1.
       -2   -1    0    0    0  501  0.00000000000E+00  0.00000000000E+00 -0.58329451618E+03  0.58329451619E+03  0.25500000920E-02 0. -1.
    10030    2    1    2    0    0  0.00000000000E+00  0.00000000000E+00  0.15250420909E+03  0.13190932415E+04  0.13102478567E+04 0.  0.
        4    1    3    3  502    0 -0.46300777149E+03 -0.27899834426E+03  0.44884445507E+03  0.70262310687E+03  0.12699999809E+01 0.  1.
       -4    1    3    3    0  502  0.46300777149E+03  0.27899834426E+03 -0.29634024599E+03  0.61647013460E+03  0.12699999809E+01 0. -1.
</event>
<event>
 5   0  0.9027076E-04  0.1301994E+04  0.7818609E-02  0.9027985E-01
        1   -1    0    0  501    0  0.00000000000E+00  0.00000000000E+00  0.56990761372E+03  0.56990761374E+03  0.50400001928E-02 0.  1.
       -1   -1    0    0    0  501  0.00000000000E+00  0.00000000000E+00 -0.74362466682E+03  0.74362466684E+03  0.50400001928E-02 0. -1.
    10030    2    1    2    0    0  0.00000000000E+00  0.00000000000E+00 -0.17371705310E+03  0.13135322806E+04  0.13019944077E+04 0.  0.
        5    1    3    3  502    0 -0.34543355977E+03  0.14676763179E+03  0.44974796794E+03  0.58579894727E+03  0.46999998093E+01 0.  1.
       -5    1    3    3    0  502  0.34543355977E+03 -0.14676763179E+03 -0.62346502104E+03  0.72773333331E+03  0.46999998093E+01 0. -1.
</event>
<event>
 5   0  0.1714861E-03  0.1314631E+04  0.7818609E-02  0.9018043E-01
        2   -1    0    0  501    0  0.00000000000E+00  0.00000000000E+00  0.14957196570E+04  0.14957196570E+04  0.25500000920E-02 0.  1.
       -2   -1    0    0    0  501  0.00000000000E+00  0.00000000000E+00 -0.28886658160E+03  0.28886658161E+03  0.25500000920E-02 0. -1.
    10030    2    1    2    0    0  0.00000000000E+00  0.00000000000E+00  0.12068530753E+04  0.17845862386E+04  0.13146306315E+04 0.  0.
        1    1    3    3  502    0 -0.61173036700E+03 -0.16056116825E+03  0.84652367455E+03  0.10566911859E+04  0.50400001928E-02 0. -1.
       -1    1    3    3    0  502  0.61173036700E+03  0.16056116825E+03  0.36032940080E+03  0.72789505272E+03  0.50400001928E-02 0.  1.
</event>
<event>
 5   0  0.9215829E-04  0.1307523E+04  0.7818609E-02  0.9023621E-01
       -1   -1    0    0    0  501  0.00000000000E+00  0.00000000000E+00  0.31734103413E+03  0.31734103417E+03  0.50400001928E-02 0. -1.
        1   -1    0    0  501    0  0.00000000000E+00  0.00000000000E+00 -0.13468284692E+04  0.13468284692E+04  0.50400001928E-02 0.  1.
    10030    2    1    2    0    0  0.00000000000E+00  0.00000000000E+00 -0.10294874351E+04  0.16641695034E+04  0.13075227558E+04 0.  0.
        3    1    3    3  502    0 -0.23071235753E+03  0.92648635518E+02  0.25482361806E+03  0.35601551666E+03  0.10100000352E+00 0. -1.
       -3    1    3    3    0  502  0.23071235753E+03 -0.92648635518E+02 -0.12843110532E+04  0.13081539868E+04  0.10100000352E+00 0.  1.
</event>
<event>
 5   0  0.9027076E-04  0.1300486E+04  0.7818609E-02  0.9029180E-01
        1   -1    0    0  501    0  0.00000000000E+00  0.00000000000E+00  0.70815487063E+03  0.70815487065E+03  0.50400001928E-02 0.  1.
       -1   -1    0    0    0  501  0.00000000000E+00  0.00000000000E+00 -0.59706732047E+03  0.59706732050E+03  0.50400001928E-02 0. -1.
    10030    2    1    2    0    0  0.00000000000E+00  0.00000000000E+00  0.11108755016E+03  0.13052221911E+04  0.13004862646E+04 0.  0.
        5    1    3    3  502    0  0.20213368280E+03  0.88644954719E+02 -0.55830276715E+03  0.60036657429E+03  0.46999998093E+01 0. -1.
       -5    1    3    3    0  502 -0.20213368280E+03 -0.88644954719E+02  0.66939031731E+03  0.70485561686E+03  0.46999998093E+01 0.  1.
</event>
<event>
 5   0  0.9027076E-04  0.1301195E+04  0.7818609E-02  0.9028618E-01
       -1   -1    0    0    0  501  0.00000000000E+00  0.00000000000E+00  0.28764773797E+03  0.28764773802E+03  0.50400001928E-02 0.  1.
        1   -1    0    0  501    0  0.00000000000E+00  0.00000000000E+00 -0.14715130121E+04  0.14715130122E+04  0.50400001928E-02 0. -1.
    10030    2    1    2    0    0  0.00000000000E+00  0.00000000000E+00 -0.11838652742E+04  0.17591607502E+04  0.13011954340E+04 0.  0.
        5    1    3    3  502    0 -0.61507010277E+03 -0.97153891810E+02 -0.84667953993E+03  0.10510178130E+04  0.46999998093E+01 0.  1.
       -5    1    3    3    0  502  0.61507010277E+03  0.97153891810E+02 -0.33718573424E+03  0.70814293712E+03  0.46999998093E+01 0. -1.
</event>
<event>
 5   0  0.6284125E-04  0.1315340E+04  0.7818609E-02  0.9017488E-01
        4   -1    0    0  501    0  0.00000000000E+00  0.00000000000E+00  0.39336272597E+03  0.39336477611E+03  0.12699999809E+01 0.  1.
       -4   -1    0    0    0  501  0.00000000000E+00  0.00000000000E+00 -0.10995643315E+04  0.10995650650E+04  0.12699999809E+01 0. -1.
    10030    2    1    2    0    0  0.00000000000E+00  0.00000000000E+00 -0.70620160556E+03  0.14929298411E+04  0.13153398050E+04 0.  0.
        4    1    3    3  502    0 -0.56780734075E+03 -0.31460207129E+03 -0.47294269232E+03  0.80315381004E+03  0.12699999809E+01 0. -1.
       -4    1    3    3    0  502  0.56780734075E+03  0.31460207129E+03 -0.23325891325E+03  0.68977603103E+03  0.12699999809E+01 0.  1.
</event>
<event>
 5   0  0.1667342E-03  0.1294649E+04  0.7818609E-02  0.9033819E-01
        2   -1    0    0  501    0  0.00000000000E+00  0.00000000000E+00  0.18667689143E+04  0.18667689143E+04  0.25500000920E-02 0.  1.
       -2   -1    0    0    0  501  0.00000000000E+00  0.00000000000E+00 -0.22446762229E+03  0.22446762231E+03  0.25500000920E-02 0. -1.
    10030    2    1    2    0    0  0.00000000000E+00  0.00000000000E+00  0.16423012921E+04  0.20912365367E+04  0.12946492646E+04 0.  0.
        5    1    3    3  502    0 -0.98990749607E+02  0.20969340039E+03 -0.15504793942E+03  0.27898466659E+03  0.46999998093E+01 0. -1.
       -5    1    3    3    0  502  0.98990749607E+02 -0.20969340039E+03  0.17973492315E+04  0.18122518701E+04  0.46999998093E+01 0.  1.
</event>
<event>
 5   0  0.1694675E-03  0.1296557E+04  0.7818609E-02  0.9032300E-01
        2   -1    0    0  501    0  0.00000000000E+00  0.00000000000E+00  0.14258355883E+04  0.14258355883E+04  0.25500000920E-02 0. -1.
       -2   -1    0    0    0  501  0.00000000000E+00  0.00000000000E+00 -0.29475008349E+03  0.29475008350E+03  0.25500000920E-02 0.  1.
    10030    2    1    2    0    0  0.00000000000E+00  0.00000000000E+00  0.11310855048E+04  0.17205856718E+04  0.12965572239E+04 0.  0.
        4    1    3    3  502    0 -0.38914418846E+03 -0.33936906078E+02 -0.12103774896E+03  0.40894579418E+03  0.12699999809E+01 0.  1.
       -4    1    3    3    0  502  0.38914418846E+03  0.33936906078E+02  0.12521232538E+04  0.13116398776E+04  0.12699999809E+01 0. -1.
</event>
<event>
 5   0  0.9098192E-04  0.1325829E+04  0.7818609E-02  0.9009330E-01
       -1   -1    0    0    0  501  0.00000000000E+00  0.00000000000E+00  0.46720190948E+03  0.46720190951E+03  0.50400001928E-02 0. -1.
        1   -1    0    0  501    0  0.00000000000E+00  0.00000000000E+00 -0.94061189531E+03  0.94061189532E+03  0.50400001928E-02 0.  1.
    10030    2    1    2    0    0  0.00000000000E+00  0.00000000000E+00 -0.47340998583E+03  0.14078138048E+04  0.13258290593E+04 0.  0.
        1    1    3    3  502    0 -0.39941337358E+03  0.83832141291E+02  0.31799340257E+03  0.51737672446E+03  0.50400001928E-02 0.  1.
       -1    1    3    3    0  502  0.39941337358E+03 -0.83832141291E+02 -0.79140338840E+03  0.89043708037E+03  0.50400001928E-02 0. -1.
</event>
<event>
 5   0  0.1667342E-03  0.1289065E+04  0.7818609E-02  0.9038282E-01
        2   -1    0    0  501    0  0.00000000000E+00  0.00000000000E+00  0.14369908927E+04  0.14369908927E+04  0.25500000920E-02 0. -1.
       -2   -1    0    0    0  501  0.00000000000E+00  0.00000000000E+00 -0.28909191339E+03  0.28909191340E+03  0.25500000920E-02 0.  1.
    10030    2    1    2    0    0  0.00000000000E+00  0.00000000000E+00  0.11478989793E+04  0.17260828061E+04  0.12890654703E+04 0.  0.
        5    1    3    3  502    0 -0.19202808947E+03 -0.57833121175E+03  0.85501133577E+03  0.10499563095E+04  0.46999998093E+01 0. -1.
       -5    1    3    3    0  502  0.19202808947E+03  0.57833121175E+03  0.29288764354E+03  0.67612649657E+03  0.46999998093E+01 0.  1.
</event>
<event>
 5   0  0.9027076E-04  0.1314295E+04  0.7818609E-02  0.9018306E-01
       -1   -1    0    0    0  501  0.00000000000E+00  0.00000000000E+00  0.12165542744E+04  0.12165542744E+04  0.50400001928E-02 0. -1.
        1   -1    0    0  501    0  0.00000000000E+00  0.00000000000E+00 -0.35497191915E+03  0.35497191919E+03  0.50400001928E-02 0.  1.
    10030    2    1    2    0    0  0.00000000000E+00  0.00000000000E+00  0.86158235520E+03  0.15715261936E+04  0.13142946482E+04 0.  0.
        5    1    3    3  502    0 -0.10790784578E+02  0.15864707936E+03 -0.33160015589E+03  0.36778538607E+03  0.46999998093E+01 0.  1.
       -5    1    3    3    0  502  0.10790784578E+02 -0.15864707936E+03  0.11931825111E+04  0.12037408075E+04  0.46999998093E+01 0. -1.
</event>
<event>
 5   0  0.1623890E-03  0.1368910E+04  0.7818609E-02  0.8976635E-01
       -2   -1    0    0    0  501  0.00000000000E+00  0.00000000000E+00  0.40217430094E+03  0.40217430095E+03  0.25500000920E-02 0. -1.
        2   -1    0    0  501    0  0.00000000000E+00  0.00000000000E+00 -0.11648653355E+04  0.11648653355E+04  0.25500000920E-02 0.  1.
    10030    2    1    2    0    0  0.00000000000E+00  0.00000000000E+00 -0.76269103454E+03  0.15670396364E+04  0.13689103725E+04 0.  0.
        3    1    3    3  502    0 -0.58687834981E+03  0.35211320496E+03 -0.37183765268E+03  0.77889226259E+03  0.10100000352E+00 0.  1.
       -3    1    3    3    0  502  0.58687834981E+03 -0.35211320496E+03 -0.39085338186E+03  0.78814737384E+03  0.10100000352E+00 0. -1.
</event>
<event>
 5   0  0.1667342E-03  0.1313413E+04  0.7818609E-02  0.9018996E-01
       -2   -1    0    0    0  501  0.00000000000E+00  0.00000000000E+00  0.35715021858E+03  0.35715021859E+03  0.25500000920E-02 0.  1.
        2   -1    0    0  501    0  0.00000000000E+00  0.00000000000E+00 -0.12075126508E+04  0.12075126508E+04  0.25500000920E-02 0. -1.
    10030    2    1    2    0    0  0.00000000000E+00  0.00000000000E+00 -0.85036243217E+03  0.15646628693E+04  0.13134129696E+04 0.  0.
        5    1    3    3  502    0  0.15549773095E+03 -0.15656631240E+03 -0.11620037120E+04  0.11827794685E+04  0.46999998093E+01 0. -1.
       -5    1    3    3    0  502 -0.15549773095E+03  0.15656631240E+03  0.31164127983E+03  0.38188340080E+03  0.46999998093E+01 0.  1.
</event>
<event>
 5   0  0.9081324E-04  0.1288911E+04  0.7818609E-02  0.9038405E-01
        1   -1    0    0  501    0  0.00000000000E+00  0.00000000000E+00  0.96954590306E+03  0.96954590307E+03  0.50400001928E-02 0. -1.
       -1   -1    0    0    0  501  0.00000000000E+00  0.00000000000E+00 -0.42836879187E+03  0.42836879190E+03  0.50400001928E-02 0.  1.
    10030    2    1    2    0    0  0.00000000000E+00  0.00000000000E+00  0.54117711118E+03  0.13979146950E+04  0.12889114899E+04 0.  0.
        4    1    3    3  502    0 -0.13906129144E+03  0.28735924818E+02 -0.41118924098E+03  0.43501954088E+03  0.12699999809E+01 0.  1.
       -4    1    3    3    0  502  0.13906129144E+03 -0.28735924818E+02  0.95236635216E+03  0.96289515409E+03  0.12699999809E+01 0. -1.
</event>
<event>
 5   0  0.1623890E-03  0.1292503E+04  0.7818609E-02  0.9035532E-01
        2   -1    0    0  501    0  0.00000000000E+00  0.00000000000E+00  0.53005136544E+03  0.53005136545E+03  0.25500000920E-02 0. -1.
       -2   -1    0    0    0  501  0.00000000000E+00  0.00000000000E+00 -0.78792504533E+03  0.78792504534E+03  0.25500000920E-02 0.  1.
    10030    2    1    2    0    0  0.00000000000E+00  0.00000000000E+00 -0.25787367989E+03  0.13179764108E+04  0.12925026053E+04 0.  0.
        3    1    3    3  502    0 -0.26003059098E+03  0.13582879311E+03 -0.71611154651E+03  0.77387410250E+03  0.10100000352E+00 0.  1.
       -3    1    3    3    0  502  0.26003059098E+03 -0.13582879311E+03  0.45823786661E+03  0.54410230828E+03  0.10100000352E+00 0. -1.
</event>
<event>
 5   0  0.1700511E-03  0.1288998E+04  0.7818609E-02  0.9038335E-01
        2   -1    0    0  501    0  0.00000000000E+00  0.00000000000E+00  0.10078725250E+04  0.10078725250E+04  0.25500000920E-02 0.  1.
       -2   -1    0    0    0  501  0.00000000000E+00  0.00000000000E+00 -0.41213470848E+03  0.41213470849E+03  0.25500000920E-02 0. -1.
    10030    2    1    2    0    0  0.00000000000E+00  0.00000000000E+00  0.59573781652E+03  0.14200072335E+04  0.12889984473E+04 0.  0.
        2    1    3    3  502    0  0.88495742942E+02  0.55109545071E+03  0.65286515223E+03  0.85893573643E+03  0.25500000920E-02 0.  1.
       -2    1    3    3    0  502 -0.88495742942E+02 -0.55109545071E+03 -0.57127335712E+02  0.56107149706E+03  0.25500000920E-02 0. -1.
</event>
<event>
 5   0  0.1694675E-03  0.1288657E+04  0.7818609E-02  0.9038609E-01
       -2   -1    0    0    0  501  0.00000000000E+00  0.00000000000E+00  0.55501645713E+03  0.55501645714E+03  0.25500000920E-02 0. -1.
        2   -1    0    0  501    0  0.00000000000E+00  0.00000000000E+00 -0.74801224960E+03  0.74801224961E+03  0.25500000920E-02 0.  1.
    10030    2    1    2    0    0  0.00000000000E+00  0.00000000000E+00 -0.19299579247E+03  0.13030287067E+04  0.12886568336E+04 0.  0.
        4    1    3    3  502    0 -0.11895469687E+03  0.38523567778E+03 -0.60469714539E+03  0.72678538640E+03  0.12699999809E+01 0. -1.
       -4    1    3    3    0  502  0.11895469687E+03 -0.38523567778E+03  0.41170135292E+03  0.57624332034E+03  0.12699999809E+01 0.  1.
</event>
<event>
 5   0  0.1667342E-03  0.1310889E+04  0.7818609E-02  0.9020975E-01
        2   -1    0    0  501    0  0.00000000000E+00  0.00000000000E+00  0.89197553937E+03  0.89197553937E+03  0.25500000920E-02 0. -1.
       -2   -1    0    0    0  501  0.00000000000E+00  0.00000000000E+00 -0.48163566211E+03  0.48163566212E+03  0.25500000920E-02 0.  1.
    10030    2    1    2    0    0  0.00000000000E+00  0.00000000000E+00  0.41033987726E+03  0.13736112015E+04  0.13108885986E+04 0.  0.
        5    1    3    3  502    0  0.62202633135E+03 -0.15552261942E+03  0.34761976234E+03  0.72935974060E+03  0.46999998093E+01 0. -1.
       -5    1    3    3    0  502 -0.62202633135E+03  0.15552261942E+03  0.62720114918E+02  0.64425146089E+03  0.46999998093E+01 0.  1.
</event>
<event>
 5   0  0.1714861E-03  0.1313511E+04  0.7818609E-02  0.9018919E-01
        2   -1    0    0  501    0  0.00000000000E+00  0.00000000000E+00  0.13346723480E+04  0.13346723480E+04  0.25500000920E-02 0. -1.
       -2   -1    0    0    0  501  0.00000000000E+00  0.00000000000E+00 -0.32317153371E+03  0.32317153372E+03  0.25500000920E-02 0.  1.
    10030    2    1    2    0    0  0.00000000000E+00  0.00000000000E+00  0.10115008143E+04  0.16578438818E+04  0.13135114917E+04 0.  0.
        1    1    3    3  502    0 -0.63302379064E+03 -0.24664072312E+02  0.28713777264E+03  0.69553974472E+03  0.50400001928E-02 0.  1.
       -1    1    3    3    0  502  0.63302379064E+03  0.24664072312E+02  0.72436304167E+03  0.96230413703E+03  0.50400001928E-02 0. -1.
</event>
<event>
 5   0  0.1714861E-03  0.1262371E+04  0.7818609E-02  0.9059949E-01
        2   -1    0    0  501    0  0.00000000000E+00  0.00000000000E+00  0.89979932038E+03  0.89979932039E+03  0.25500000920E-02 0.  1.
       -2   -1    0    0    0  501  0.00000000000E+00  0.00000000000E+00 -0.44276011080E+03  0.44276011081E+03  0.25500000920E-02 0. -1.
    10030    2    1    2    0    0  0.00000000000E+00  0.00000000000E+00  0.45703920958E+03  0.13425594312E+04  0.12623711765E+04 0.  0.
        1    1    3    3  502    0 -0.60166744579E+03  0.18555592709E+03  0.27561008581E+03  0.68731043701E+03  0.50400001928E-02 0.  1.
       -1    1    3    3    0  502  0.60166744579E+03 -0.18555592709E+03  0.18142912377E+03  0.65524899418E+03  0.50400001928E-02 0. -1.
</event>
<event>
 5   0  0.9098192E-04  0.1323201E+04  0.7818609E-02  0.9011366E-01
        1   -1    0    0  501    0  0.00000000000E+00  0.00000000000E+00  0.85346733361E+03  0.85346733362E+03  0.50400001928E-02 0.  1.
       -1   -1    0    0    0  501  0.00000000000E+00  0.00000000000E+00 -0.51286695137E+03  0.51286695140E+03  0.50400001928E-02 0. -1.
    10030    2    1    2    0    0  0.00000000000E+00  0.00000000000E+00  0.34060038224E+03  0.13663342850E+04  0.13232009515E+04 0.  0.
        1    1    3    3  502    0  0.45330142166E+02 -0.44425659873E+03  0.67436913468E+03  0.80882165966E+03  0.50400001928E-02 0.  1.
       -1    1    3    3    0  502 -0.45330142166E+02  0.44425659873E+03 -0.33376875245E+03  0.55751262536E+03  0.50400001928E-02 0. -1.
</event>
<event>
 5   0  0.9110949E-04  0.1287487E+04  0.7818609E-02  0.9039547E-01
       -1   -1    0    0    0  501  0.00000000000E+00  0.00000000000E+00  0.42035904969E+03  0.42035904972E+03  0.50400001928E-02 0.  1.
        1   -1    0    0  501    0  0.00000000000E+00  0.00000000000E+00 -0.98583722764E+03  0.98583722765E+03  0.50400001928E-02 0. -1.
    10030    2    1    2    0    0  0.00000000000E+00  0.00000000000E+00 -0.56547817795E+03  0.14061962774E+04  0.12874868546E+04 0.  0.
        2    1    3    3  502    0  0.57761110228E+03 -0.19179888352E+03 -0.53677903638E+02  0.61098503626E+03  0.25500000920E-02 0.  1.
       -2    1    3    3    0  502 -0.57761110228E+03  0.19179888352E+03 -0.51180027431E+03  0.79521124111E+03  0.25500000920E-02 0. -1.
</event>
<event>
 5   0  0.1714861E-03  0.1315215E+04  0.7818609E-02  0.9017586E-01
       -2   -1    0    0    0  501  0.00000000000E+00  0.00000000000E+00  0.90255116215E+03  0.90255116215E+03  0.25500000920E-02 0. -1.
        2   -1    0    0  501    0  0.00000000000E+00  0.00000000000E+00 -0.47913936539E+03  0.47913936540E+03  0.25500000920E-02 0.  1.
    10030    2    1    2    0    0  0.00000000000E+00  0.00000000000E+00  0.42341179675E+03  0.13816905275E+04  0.13152152540E+04 0.  0.
        1    1    3    3  502    0  0.41143954731E+03  0.13470627833E+03 -0.30830719064E+03  0.53148998706E+03  0.50400001928E-02 0.  1.
       -1    1    3    3    0  502 -0.41143954731E+03 -0.13470627833E+03  0.73171898740E+03  0.85020054049E+03  0.50400001928E-02 0. -1.
</event>
<event>
 5   0  0.9215829E-04  0.1294558E+04  0.7818609E-02  0.9033892E-01
       -1   -1    0    0    0  501  0.00000000000E+00  0.00000000000E+00  0.89425523774E+03  0.89425523776E+03  0.50400001928E-02 0. -1.
        1   -1    0    0  501    0  0.00000000000E+00  0.00000000000E+00 -0.46851275999E+03  0.46851276002E+03  0.50400001928E-02 0.  1.
    10030    2    1    2    0    0  0.00000000000E+00  0.00000000000E+00  0.42574247775E+03  0.13627679978E+04  0.12945578235E+04 0.  0.
        3    1    3    3  502    0  0.30876805919E+03  0.39850503678E+03  0.64025039111E+03  0.81490155984E+03  0.10100000352E+00 0.  1.
       -3    1    3    3    0  502 -0.30876805919E+03 -0.39850503678E+03 -0.21450791336E+03  0.54786643793E+03  0.10100000352E+00 0. -1.
</event>
<event>
 5   0  0.1667342E-03  0.1306755E+04  0.7818609E-02  0.9024225E-01
       -2   -1    0    0    0  501  0.00000000000E+00  0.00000000000E+00  0.12374818944E+04  0.12374818944E+04  0.25500000920E-02 0.  1.
        2   -1    0    0  501    0  0.00000000000E+00  0.00000000000E+00 -0.34497666985E+03  0.34497666986E+03  0.25500000920E-02 0. -1.
    10030    2    1    2    0    0  0.00000000000E+00  0.00000000000E+00  0.89250522455E+03  0.15824585643E+04  0.13067553450E+04 0.  0.
        5    1    3    3  502    0 -0.12071965040E+03 -0.15862020363E+02 -0.33109612248E+03  0.35280528625E+03  0.46999998093E+01 0. -1.
       -5    1    3    3    0  502  0.12071965040E+03  0.15862020363E+02  0.12236013470E+04  0.12296532780E+04  0.46999998093E+01 0.  1.
</event>
<event>
 5   0  0.9215829E-04  0.1282841E+04  0.7818609E-02  0.9043285E-01
       -1   -1    0    0    0  501  0.00000000000E+00  0.00000000000E+00  0.86187760394E+03  0.86187760395E+03  0.50400001928E-02 0. -1.
        1   -1    0    0  501    0  0.00000000000E+00  0.00000000000E+00 -0.47735309988E+03  0.47735309991E+03  0.50400001928E-02 0.  1.
    10030    2    1    2    0    0  0.00000000000E+00  0.00000000000E+00  0.38452450406E+03  0.13392307039E+04  0.12828405138E+04 0.  0.
        3    1    3    3  502    0  0.62114965565E+03  0.26763728444E+02  0.27605517481E+02  0.62233854667E+03  0.10100000352E+00 0.  1.
       -3    1    3    3    0  502 -0.62114965565E+03 -0.26763728444E+02  0.35691898658E+03  0.71689215720E+03  0.10100000352E+00 0. -1.
</event>
<event>
 5   0  0.1700511E-03  0.1301460E+04  0.7818609E-02  0.9028408E-01
       -2   -1    0    0    0  501  0.00000000000E+00  0.00000000000E+00  0.30596277601E+03  0.30596277602E+03  0.25500000920E-02 0. -1.
        2   -1    0    0  501    0  0.00000000000E+00  0.00000000000E+00 -0.13839900595E+04  0.13839900595E+04  0.25500000920E-02 0.  1.
    10030    2    1    2    0    0  0.00000000000E+00  0.00000000000E+00 -0.10780272835E+04  0.16899528355E+04  0.13014598582E+04 0.  0.
        2    1    3    3  502    0  0.62258846523E+03  0.93571049423E+02 -0.75268588386E+03  0.98127874638E+03  0.25500000920E-02 0. -1.
       -2    1    3    3    0  502 -0.62258846523E+03 -0.93571049423E+02 -0.32534139965E+03  0.70867408917E+03  0.25500000920E-02 0.  1.
</event>
<event>
 5   0  0.9081324E-04  0.1262112E+04  0.7818609E-02  0.9060162E-01
        1   -1    0    0  501    0  0.00000000000E+00  0.00000000000E+00  0.22320536340E+04  0.22320536340E+04  0.50400001928E-02 0.  1.
       -1   -1    0    0    0  501  0.00000000000E+00  0.00000000000E+00 -0.17841487553E+03  0.17841487560E+03  0.50400001928E-02 0. -1.
    10030    2    1    2    0    0  0.00000000000E+00  0.00000000000E+00  0.20536387585E+04  0.24104685096E+04  0.12621118356E+04 0.  0.
        4    1    3    3  502    0 -0.19564947603E+03  0.69713876358E+02 -0.11126270757E+03  0.23562628254E+03  0.12699999809E+01 0. -1.
       -4    1    3    3    0  502  0.19564947603E+03 -0.69713876358E+02  0.21649014660E+04  0.21748422270E+04  0.12699999809E+01 0.  1.
</event>
<event>
 5   0  0.9027076E-04  0.1296471E+04  0.7818609E-02  0.9032368E-01
        1   -1    0    0  501    0  0.00000000000E+00  0.00000000000E+00  0.70764021466E+03  0.70764021467E+03  0.50400001928E-02 0.  1.
       -1   -1    0    0    0  501  0.00000000000E+00  0.00000000000E+00 -0.59381793898E+03  0.59381793900E+03  0.50400001928E-02 0. -1.
    10030    2    1    2    0    0  0.00000000000E+00  0.00000000000E+00  0.11382227568E+03  0.13014581537E+04  0.12964712937E+04 0.  0.
        5    1    3    3  502    0  0.56702379430E+03  0.30365277429E+03 -0.23811935127E+02  0.64366923873E+03  0.46999998093E+01 0. -1.
       -5    1    3    3    0  502 -0.56702379430E+03 -0.30365277429E+03  0.13763421080E+03  0.65778891494E+03  0.46999998093E+01 0.  1.
</event>
<event>
 5   0  0.9098192E-04  0.1302326E+04  0.7818609E-02  0.9027722E-01
       -1   -1    0    0    0  501  0.00000000000E+00  0.00000000000E+00  0.12853867286E+04  0.12853867286E+04  0.50400001928E-02 0.  1.
        1   -1    0    0  501    0  0.00000000000E+00  0.00000000000E+00 -0.32987235915E+03  0.32987235919E+03  0.50400001928E-02 0. -1.
    10030    2    1    2    0    0  0.00000000000E+00  0.00000000000E+00  0.95551436942E+03  0.16152590878E+04  0.13023264608E+04 0.  0.
        1    1    3    3  502    0 -0.47410140941E+03  0.14103152257E+03 -0.47503450143E+02  0.49690906066E+03  0.50400001928E-02 0. -1.
       -1    1    3    3    0  502  0.47410140941E+03 -0.14103152257E+03  0.10030178196E+04  0.11183500271E+04  0.50400001928E-02 0.  1.
</event>
<event>
 5   0  0.9110949E-04  0.1299195E+04  0.7818609E-02  0.9030204E-01
       -1   -1    0    0    0  501  0.00000000000E+00  0.00000000000E+00  0.68754796700E+03  0.68754796702E+03  0.50400001928E-02 0. -1.
        1   -1    0    0  501    0  0.00000000000E+00  0.00000000000E+00 -0.61374186719E+03  0.61374186721E+03  0.50400001928E-02 0.  1.
    10030    2    1    2    0    0  0.00000000000E+00  0.00000000000E+00  0.73806099809E+02  0.13012898342E+04  0.12991950940E+04 0.  0.
        2    1    3    3  502    0  0.25244753448E+03  0.47993903366E+03 -0.32131270376E+03  0.63032776180E+03  0.25500000920E-02 0.  1.
       -2    1    3    3    0  502 -0.25244753448E+03 -0.47993903366E+03  0.39511880357E+03  0.67096207243E+03  0.25500000920E-02 0. -1.
</event>
<event>
 5   0  0.1623890E-03  0.1300638E+04  0.7818609E-02  0.9029059E-01
        2   -1    0    0  501    0  0.00000000000E+00  0.00000000000E+00  0.18287002444E+04  0.18287002444E+04  0.25500000920E-02 0.  1.
       -2   -1    0    0    0  501  0.00000000000E+00  0.00000000000E+00 -0.23126519828E+03  0.23126519829E+03  0.25500000920E-02 0. -1.
    10030    2    1    2    0    0  0.00000000000E+00  0.00000000000E+00  0.15974350461E+04  0.20599654427E+04  0.13006378814E+04 0.  0.
        3    1    3    3  502    0 -0.52390076699E+03 -0.37718561407E+03  0.92316232620E+03  0.11264855489E+04  0.10100000352E+00 0.  1.
       -3    1    3    3    0  502  0.52390076699E+03  0.37718561407E+03  0.67427271989E+03  0.93347989378E+03  0.10100000352E+00 0. -1.
</event>
<event>
 5   0  0.1714861E-03  0.1301318E+04  0.7818609E-02  0.9028521E-01
        2   -1    0    0  501    0  0.00000000000E+00  0.00000000000E+00  0.14056855330E+04  0.14056855330E+04  0.25500000920E-02 0.  1.
       -2   -1    0    0    0  501  0.00000000000E+00  0.00000000000E+00 -0.30117483890E+03  0.30117483891E+03  0.25500000920E-02 0. -1.
    10030    2    1    2    0    0  0.00000000000E+00  0.00000000000E+00  0.11045106941E+04  0.17068603719E+04  0.13013179688E+04 0.  0.
        1    1    3    3  502    0 -0.37153464501E+03  0.13878191156E+03 -0.12429995723E+03  0.41563071447E+03  0.50400001928E-02 0. -1.
       -1    1    3    3    0  502  0.37153464501E+03 -0.13878191156E+03  0.12288106513E+04  0.12912296574E+04  0.50400001928E-02 0.  1.
</event>
<event>
 5   0  0.9110949E-04  0.1309889E+04  0.7818609E-02  0.9021759E-01
        1   -1    0    0  501    0  0.00000000000E+00  0.00000000000E+00  0.38668787263E+03  0.38668787266E+03  0.50400001928E-02 0.  1.
       -1   -1    0    0    0  501  0.00000000000E+00  0.00000000000E+00 -0.11092993894E+04  0.11092993895E+04  0.50400001928E-02 0. -1.
    10030    2    1    2    0    0  0.00000000000E+00  0.00000000000E+00 -0.72261151682E+03  0.14959872621E+04  0.13098894931E+04 0.  0.
        2    1    3    3  502    0 -0.73832583332E+02 -0.24598371374E+03 -0.10493915520E+04  0.10803619149E+04  0.25500000920E-02 0. -1.
       -2    1    3    3    0  502  0.73832583332E+02  0.24598371374E+03  0.32678003521E+03  0.41562534717E+03  0.25500000920E-02 0.  1.
</event>
<event>
 5   0  0.9081324E-04  0.1328965E+04  0.7818609E-02  0.9006906E-01
        1   -1    0    0  501    0  0.00000000000E+00  0.00000000000E+00  0.73583729097E+03  0.73583729099E+03  0.50400001928E-02 0.  1.
       -1   -1    0    0    0  501  0.00000000000E+00  0.00000000000E+00 -0.60004670037E+03  0.60004670039E+03  0.50400001928E-02 0. -1.
    10030    2    1    2    0    0  0.00000000000E+00  0.00000000000E+00  0.13579059061E+03  0.13358839914E+04  0.13289646173E+04 0.  0.
        4    1    3    3  502    0 -0.19186283445E+03  0.41421049632E+03  0.55326899915E+03  0.71727949980E+03  0.12699999809E+01 0.  1.
       -4    1    3    3    0  502  0.19186283445E+03 -0.41421049632E+03 -0.41747840855E+03  0.61860449158E+03  0.12699999809E+01 0. -1.
</event>
<event>
 5   0  0.9215829E-04  0.1308427E+04  0.7818609E-02  0.9022909E-01
       -1   -1    0    0    0  501  0.00000000000E+00  0.00000000000E+00  0.68613329999E+03  0.68613330001E+03  0.50400001928E-02 0.  1.
        1   -1    0    0  501    0  0.00000000000E+00  0.00000000000E+00 -0.62377876134E+03  0.62377876136E+03  0.50400001928E-02 0. -1.
    10030    2    1    2    0    0  0.00000000000E+00  0.00000000000E+00  0.62354538656E+02  0.13099120614E+04  0.13084271168E+04 0.  0.
        3    1    3    3  502    0 -0.38064185742E+03  0.26911032149E+02 -0.50082297845E+03  0.62963171236E+03  0.10100000352E+00 0. -1.
       -3    1    3    3    0  502  0.38064185742E+03 -0.26911032149E+02  0.56317751711E+03  0.68028034901E+03  0.10100000352E+00 0.  1.
</event>
<event>
 5   0  0.9081324E-04  0.1324515E+04  0.7818609E-02  0.9010347E-01
       -1   -1    0    0    0  501  0.00000000000E+00  0.00000000000E+00  0.89075708295E+03  0.89075708296E+03  0.50400001928E-02 0.  1.
        1   -1    0    0  501    0  0.00000000000E+00  0.00000000000E+00 -0.49237358499E+03  0.49237358502E+03  0.50400001928E-02 0. -1.
    10030    2    1    2    0    0  0.00000000000E+00  0.00000000000E+00  0.39838349795E+03  0.13831306680E+04  0.13245153956E+04 0.  0.
        4    1    3    3  502    0 -0.27849384483E+03 -0.16423235950E+03  0.80274222910E+03  0.86540614096E+03  0.12699999809E+01 0.  1.
       -4    1    3    3    0  502  0.27849384483E+03  0.16423235950E+03 -0.40435873115E+03  0.51772452702E+03  0.12699999809E+01 0. -1.
</event>
<event>
 5   0  0.1700511E-03  0.1297753E+04  0.7818609E-02  0.9031349E-01
       -2   -1    0    0    0  501  0.00000000000E+00  0.00000000000E+00  0.32118850068E+03  0.32118850069E+03  0.25500000920E-02 0. -1.
        2   -1    0    0  501    0  0.00000000000E+00  0.00000000000E+00 -0.13108842994E+04  0.13108842994E+04  0.25500000920E-02 0.  1.
    10030    2    1    2    0    0  0.00000000000E+00  0.00000000000E+00 -0.98969579874E+03  0.16320728001E+04  0.12977533860E+04 0.  0.
        2    1    3    3  502    0 -0.13583062578E+03 -0.11075449077E+03 -0.12805541942E+04  0.12924919963E+04  0.25500000920E-02 0.  1.
       -2    1    3    3    0  502  0.13583062578E+03  0.11075449077E+03  0.29085839546E+03  0.33958080385E+03  0.25500000920E-02 0. -1.
</event>
<event>
 5   0  0.1714861E-03  0.1307784E+04  0.7818609E-02  0.9023415E-01
        2   -1    0    0  501    0  0.00000000000E+00  0.00000000000E+00  0.76232249608E+03  0.76232249608E+03  0.25500000920E-02 0.  1.
       -2   -1    0    0    0  501  0.00000000000E+00  0.00000000000E+00 -0.56088419243E+03  0.56088419243E+03  0.25500000920E-02 0. -1.
    10030    2    1    2    0    0  0.00000000000E+00  0.00000000000E+00  0.20143830365E+03  0.13232066885E+04  0.13077838317E+04 0.  0.
        1    1    3    3  502    0 -0.27679338879E+03 -0.92020294704E+02 -0.49141095614E+03  0.57146044706E+03  0.50400001928E-02 0. -1.
       -1    1    3    3    0  502  0.27679338879E+03  0.92020294704E+02  0.69284925979E+03  0.75174624145E+03  0.50400001928E-02 0.  1.
</event>
<event>
 5   0  0.6284125E-04  0.1299021E+04  0.7818609E-02  0.9030342E-01
       -3   -1    0    0    0  501  0.00000000000E+00  0.00000000000E+00  0.36345403594E+03  0.36345404998E+03  0.10100000352E+00 0.  1.
        3   -1    0    0  501    0  0.00000000000E+00  0.00000000000E+00 -0.11607082304E+04  0.11607082348E+04  0.10100000352E+00 0. -1.
    10030    2    1    2    0    0  0.00000000000E+00  0.00000000000E+00 -0.79725419442E+03  0.15241622847E+04  0.12990213315E+04 0.  0.
        5    1    3    3  502    0  0.50998525479E+03 -0.33547375405E+03 -0.13833493420E+03  0.62592830562E+03  0.46999998093E+01 0.  1.
       -5    1    3    3    0  502 -0.50998525479E+03  0.33547375405E+03 -0.65891926021E+03  0.89823397911E+03  0.46999998093E+01 0. -1.
</event>
<event>
 5   0  0.9098192E-04  0.1164397E+04  0.7818609E-02  0.9144603E-01
       -1   -1    0    0    0  501  0.00000000000E+00  0.00000000000E+00  0.43834576310E+03  0.43834576313E+03  0.50400001928E-02 0.  1.
        1   -1    0    0  501    0  0.00000000000E+00  0.00000000000E+00 -0.77325989987E+03  0.77325989989E+03  0.50400001928E-02 0. -1.
    10030    2    1    2    0    0  0.00000000000E+00  0.00000000000E+00 -0.33491413677E+03  0.12116056630E+04  0.11643971847E+04 0.  0.
        1    1    3    3  502    0 -0.12899495978E+03 -0.54662687529E+03 -0.32701874107E+03  0.64990914555E+03  0.50400001928E-02 0. -1.
       -1    1    3    3    0  502  0.12899495978E+03  0.54662687529E+03 -0.78953957036E+01  0.56169651747E+03  0.50400001928E-02 0.  1.
</event>
<event>
 5   0  0.1700511E-03  0.1243039E+04  0.7818609E-02  0.9075996E-01
        2   -1    0    0  501    0  0.00000000000E+00  0.00000000000E+00  0.82286026825E+03  0.82286026826E+03  0.25500000920E-02 0. -1.
       -2   -1    0    0    0  501  0.00000000000E+00  0.00000000000E+00 -0.46944396443E+03  0.46944396443E+03  0.25500000920E-02 0.  1.
    10030    2    1    2    0    0  0.00000000000E+00  0.00000000000E+00  0.35341630383E+03  0.12923042327E+04  0.12430394789E+04 0.  0.
        2    1    3    3  502    0 -0.52620198430E+03 -0.32881170876E+03  0.21391942076E+03  0.65632856610E+03  0.25500000920E-02 0. -1.
       -2    1    3    3    0  502  0.52620198430E+03  0.32881170876E+03  0.13949688306E+03  0.63597566658E+03  0.25500000920E-02 0.  1.
</event>
<event>
 5   0  0.9215829E-04  0.1296627E+04  0.7818609E-02  0.9032244E-01
        1   -1    0    0  501    0  0.00000000000E+00  0.00000000000E+00  0.79686865565E+03  0.79686865566E+03  0.50400001928E-02 0. -1.
       -1   -1    0    0    0  501  0.00000000000E+00  0.00000000000E+00 -0.52745234494E+03  0.52745234497E+03  0.50400001928E-02 0.  1.
    10030    2    1    2    0    0  0.00000000000E+00  0.00000000000E+00  0.26941631071E+03  0.13243210006E+04  0.12966267637E+04 0.  0.
        3    1    3    3  502    0  0.59740322150E+03  0.24844843693E+02  0.39066470726E+03  0.71423161440E+03  0.10100000352E+00 0. -1.
       -3    1    3    3    0  502 -0.59740322150E+03 -0.24844843693E+02 -0.12124839655E+03  0.61008938622E+03  0.10100000352E+00 0.  1.
</event>
<event>
 5   0  0.1714861E-03  0.1321194E+04  0.7818609E-02  0.9012925E-01
        2   -1    0    0  501    0  0.00000000000E+00  0.00000000000E+00  0.17439844079E+04  0.17439844079E+04  0.25500000920E-02 0. -1.
       -2   -1    0    0    0  501  0.00000000000E+00  0.00000000000E+00 -0.25022503551E+03  0.25022503552E+03  0.25500000920E-02 0.  1.
    10030    2    1    2    0    0  0.00000000000E+00  0.00000000000E+00  0.14937593724E+04  0.19942094434E+04  0.13211942482E+04 0.  0.
        1    1    3    3  502    0 -0.53065672285E+03  0.35132606021E+03  0.47957536152E+03  0.79688084774E+03  0.50400001928E-02 0.  1.
       -1    1    3    3    0  502  0.53065672285E+03 -0.35132606021E+03  0.10141840108E+04  0.11973285957E+04  0.50400001928E-02 0. -1.
</event>
<event>
 5   0  0.9215829E-04  0.1301502E+04  0.7818609E-02  0.9028375E-01
       -1   -1    0    0    0  501  0.00000000000E+00  0.00000000000E+00  0.39602208832E+03  0.39602208835E+03  0.50400001928E-02 0. -1.
        1   -1    0    0  501    0  0.00000000000E+00  0.00000000000E+00 -0.10693260967E+04  0.10693260967E+04  0.50400001928E-02 0.  1.
    10030    2    1    2    0    0  0.00000000000E+00  0.00000000000E+00 -0.67330400835E+03  0.14653481850E+04  0.13015018309E+04 0.  0.
        3    1    3    3  502    0 -0.93903429775E+02 -0.14937078016E+03 -0.10418829469E+04  0.10567164092E+04  0.10100000352E+00 0.  1.
       -3    1    3    3    0  502  0.93903429775E+02  0.14937078016E+03  0.36857893858E+03  0.40863177587E+03  0.10100000352E+00 0. -1.
</event>
<event>
 5   0  0.1667342E-03  0.1262089E+04  0.7818609E-02  0.9060181E-01
       -2   -1    0    0    0  501  0.00000000000E+00  0.00000000000E+00  0.22437569974E+03  0.22437569976E+03  0.25500000920E-02 0.  1.
        2   -1    0    0  501    0  0.00000000000E+00  0.00000000000E+00 -0.17747791592E+04  0.17747791592E+04  0.25500000920E-02 0. -1.
    10030    2    1    2    0    0  0.00000000000E+00  0.00000000000E+00 -0.15504034595E+04  0.19991548590E+04  0.12620892453E+04 0.  0.
        5    1    3    3  502    0 -0.60599731490E+03  0.18559415811E+02 -0.10523709372E+04  0.12145303113E+04  0.46999998093E+01 0. -1.
       -5    1    3    3    0  502  0.60599731490E+03 -0.18559415811E+02 -0.49803252228E+03  0.78462454769E+03  0.46999998093E+01 0.  1.
</event>
<event>
 5   0  0.1714861E-03  0.1301474E+04  0.7818609E-02  0.9028397E-01
       -2   -1    0    0    0  501  0.00000000000E+00  0.00000000000E+00  0.97919769642E+03  0.97919769642E+03  0.25500000920E-02 0. -1.
        2   -1    0    0  501    0  0.00000000000E+00  0.00000000000E+00 -0.43245455224E+03  0.43245455224E+03  0.25500000920E-02 0.  1.
    10030    2    1    2    0    0  0.00000000000E+00  0.00000000000E+00  0.54674314418E+03  0.14116522487E+04  0.13014737821E+04 0.  0.
        1    1    3    3  502    0 -0.34366007479E+03  0.33715747365E+02 -0.32488272479E+03  0.47411790044E+03  0.50400001928E-02 0.  1.
       -1    1    3    3    0  502  0.34366007479E+03 -0.33715747365E+02  0.87162586897E+03  0.93753434822E+03  0.50400001928E-02 0. -1.
</event>
<event>
 5   0  0.9110949E-04  0.1302657E+04  0.7818609E-02  0.9027461E-01
       -1   -1    0    0    0  501  0.00000000000E+00  0.00000000000E+00  0.76531241583E+03  0.76531241584E+03  0.50400001928E-02 0. -1.
        1   -1    0    0  501    0  0.00000000000E+00  0.00000000000E+00 -0.55432120845E+03  0.55432120847E+03  0.50400001928E-02 0.  1.
    10030    2    1    2    0    0  0.00000000000E+00  0.00000000000E+00  0.21099120737E+03  0.13196336243E+04  0.13026571356E+04 0.  0.
        2    1    3    3  502    0 -0.34240479900E+03 -0.48160285974E+03 -0.17202075841E+03  0.61544577521E+03  0.25500000920E-02 0.  1.
       -2    1    3    3    0  502  0.34240479900E+03  0.48160285974E+03  0.38301196579E+03  0.70418784911E+03  0.25500000920E-02 0. -1.
</event>
<event>
 5   0  0.1700511E-03  0.1295211E+04  0.7818609E-02  0.9033371E-01
        2   -1    0    0  501    0  0.00000000000E+00  0.00000000000E+00  0.60759518724E+03  0.60759518724E+03  0.25500000920E-02 0.  1.
       -2   -1    0    0    0  501  0.00000000000E+00  0.00000000000E+00 -0.69025099288E+03  0.69025099289E+03  0.25500000920E-02 0. -1.
    10030    2    1    2    0    0  0.00000000000E+00  0.00000000000E+00 -0.82655805645E+02  0.12978461801E+04  0.12952114596E+04 0.  0.
        2    1    3    3  502    0  0.76943000708E+02 -0.30583216995E+03  0.52545477752E+03  0.61282645567E+03  0.25500000920E-02 0.  1.
       -2    1    3    3    0  502 -0.76943000708E+02  0.30583216995E+03 -0.60811058317E+03  0.68501972446E+03  0.25500000920E-02 0. -1.
</event>
<event>
 5   0  0.1714861E-03  0.1305079E+04  0.7818609E-02  0.9025547E-01
        2   -1    0    0  501    0  0.00000000000E+00  0.00000000000E+00  0.22351493049E+04  0.22351493049E+04  0.25500000920E-02 0. -1.
       -2   -1    0    0    0  501  0.00000000000E+00  0.00000000000E+00 -0.19050539449E+03  0.19050539451E+03  0.25500000920E-02 0.  1.
    10030    2    1    2    0    0  0.00000000000E+00  0.00000000000E+00  0.20446439104E+04  0.24256546994E+04  0.13050793081E+04 0.  0.
        1    1    3    3  502    0 -0.21111309803E+03  0.61633006962E+03  0.95336453534E+03  0.11547014472E+04  0.50400001928E-02 0. -1.
       -1    1    3    3    0  502  0.21111309803E+03 -0.61633006962E+03  0.10912793751E+04  0.12709532522E+04  0.50400001928E-02 0.  1.
</event>
<event>
 5   0  0.9110949E-04  0.1299976E+04  0.7818609E-02  0.9029585E-01
        1   -1    0    0  501    0  0.00000000000E+00  0.00000000000E+00  0.12373206753E+04  0.12373206753E+04  0.50400001928E-02 0.  1.
       -1   -1    0    0    0  501  0.00000000000E+00  0.00000000000E+00 -0.34145078523E+03  0.34145078527E+03  0.50400001928E-02 0. -1.
    10030    2    1    2    0    0  0.00000000000E+00  0.00000000000E+00  0.89586989003E+03  0.15787714605E+04  0.12999755631E+04 0.  0.
        2    1    3    3  502    0  0.95888648895E+02 -0.22182901345E+01  0.12286789715E+04  0.12324169622E+04  0.25500000920E-02 0.  1.
       -2    1    3    3    0  502 -0.95888648895E+02  0.22182901345E+01 -0.33280908146E+03  0.34635449832E+03  0.25500000920E-02 0. -1.
</event>
<event>
 5   0  0.9081324E-04  0.1210376E+04  0.7818609E-02  0.9103822E-01
       -1   -1    0    0    0  501  0.00000000000E+00  0.00000000000E+00  0.40994050158E+03  0.40994050161E+03  0.50400001928E-02 0. -1.
        1   -1    0    0  501    0  0.00000000000E+00  0.00000000000E+00 -0.89342885917E+03  0.89342885919E+03  0.50400001928E-02 0.  1.
    10030    2    1    2    0    0  0.00000000000E+00  0.00000000000E+00 -0.48348835759E+03  0.13033693608E+04  0.12103762633E+04 0.  0.
        4    1    3    3  502    0  0.37063504101E+03 -0.41922343161E+03  0.64702365530E+01  0.55960887778E+03  0.12699999809E+01 0. -1.
       -4    1    3    3    0  502 -0.37063504101E+03  0.41922343161E+03 -0.48995859414E+03  0.74376048302E+03  0.12699999809E+01 0.  1.
</event>
<event>
 5   0  0.1667342E-03  0.1290041E+04  0.7818609E-02  0.9037500E-01
       -2   -1    0    0    0  501  0.00000000000E+00  0.00000000000E+00  0.17101065509E+04  0.17101065509E+04  0.25500000920E-02 0.  1.
        2   -1    0    0  501    0  0.00000000000E+00  0.00000000000E+00 -0.24328972830E+03  0.24328972831E+03  0.25500000920E-02 0. -1.
    10030    2    1    2    0    0  0.00000000000E+00  0.00000000000E+00  0.14668168226E+04  0.19533962792E+04  0.12900408647E+04 0.  0.
        5    1    3    3  502    0  0.62441798650E+02  0.63671826669E+02 -0.23388340950E+03  0.25035298874E+03  0.46999998093E+01 0. -1.
       -5    1    3    3    0  502 -0.62441798650E+02 -0.63671826669E+02  0.17007002321E+04  0.17030432904E+04  0.46999998093E+01 0.  1.
</event>
<event>
 5   0  0.9215829E-04  0.1309799E+04  0.7818609E-02  0.9021830E-01
        1   -1    0    0  501    0  0.00000000000E+00  0.00000000000E+00  0.69812436101E+03  0.69812436103E+03  0.50400001928E-02 0.  1.
       -1   -1    0    0    0  501  0.00000000000E+00  0.00000000000E+00 -0.61435137280E+03  0.61435137282E+03  0.50400001928E-02 0. -1.
    10030    2    1    2    0    0  0.00000000000E+00  0.00000000000E+00  0.83772988216E+02  0.13124757339E+04  0.13097994650E+04 0.  0.
        3    1    3    3  502    0 -0.50014290836E+03  0.28033000591E+02 -0.38083430462E+03  0.62925635132E+03  0.10100000352E+00 0. -1.
       -3    1    3    3    0  502  0.50014290836E+03 -0.28033000591E+02  0.46460729283E+03  0.68321938253E+03  0.10100000352E+00 0.  1.
</event>
<event>
 5   0  0.9215829E-04  0.1299711E+04  0.7818609E-02  0.9029795E-01
        1   -1    0    0  501    0  0.00000000000E+00  0.00000000000E+00  0.16658144795E+04  0.16658144795E+04  0.50400001928E-02 0. -1.
       -1   -1    0    0    0  501  0.00000000000E+00  0.00000000000E+00 -0.25351679373E+03  0.25351679378E+03  0.50400001928E-02 0.  1.
    10030    2    1    2    0    0  0.00000000000E+00  0.00000000000E+00  0.14122976858E+04  0.19193312733E+04  0.12997106537E+04 0.  0.
        3    1    3    3  502    0  0.63336306304E+03 -0.12818734618E+03  0.60457367433E+03  0.88492378386E+03  0.10100000352E+00 0.  1.
       -3    1    3    3    0  502 -0.63336306304E+03  0.12818734618E+03  0.80772401146E+03  0.10344074895E+04  0.10100000352E+00 0. -1.
</event>
<event>
 5   0  0.1623890E-03  0.1253433E+04  0.7818609E-02  0.9067331E-01
        2   -1    0    0  501    0  0.00000000000E+00  0.00000000000E+00  0.11231082194E+04  0.11231082194E+04  0.25500000920E-02 0.  1.
       -2   -1    0    0    0  501  0.00000000000E+00  0.00000000000E+00 -0.34972031773E+03  0.34972031774E+03  0.25500000920E-02 0. -1.
    10030    2    1    2    0    0  0.00000000000E+00  0.00000000000E+00  0.77338790167E+03  0.14728285371E+04  0.12534333063E+04 0.  0.
        3    1    3    3  502    0  0.10832700150E+03 -0.60689965239E+03  0.51917535618E+03  0.80598076155E+03  0.10100000352E+00 0.  1.
       -3    1    3    3    0  502 -0.10832700150E+03  0.60689965239E+03  0.25421254549E+03  0.66684777559E+03  0.10100000352E+00 0. -1.
</event>
<event>
 5   0  0.1667342E-03  0.1301970E+04  0.7818609E-02  0.9028004E-01
        2   -1    0    0  501    0  0.00000000000E+00  0.00000000000E+00  0.75741762943E+03  0.75741762943E+03  0.25500000920E-02 0.  1.
       -2   -1    0    0    0  501  0.00000000000E+00  0.00000000000E+00 -0.55950829178E+03  0.55950829179E+03  0.25500000920E-02 0. -1.
    10030    2    1    2    0    0  0.00000000000E+00  0.00000000000E+00  0.19790933765E+03  0.13169259212E+04  0.13019699597E+04 0.  0.
        5    1    3    3  502    0 -0.10913587271E+03 -0.33269885945E+03 -0.45612990632E+03  0.57504412980E+03  0.46999998093E+01 0. -1.
       -5    1    3    3    0  502  0.10913587271E+03  0.33269885945E+03  0.65403924396E+03  0.74188179141E+03  0.46999998093E+01 0.  1.
</event>
<event>
 5   0  0.9027076E-04  0.1288105E+04  0.7818609E-02  0.9039052E-01
       -1   -1    0    0    0  501  0.00000000000E+00  0.00000000000E+00  0.10806201856E+04  0.10806201856E+04  0.50400001928E-02 0.  1.
        1   -1    0    0  501    0  0.00000000000E+00  0.00000000000E+00 -0.38385675525E+03  0.38385675528E+03  0.50400001928E-02 0. -1.
    10030    2    1    2    0    0  0.00000000000E+00  0.00000000000E+00  0.69676343038E+03  0.14644769409E+04  0.12881045892E+04 0.  0.
        5    1    3    3  502    0 -0.17582777718E+03  0.25052814475E+03 -0.29586555052E+03  0.42572088570E+03  0.46999998093E+01 0. -1.
       -5    1    3    3    0  502  0.17582777718E+03 -0.25052814475E+03  0.99262898090E+03  0.10387560552E+04  0.46999998093E+01 0.  1.
</event>
<event>
 5   0  0.9110949E-04  0.1296113E+04  0.7818609E-02  0.9032653E-01
       -1   -1    0    0    0  501  0.00000000000E+00  0.00000000000E+00  0.24099616654E+03  0.24099616659E+03  0.50400001928E-02 0. -1.
        1   -1    0    0  501    0  0.00000000000E+00  0.00000000000E+00 -0.17426724880E+04  0.17426724880E+04  0.50400001928E-02 0.  1.
    10030    2    1    2    0    0  0.00000000000E+00  0.00000000000E+00 -0.15016763215E+04  0.19836686546E+04  0.12961132500E+04 0.  0.
        2    1    3    3  502    0 -0.46792435110E+03 -0.17178704596E+03 -0.11700462944E+03  0.51200983470E+03  0.25500000920E-02 0. -1.
       -2    1    3    3    0  502  0.46792435110E+03  0.17178704596E+03 -0.13846716920E+04  0.14716588199E+04  0.25500000920E-02 0.  1.
</event>
<event>
 5   0  0.1694675E-03  0.1292929E+04  0.7818609E-02  0.9035192E-01
        2   -1    0    0  501    0  0.00000000000E+00  0.00000000000E+00  0.93231940844E+03  0.93231940844E+03  0.25500000920E-02 0.  1.
       -2   -1    0    0    0  501  0.00000000000E+00  0.00000000000E+00 -0.44825431870E+03  0.44825431870E+03  0.25500000920E-02 0. -1.
    10030    2    1    2    0    0  0.00000000000E+00  0.00000000000E+00  0.48406508974E+03  0.13805737271E+04  0.12929287703E+04 0.  0.
        4    1    3    3  502    0  0.34382446045E+03 -0.31553184176E+03 -0.23566262712E+03  0.52279450025E+03  0.12699999809E+01 0. -1.
       -4    1    3    3    0  502 -0.34382446045E+03  0.31553184176E+03  0.71972771686E+03  0.85777922689E+03  0.12699999809E+01 0.  1.
</event>
<event>
 5   0  0.1667342E-03  0.1301297E+04  0.7818609E-02  0.9028538E-01
        2   -1    0    0  501    0  0.00000000000E+00  0.00000000000E+00  0.14968459317E+04  0.14968459317E+04  0.25500000920E-02 0. -1.
       -2   -1    0    0    0  501  0.00000000000E+00  0.00000000000E+00 -0.28282346606E+03  0.28282346607E+03  0.25500000920E-02 0.  1.
    10030    2    1    2    0    0  0.00000000000E+00  0.00000000000E+00  0.12140224657E+04  0.17796693978E+04  0.13012965144E+04 0.  0.
        5    1    3    3  502    0  0.15093389639E+03 -0.63247589258E+03  0.57599720594E+03  0.86867811473E+03  0.46999998093E+01 0. -1.
       -5    1    3    3    0  502 -0.15093389639E+03  0.63247589258E+03  0.63802525975E+03  0.91099128308E+03  0.46999998093E+01 0.  1.
</event>
<event>
 5   0  0.9098192E-04  0.1302430E+04  0.7818609E-02  0.9027641E-01
        1   -1    0    0  501    0  0.00000000000E+00  0.00000000000E+00  0.96160119883E+03  0.96160119884E+03  0.50400001928E-02 0.  1.
       -1   -1    0    0    0  501  0.00000000000E+00  0.00000000000E+00 -0.44101518991E+03  0.44101518994E+03  0.50400001928E-02 0. -1.
    10030    2    1    2    0    0  0.00000000000E+00  0.00000000000E+00  0.52058600892E+03  0.14026163888E+04  0.13024296301E+04 0.  0.
        1    1    3    3  502    0  0.42298068677E+03  0.21811508081E+03  0.73900178329E+03  0.87898264237E+03  0.50400001928E-02 0.  1.
       -1    1    3    3    0  502 -0.42298068677E+03 -0.21811508081E+03 -0.21841577437E+03  0.52363374641E+03  0.50400001928E-02 0. -1.
</event>
<event>
 5   0  0.1700511E-03  0.1215018E+04  0.7818609E-02  0.9099812E-01
       -2   -1    0    0    0  501  0.00000000000E+00  0.00000000000E+00  0.77270098734E+03  0.77270098735E+03  0.25500000920E-02 0. -1.
        2   -1    0    0  501    0  0.00000000000E+00  0.00000000000E+00 -0.47763224060E+03  0.47763224061E+03  0.25500000920E-02 0.  1.
    10030    2    1    2    0    0  0.00000000000E+00  0.00000000000E+00  0.29506874674E+03  0.12503332280E+04  0.12150175372E+04 0.  0.
        2    1    3    3  502    0  0.14642575141E+03  0.36493706402E+03  0.62407898224E+03  0.73762737033E+03  0.25500000920E-02 0. -1.
       -2    1    3    3    0  502 -0.14642575141E+03 -0.36493706402E+03 -0.32901023550E+03  0.51270585763E+03  0.25500000920E-02 0.  1.
</event>
<event>
 5   0  0.9110949E-04  0.1297489E+04  0.7818609E-02  0.9031559E-01
        1   -1    0    0  501    0  0.00000000000E+00  0.00000000000E+00  0.10050435531E+04  0.10050435531E+04  0.50400001928E-02 0. -1.
       -1   -1    0    0    0  501  0.00000000000E+00  0.00000000000E+00 -0.41875732423E+03  0.41875732426E+03  0.50400001928E-02 0.  1.
    10030    2    1    2    0    0  0.00000000000E+00  0.00000000000E+00  0.58628622882E+03  0.14238008773E+04  0.12974888809E+04 0.  0.
        2    1    3    3  502    0 -0.36551162514E+03 -0.42689024430E+03 -0.62499089889E+02  0.56545571448E+03  0.25500000920E-02 0.  1.
       -2    1    3    3    0  502  0.36551162514E+03  0.42689024430E+03  0.64878531871E+03  0.85834516284E+03  0.25500000920E-02 0. -1.
</event>
<event>
 5   0  0.1714861E-03  0.1150901E+04  0.7818609E-02  0.9156953E-01
        2   -1    0    0  501    0  0.00000000000E+00  0.00000000000E+00  0.76958219141E+03  0.76958219142E+03  0.25500000920E-02 0.  1.
       -2   -1    0    0    0  501  0.00000000000E+00  0.00000000000E+00 -0.43028954428E+03  0.43028954429E+03  0.25500000920E-02 0. -1.
    10030    2    1    2    0    0  0.00000000000E+00  0.00000000000E+00  0.33929264713E+03  0.11998717357E+04  0.11509008132E+04 0.  0.
        1    1    3    3  502    0 -0.59189608740E+01  0.43118287377E+03  0.56689684849E+03  0.71226802650E+03  0.50400001928E-02 0.  1.
       -1    1    3    3    0  502  0.59189608740E+01 -0.43118287377E+03 -0.22760420136E+03  0.48760370920E+03  0.50400001928E-02 0. -1.
</event>
<event>
 5   0  0.9215829E-04  0.1294074E+04  0.7818609E-02  0.9034278E-01
        1   -1    0    0  501    0  0.00000000000E+00  0.00000000000E+00  0.19095593705E+03  0.19095593711E+03  0.50400001928E-02 0. -1.
       -1   -1    0    0    0  501  0.00000000000E+00  0.00000000000E+00 -0.21924260286E+04  0.21924260286E+04  0.50400001928E-02 0.  1.
    10030    2    1    2    0    0  0.00000000000E+00  0.00000000000E+00 -0.20014700916E+04  0.23833819657E+04  0.12940738260E+04 0.  0.
        3    1    3    3  502    0 -0.22443729562E+03  0.44402683533E+03 -0.23884709385E+03  0.55188755612E+03  0.10100000352E+00 0. -1.
       -3    1    3    3    0  502  0.22443729562E+03 -0.44402683533E+03 -0.17626229977E+04  0.18314944096E+04  0.10100000352E+00 0.  1.
</event>
<event>
 5   0  0.9215829E-04  0.1302480E+04  0.7818609E-02  0.9027601E-01
       -1   -1    0    0    0  501  0.00000000000E+00  0.00000000000E+00  0.14108759562E+04  0.14108759562E+04  0.50400001928E-02 0. -1.
        1   -1    0    0  501    0  0.00000000000E+00  0.00000000000E+00 -0.30060281866E+03  0.30060281870E+03  0.50400001928E-02 0.  1.
    10030    2    1    2    0    0  0.00000000000E+00  0.00000000000E+00  0.11102731375E+04  0.17114787749E+04  0.13024796186E+04 0.  0.
        3    1    3    3  502    0 -0.30625037692E+03 -0.48214732916E+03  0.14408282019E+03  0.58907996881E+03  0.10100000352E+00 0.  1.
       -3    1    3    3    0  502  0.30625037692E+03  0.48214732916E+03  0.96619031735E+03  0.11223988061E+04  0.10100000352E+00 0. -1.
</event>
<event>
 5   0  0.1694675E-03  0.1309286E+04  0.7818609E-02  0.9022233E-01
       -2   -1    0    0    0  501  0.00000000000E+00  0.00000000000E+00  0.20739061361E+03  0.20739061362E+03  0.25500000920E-02 0. -1.
        2   -1    0    0  501    0  0.00000000000E+00  0.00000000000E+00 -0.20664276416E+04  0.20664276416E+04  0.25500000920E-02 0.  1.
    10030    2    1    2    0    0  0.00000000000E+00  0.00000000000E+00 -0.18590370279E+04  0.22738182552E+04  0.13092863653E+04 0.  0.
        4    1    3    3  502    0  0.16527045998E+03 -0.31706264991E+03  0.22832898823E+02  0.35828201613E+03  0.12699999809E+01 0. -1.
       -4    1    3    3    0  502 -0.16527045998E+03  0.31706264991E+03 -0.18818699268E+04  0.19155362390E+04  0.12699999809E+01 0.  1.
</event>
<event>
 5   0  0.1714861E-03  0.1293784E+04  0.7818609E-02  0.9034509E-01
       -2   -1    0    0    0  501  0.00000000000E+00  0.00000000000E+00  0.50789524154E+03  0.50789524155E+03  0.25500000920E-02 0.  1.
        2   -1    0    0  501    0  0.00000000000E+00  0.00000000000E+00 -0.82392789854E+03  0.82392789854E+03  0.25500000920E-02 0. -1.
    10030    2    1    2    0    0  0.00000000000E+00  0.00000000000E+00 -0.31603265700E+03  0.13318231401E+04  0.12937836899E+04 0.  0.
        1    1    3    3  502    0  0.41983365715E+03 -0.32170024564E+03 -0.54141521027E+03  0.75688954126E+03  0.50400001928E-02 0. -1.
       -1    1    3    3    0  502 -0.41983365715E+03  0.32170024564E+03  0.22538255327E+03  0.57493359883E+03  0.50400001928E-02 0.  1.
</event>
<event>
 5   0  0.6284125E-04  0.1189419E+04  0.7818609E-02  0.9122169E-01
       -4   -1    0    0    0  501  0.00000000000E+00  0.00000000000E+00  0.76580349042E+03  0.76580454350E+03  0.12699999809E+01 0. -1.
        4   -1    0    0  501    0  0.00000000000E+00  0.00000000000E+00 -0.46183844929E+03  0.46184019546E+03  0.12699999809E+01 0.  1.
    10030    2    1    2    0    0  0.00000000000E+00  0.00000000000E+00  0.30396504113E+03  0.12276447390E+04  0.11894187063E+04 0.  0.
        3    1    3    3  502    0 -0.24850123150E+03  0.39283256689E+03  0.53486124177E+03  0.70862320440E+03  0.10100000352E+00 0. -1.
       -3    1    3    3    0  502  0.24850123150E+03 -0.39283256689E+03 -0.23089620064E+03  0.51902153456E+03  0.10100000352E+00 0.  1.
</event>
<event>
 5   0  0.9081324E-04  0.1287897E+04  0.7818609E-02  0.9039218E-01
        1   -1    0    0  501    0  0.00000000000E+00  0.00000000000E+00  0.60630913043E+03  0.60630913045E+03  0.50400001928E-02 0.  1.
       -1   -1    0    0    0  501  0.00000000000E+00  0.00000000000E+00 -0.68392473811E+03  0.68392473813E+03  0.50400001928E-02 0. -1.
    10030    2    1    2    0    0  0.00000000000E+00  0.00000000000E+00 -0.77615607678E+02  0.12902338686E+04  0.12878972215E+04 0.  0.
        4    1    3    3  502    0 -0.51753582873E+02  0.96583253622E+02 -0.67451518495E+03  0.68335869487E+03  0.12699999809E+01 0. -1.
       -4    1    3    3    0  502  0.51753582873E+02 -0.96583253622E+02  0.59689957728E+03  0.60687517372E+03  0.12699999809E+01 0.  1.
</event>
<event>
 5   0  0.9027076E-04  0.1308462E+04  0.7818609E-02  0.9022881E-01
        1   -1    0    0  501    0  0.00000000000E+00  0.00000000000E+00  0.10616449031E+04  0.10616449031E+04  0.50400001928E-02 0. -1.
       -1   -1    0    0    0  501  0.00000000000E+00  0.00000000000E+00 -0.40316532828E+03  0.40316532831E+03  0.50400001928E-02 0.  1.
    10030    2    1    2    0    0  0.00000000000E+00  0.00000000000E+00  0.65847957485E+03  0.14648102315E+04  0.13084623280E+04 0.  0.
        5    1    3    3  502    0  0.49397051060E+03 -0.16990784882E+03 -0.11167547898E+03  0.53419944312E+03  0.46999998093E+01 0.  1.
       -5    1    3    3    0  502 -0.49397051060E+03  0.16990784882E+03  0.77015505383E+03  0.93061078834E+03  0.46999998093E+01 0. -1.
</event>
<event>
 5   0  0.1700511E-03  0.1292574E+04  0.7818609E-02  0.9035475E-01
        2   -1    0    0  501    0  0.00000000000E+00  0.00000000000E+00  0.17819184425E+04  0.17819184425E+04  0.25500000920E-02 0. -1.
       -2   -1    0    0    0  501  0.00000000000E+00  0.00000000000E+00 -0.23440307317E+03  0.23440307319E+03  0.25500000920E-02 0.  1.
    10030    2    1    2    0    0  0.00000000000E+00  0.00000000000E+00  0.15475153693E+04  0.20163215156E+04  0.12925744219E+04 0.  0.
        2    1    3    3  502    0 -0.75649840789E+02 -0.20362687565E+03  0.17232654954E+04  0.17369026370E+04  0.25500000920E-02 0. -1.
       -2    1    3    3    0  502  0.75649840789E+02  0.20362687565E+03 -0.17575012610E+03  0.27941887862E+03  0.25500000920E-02 0.  1.
</event>
<event>
 5   0  0.9081324E-04  0.1295976E+04  0.7818609E-02  0.9032762E-01
        1   -1    0    0  501    0  0.00000000000E+00  0.00000000000E+00  0.13626246054E+04  0.13626246054E+04  0.50400001928E-02 0. -1.
       -1   -1    0    0    0  501  0.00000000000E+00  0.00000000000E+00 -0.30814683262E+03  0.30814683266E+03  0.50400001928E-02 0.  1.
    10030    2    1    2    0    0  0.00000000000E+00  0.00000000000E+00  0.10544777728E+04  0.16707714381E+04  0.12959760125E+04 0.  0.
        4    1    3    3  502    0 -0.46610793581E+02 -0.54915894518E+03  0.96658684806E+03  0.11126723960E+04  0.12699999809E+01 0. -1.
       -4    1    3    3    0  502  0.46610793581E+02  0.54915894518E+03  0.87890924698E+02  0.55809904202E+03  0.12699999809E+01 0.  1.
</event>
<event>
 5   0  0.1667342E-03  0.1285476E+04  0.7818609E-02  0.9041163E-01
       -2   -1    0    0    0  501  0.00000000000E+00  0.00000000000E+00  0.47660519344E+03  0.47660519344E+03  0.25500000920E-02 0. -1.
        2   -1    0    0  501    0  0.00000000000E+00  0.00000000000E+00 -0.86678011177E+03  0.86678011178E+03  0.25500000920E-02 0.  1.
    10030    2    1    2    0    0  0.00000000000E+00  0.00000000000E+00 -0.39017491834E+03  0.13433853052E+04  0.12854756362E+04 0.  0.
        5    1    3    3  502    0  0.63048870353E+03  0.11830822416E+03 -0.23658751579E+03  0.68374599363E+03  0.46999998093E+01 0. -1.
       -5    1    3    3    0  502 -0.63048870353E+03 -0.11830822416E+03 -0.15358740254E+03  0.65963931159E+03  0.46999998093E+01 0.  1.
</event>
<event>
 5   0  0.9027076E-04  0.1306964E+04  0.7818609E-02  0.9024061E-01
       -1   -1    0    0    0  501  0.00000000000E+00  0.00000000000E+00  0.67971627871E+03  0.67971627873E+03  0.50400001928E-02 0. -1.
        1   -1    0    0  501    0  0.00000000000E+00  0.00000000000E+00 -0.62826013709E+03  0.62826013711E+03  0.50400001928E-02 0.  1.
    10030    2    1    2    0    0  0.00000000000E+00  0.00000000000E+00  0.51456141618E+02  0.13079764158E+04  0.13069638747E+04 0.  0.
        5    1    3    3  502    0 -0.10219176435E+03  0.27701494373E+03 -0.55767820408E+03  0.63103684921E+03  0.46999998093E+01 0.  1.
       -5    1    3    3    0  502  0.10219176435E+03 -0.27701494373E+03  0.60913434570E+03  0.67693956663E+03  0.46999998093E+01 0. -1.
</event>
<event>
 5   0  0.9098192E-04  0.1299002E+04  0.7818609E-02  0.9030357E-01
        1   -1    0    0  501    0  0.00000000000E+00  0.00000000000E+00  0.10483823503E+04  0.10483823503E+04  0.50400001928E-02 0. -1.
       -1   -1    0    0    0  501  0.00000000000E+00  0.00000000000E+00 -0.40238326645E+03  0.40238326648E+03  0.50400001928E-02 0.  1.
    10030    2    1    2    0    0  0.00000000000E+00  0.00000000000E+00  0.64599908381E+03  0.14507656168E+04  0.12990019471E+04 0.  0.
        1    1    3    3  502    0 -0.44459640738E+03  0.47176891015E+03  0.27805289376E+03  0.70536889766E+03  0.50400001928E-02 0.  1.
       -1    1    3    3    0  502  0.44459640738E+03 -0.47176891015E+03  0.36794619005E+03  0.74539671909E+03  0.50400001928E-02 0. -1.
</event>
<event>
 5   0  0.1700511E-03  0.1266435E+04  0.7818609E-02  0.9056614E-01
       -2   -1    0    0    0  501  0.00000000000E+00  0.00000000000E+00  0.16717815356E+03  0.16717815358E+03  0.25500000920E-02 0. -1.
        2   -1    0    0  501    0  0.00000000000E+00  0.00000000000E+00 -0.23984268228E+04  0.23984268228E+04  0.25500000920E-02 0.  1.
    10030    2    1    2    0    0  0.00000000000E+00  0.00000000000E+00 -0.22312486692E+04  0.25656049764E+04  0.12664352612E+04 0.  0.
        2    1    3    3  502    0 -0.51835345769E+03  0.32036942142E+03 -0.76686246008E+03  0.97949216739E+03  0.25500000920E-02 0.  1.
       -2    1    3    3    0  502  0.51835345769E+03 -0.32036942142E+03 -0.14643862091E+04  0.15861128090E+04  0.25500000920E-02 0. -1.
</event>
<event>
 5   0  0.9027076E-04  0.1249317E+04  0.7818609E-02  0.9070752E-01
       -1   -1    0    0    0  501  0.00000000000E+00  0.00000000000E+00  0.22448388580E+03  0.22448388586E+03  0.50400001928E-02 0. -1.
        1   -1    0    0  501    0  0.00000000000E+00  0.00000000000E+00 -0.17382018815E+04  0.17382018815E+04  0.50400001928E-02 0.  1.
    10030    2    1    2    0    0  0.00000000000E+00  0.00000000000E+00 -0.15137179957E+04  0.19626857674E+04  0.12493171138E+04 0.  0.
        5    1    3    3  502    0 -0.44397565935E+03 -0.19793132172E+03 -0.13731364361E+04  0.14566457896E+04  0.46999998093E+01 0.  1.
       -5    1    3    3    0  502  0.44397565935E+03  0.19793132172E+03 -0.14058155960E+03  0.50603997777E+03  0.46999998093E+01 0. -1.
</event>
<event>
 5   0  0.1714861E-03  0.1296152E+04  0.7818609E-02  0.9032622E-01
       -2   -1    0    0    0  501  0.00000000000E+00  0.00000000000E+00  0.28892932753E+03  0.28892932754E+03  0.25500000920E-02 0.  1.
        2   -1    0    0  501    0  0.00000000000E+00  0.00000000000E+00 -0.14536513362E+04  0.14536513362E+04  0.25500000920E-02 0. -1.
    10030    2    1    2    0    0  0.00000000000E+00  0.00000000000E+00 -0.11647220087E+04  0.17425806638E+04  0.12961520020E+04 0.  0.
        1    1    3    3  502    0  0.19630527740E+03  0.52585699017E+03 -0.14683920242E+03  0.58019228488E+03  0.50400001928E-02 0.  1.
       -1    1    3    3    0  502 -0.19630527740E+03 -0.52585699017E+03 -0.10178828063E+04  0.11623883789E+04  0.50400001928E-02 0. -1.
</event>
<event>
 5   0  0.9098192E-04  0.1255810E+04  0.7818609E-02  0.9065362E-01
        1   -1    0    0  501    0  0.00000000000E+00  0.00000000000E+00  0.13863632833E+04  0.13863632833E+04  0.50400001928E-02 0. -1.
       -1   -1    0    0    0  501  0.00000000000E+00  0.00000000000E+00 -0.28438755286E+03  0.28438755290E+03  0.50400001928E-02 0.  1.
    10030    2    1    2    0    0  0.00000000000E+00  0.00000000000E+00  0.11019757304E+04  0.16707508362E+04  0.12558096377E+04 0.  0.
        1    1    3    3  502    0  0.25102386372E+03  0.50567069922E+03  0.18530790706E+03  0.59418419421E+03  0.50400001928E-02 0.  1.
       -1    1    3    3    0  502 -0.25102386372E+03 -0.50567069922E+03  0.91666782335E+03  0.10765666420E+04  0.50400001928E-02 0. -1.
</event>
<event>
 5   0  0.9110949E-04  0.1259528E+04  0.7818609E-02  0.9062290E-01
       -1   -1    0    0    0  501  0.00000000000E+00  0.00000000000E+00  0.65210986604E+03  0.65210986606E+03  0.50400001928E-02 0.  1.
        1   -1    0    0  501    0  0.00000000000E+00  0.00000000000E+00 -0.60818427092E+03  0.60818427094E+03  0.50400001928E-02 0. -1.
    10030    2    1    2    0    0  0.00000000000E+00  0.00000000000E+00  0.43925595123E+02  0.12602941370E+04  0.12595284252E+04 0.  0.
        2    1    3    3  502    0  0.47330950351E+03 -0.31976730179E+03  0.28732196578E+03  0.63939575025E+03  0.25500000920E-02 0.  1.
       -2    1    3    3    0  502 -0.47330950351E+03  0.31976730179E+03 -0.24339637066E+03  0.62089838675E+03  0.25500000920E-02 0. -1.
</event>
<event>
 5   0  0.1694675E-03  0.1283904E+04  0.7818609E-02  0.9042428E-01
        2   -1    0    0  501    0  0.00000000000E+00  0.00000000000E+00  0.44985509856E+03  0.44985509857E+03  0.25500000920E-02 0.  1.
       -2   -1    0    0    0  501  0.00000000000E+00  0.00000000000E+00 -0.91607791757E+03  0.91607791757E+03  0.25500000920E-02 0. -1.
    10030    2    1    2    0    0  0.00000000000E+00  0.00000000000E+00 -0.46622281900E+03  0.13659330161E+04  0.12839039246E+04 0.  0.
        4    1    3    3  502    0  0.12355531609E+03  0.62867113800E+03 -0.19045758975E+03  0.66840782631E+03  0.12699999809E+01 0.  1.
       -4    1    3    3    0  502 -0.12355531609E+03 -0.62867113800E+03 -0.27576522925E+03  0.69752518983E+03  0.12699999809E+01 0. -1.
</event>
<event>
 5   0  0.1700511E-03  0.1312110E+04  0.7818609E-02  0.9020017E-01
       -2   -1    0    0    0  501  0.00000000000E+00  0.00000000000E+00  0.36987080900E+03  0.36987080901E+03  0.25500000920E-02 0. -1.
        2   -1    0    0  501    0  0.00000000000E+00  0.00000000000E+00 -0.11636717173E+04  0.11636717173E+04  0.25500000920E-02 0.  1.
    10030    2    1    2    0    0  0.00000000000E+00  0.00000000000E+00 -0.79380090827E+03  0.15335425263E+04  0.13121100556E+04 0.  0.
        2    1    3    3  502    0  0.28992310548E+03 -0.35549339980E+03  0.15126849262E+03  0.48302496960E+03  0.25500000920E-02 0. -1.
       -2    1    3    3    0  502 -0.28992310548E+03  0.35549339980E+03 -0.94506940088E+03  0.10505175567E+04  0.25500000920E-02 0.  1.
</event>
<event>
 5   0  0.1694675E-03  0.1289926E+04  0.7818609E-02  0.9037592E-01
       -2   -1    0    0    0  501  0.00000000000E+00  0.00000000000E+00  0.14648211807E+03  0.14648211809E+03  0.25500000920E-02 0.  1.
        2   -1    0    0  501    0  0.00000000000E+00  0.00000000000E+00 -0.28397812767E+04  0.28397812767E+04  0.25500000920E-02 0. -1.
    10030    2    1    2    0    0  0.00000000000E+00  0.00000000000E+00 -0.26932991586E+04  0.29862633948E+04  0.12899258526E+04 0.  0.
        4    1    3    3  502    0 -0.22574276745E+03  0.34169122564E+03 -0.19314518851E+03  0.45279064421E+03  0.12699999809E+01 0.  1.
       -4    1    3    3    0  502  0.22574276745E+03 -0.34169122564E+03 -0.25001539701E+04  0.25334727506E+04  0.12699999809E+01 0. -1.
</event>
<event>
 5   0  0.9110949E-04  0.1318593E+04  0.7818609E-02  0.9014949E-01
       -1   -1    0    0    0  501  0.00000000000E+00  0.00000000000E+00  0.17751740025E+03  0.17751740032E+03  0.50400001928E-02 0.  1.
        1   -1    0    0  501    0  0.00000000000E+00  0.00000000000E+00 -0.24486172025E+04  0.24486172025E+04  0.50400001928E-02 0. -1.
    10030    2    1    2    0    0  0.00000000000E+00  0.00000000000E+00 -0.22710998023E+04  0.26261346029E+04  0.13185934326E+04 0.  0.
        2    1    3    3  502    0 -0.62670118291E+03  0.48548541359E+02 -0.73941897228E+03  0.97049046884E+03  0.25500000920E-02 0. -1.
       -2    1    3    3    0  502  0.62670118291E+03 -0.48548541359E+02 -0.15316808300E+04  0.16556441340E+04  0.25500000920E-02 0.  1.
</event>
<event>
 5   0  0.1714861E-03  0.1304456E+04  0.7818609E-02  0.9026039E-01
       -2   -1    0    0    0  501  0.00000000000E+00  0.00000000000E+00  0.61259426992E+03  0.61259426992E+03  0.25500000920E-02 0. -1.
        2   -1    0    0  501    0  0.00000000000E+00  0.00000000000E+00 -0.69442616980E+03  0.69442616981E+03  0.25500000920E-02 0.  1.
    10030    2    1    2    0    0  0.00000000000E+00  0.00000000000E+00 -0.81831899887E+02  0.13070204397E+04  0.13044561971E+04 0.  0.
        1    1    3    3  502    0  0.22407162495E+03  0.49522360667E+03 -0.40210616166E+03  0.67612415944E+03  0.50400001928E-02 0.  1.
       -1    1    3    3    0  502 -0.22407162495E+03 -0.49522360667E+03  0.32027426177E+03  0.63089628029E+03  0.50400001928E-02 0. -1.
</event>
<event>
 5   0  0.9081324E-04  0.1302514E+04  0.7818609E-02  0.9027574E-01
        1   -1    0    0  501    0  0.00000000000E+00  0.00000000000E+00  0.20555874854E+04  0.20555874855E+04  0.50400001928E-02 0. -1.
       -1   -1    0    0    0  501  0.00000000000E+00  0.00000000000E+00 -0.20633292149E+03  0.20633292155E+03  0.50400001928E-02 0.  1.
    10030    2    1    2    0    0  0.00000000000E+00  0.00000000000E+00  0.18492545640E+04  0.22619204070E+04  0.13025135260E+04 0.  0.
        4    1    3    3  502    0 -0.43229296274E+03  0.45774029809E+03  0.63544417001E+03  0.89453579707E+03  0.12699999809E+01 0.  1.
       -4    1    3    3    0  502  0.43229296274E+03 -0.45774029809E+03  0.12138103939E+04  0.13673846099E+04  0.12699999809E+01 0. -1.
</event>
<event>
 5   0  0.9110949E-04  0.1267315E+04  0.7818609E-02  0.9055894E-01
       -1   -1    0    0    0  501  0.00000000000E+00  0.00000000000E+00  0.72117358281E+03  0.72117358283E+03  0.50400001928E-02 0.  1.
        1   -1    0    0  501    0  0.00000000000E+00  0.00000000000E+00 -0.55676154619E+03  0.55676154621E+03  0.50400001928E-02 0. -1.
    10030    2    1    2    0    0  0.00000000000E+00  0.00000000000E+00  0.16441203662E+03  0.12779351290E+04  0.12673148292E+04 0.  0.
        2    1    3    3  502    0  0.24768660633E+03  0.51794917366E+03 -0.18818603542E+03  0.60418042453E+03  0.25500000920E-02 0. -1.
       -2    1    3    3    0  502 -0.24768660633E+03 -0.51794917366E+03  0.35259807204E+03  0.67375470452E+03  0.25500000920E-02 0.  1.
</event>
<event>
 5   0  0.9098192E-04  0.1232645E+04  0.7818609E-02  0.9084753E-01
        1   -1    0    0  501    0  0.00000000000E+00  0.00000000000E+00  0.42387377445E+03  0.42387377448E+03  0.50400001928E-02 0. -1.
       -1   -1    0    0    0  501  0.00000000000E+00  0.00000000000E+00 -0.89614698520E+03  0.89614698522E+03  0.50400001928E-02 0.  1.
    10030    2    1    2    0    0  0.00000000000E+00  0.00000000000E+00 -0.47227321075E+03  0.13200207597E+04  0.12326446448E+04 0.  0.
        1    1    3    3  502    0  0.28169897732E+02  0.61498135782E+03 -0.26749711394E+03  0.67123045193E+03  0.50400001928E-02 0. -1.
       -1    1    3    3    0  502 -0.28169897732E+02 -0.61498135782E+03 -0.20477609681E+03  0.64879030777E+03  0.50400001928E-02 0.  1.
</event>
<event>
 5   0  0.1714861E-03  0.1304473E+04  0.7818609E-02  0.9026026E-01
       -2   -1    0    0    0  501  0.00000000000E+00  0.00000000000E+00  0.25572922500E+03  0.25572922501E+03  0.25500000920E-02 0.  1.
        2   -1    0    0  501    0  0.00000000000E+00  0.00000000000E+00 -0.16635258536E+04  0.16635258536E+04  0.25500000920E-02 0. -1.
    10030    2    1    2    0    0  0.00000000000E+00  0.00000000000E+00 -0.14077966286E+04  0.19192550786E+04  0.13044725790E+04 0.  0.
        1    1    3    3  502    0 -0.49172711811E+03 -0.14266823504E+03 -0.12983832082E+04  0.13956893420E+04  0.50400001928E-02 0. -1.
       -1    1    3    3    0  502  0.49172711811E+03  0.14266823504E+03 -0.10941342039E+03  0.52356573662E+03  0.50400001928E-02 0.  1.
</event>
<event>
 5   0  0.9215829E-04  0.1289600E+04  0.7818609E-02  0.9037853E-01
        1   -1    0    0  501    0  0.00000000000E+00  0.00000000000E+00  0.68109097337E+03  0.68109097339E+03  0.50400001928E-02 0. -1.
       -1   -1    0    0    0  501  0.00000000000E+00  0.00000000000E+00 -0.61044313592E+03  0.61044313595E+03  0.50400001928E-02 0.  1.
    10030    2    1    2    0    0  0.00000000000E+00  0.00000000000E+00  0.70647837449E+02  0.12915341093E+04  0.12896004182E+04 0.  0.
        3    1    3    3  502    0  0.40209650026E+03  0.15102027062E+03  0.51695934418E+03  0.67211285615E+03  0.10100000352E+00 0. -1.
       -3    1    3    3    0  502 -0.40209650026E+03 -0.15102027062E+03 -0.44631150674E+03  0.61942125319E+03  0.10100000352E+00 0.  1.
</event>
<event>
 5   0  0.9027076E-04  0.1488456E+04  0.7818609E-02  0.8892166E-01
        1   -1    0    0  501    0  0.00000000000E+00  0.00000000000E+00  0.62054413976E+03  0.62054413978E+03  0.50400001928E-02 0.  1.
       -1   -1    0    0    0  501  0.00000000000E+00  0.00000000000E+00 -0.89256342043E+03  0.89256342044E+03  0.50400001928E-02 0. -1.
    10030    2    1    2    0    0  0.00000000000E+00  0.00000000000E+00 -0.27201928067E+03  0.15131075602E+04  0.14884555753E+04 0.  0.
        5    1    3    3  502    0  0.25027670215E+03 -0.62399643367E+03  0.18840419943E+03  0.69823220295E+03  0.46999998093E+01 0.  1.
       -5    1    3    3    0  502 -0.25027670215E+03  0.62399643367E+03 -0.46042348010E+03  0.81487535727E+03  0.46999998093E+01 0. -1.
</event>
<event>
 5   0  0.9215829E-04  0.1291034E+04  0.7818609E-02  0.9036706E-01
       -1   -1    0    0    0  501  0.00000000000E+00  0.00000000000E+00  0.49152506725E+03  0.49152506728E+03  0.50400001928E-02 0. -1.
        1   -1    0    0  501    0  0.00000000000E+00  0.00000000000E+00 -0.84775344656E+03  0.84775344657E+03  0.50400001928E-02 0.  1.
    10030    2    1    2    0    0  0.00000000000E+00  0.00000000000E+00 -0.35622837930E+03  0.13392785138E+04  0.12910338026E+04 0.  0.
        3    1    3    3  502    0  0.33736838681E+03 -0.53505532734E+03 -0.31173130210E+03  0.70517944287E+03  0.10100000352E+00 0. -1.
       -3    1    3    3    0  502 -0.33736838681E+03  0.53505532734E+03 -0.44497077205E+02  0.63409907098E+03  0.10100000352E+00 0.  1.
</event>
<event>
 5   0  0.1700511E-03  0.1290862E+04  0.7818609E-02  0.9036843E-01
        2   -1    0    0  501    0  0.00000000000E+00  0.00000000000E+00  0.98224105607E+03  0.98224105607E+03  0.25500000920E-02 0. -1.
       -2   -1    0    0    0  501  0.00000000000E+00  0.00000000000E+00 -0.42411325378E+03  0.42411325379E+03  0.25500000920E-02 0.  1.
    10030    2    1    2    0    0  0.00000000000E+00  0.00000000000E+00  0.55812780228E+03  0.14063543099E+04  0.12908624254E+04 0.  0.
        2    1    3    3  502    0  0.13848741629E+03  0.13739016128E+03  0.94935431405E+03  0.96918957614E+03  0.25500000920E-02 0. -1.
       -2    1    3    3    0  502 -0.13848741629E+03 -0.13739016128E+03 -0.39122651177E+03  0.43716473372E+03  0.25500000920E-02 0.  1.
</event>
<event>
 5   0  0.1700511E-03  0.1313320E+04  0.7818609E-02  0.9019068E-01
       -2   -1    0    0    0  501  0.00000000000E+00  0.00000000000E+00  0.65648344903E+03  0.65648344903E+03  0.25500000920E-02 0.  1.
        2   -1    0    0  501    0  0.00000000000E+00  0.00000000000E+00 -0.65683658995E+03  0.65683658996E+03  0.25500000920E-02 0. -1.
    10030    2    1    2    0    0  0.00000000000E+00  0.00000000000E+00 -0.35314092237E+00  0.13133200390E+04  0.13133199915E+04 0.  0.
        2    1    3    3  502    0 -0.37804205126E+03 -0.10248147711E+03  0.52687572716E+03  0.65651829948E+03  0.25500000920E-02 0.  1.
       -2    1    3    3    0  502  0.37804205126E+03  0.10248147711E+03 -0.52722886809E+03  0.65680173951E+03  0.25500000920E-02 0. -1.
</event>
<event>
 5   0  0.1694675E-03  0.1310059E+04  0.7818609E-02  0.9021626E-01
       -2   -1    0    0    0  501  0.00000000000E+00  0.00000000000E+00  0.39949394026E+03  0.39949394027E+03  0.25500000920E-02 0.  1.
        2   -1    0    0  501    0  0.00000000000E+00  0.00000000000E+00 -0.10740179821E+04  0.10740179821E+04  0.25500000920E-02 0. -1.
    10030    2    1    2    0    0  0.00000000000E+00  0.00000000000E+00 -0.67452404183E+03  0.14735119224E+04  0.13100590454E+04 0.  0.
        4    1    3    3  502    0 -0.60867931223E+03  0.23968232107E+03 -0.29955390501E+03  0.71949445799E+03  0.12699999809E+01 0. -1.
       -4    1    3    3    0  502  0.60867931223E+03 -0.23968232107E+03 -0.37497013682E+03  0.75401746437E+03  0.12699999809E+01 0.  1.
</event>
<event>
 5   0  0.6284125E-04  0.1124678E+04  0.7818609E-02  0.9181467E-01
        3   -1    0    0  501    0  0.00000000000E+00  0.00000000000E+00  0.22286060856E+03  0.22286063144E+03  0.10100000352E+00 0. -1.
       -3   -1    0    0    0  501  0.00000000000E+00  0.00000000000E+00 -0.14189369079E+04  0.14189369115E+04  0.10100000352E+00 0.  1.
    10030    2    1    2    0    0  0.00000000000E+00  0.00000000000E+00 -0.11960762994E+04  0.16417975429E+04  0.11246780242E+04 0.  0.
        2    1    3    3  502    0  0.28271225859E+03 -0.48013426004E+03 -0.48715114749E+03  0.74011578103E+03  0.25500000920E-02 0.  1.
       -2    1    3    3    0  502 -0.28271225859E+03  0.48013426004E+03 -0.70892515186E+03  0.90168176192E+03  0.25500000920E-02 0. -1.
</event>
<event>
 5   0  0.9215829E-04  0.1288319E+04  0.7818609E-02  0.9038880E-01
        1   -1    0    0  501    0  0.00000000000E+00  0.00000000000E+00  0.11423829382E+04  0.11423829382E+04  0.50400001928E-02 0. -1.
       -1   -1    0    0    0  501  0.00000000000E+00  0.00000000000E+00 -0.36322458856E+03  0.36322458860E+03  0.50400001928E-02 0.  1.
    10030    2    1    2    0    0  0.00000000000E+00  0.00000000000E+00  0.77915834963E+03  0.15056075268E+04  0.12883191728E+04 0.  0.
        3    1    3    3  502    0  0.64971676256E+02 -0.44631176877E+03 -0.14791063606E+03  0.47465048206E+03  0.10100000352E+00 0.  1.
       -3    1    3    3    0  502 -0.64971676256E+02  0.44631176877E+03  0.92706898569E+03  0.10309570447E+04  0.10100000352E+00 0. -1.
</event>
<event>
 5   0  0.9081324E-04  0.1285667E+04  0.7818609E-02  0.9041009E-01
       -1   -1    0    0    0  501  0.00000000000E+00  0.00000000000E+00  0.52942131741E+03  0.52942131744E+03  0.50400001928E-02 0. -1.
        1   -1    0    0  501    0  0.00000000000E+00  0.00000000000E+00 -0.78054111328E+03  0.78054111330E+03  0.50400001928E-02 0.  1.
    10030    2    1    2    0    0  0.00000000000E+00  0.00000000000E+00 -0.25111979587E+03  0.13099624307E+04  0.12856673046E+04 0.  0.
        4    1    3    3  502    0  0.86072608569E+02 -0.12230369270E+03 -0.76256752880E+03  0.77709557718E+03  0.12699999809E+01 0.  1.
       -4    1    3    3    0  502 -0.86072608569E+02  0.12230369270E+03  0.51144773293E+03  0.53286685355E+03  0.12699999809E+01 0. -1.
</event>
<event>
 5   0  0.1667342E-03  0.1281150E+04  0.7818609E-02  0.9044649E-01
       -2   -1    0    0    0  501  0.00000000000E+00  0.00000000000E+00  0.27152461335E+03  0.27152461337E+03  0.25500000920E-02 0. -1.
        2   -1    0    0  501    0  0.00000000000E+00  0.00000000000E+00 -0.15112295439E+04  0.15112295439E+04  0.25500000920E-02 0.  1.
    10030    2    1    2    0    0  0.00000000000E+00  0.00000000000E+00 -0.12397049305E+04  0.17827541572E+04  0.12811495113E+04 0.  0.
        5    1    3    3  502    0 -0.11068914111E+03 -0.31216916902E+03  0.14309560837E+03  0.36083253620E+03  0.46999998093E+01 0. -1.
       -5    1    3    3    0  502  0.11068914111E+03  0.31216916902E+03 -0.13828005389E+04  0.14219216210E+04  0.46999998093E+01 0.  1.
</event>
<event>
 5   0  0.9215829E-04  0.1296775E+04  0.7818609E-02  0.9032127E-01
       -1   -1    0    0    0  501  0.00000000000E+00  0.00000000000E+00  0.76385639650E+03  0.76385639652E+03  0.50400001928E-02 0.  1.
        1   -1    0    0  501    0  0.00000000000E+00  0.00000000000E+00 -0.55037349321E+03  0.55037349324E+03  0.50400001928E-02 0. -1.
    10030    2    1    2    0    0  0.00000000000E+00  0.00000000000E+00  0.21348290329E+03  0.13142298898E+04  0.12967749431E+04 0.  0.
        3    1    3    3  502    0 -0.46998210167E+03 -0.41080666705E+03 -0.71007489300E+02  0.62824148806E+03  0.10100000352E+00 0. -1.
       -3    1    3    3    0  502  0.46998210167E+03  0.41080666705E+03  0.28449039259E+03  0.68598840170E+03  0.10100000352E+00 0.  1.
</event>
<event>
 5   0  0.9110949E-04  0.1298185E+04  0.7818609E-02  0.9031005E-01
       -1   -1    0    0    0  501  0.00000000000E+00  0.00000000000E+00  0.78849682339E+03  0.78849682341E+03  0.50400001928E-02 0. -1.
        1   -1    0    0  501    0  0.00000000000E+00  0.00000000000E+00 -0.53433490476E+03  0.53433490478E+03  0.50400001928E-02 0.  1.
    10030    2    1    2    0    0  0.00000000000E+00  0.00000000000E+00  0.25416191863E+03  0.13228317282E+04  0.12981854645E+04 0.  0.
        2    1    3    3  502    0 -0.11851679815E+03  0.50129911645E+03  0.52951474898E+03  0.73873737213E+03  0.25500000920E-02 0. -1.
       -2    1    3    3    0  502  0.11851679815E+03 -0.50129911645E+03 -0.27535283035E+03  0.58409435606E+03  0.25500000920E-02 0.  1.
</event>
<event>
 5   0  0.1667342E-03  0.1277016E+04  0.7818609E-02  0.9047993E-01
        2   -1    0    0  501    0  0.00000000000E+00  0.00000000000E+00  0.53251402648E+03  0.53251402648E+03  0.25500000920E-02 0. -1.
       -2   -1    0    0    0  501  0.00000000000E+00  0.00000000000E+00 -0.76559928291E+03  0.76559928292E+03  0.25500000920E-02 0.  1.
    10030    2    1    2    0    0  0.00000000000E+00  0.00000000000E+00 -0.23308525643E+03  0.12981133094E+04  0.12770158289E+04 0.  0.
        5    1    3    3  502    0 -0.16061417450E+03  0.50222734101E+03  0.24946285779E+03  0.58333782881E+03  0.46999998093E+01 0. -1.
       -5    1    3    3    0  502  0.16061417450E+03 -0.50222734101E+03 -0.48254811423E+03  0.71477548059E+03  0.46999998093E+01 0.  1.
</event>
<event>
 5   0  0.9215829E-04  0.1298146E+04  0.7818609E-02  0.9031036E-01
       -1   -1    0    0    0  501  0.00000000000E+00  0.00000000000E+00  0.42985867626E+03  0.42985867629E+03  0.50400001928E-02 0. -1.
        1   -1    0    0  501    0  0.00000000000E+00  0.00000000000E+00 -0.98008007412E+03  0.98008007413E+03  0.50400001928E-02 0.  1.
    10030    2    1    2    0    0  0.00000000000E+00  0.00000000000E+00 -0.55022139786E+03  0.14099387504E+04  0.12981462527E+04 0.  0.
        3    1    3    3  502    0  0.28763803308E+03 -0.33234822520E+03 -0.79384379873E+03  0.90740231863E+03  0.10100000352E+00 0.  1.
       -3    1    3    3    0  502 -0.28763803308E+03  0.33234822520E+03  0.24362240087E+03  0.50253643179E+03  0.10100000352E+00 0. -1.
</event>
<event>
 5   0  0.9215829E-04  0.1294223E+04  0.7818609E-02  0.9034159E-01
        1   -1    0    0  501    0  0.00000000000E+00  0.00000000000E+00  0.50849942691E+03  0.50849942694E+03  0.50400001928E-02 0.  1.
       -1   -1    0    0    0  501  0.00000000000E+00  0.00000000000E+00 -0.82350767409E+03  0.82350767411E+03  0.50400001928E-02 0. -1.
    10030    2    1    2    0    0  0.00000000000E+00  0.00000000000E+00 -0.31500824718E+03  0.13320071010E+04  0.12942228253E+04 0.  0.
        3    1    3    3  502    0 -0.92457196400E+02 -0.60533621249E+03  0.57823714064E+02  0.61508036501E+03  0.10100000352E+00 0.  1.
       -3    1    3    3    0  502  0.92457196400E+02  0.60533621249E+03 -0.37283196125E+03  0.71692673603E+03  0.10100000352E+00 0. -1.
</event>
<event>
 5   0  0.9215829E-04  0.1306342E+04  0.7818609E-02  0.9024551E-01
       -1   -1    0    0    0  501  0.00000000000E+00  0.00000000000E+00  0.75775988981E+03  0.75775988983E+03  0.50400001928E-02 0. -1.
        1   -1    0    0  501    0  0.00000000000E+00  0.00000000000E+00 -0.56301789065E+03  0.56301789067E+03  0.50400001928E-02 0.  1.
    10030    2    1    2    0    0  0.00000000000E+00  0.00000000000E+00  0.19474199917E+03  0.13207777805E+04  0.13063420300E+04 0.  0.
        3    1    3    3  502    0  0.55582375763E+03 -0.10721753832E+03 -0.23210849771E+03  0.61180880590E+03  0.10100000352E+00 0.  1.
       -3    1    3    3    0  502 -0.55582375763E+03  0.10721753832E+03  0.42685049688E+03  0.70896897460E+03  0.10100000352E+00 0. -1.
</event>
<event>
 5   0  0.6284125E-04  0.1303326E+04  0.7818609E-02  0.9026932E-01
        4   -1    0    0  501    0  0.00000000000E+00  0.00000000000E+00  0.72639583319E+03  0.72639694340E+03  0.12699999809E+01 0.  1.
       -4   -1    0    0    0  501  0.00000000000E+00  0.00000000000E+00 -0.58461676361E+03  0.58461814306E+03  0.12699999809E+01 0. -1.
    10030    2    1    2    0    0  0.00000000000E+00  0.00000000000E+00  0.14177906958E+03  0.13110150865E+04  0.13033262264E+04 0.  0.
        3    1    3    3  502    0  0.39700099793E+03 -0.41457067357E+03 -0.23945312261E+03  0.62194569206E+03  0.10100000352E+00 0. -1.
       -3    1    3    3    0  502 -0.39700099793E+03  0.41457067357E+03  0.38123219219E+03  0.68906939440E+03  0.10100000352E+00 0.  1.
</event>
<event>
 5   0  0.9081324E-04  0.1317699E+04  0.7818609E-02  0.9015647E-01
       -1   -1    0    0    0  501  0.00000000000E+00  0.00000000000E+00  0.76624528196E+03  0.76624528198E+03  0.50400001928E-02 0.  1.
        1   -1    0    0  501    0  0.00000000000E+00  0.00000000000E+00 -0.56650585323E+03  0.56650585325E+03  0.50400001928E-02 0. -1.
    10030    2    1    2    0    0  0.00000000000E+00  0.00000000000E+00  0.19973942873E+03  0.13327511352E+04  0.13176986564E+04 0.  0.
        4    1    3    3  502    0 -0.18986620029E+03 -0.15611472662E+03 -0.51839031647E+03  0.57371692932E+03  0.12699999809E+01 0. -1.
       -4    1    3    3    0  502  0.18986620029E+03  0.15611472662E+03  0.71812974520E+03  0.75903420590E+03  0.12699999809E+01 0.  1.
</event>
<event>
 5   0  0.9081324E-04  0.1285836E+04  0.7818609E-02  0.9040873E-01
       -1   -1    0    0    0  501  0.00000000000E+00  0.00000000000E+00  0.49506889117E+03  0.49506889120E+03  0.50400001928E-02 0. -1.
        1   -1    0    0  501    0  0.00000000000E+00  0.00000000000E+00 -0.83492156076E+03  0.83492156078E+03  0.50400001928E-02 0.  1.
    10030    2    1    2    0    0  0.00000000000E+00  0.00000000000E+00 -0.33985266959E+03  0.13299904520E+04  0.12858362125E+04 0.  0.
        4    1    3    3  502    0 -0.21657036782E+03 -0.33653988354E+03 -0.69037487213E+03  0.79798552267E+03  0.12699999809E+01 0.  1.
       -4    1    3    3    0  502  0.21657036782E+03  0.33653988354E+03  0.35052220254E+03  0.53200492930E+03  0.12699999809E+01 0. -1.
</event>
<event>
 5   0  0.1623890E-03  0.1296590E+04  0.7818609E-02  0.9032274E-01
        2   -1    0    0  501    0  0.00000000000E+00  0.00000000000E+00  0.34904080668E+03  0.34904080669E+03  0.25500000920E-02 0. -1.
       -2   -1    0    0    0  501  0.00000000000E+00  0.00000000000E+00 -0.12041186891E+04  0.12041186891E+04  0.25500000920E-02 0.  1.
    10030    2    1    2    0    0  0.00000000000E+00  0.00000000000E+00 -0.85507788246E+03  0.15531594958E+04  0.12965902338E+04 0.  0.
        3    1    3    3  502    0  0.28030606018E+03 -0.58358541786E+03 -0.46803935221E+03  0.79887688208E+03  0.10100000352E+00 0. -1.
       -3    1    3    3    0  502 -0.28030606018E+03  0.58358541786E+03 -0.38703853025E+03  0.75428261375E+03  0.10100000352E+00 0.  1.
</event>
<event>
 5   0  0.1694675E-03  0.1121686E+04  0.7818609E-02  0.9184310E-01
        2   -1    0    0  501    0  0.00000000000E+00  0.00000000000E+00  0.64499278727E+03  0.64499278727E+03  0.25500000920E-02 0. -1.
       -2   -1    0    0    0  501  0.00000000000E+00  0.00000000000E+00 -0.48767162024E+03  0.48767162024E+03  0.25500000920E-02 0.  1.
    10030    2    1    2    0    0  0.00000000000E+00  0.00000000000E+00  0.15732116703E+03  0.11326644075E+04  0.11216856558E+04 0.  0.
        4    1    3    3  502    0 -0.34830181850E+03 -0.14610881713E+03  0.49730391409E+03  0.62447957459E+03  0.12699999809E+01 0. -1.
       -4    1    3    3    0  502  0.34830181850E+03  0.14610881713E+03 -0.33998274706E+03  0.50818483292E+03  0.12699999809E+01 0.  1.
</event>
<event>
 5   0  0.1694675E-03  0.1170801E+04  0.7818609E-02  0.9138806E-01
        2   -1    0    0  501    0  0.00000000000E+00  0.00000000000E+00  0.34932284099E+03  0.34932284100E+03  0.25500000920E-02 0. -1.
       -2   -1    0    0    0  501  0.00000000000E+00  0.00000000000E+00 -0.98102250192E+03  0.98102250193E+03  0.25500000920E-02 0.  1.
    10030    2    1    2    0    0  0.00000000000E+00  0.00000000000E+00 -0.63169966094E+03  0.13303453429E+04  0.11708006960E+04 0.  0.
        4    1    3    3  502    0  0.33935340181E+03 -0.27557224640E+02 -0.85694787816E+03  0.92210704950E+03  0.12699999809E+01 0.  1.
       -4    1    3    3    0  502 -0.33935340181E+03  0.27557224640E+02  0.22524821723E+03  0.40823829342E+03  0.12699999809E+01 0. -1.
</event>
<event>
 5   0  0.9027076E-04  0.1284470E+04  0.7818609E-02  0.9041972E-01
       -1   -1    0    0    0  501  0.00000000000E+00  0.00000000000E+00  0.67842423302E+03  0.67842423303E+03  0.50400001928E-02 0. -1.
        1   -1    0    0  501    0  0.00000000000E+00  0.00000000000E+00 -0.60797624529E+03  0.60797624531E+03  0.50400001928E-02 0.  1.
    10030    2    1    2    0    0  0.00000000000E+00  0.00000000000E+00  0.70447987731E+02  0.12864004783E+04  0.12844700353E+04 0.  0.
        5    1    3    3  502    0  0.41507130202E+03 -0.48890023452E+03  0.14672117252E+01  0.64135159451E+03  0.46999998093E+01 0. -1.
       -5    1    3    3    0  502 -0.41507130202E+03  0.48890023452E+03  0.68980776006E+02  0.64504888383E+03  0.46999998093E+01 0.  1.
</event>
<event>
 5   0  0.9215829E-04  0.1278128E+04  0.7818609E-02  0.9047092E-01
        1   -1    0    0  501    0  0.00000000000E+00  0.00000000000E+00  0.96729250471E+03  0.96729250473E+03  0.50400001928E-02 0.  1.
       -1   -1    0    0    0  501  0.00000000000E+00  0.00000000000E+00 -0.42221218963E+03  0.42221218966E+03  0.50400001928E-02 0. -1.
    10030    2    1    2    0    0  0.00000000000E+00  0.00000000000E+00  0.54508031508E+03  0.13895046944E+04  0.12781278284E+04 0.  0.
        3    1    3    3  502    0  0.87985366288E+02 -0.15316443273E+03  0.94022676948E+03  0.95667505266E+03  0.10100000352E+00 0.  1.
       -3    1    3    3    0  502 -0.87985366288E+02  0.15316443273E+03 -0.39514645440E+03  0.43282964173E+03  0.10100000352E+00 0. -1.
</event>
<event>
 5   0  0.1694675E-03  0.1313519E+04  0.7818609E-02  0.9018913E-01
        2   -1    0    0  501    0  0.00000000000E+00  0.00000000000E+00  0.15903322885E+04  0.15903322885E+04  0.25500000920E-02 0. -1.
       -2   -1    0    0    0  501  0.00000000000E+00  0.00000000000E+00 -0.27122196364E+03  0.27122196365E+03  0.25500000920E-02 0.  1.
    10030    2    1    2    0    0  0.00000000000E+00  0.00000000000E+00  0.13191103248E+04  0.18615542521E+04  0.13135190081E+04 0.  0.
        4    1    3    3  502    0 -0.58666067346E+03 -0.29498374436E+03  0.67663718494E+03  0.94288156635E+03  0.12699999809E+01 0.  1.
       -4    1    3    3    0  502  0.58666067346E+03  0.29498374436E+03  0.64247313991E+03  0.91867268580E+03  0.12699999809E+01 0. -1.
</event>
<event>
 5   0  0.1667342E-03  0.1293425E+04  0.7818609E-02  0.9034795E-01
       -2   -1    0    0    0  501  0.00000000000E+00  0.00000000000E+00  0.18882417126E+03  0.18882417127E+03  0.25500000920E-02 0.  1.
        2   -1    0    0  501    0  0.00000000000E+00  0.00000000000E+00 -0.22149566051E+04  0.22149566051E+04  0.25500000920E-02 0. -1.
    10030    2    1    2    0    0  0.00000000000E+00  0.00000000000E+00 -0.20261324338E+04  0.24037807764E+04  0.12934254449E+04 0.  0.
        5    1    3    3  502    0  0.55075688273E+03  0.33490870252E+03 -0.91617153328E+03  0.11202184391E+04  0.46999998093E+01 0. -1.
       -5    1    3    3    0  502 -0.55075688273E+03 -0.33490870252E+03 -0.11099609005E+04  0.12835623373E+04  0.46999998093E+01 0.  1.
</event>
<event>
 5   0  0.9027076E-04  0.1303400E+04  0.7818609E-02  0.9026873E-01
        1   -1    0    0  501    0  0.00000000000E+00  0.00000000000E+00  0.46201681653E+03  0.46201681655E+03  0.50400001928E-02 0. -1.
       -1   -1    0    0    0  501  0.00000000000E+00  0.00000000000E+00 -0.91925910213E+03  0.91925910214E+03  0.50400001928E-02 0.  1.
    10030    2    1    2    0    0  0.00000000000E+00  0.00000000000E+00 -0.45724228560E+03  0.13812759187E+04  0.13034004204E+04 0.  0.
        5    1    3    3  502    0  0.63759409457E+03 -0.11809693479E+03 -0.29744733395E+03  0.71342141957E+03  0.46999998093E+01 0.  1.
       -5    1    3    3    0  502 -0.63759409457E+03  0.11809693479E+03 -0.15979495165E+03  0.66785449913E+03  0.46999998093E+01 0. -1.
</event>
<event>
 5   0  0.9215829E-04  0.1290104E+04  0.7818609E-02  0.9037450E-01
       -1   -1    0    0    0  501  0.00000000000E+00  0.00000000000E+00  0.36337472331E+03  0.36337472335E+03  0.50400001928E-02 0. -1.
        1   -1    0    0  501    0  0.00000000000E+00  0.00000000000E+00 -0.11450766794E+04  0.11450766794E+04  0.50400001928E-02 0.  1.
    10030    2    1    2    0    0  0.00000000000E+00  0.00000000000E+00 -0.78170195609E+03  0.15084514028E+04  0.12901037502E+04 0.  0.
        3    1    3    3  502    0 -0.52803695676E+03  0.11977393274E+03  0.19091967863E+02  0.54178716865E+03  0.10100000352E+00 0. -1.
       -3    1    3    3    0  502  0.52803695676E+03 -0.11977393274E+03 -0.80079392395E+03  0.96666423411E+03  0.10100000352E+00 0.  1.
</event>
<event>
 5   0  0.1700511E-03  0.1300439E+04  0.7818609E-02  0.9029217E-01
        2   -1    0    0  501    0  0.00000000000E+00  0.00000000000E+00  0.11589434363E+04  0.11589434363E+04  0.25500000920E-02 0.  1.
       -2   -1    0    0    0  501  0.00000000000E+00  0.00000000000E+00 -0.36480238395E+03  0.36480238396E+03  0.25500000920E-02 0. -1.
    10030    2    1    2    0    0  0.00000000000E+00  0.00000000000E+00  0.79414105230E+03  0.15237458202E+04  0.13004388927E+04 0.  0.
        2    1    3    3  502    0 -0.35110166350E+03 -0.46473893237E+03  0.58424820079E+02  0.58537860653E+03  0.25500000920E-02 0. -1.
       -2    1    3    3    0  502  0.35110166350E+03  0.46473893237E+03  0.73571623223E+03  0.93836721369E+03  0.25500000920E-02 0.  1.
</event>
<event>
 5   0  0.1667342E-03  0.1304680E+04  0.7818609E-02  0.9025862E-01
        2   -1    0    0  501    0  0.00000000000E+00  0.00000000000E+00  0.76318794132E+03  0.76318794133E+03  0.25500000920E-02 0. -1.
       -2   -1    0    0    0  501  0.00000000000E+00  0.00000000000E+00 -0.55759159407E+03  0.55759159407E+03  0.25500000920E-02 0.  1.
    10030    2    1    2    0    0  0.00000000000E+00  0.00000000000E+00  0.20559634725E+03  0.13207795354E+04  0.13046795481E+04 0.  0.
        5    1    3    3  502    0  0.10901961697E+03 -0.62236166722E+03 -0.61393820830E+02  0.63483116886E+03  0.46999998093E+01 0.  1.
       -5    1    3    3    0  502 -0.10901961697E+03  0.62236166722E+03  0.26699016808E+03  0.68594836655E+03  0.46999998093E+01 0. -1.
</event>
<event>
 5   0  0.1714861E-03  0.1290564E+04  0.7818609E-02  0.9037081E-01
        2   -1    0    0  501    0  0.00000000000E+00  0.00000000000E+00  0.14749545595E+04  0.14749545595E+04  0.25500000920E-02 0. -1.
       -2   -1    0    0    0  501  0.00000000000E+00  0.00000000000E+00 -0.28230632685E+03  0.28230632687E+03  0.25500000920E-02 0.  1.
    10030    2    1    2    0    0  0.00000000000E+00  0.00000000000E+00  0.11926482327E+04  0.17572608864E+04  0.12905642239E+04 0.  0.
        1    1    3    3  502    0 -0.31854360659E+03 -0.46106296995E+03  0.16073287235E+03  0.58299583861E+03  0.50400001928E-02 0. -1.
       -1    1    3    3    0  502  0.31854360659E+03  0.46106296995E+03  0.10319153603E+04  0.11742650478E+04  0.50400001928E-02 0.  1.
</event>
<event>
 5   0  0.1694675E-03  0.1299352E+04  0.7818609E-02  0.9030079E-01
       -2   -1    0    0    0  501  0.00000000000E+00  0.00000000000E+00  0.22374959601E+03  0.22374959602E+03  0.25500000920E-02 0. -1.
        2   -1    0    0  501    0  0.00000000000E+00  0.00000000000E+00 -0.18863902718E+04  0.18863902718E+04  0.25500000920E-02 0.  1.
    10030    2    1    2    0    0  0.00000000000E+00  0.00000000000E+00 -0.16626406757E+04  0.21101398678E+04  0.12993522405E+04 0.  0.
        4    1    3    3  502    0  0.30671539100E+03  0.67493271773E+02  0.92284985911E+02  0.32733439223E+03  0.12699999809E+01 0. -1.
       -4    1    3    3    0  502 -0.30671539100E+03 -0.67493271773E+02 -0.17549256617E+04  0.17828054756E+04  0.12699999809E+01 0.  1.
</event>
<event>
 5   0  0.1667342E-03  0.1306313E+04  0.7818609E-02  0.9024574E-01
        2   -1    0    0  501    0  0.00000000000E+00  0.00000000000E+00  0.10888227013E+04  0.10888227013E+04  0.25500000920E-02 0.  1.
       -2   -1    0    0    0  501  0.00000000000E+00  0.00000000000E+00 -0.39181182807E+03  0.39181182808E+03  0.25500000920E-02 0. -1.
    10030    2    1    2    0    0  0.00000000000E+00  0.00000000000E+00  0.69701087326E+03  0.14806345294E+04  0.13063133056E+04 0.  0.
        5    1    3    3  502    0  0.52445738662E+03  0.36212088922E+03  0.51041138392E+03  0.81653472652E+03  0.46999998093E+01 0.  1.
       -5    1    3    3    0  502 -0.52445738662E+03 -0.36212088922E+03  0.18659948935E+03  0.66409980290E+03  0.46999998093E+01 0. -1.
</event>
<event>
 5   0  0.1623890E-03  0.1295999E+04  0.7818609E-02  0.9032744E-01
       -2   -1    0    0    0  501  0.00000000000E+00  0.00000000000E+00  0.61895113300E+03  0.61895113301E+03  0.25500000920E-02 0. -1.
        2   -1    0    0  501    0  0.00000000000E+00  0.00000000000E+00 -0.67841133883E+03  0.67841133883E+03  0.25500000920E-02 0.  1.
    10030    2    1    2    0    0  0.00000000000E+00  0.00000000000E+00 -0.59460205829E+02  0.12973624718E+04  0.12959991772E+04 0.  0.
        3    1    3    3  502    0 -0.44991793564E+03  0.39304915450E+03 -0.28097154164E+03  0.66019603459E+03  0.10100000352E+00 0. -1.
       -3    1    3    3    0  502  0.44991793564E+03 -0.39304915450E+03  0.22151133582E+03  0.63716643725E+03  0.10100000352E+00 0.  1.
</event>
<event>
 5   0  0.9081324E-04  0.1308589E+04  0.7818609E-02  0.9022782E-01
        1   -1    0    0  501    0  0.00000000000E+00  0.00000000000E+00  0.54055692464E+03  0.54055692467E+03  0.50400001928E-02 0. -1.
       -1   -1    0    0    0  501  0.00000000000E+00  0.00000000000E+00 -0.79196297823E+03  0.79196297825E+03  0.50400001928E-02 0.  1.
    10030    2    1    2    0    0  0.00000000000E+00  0.00000000000E+00 -0.25140605359E+03  0.13325199029E+04  0.13085886626E+04 0.  0.
        4    1    3    3  502    0  0.25443820174E+03 -0.92514949620E+02  0.48084244292E+03  0.55182323458E+03  0.12699999809E+01 0. -1.
       -4    1    3    3    0  502 -0.25443820174E+03  0.92514949620E+02 -0.73224849651E+03  0.78069666833E+03  0.12699999809E+01 0.  1.
</event>
<event>
 5   0  0.1667342E-03  0.1311778E+04  0.7818609E-02  0.9020277E-01
        2   -1    0    0  501    0  0.00000000000E+00  0.00000000000E+00  0.46961633565E+03  0.46961633566E+03  0.25500000920E-02 0.  1.
       -2   -1    0    0    0  501  0.00000000000E+00  0.00000000000E+00 -0.91604578587E+03  0.91604578588E+03  0.25500000920E-02 0. -1.
    10030    2    1    2    0    0  0.00000000000E+00  0.00000000000E+00 -0.44642945023E+03  0.13856621215E+04  0.13117775196E+04 0.  0.
        5    1    3    3  502    0  0.22342543711E+03  0.56422920959E+03  0.39583852054E+02  0.60816321678E+03  0.46999998093E+01 0.  1.
       -5    1    3    3    0  502 -0.22342543711E+03 -0.56422920959E+03 -0.48601330228E+03  0.77749890475E+03  0.46999998093E+01 0. -1.
</event>
<event>
 5   0  0.9027076E-04  0.1316567E+04  0.7818609E-02  0.9016530E-01
       -1   -1    0    0    0  501  0.00000000000E+00  0.00000000000E+00  0.42918751230E+03  0.42918751232E+03  0.50400001928E-02 0. -1.
        1   -1    0    0  501    0  0.00000000000E+00  0.00000000000E+00 -0.10096680641E+04  0.10096680642E+04  0.50400001928E-02 0.  1.
    10030    2    1    2    0    0  0.00000000000E+00  0.00000000000E+00 -0.58048055184E+03  0.14388555765E+04  0.13165666329E+04 0.  0.
        5    1    3    3  502    0  0.45823893893E+03 -0.47061264082E+03 -0.33731877542E+03  0.73842076697E+03  0.46999998093E+01 0.  1.
       -5    1    3    3    0  502 -0.45823893893E+03  0.47061264082E+03 -0.24316177643E+03  0.70043480950E+03  0.46999998093E+01 0. -1.
</event>
<event>
 5   0  0.9027076E-04  0.1299859E+04  0.7818609E-02  0.9029677E-01
        1   -1    0    0  501    0  0.00000000000E+00  0.00000000000E+00  0.61346961400E+03  0.61346961402E+03  0.50400001928E-02 0.  1.
       -1   -1    0    0    0  501  0.00000000000E+00  0.00000000000E+00 -0.68855632603E+03  0.68855632605E+03  0.50400001928E-02 0. -1.
    10030    2    1    2    0    0  0.00000000000E+00  0.00000000000E+00 -0.75086712028E+02  0.13020259401E+04  0.12998590440E+04 0.  0.
        5    1    3    3  502    0  0.65366052910E+02  0.33060641251E+02  0.60930445613E+03  0.61370981508E+03  0.46999998093E+01 0.  1.
       -5    1    3    3    0  502 -0.65366052910E+02 -0.33060641251E+02 -0.68439116816E+03  0.68831612499E+03  0.46999998093E+01 0. -1.
</event>
<event>
 5   0  0.9027076E-04  0.1308897E+04  0.7818609E-02  0.9022539E-01
       -1   -1    0    0    0  501  0.00000000000E+00  0.00000000000E+00  0.12939268140E+04  0.12939268140E+04  0.50400001928E-02 0. -1.
        1   -1    0    0  501    0  0.00000000000E+00  0.00000000000E+00 -0.33101016294E+03  0.33101016298E+03  0.50400001928E-02 0.  1.
    10030    2    1    2    0    0  0.00000000000E+00  0.00000000000E+00  0.96291665107E+03  0.16249369770E+04  0.13088971321E+04 0.  0.
        5    1    3    3  502    0  0.91978120011E+02 -0.20422125346E+03  0.12448416956E+04  0.12648396073E+04  0.46999998093E+01 0. -1.
       -5    1    3    3    0  502 -0.91978120011E+02  0.20422125346E+03 -0.28192504457E+03  0.36009736972E+03  0.46999998093E+01 0.  1.
</event>
<event>
 5   0  0.9098192E-04  0.1279501E+04  0.7818609E-02  0.9045981E-01
        1   -1    0    0  501    0  0.00000000000E+00  0.00000000000E+00  0.21198960533E+04  0.21198960533E+04  0.50400001928E-02 0. -1.
       -1   -1    0    0    0  501  0.00000000000E+00  0.00000000000E+00 -0.19306631186E+03  0.19306631193E+03  0.50400001928E-02 0.  1.
    10030    2    1    2    0    0  0.00000000000E+00  0.00000000000E+00  0.19268297415E+04  0.23129623653E+04  0.12795007036E+04 0.  0.
        1    1    3    3  502    0 -0.15984236967E+03  0.13789062402E+03  0.20551218919E+04  0.20659354776E+04  0.50400001928E-02 0. -1.
       -1    1    3    3    0  502  0.15984236967E+03 -0.13789062402E+03 -0.12829215038E+03  0.24702688763E+03  0.50400001928E-02 0.  1.
</event>
<event>
 5   0  0.1623890E-03  0.1254775E+04  0.7818609E-02  0.9066219E-01
       -2   -1    0    0    0  501  0.00000000000E+00  0.00000000000E+00  0.27765539805E+03  0.27765539806E+03  0.25500000920E-02 0.  1.
        2   -1    0    0  501    0  0.00000000000E+00  0.00000000000E+00 -0.14176379430E+04  0.14176379430E+04  0.25500000920E-02 0. -1.
    10030    2    1    2    0    0  0.00000000000E+00  0.00000000000E+00 -0.11399825450E+04  0.16952933411E+04  0.12547746051E+04 0.  0.
        3    1    3    3  502    0 -0.10512924596E+03  0.17267100290E+03 -0.13724284398E+04  0.13872372783E+04  0.10100000352E+00 0. -1.
       -3    1    3    3    0  502  0.10512924596E+03 -0.17267100290E+03  0.23244589486E+03  0.30805606281E+03  0.10100000352E+00 0.  1.
</event>
<event>
 5   0  0.6284125E-04  0.1300113E+04  0.7818609E-02  0.9029476E-01
        4   -1    0    0  501    0  0.00000000000E+00  0.00000000000E+00  0.48258539202E+03  0.48258706312E+03  0.12699999809E+01 0.  1.
       -4   -1    0    0    0  501  0.00000000000E+00  0.00000000000E+00 -0.87564063075E+03  0.87564155174E+03  0.12699999809E+01 0. -1.
    10030    2    1    2    0    0  0.00000000000E+00  0.00000000000E+00 -0.39305523873E+03  0.13582286149E+04  0.13001125142E+04 0.  0.
        1    1    3    3  502    0 -0.49956476276E+03  0.58522966985E+02 -0.62674050200E+03  0.80361280896E+03  0.50400001928E-02 0. -1.
       -1    1    3    3    0  502  0.49956476276E+03 -0.58522966985E+02  0.23368526328E+03  0.55461580590E+03  0.50400001928E-02 0.  1.
</event>
<event>
 5   0  0.9081324E-04  0.1289982E+04  0.7818609E-02  0.9037547E-01
       -1   -1    0    0    0  501  0.00000000000E+00  0.00000000000E+00  0.11754433869E+04  0.11754433869E+04  0.50400001928E-02 0. -1.
        1   -1    0    0  501    0  0.00000000000E+00  0.00000000000E+00 -0.35392045482E+03  0.35392045486E+03  0.50400001928E-02 0.  1.
    10030    2    1    2    0    0  0.00000000000E+00  0.00000000000E+00  0.82152293204E+03  0.15293638417E+04  0.12899821055E+04 0.  0.
        4    1    3    3  502    0  0.79435732016E+01 -0.59842727227E+03  0.12564845409E+03  0.61152877893E+03  0.12699999809E+01 0.  1.
       -4    1    3    3    0  502 -0.79435732016E+01  0.59842727227E+03  0.69587447795E+03  0.91783506280E+03  0.12699999809E+01 0. -1.
</event>
<event>
 5   0  0.1694675E-03  0.1314963E+04  0.7818609E-02  0.9017783E-01
       -2   -1    0    0    0  501  0.00000000000E+00  0.00000000000E+00  0.49922256929E+03  0.49922256930E+03  0.25500000920E-02 0.  1.
        2   -1    0    0  501    0  0.00000000000E+00  0.00000000000E+00 -0.86590988840E+03  0.86590988841E+03  0.25500000920E-02 0. -1.
    10030    2    1    2    0    0  0.00000000000E+00  0.00000000000E+00 -0.36668731912E+03  0.13651324577E+04  0.13149627512E+04 0.  0.
        4    1    3    3  502    0 -0.22490868900E+03 -0.45479820575E+03 -0.61745401533E+03  0.79917232203E+03  0.12699999809E+01 0. -1.
       -4    1    3    3    0  502  0.22490868900E+03  0.45479820575E+03  0.25076669622E+03  0.56596013568E+03  0.12699999809E+01 0.  1.
</event>
<event>
 5   0  0.1700511E-03  0.1330083E+04  0.7818609E-02  0.9006043E-01
        2   -1    0    0  501    0  0.00000000000E+00  0.00000000000E+00  0.41957885012E+03  0.41957885013E+03  0.25500000920E-02 0.  1.
       -2   -1    0    0    0  501  0.00000000000E+00  0.00000000000E+00 -0.10541051963E+04  0.10541051963E+04  0.25500000920E-02 0. -1.
    10030    2    1    2    0    0  0.00000000000E+00  0.00000000000E+00 -0.63452634622E+03  0.14736840465E+04  0.13300830744E+04 0.  0.
        2    1    3    3  502    0 -0.36455375237E+03  0.48099596366E+03 -0.62674764248E+03  0.87009721455E+03  0.25500000920E-02 0. -1.
       -2    1    3    3    0  502  0.36455375237E+03 -0.48099596366E+03 -0.77787037462E+01  0.60358683191E+03  0.25500000920E-02 0.  1.
</event>
<event>
 5   0  0.9098192E-04  0.1305482E+04  0.7818609E-02  0.9025229E-01
        1   -1    0    0  501    0  0.00000000000E+00  0.00000000000E+00  0.17743310648E+04  0.17743310648E+04  0.50400001928E-02 0. -1.
       -1   -1    0    0    0  501  0.00000000000E+00  0.00000000000E+00 -0.24013024475E+03  0.24013024481E+03  0.50400001928E-02 0.  1.
    10030    2    1    2    0    0  0.00000000000E+00  0.00000000000E+00  0.15342008201E+04  0.20144613096E+04  0.13054816015E+04 0.  0.
        1    1    3    3  502    0 -0.35828138870E+03 -0.11993248593E+03  0.15884493671E+04  0.16327647554E+04  0.50400001928E-02 0. -1.
       -1    1    3    3    0  502  0.35828138870E+03  0.11993248593E+03 -0.54248546972E+02  0.38169655427E+03  0.50400001928E-02 0.  1.
</event>
<event>
 5   0  0.1667342E-03  0.1299012E+04  0.7818609E-02  0.9030349E-01
       -2   -1    0    0    0  501  0.00000000000E+00  0.00000000000E+00  0.46625001248E+03  0.46625001248E+03  0.25500000920E-02 0. -1.
        2   -1    0    0  501    0  0.00000000000E+00  0.00000000000E+00 -0.90478872042E+03  0.90478872042E+03  0.25500000920E-02 0.  1.
    10030    2    1    2    0    0  0.00000000000E+00  0.00000000000E+00 -0.43853870794E+03  0.13710387329E+04  0.12990115507E+04 0.  0.
        5    1    3    3  502    0 -0.36505072703E+03 -0.16929603845E+03 -0.75735360139E+03  0.85763031049E+03  0.46999998093E+01 0.  1.
       -5    1    3    3    0  502  0.36505072703E+03  0.16929603845E+03  0.31881489344E+03  0.51340842242E+03  0.46999998093E+01 0. -1.
</event>
<event>
 5   0  0.9215829E-04  0.1336525E+04  0.7818609E-02  0.9001092E-01
       -1   -1    0    0    0  501  0.00000000000E+00  0.00000000000E+00  0.77215672590E+03  0.77215672591E+03  0.50400001928E-02 0. -1.
        1   -1    0    0  501    0  0.00000000000E+00  0.00000000000E+00 -0.57834721360E+03  0.57834721362E+03  0.50400001928E-02 0.  1.
    10030    2    1    2    0    0  0.00000000000E+00  0.00000000000E+00  0.19380951230E+03  0.13505039395E+04  0.13365248833E+04 0.  0.
        3    1    3    3  502    0 -0.37949801149E+03 -0.38779462708E+03 -0.29726666682E+03  0.61868481064E+03  0.10100000352E+00 0.  1.
       -3    1    3    3    0  502  0.37949801149E+03  0.38779462708E+03  0.49107617911E+03  0.73181912889E+03  0.10100000352E+00 0. -1.
</event>
<event>
 5   0  0.1694675E-03  0.1274236E+04  0.7818609E-02  0.9050249E-01
        2   -1    0    0  501    0  0.00000000000E+00  0.00000000000E+00  0.28470510076E+03  0.28470510077E+03  0.25500000920E-02 0.  1.
       -2   -1    0    0    0  501  0.00000000000E+00  0.00000000000E+00 -0.14257546772E+04  0.14257546772E+04  0.25500000920E-02 0. -1.
    10030    2    1    2    0    0  0.00000000000E+00  0.00000000000E+00 -0.11410495764E+04  0.17104597779E+04  0.12742364444E+04 0.  0.
        4    1    3    3  502    0  0.49716976705E+03  0.32490120968E+03 -0.26097198925E+03  0.64872688043E+03  0.12699999809E+01 0.  1.
       -4    1    3    3    0  502 -0.49716976705E+03 -0.32490120968E+03 -0.88007758716E+03  0.10617328975E+04  0.12699999809E+01 0. -1.
</event>
<event>
 5   0  0.6284125E-04  0.1299462E+04  0.7818609E-02  0.9029992E-01
        3   -1    0    0  501    0  0.00000000000E+00  0.00000000000E+00  0.26833304726E+03  0.26833306627E+03  0.10100000352E+00 0. -1.
       -3   -1    0    0    0  501  0.00000000000E+00  0.00000000000E+00 -0.15732335562E+04  0.15732335595E+04  0.10100000352E+00 0.  1.
    10030    2    1    2    0    0  0.00000000000E+00  0.00000000000E+00 -0.13049005090E+04  0.18415666257E+04  0.12994623114E+04 0.  0.
        3    1    3    3  502    0  0.45695935042E+03 -0.46119724762E+03 -0.68818488083E+03  0.94610421706E+03  0.10100000352E+00 0. -1.
       -3    1    3    3    0  502 -0.45695935042E+03  0.46119724762E+03 -0.61671562814E+03  0.89546240867E+03  0.10100000352E+00 0.  1.
</event>
<event>
 5   0  0.6284125E-04  0.1308843E+04  0.7818609E-02  0.9022582E-01
       -4   -1    0    0    0  501  0.00000000000E+00  0.00000000000E+00  0.99940203326E+03  0.99940284020E+03  0.12699999809E+01 0.  1.
        4   -1    0    0  501    0  0.00000000000E+00  0.00000000000E+00 -0.42852182523E+03  0.42852370716E+03  0.12699999809E+01 0. -1.
    10030    2    1    2    0    0  0.00000000000E+00  0.00000000000E+00  0.57088020804E+03  0.14279265474E+04  0.13088430054E+04 0.  0.
        1    1    3    3  502    0 -0.62890914860E+03  0.23569267010E+02  0.48116538612E+03  0.79221358002E+03  0.50400001928E-02 0.  1.
       -1    1    3    3    0  502  0.62890914860E+03 -0.23569267010E+02  0.89714821916E+02  0.63571296733E+03  0.50400001928E-02 0. -1.
</event>
<event>
 5   0  0.9098192E-04  0.1301329E+04  0.7818609E-02  0.9028512E-01
       -1   -1    0    0    0  501  0.00000000000E+00  0.00000000000E+00  0.20974314142E+03  0.20974314148E+03  0.50400001928E-02 0. -1.
        1   -1    0    0  501    0  0.00000000000E+00  0.00000000000E+00 -0.20184897420E+04  0.20184897420E+04  0.50400001928E-02 0.  1.
    10030    2    1    2    0    0  0.00000000000E+00  0.00000000000E+00 -0.18087466006E+04  0.22282328835E+04  0.13013291351E+04 0.  0.
        1    1    3    3  502    0  0.33695035065E+02  0.26330418169E+02 -0.20160810254E+04  0.20165344895E+04  0.50400001928E-02 0.  1.
       -1    1    3    3    0  502 -0.33695035065E+02 -0.26330418169E+02  0.20733442478E+03  0.21169839403E+03  0.50400001928E-02 0. -1.
</event>
<event>
 5   0  0.9098192E-04  0.1296632E+04  0.7818609E-02  0.9032241E-01
        1   -1    0    0  501    0  0.00000000000E+00  0.00000000000E+00  0.73597505606E+03  0.73597505608E+03  0.50400001928E-02 0. -1.
       -1   -1    0    0    0  501  0.00000000000E+00  0.00000000000E+00 -0.57109724311E+03  0.57109724313E+03  0.50400001928E-02 0.  1.
    10030    2    1    2    0    0  0.00000000000E+00  0.00000000000E+00  0.16487781295E+03  0.13070722992E+04  0.12966315213E+04 0.  0.
        1    1    3    3  502    0  0.47620674351E+02  0.56143343669E+03 -0.24082710364E+03  0.61275845676E+03  0.50400001928E-02 0.  1.
       -1    1    3    3    0  502 -0.47620674351E+02 -0.56143343669E+03  0.40570491658E+03  0.69431384245E+03  0.50400001928E-02 0. -1.
</event>
<event>
 5   0  0.9215829E-04  0.1297074E+04  0.7818609E-02  0.9031889E-01
       -1   -1    0    0    0  501  0.00000000000E+00  0.00000000000E+00  0.38000724119E+03  0.38000724122E+03  0.50400001928E-02 0. -1.
        1   -1    0    0  501    0  0.00000000000E+00  0.00000000000E+00 -0.11068213146E+04  0.11068213146E+04  0.50400001928E-02 0.  1.
    10030    2    1    2    0    0  0.00000000000E+00  0.00000000000E+00 -0.72681407344E+03  0.14868285559E+04  0.12970738056E+04 0.  0.
        3    1    3    3  502    0 -0.57852733433E+03  0.13486441809E+03 -0.65110866866E+02  0.59759662233E+03  0.10100000352E+00 0. -1.
       -3    1    3    3    0  502  0.57852733433E+03 -0.13486441809E+03 -0.66170320657E+03  0.88923193354E+03  0.10100000352E+00 0.  1.
</event>
<event>
 5   0  0.1694675E-03  0.1308420E+04  0.7818609E-02  0.9022915E-01
        2   -1    0    0  501    0  0.00000000000E+00  0.00000000000E+00  0.65618312907E+03  0.65618312908E+03  0.25500000920E-02 0.  1.
       -2   -1    0    0    0  501  0.00000000000E+00  0.00000000000E+00 -0.65224258301E+03  0.65224258302E+03  0.25500000920E-02 0. -1.
    10030    2    1    2    0    0  0.00000000000E+00  0.00000000000E+00  0.39405460633E+01  0.13084257121E+04  0.13084197783E+04 0.  0.
        4    1    3    3  502    0 -0.11910803107E+03  0.51436370449E+03  0.38827789159E+03  0.65537628699E+03  0.12699999809E+01 0.  1.
       -4    1    3    3    0  502  0.11910803107E+03 -0.51436370449E+03 -0.38433734552E+03  0.65304942510E+03  0.12699999809E+01 0. -1.
</event>
<event>
 5   0  0.1714861E-03  0.1227251E+04  0.7818609E-02  0.9089333E-01
       -2   -1    0    0    0  501  0.00000000000E+00  0.00000000000E+00  0.23680442762E+03  0.23680442763E+03  0.25500000920E-02 0.  1.
        2   -1    0    0  501    0  0.00000000000E+00  0.00000000000E+00 -0.15900723146E+04  0.15900723146E+04  0.25500000920E-02 0. -1.
    10030    2    1    2    0    0  0.00000000000E+00  0.00000000000E+00 -0.13532678870E+04  0.18268767422E+04  0.12272508535E+04 0.  0.
        1    1    3    3  502    0 -0.28644075040E+03 -0.10196718780E+03  0.11678816991E+03  0.32570705786E+03  0.50400001928E-02 0.  1.
       -1    1    3    3    0  502  0.28644075040E+03  0.10196718780E+03 -0.14700560569E+04  0.15011696844E+04  0.50400001928E-02 0. -1.
</event>
<event>
 5   0  0.6284125E-04  0.1304051E+04  0.7818609E-02  0.9026359E-01
        4   -1    0    0  501    0  0.00000000000E+00  0.00000000000E+00  0.18410037216E+04  0.18410041596E+04  0.12699999809E+01 0.  1.
       -4   -1    0    0    0  501  0.00000000000E+00  0.00000000000E+00 -0.23092478602E+03  0.23092827826E+03  0.12699999809E+01 0. -1.
    10030    2    1    2    0    0  0.00000000000E+00  0.00000000000E+00  0.16100789356E+04  0.20719324379E+04  0.13040513213E+04 0.  0.
        3    1    3    3  502    0  0.14870538794E+03 -0.22944385626E+03  0.17455211902E+04  0.17668055952E+04  0.10100000352E+00 0.  1.
       -3    1    3    3    0  502 -0.14870538794E+03  0.22944385626E+03 -0.13544225466E+03  0.30512684268E+03  0.10100000352E+00 0. -1.
</event>
<event>
 5   0  0.9110949E-04  0.1292600E+04  0.7818609E-02  0.9035454E-01
        1   -1    0    0  501    0  0.00000000000E+00  0.00000000000E+00  0.13227116236E+04  0.13227116236E+04  0.50400001928E-02 0. -1.
       -1   -1    0    0    0  501  0.00000000000E+00  0.00000000000E+00 -0.31579354796E+03  0.31579354800E+03  0.50400001928E-02 0.  1.
    10030    2    1    2    0    0  0.00000000000E+00  0.00000000000E+00  0.10069180756E+04  0.16385051716E+04  0.12926001649E+04 0.  0.
        2    1    3    3  502    0 -0.36643147390E+03  0.46828583398E+03  0.18242683969E+03  0.62196720108E+03  0.25500000920E-02 0.  1.
       -2    1    3    3    0  502  0.36643147390E+03 -0.46828583398E+03  0.82449123592E+03  0.10165379705E+04  0.25500000920E-02 0. -1.
</event>
<event>
 5   0  0.9027076E-04  0.1304986E+04  0.7818609E-02  0.9025621E-01
        1   -1    0    0  501    0  0.00000000000E+00  0.00000000000E+00  0.89636498509E+03  0.89636498511E+03  0.50400001928E-02 0.  1.
       -1   -1    0    0    0  501  0.00000000000E+00  0.00000000000E+00 -0.47497045955E+03  0.47497045958E+03  0.50400001928E-02 0. -1.
    10030    2    1    2    0    0  0.00000000000E+00  0.00000000000E+00  0.42139452554E+03  0.13713354447E+04  0.13049856534E+04 0.  0.
        5    1    3    3  502    0 -0.12969034523E+03 -0.60616787469E+03  0.42468189000E+03  0.75142256796E+03  0.46999998093E+01 0.  1.
       -5    1    3    3    0  502  0.12969034523E+03  0.60616787469E+03 -0.32873644518E+01  0.61991287672E+03  0.46999998093E+01 0. -1.
</event>
<event>
 5   0  0.1694675E-03  0.1302485E+04  0.7818609E-02  0.9027597E-01
        2   -1    0    0  501    0  0.00000000000E+00  0.00000000000E+00  0.74629324973E+03  0.74629324974E+03  0.25500000920E-02 0. -1.
       -2   -1    0    0    0  501  0.00000000000E+00  0.00000000000E+00 -0.56829779825E+03  0.56829779826E+03  0.25500000920E-02 0.  1.
    10030    2    1    2    0    0  0.00000000000E+00  0.00000000000E+00  0.17799545148E+03  0.13145910480E+04  0.13024850259E+04 0.  0.
        4    1    3    3  502    0  0.71152753539E+02 -0.47391509296E+03  0.53406912450E+03  0.71755813166E+03  0.12699999809E+01 0. -1.
       -4    1    3    3    0  502 -0.71152753539E+02  0.47391509296E+03 -0.35607367302E+03  0.59703291633E+03  0.12699999809E+01 0.  1.
</event>
<event>
 5   0  0.9215829E-04  0.1338777E+04  0.7818609E-02  0.8999367E-01
       -1   -1    0    0    0  501  0.00000000000E+00  0.00000000000E+00  0.31068584997E+03  0.31068585001E+03  0.50400001928E-02 0. -1.
        1   -1    0    0  501    0  0.00000000000E+00  0.00000000000E+00 -0.14422320039E+04  0.14422320040E+04  0.50400001928E-02 0.  1.
    10030    2    1    2    0    0  0.00000000000E+00  0.00000000000E+00 -0.11315461540E+04  0.17529178540E+04  0.13387771675E+04 0.  0.
        3    1    3    3  502    0  0.14217607602E+03  0.62943985393E+03 -0.79879374166E+03  0.10268787748E+04  0.10100000352E+00 0.  1.
       -3    1    3    3    0  502 -0.14217607602E+03 -0.62943985393E+03 -0.33275241231E+03  0.72603907912E+03  0.10100000352E+00 0. -1.
</event>
<event>
 5   0  0.1694675E-03  0.1315217E+04  0.7818609E-02  0.9017585E-01
        2   -1    0    0  501    0  0.00000000000E+00  0.00000000000E+00  0.13448211775E+04  0.13448211775E+04  0.25500000920E-02 0. -1.
       -2   -1    0    0    0  501  0.00000000000E+00  0.00000000000E+00 -0.32156595905E+03  0.32156595906E+03  0.25500000920E-02 0.  1.
    10030    2    1    2    0    0  0.00000000000E+00  0.00000000000E+00  0.10232552185E+04  0.16663871366E+04  0.13152166539E+04 0.  0.
        4    1    3    3  502    0  0.96864617557E+02 -0.44688751956E+03  0.11104214290E+04  0.12008865776E+04  0.12699999809E+01 0. -1.
       -4    1    3    3    0  502 -0.96864617557E+02  0.44688751956E+03 -0.87166210545E+02  0.46550055900E+03  0.12699999809E+01 0.  1.
</event>
<event>
 5   0  0.9215829E-04  0.1295932E+04  0.7818609E-02  0.9032798E-01
        1   -1    0    0  501    0  0.00000000000E+00  0.00000000000E+00  0.11187618215E+04  0.11187618216E+04  0.50400001928E-02 0.  1.
       -1   -1    0    0    0  501  0.00000000000E+00  0.00000000000E+00 -0.37528957809E+03  0.37528957812E+03  0.50400001928E-02 0. -1.
    10030    2    1    2    0    0  0.00000000000E+00  0.00000000000E+00  0.74347224346E+03  0.14940513997E+04  0.12959315600E+04 0.  0.
        3    1    3    3  502    0  0.11914905654E+03 -0.37458109963E+03  0.96561075161E+03  0.10425505416E+04  0.10100000352E+00 0.  1.
       -3    1    3    3    0  502 -0.11914905654E+03  0.37458109963E+03 -0.22213850815E+03  0.45150085812E+03  0.10100000352E+00 0. -1.
</event>
<event>
 5   0  0.9098192E-04  0.1277411E+04  0.7818609E-02  0.9047673E-01
        1   -1    0    0  501    0  0.00000000000E+00  0.00000000000E+00  0.87660704770E+03  0.87660704771E+03  0.50400001928E-02 0. -1.
       -1   -1    0    0    0  501  0.00000000000E+00  0.00000000000E+00 -0.46536749038E+03  0.46536749040E+03  0.50400001928E-02 0.  1.
    10030    2    1    2    0    0  0.00000000000E+00  0.00000000000E+00  0.41123955732E+03  0.13419745381E+04  0.12774105399E+04 0.  0.
        1    1    3    3  502    0  0.60650997831E+03  0.40958420019E+01 -0.46811990790E+01  0.60654187272E+03  0.50400001928E-02 0.  1.
       -1    1    3    3    0  502 -0.60650997831E+03 -0.40958420019E+01  0.41592075640E+03  0.73543266540E+03  0.50400001928E-02 0. -1.
</event>
<event>
 5   0  0.1714861E-03  0.1318285E+04  0.7818609E-02  0.9015190E-01
       -2   -1    0    0    0  501  0.00000000000E+00  0.00000000000E+00  0.10822506311E+04  0.10822506311E+04  0.25500000920E-02 0. -1.
        2   -1    0    0  501    0  0.00000000000E+00  0.00000000000E+00 -0.40144915240E+03  0.40144915240E+03  0.25500000920E-02 0.  1.
    10030    2    1    2    0    0  0.00000000000E+00  0.00000000000E+00  0.68080147866E+03  0.14836997835E+04  0.13182846408E+04 0.  0.
        1    1    3    3  502    0  0.11905117440E+03 -0.50162198735E+03 -0.12182783683E+03  0.52975449236E+03  0.50400001928E-02 0.  1.
       -1    1    3    3    0  502 -0.11905117440E+03  0.50162198735E+03  0.80262931549E+03  0.95394529111E+03  0.50400001928E-02 0. -1.
</event>
<event>
 5   0  0.1714861E-03  0.1302523E+04  0.7818609E-02  0.9027567E-01
       -2   -1    0    0    0  501  0.00000000000E+00  0.00000000000E+00  0.11064526288E+04  0.11064526288E+04  0.25500000920E-02 0.  1.
        2   -1    0    0  501    0  0.00000000000E+00  0.00000000000E+00 -0.38333455945E+03  0.38333455946E+03  0.25500000920E-02 0. -1.
    10030    2    1    2    0    0  0.00000000000E+00  0.00000000000E+00  0.72311806931E+03  0.14897871882E+04  0.13025229841E+04 0.  0.
        1    1    3    3  502    0  0.51848681116E+03  0.31345216305E+03  0.63477582420E+03  0.87750850644E+03  0.50400001928E-02 0. -1.
       -1    1    3    3    0  502 -0.51848681116E+03 -0.31345216305E+03  0.88342245104E+02  0.61227868178E+03  0.50400001928E-02 0.  1.
</event>
<event>
 5   0  0.1694675E-03  0.1311665E+04  0.7818609E-02  0.9020366E-01
        2   -1    0    0  501    0  0.00000000000E+00  0.00000000000E+00  0.80808207306E+03  0.80808207307E+03  0.25500000920E-02 0.  1.
       -2   -1    0    0    0  501  0.00000000000E+00  0.00000000000E+00 -0.53226801420E+03  0.53226801421E+03  0.25500000920E-02 0. -1.
    10030    2    1    2    0    0  0.00000000000E+00  0.00000000000E+00  0.27581405886E+03  0.13403500873E+04  0.13116649578E+04 0.  0.
        4    1    3    3  502    0  0.25423552616E+03  0.37681800319E+03 -0.34517577354E+03  0.57076741132E+03  0.12699999809E+01 0. -1.
       -4    1    3    3    0  502 -0.25423552616E+03 -0.37681800319E+03  0.62098983240E+03  0.76958267596E+03  0.12699999809E+01 0.  1.
</event>
<event>
 5   0  0.1694675E-03  0.1301365E+04  0.7818609E-02  0.9028483E-01
       -2   -1    0    0    0  501  0.00000000000E+00  0.00000000000E+00  0.22441036448E+03  0.22441036450E+03  0.25500000920E-02 0. -1.
        2   -1    0    0  501    0  0.00000000000E+00  0.00000000000E+00 -0.18866685392E+04  0.18866685392E+04  0.25500000920E-02 0.  1.
    10030    2    1    2    0    0  0.00000000000E+00  0.00000000000E+00 -0.16622581748E+04  0.21110789037E+04  0.13013653977E+04 0.  0.
        4    1    3    3  502    0  0.35909305286E+03  0.45277793365E+03 -0.34600986141E+03  0.67355780369E+03  0.12699999809E+01 0. -1.
       -4    1    3    3    0  502 -0.35909305286E+03 -0.45277793365E+03 -0.13162483133E+04  0.14375211000E+04  0.12699999809E+01 0.  1.
</event>
<event>
 5   0  0.9098192E-04  0.1299532E+04  0.7818609E-02  0.9029936E-01
       -1   -1    0    0    0  501  0.00000000000E+00  0.00000000000E+00  0.74633952288E+03  0.74633952290E+03  0.50400001928E-02 0. -1.
        1   -1    0    0  501    0  0.00000000000E+00  0.00000000000E+00 -0.56568897488E+03  0.56568897490E+03  0.50400001928E-02 0.  1.
    10030    2    1    2    0    0  0.00000000000E+00  0.00000000000E+00  0.18065054800E+03  0.13120284978E+04  0.12995322845E+04 0.  0.
        1    1    3    3  502    0  0.48655896894E+03 -0.22687281830E+03 -0.27923433751E+03  0.60513033407E+03  0.50400001928E-02 0.  1.
       -1    1    3    3    0  502 -0.48655896894E+03  0.22687281830E+03  0.45988488551E+03  0.70689816373E+03  0.50400001928E-02 0. -1.
</event>
<event>
 5   0  0.9215829E-04  0.1270900E+04  0.7818609E-02  0.9052966E-01
        1   -1    0    0  501    0  0.00000000000E+00  0.00000000000E+00  0.77437200745E+03  0.77437200746E+03  0.50400001928E-02 0.  1.
       -1   -1    0    0    0  501  0.00000000000E+00  0.00000000000E+00 -0.52145043632E+03  0.52145043634E+03  0.50400001928E-02 0. -1.
    10030    2    1    2    0    0  0.00000000000E+00  0.00000000000E+00  0.25292157113E+03  0.12958224438E+04  0.12708998720E+04 0.  0.
        3    1    3    3  502    0 -0.45512062088E+03  0.37575511306E+03 -0.11367835760E+03  0.60104031789E+03  0.10100000352E+00 0. -1.
       -3    1    3    3    0  502  0.45512062088E+03 -0.37575511306E+03  0.36659992873E+03  0.69478212591E+03  0.10100000352E+00 0.  1.
</event>
<event>
 5   0  0.1700511E-03  0.1302398E+04  0.7818609E-02  0.9027666E-01
       -2   -1    0    0    0  501  0.00000000000E+00  0.00000000000E+00  0.36337482176E+03  0.36337482176E+03  0.25500000920E-02 0.  1.
        2   -1    0    0  501    0  0.00000000000E+00  0.00000000000E+00 -0.11670039445E+04  0.11670039445E+04  0.25500000920E-02 0. -1.
    10030    2    1    2    0    0  0.00000000000E+00  0.00000000000E+00 -0.80362912274E+03  0.15303787663E+04  0.13023975589E+04 0.  0.
        2    1    3    3  502    0 -0.33850508881E+02 -0.25755485984E+03  0.29985645232E+03  0.39672944784E+03  0.25500000920E-02 0.  1.
       -2    1    3    3    0  502  0.33850508881E+02  0.25755485984E+03 -0.11034855751E+04  0.11336493184E+04  0.25500000920E-02 0. -1.
</event>
<event>
 5   0  0.9110949E-04  0.1304278E+04  0.7818609E-02  0.9026180E-01
       -1   -1    0    0    0  501  0.00000000000E+00  0.00000000000E+00  0.50014429389E+03  0.50014429392E+03  0.50400001928E-02 0.  1.
        1   -1    0    0  501    0  0.00000000000E+00  0.00000000000E+00 -0.85032461093E+03  0.85032461095E+03  0.50400001928E-02 0. -1.
    10030    2    1    2    0    0  0.00000000000E+00  0.00000000000E+00 -0.35018031704E+03  0.13504689049E+04  0.13042775811E+04 0.  0.
        2    1    3    3  502    0 -0.25959220369E+03  0.17341299679E+03  0.41774708159E+03  0.52151011865E+03  0.25500000920E-02 0.  1.
       -2    1    3    3    0  502  0.25959220369E+03 -0.17341299679E+03 -0.76792739863E+03  0.82895878621E+03  0.25500000920E-02 0. -1.
</event>
<event>
 5   0  0.9081324E-04  0.1165985E+04  0.7818609E-02  0.9143162E-01
        1   -1    0    0  501    0  0.00000000000E+00  0.00000000000E+00  0.58637740832E+03  0.58637740835E+03  0.50400001928E-02 0. -1.
       -1   -1    0    0    0  501  0.00000000000E+00  0.00000000000E+00 -0.57962717722E+03  0.57962717724E+03  0.50400001928E-02 0.  1.
    10030    2    1    2    0    0  0.00000000000E+00  0.00000000000E+00  0.67502311036E+01  0.11660045856E+04  0.11659850462E+04 0.  0.
        4    1    3    3  502    0  0.46349234094E+03  0.15354932633E+03  0.32193362578E+03  0.58484649100E+03  0.12699999809E+01 0. -1.
       -4    1    3    3    0  502 -0.46349234094E+03 -0.15354932633E+03 -0.31518339468E+03  0.58115809459E+03  0.12699999809E+01 0.  1.
</event>
<event>
 5   0  0.9081324E-04  0.1293935E+04  0.7818609E-02  0.9034389E-01
       -1   -1    0    0    0  501  0.00000000000E+00  0.00000000000E+00  0.23313331486E+04  0.23313331486E+04  0.50400001928E-02 0.  1.
        1   -1    0    0  501    0  0.00000000000E+00  0.00000000000E+00 -0.17953965573E+03  0.17953965580E+03  0.50400001928E-02 0. -1.
    10030    2    1    2    0    0  0.00000000000E+00  0.00000000000E+00  0.21517934928E+04  0.25108728044E+04  0.12939346985E+04 0.  0.
        4    1    3    3  502    0  0.38128702421E+03 -0.25369084818E+03  0.18913908954E+03  0.49549374302E+03  0.12699999809E+01 0. -1.
       -4    1    3    3    0  502 -0.38128702421E+03  0.25369084818E+03  0.19626544033E+04  0.20153790614E+04  0.12699999809E+01 0.  1.
</event>
<event>
 5   0  0.1700511E-03  0.1349833E+04  0.7818609E-02  0.8990955E-01
       -2   -1    0    0    0  501  0.00000000000E+00  0.00000000000E+00  0.32858235065E+03  0.32858235066E+03  0.25500000920E-02 0. -1.
        2   -1    0    0  501    0  0.00000000000E+00  0.00000000000E+00 -0.13862950340E+04  0.13862950340E+04  0.25500000920E-02 0.  1.
    10030    2    1    2    0    0  0.00000000000E+00  0.00000000000E+00 -0.10577126833E+04  0.17148773846E+04  0.13498327022E+04 0.  0.
        2    1    3    3  502    0 -0.66049670549E+02 -0.10264883719E+03 -0.13721554707E+04  0.13775739466E+04  0.25500000920E-02 0.  1.
       -2    1    3    3    0  502  0.66049670549E+02  0.10264883719E+03  0.31444278736E+03  0.33730343800E+03  0.25500000920E-02 0. -1.
</event>
<event>
 5   0  0.9098192E-04  0.1311917E+04  0.7818609E-02  0.9020168E-01
        1   -1    0    0  501    0  0.00000000000E+00  0.00000000000E+00  0.10056740500E+04  0.10056740500E+04  0.50400001928E-02 0. -1.
       -1   -1    0    0    0  501  0.00000000000E+00  0.00000000000E+00 -0.42785413724E+03  0.42785413727E+03  0.50400001928E-02 0.  1.
    10030    2    1    2    0    0  0.00000000000E+00  0.00000000000E+00  0.57781991276E+03  0.14335281873E+04  0.13119173801E+04 0.  0.
        1    1    3    3  502    0  0.13948632280E+03  0.12002076602E+03 -0.39907309668E+03  0.43945506601E+03  0.50400001928E-02 0.  1.
       -1    1    3    3    0  502 -0.13948632280E+03 -0.12002076602E+03  0.97689300944E+03  0.99407312127E+03  0.50400001928E-02 0. -1.
</event>
<event>
 5   0  0.1700511E-03  0.1297079E+04  0.7818609E-02  0.9031885E-01
       -2   -1    0    0    0  501  0.00000000000E+00  0.00000000000E+00  0.54809444859E+03  0.54809444860E+03  0.25500000920E-02 0. -1.
        2   -1    0    0  501    0  0.00000000000E+00  0.00000000000E+00 -0.76739248183E+03  0.76739248184E+03  0.25500000920E-02 0.  1.
    10030    2    1    2    0    0  0.00000000000E+00  0.00000000000E+00 -0.21929803324E+03  0.13154869304E+04  0.12970791174E+04 0.  0.
        2    1    3    3  502    0 -0.28004115590E+03 -0.54088534806E+03  0.11627582535E+03  0.62008070145E+03  0.25500000920E-02 0.  1.
       -2    1    3    3    0  502  0.28004115590E+03  0.54088534806E+03 -0.33557385859E+03  0.69540622899E+03  0.25500000920E-02 0. -1.
</event>
<event>
 5   0  0.1700511E-03  0.1301193E+04  0.7818609E-02  0.9028620E-01
       -2   -1    0    0    0  501  0.00000000000E+00  0.00000000000E+00  0.43049352880E+03  0.43049352881E+03  0.25500000920E-02 0.  1.
        2   -1    0    0  501    0  0.00000000000E+00  0.00000000000E+00 -0.98323350643E+03  0.98323350643E+03  0.25500000920E-02 0. -1.
    10030    2    1    2    0    0  0.00000000000E+00  0.00000000000E+00 -0.55273997763E+03  0.14137270352E+04  0.13011927787E+04 0.  0.
        2    1    3    3  502    0  0.22456024920E+02 -0.63908301482E+03 -0.40649579436E+03  0.75774019541E+03  0.25500000920E-02 0. -1.
       -2    1    3    3    0  502 -0.22456024920E+02  0.63908301482E+03 -0.14624418327E+03  0.65598683984E+03  0.25500000920E-02 0.  1.
</event>
<event>
 5   0  0.1700511E-03  0.1301877E+04  0.7818609E-02  0.9028078E-01
        2   -1    0    0  501    0  0.00000000000E+00  0.00000000000E+00  0.10008190605E+04  0.10008190605E+04  0.25500000920E-02 0.  1.
       -2   -1    0    0    0  501  0.00000000000E+00  0.00000000000E+00 -0.42337447785E+03  0.42337447786E+03  0.25500000920E-02 0. -1.
    10030    2    1    2    0    0  0.00000000000E+00  0.00000000000E+00  0.57744458262E+03  0.14241935383E+04  0.13018774860E+04 0.  0.
        2    1    3    3  502    0  0.61177759741E+03  0.12825085045E+02  0.53158229168E+03  0.81056526223E+03  0.25500000920E-02 0.  1.
       -2    1    3    3    0  502 -0.61177759741E+03 -0.12825085045E+02  0.45862290943E+02  0.61362827611E+03  0.25500000920E-02 0. -1.
</event>
<event>
 5   0  0.1714861E-03  0.1303184E+04  0.7818609E-02  0.9027044E-01
        2   -1    0    0  501    0  0.00000000000E+00  0.00000000000E+00  0.56643361473E+03  0.56643361473E+03  0.25500000920E-02 0.  1.
       -2   -1    0    0    0  501  0.00000000000E+00  0.00000000000E+00 -0.74955318260E+03  0.74955318261E+03  0.25500000920E-02 0. -1.
    10030    2    1    2    0    0  0.00000000000E+00  0.00000000000E+00 -0.18311956788E+03  0.13159867973E+04  0.13031839757E+04 0.  0.
        1    1    3    3  502    0  0.38641592021E+03 -0.16881723271E+03 -0.59318493946E+03  0.72779454098E+03  0.50400001928E-02 0. -1.
       -1    1    3    3    0  502 -0.38641592021E+03  0.16881723271E+03  0.41006537158E+03  0.58819225636E+03  0.50400001928E-02 0.  1.
</event>
<event>
 5   0  0.9110949E-04  0.1277177E+04  0.7818609E-02  0.9047862E-01
        1   -1    0    0  501    0  0.00000000000E+00  0.00000000000E+00  0.65208593068E+03  0.65208593070E+03  0.50400001928E-02 0. -1.
       -1   -1    0    0    0  501  0.00000000000E+00  0.00000000000E+00 -0.62537052781E+03  0.62537052783E+03  0.50400001928E-02 0.  1.
    10030    2    1    2    0    0  0.00000000000E+00  0.00000000000E+00  0.26715402871E+02  0.12774564585E+04  0.12771770788E+04 0.  0.
        2    1    3    3  502    0 -0.46268386738E+03 -0.10488398215E+03 -0.41419142911E+03  0.62978690904E+03  0.25500000920E-02 0.  1.
       -2    1    3    3    0  502  0.46268386738E+03  0.10488398215E+03  0.44090683198E+03  0.64766954949E+03  0.25500000920E-02 0. -1.
</event>
<event>
 5   0  0.1694675E-03  0.1122516E+04  0.7818609E-02  0.9183520E-01
        2   -1    0    0  501    0  0.00000000000E+00  0.00000000000E+00  0.89952028619E+03  0.89952028620E+03  0.25500000920E-02 0. -1.
       -2   -1    0    0    0  501  0.00000000000E+00  0.00000000000E+00 -0.35019825339E+03  0.35019825340E+03  0.25500000920E-02 0.  1.
    10030    2    1    2    0    0  0.00000000000E+00  0.00000000000E+00  0.54932203280E+03  0.12497185396E+04  0.11225158050E+04 0.  0.
        4    1    3    3  502    0 -0.35125741999E+03  0.14934406554E+03 -0.18345790777E+03  0.42349007288E+03  0.12699999809E+01 0.  1.
       -4    1    3    3    0  502  0.35125741999E+03 -0.14934406554E+03  0.73277994057E+03  0.82622846671E+03  0.12699999809E+01 0. -1.
</event>
<event>
 5   0  0.1667342E-03  0.1297418E+04  0.7818609E-02  0.9031615E-01
        2   -1    0    0  501    0  0.00000000000E+00  0.00000000000E+00  0.32532455545E+03  0.32532455546E+03  0.25500000920E-02 0.  1.
       -2   -1    0    0    0  501  0.00000000000E+00  0.00000000000E+00 -0.12935497478E+04  0.12935497478E+04  0.25500000920E-02 0. -1.
    10030    2    1    2    0    0  0.00000000000E+00  0.00000000000E+00 -0.96822519237E+03  0.16188743033E+04  0.12974182004E+04 0.  0.
        5    1    3    3  502    0  0.63088662662E+03  0.14522226559E+03 -0.43275729148E+03  0.77872229029E+03  0.46999998093E+01 0.  1.
       -5    1    3    3    0  502 -0.63088662662E+03 -0.14522226559E+03 -0.53546790089E+03  0.84015201300E+03  0.46999998093E+01 0. -1.
</event>
<event>
 5   0  0.9215829E-04  0.1273281E+04  0.7818609E-02  0.9051026E-01
       -1   -1    0    0    0  501  0.00000000000E+00  0.00000000000E+00  0.53192251021E+03  0.53192251024E+03  0.50400001928E-02 0.  1.
        1   -1    0    0  501    0  0.00000000000E+00  0.00000000000E+00 -0.76197358038E+03  0.76197358039E+03  0.50400001928E-02 0. -1.
    10030    2    1    2    0    0  0.00000000000E+00  0.00000000000E+00 -0.23005107016E+03  0.12938960906E+04  0.12732806440E+04 0.  0.
        3    1    3    3  502    0  0.70029708244E+01  0.59346994184E+03  0.11904112189E+03  0.60533165485E+03  0.10100000352E+00 0. -1.
       -3    1    3    3    0  502 -0.70029708244E+01 -0.59346994184E+03 -0.34909219205E+03  0.68856443578E+03  0.10100000352E+00 0.  1.
</event>
<event>
 5   0  0.1667342E-03  0.1295761E+04  0.7818609E-02  0.9032934E-01
       -2   -1    0    0    0  501  0.00000000000E+00  0.00000000000E+00  0.51102206824E+03  0.51102206825E+03  0.25500000920E-02 0.  1.
        2   -1    0    0  501    0  0.00000000000E+00  0.00000000000E+00 -0.82139126429E+03  0.82139126429E+03  0.25500000920E-02 0. -1.
    10030    2    1    2    0    0  0.00000000000E+00  0.00000000000E+00 -0.31036919604E+03  0.13324133325E+04  0.12957608772E+04 0.  0.
        5    1    3    3  502    0  0.11248905436E+03 -0.43556126135E+03 -0.63459062838E+03  0.77787836798E+03  0.46999998093E+01 0. -1.
       -5    1    3    3    0  502 -0.11248905436E+03  0.43556126135E+03  0.32422143234E+03  0.55453496457E+03  0.46999998093E+01 0.  1.
</event>
<event>
 5   0  0.9027076E-04  0.1291736E+04  0.7818609E-02  0.9036144E-01
        1   -1    0    0  501    0  0.00000000000E+00  0.00000000000E+00  0.14501345291E+04  0.14501345291E+04  0.50400001928E-02 0. -1.
       -1   -1    0    0    0  501  0.00000000000E+00  0.00000000000E+00 -0.28765981548E+03  0.28765981552E+03  0.50400001928E-02 0.  1.
    10030    2    1    2    0    0  0.00000000000E+00  0.00000000000E+00  0.11624747136E+04  0.17377943446E+04  0.12917359345E+04 0.  0.
        5    1    3    3  502    0  0.44256500678E+03  0.14197117974E+03  0.11845392831E+04  0.12724680760E+04  0.46999998093E+01 0. -1.
       -5    1    3    3    0  502 -0.44256500678E+03 -0.14197117974E+03 -0.22064569485E+02  0.46532626868E+03  0.46999998093E+01 0.  1.
</event>
<event>
 5   0  0.1667342E-03  0.1289890E+04  0.7818609E-02  0.9037621E-01
       -2   -1    0    0    0  501  0.00000000000E+00  0.00000000000E+00  0.65097883192E+03  0.65097883193E+03  0.25500000920E-02 0. -1.
        2   -1    0    0  501    0  0.00000000000E+00  0.00000000000E+00 -0.63896721468E+03  0.63896721468E+03  0.25500000920E-02 0.  1.
    10030    2    1    2    0    0  0.00000000000E+00  0.00000000000E+00  0.12011617245E+02  0.12899460466E+04  0.12898901210E+04 0.  0.
        5    1    3    3  502    0 -0.25792733706E+03 -0.58416408752E+03 -0.84318917320E+02  0.64413194469E+03  0.46999998093E+01 0. -1.
       -5    1    3    3    0  502  0.25792733706E+03  0.58416408752E+03  0.96330534565E+02  0.64581410192E+03  0.46999998093E+01 0.  1.
</event>
<event>
 5   0  0.1700511E-03  0.1211545E+04  0.7818609E-02  0.9102811E-01
        2   -1    0    0  501    0  0.00000000000E+00  0.00000000000E+00  0.54886107022E+03  0.54886107023E+03  0.25500000920E-02 0.  1.
       -2   -1    0    0    0  501  0.00000000000E+00  0.00000000000E+00 -0.66858497909E+03  0.66858497909E+03  0.25500000920E-02 0. -1.
    10030    2    1    2    0    0  0.00000000000E+00  0.00000000000E+00 -0.11972390887E+03  0.12174460493E+04  0.12115449099E+04 0.  0.
        2    1    3    3  502    0 -0.23842959489E+02  0.46321485756E+03 -0.45140552950E+03  0.64722750486E+03  0.25500000920E-02 0. -1.
       -2    1    3    3    0  502  0.23842959489E+02 -0.46321485756E+03  0.33168162063E+03  0.57021854446E+03  0.25500000920E-02 0.  1.
</event>
<event>
 5   0  0.9098192E-04  0.1102679E+04  0.7818609E-02  0.9202585E-01
        1   -1    0    0  501    0  0.00000000000E+00  0.00000000000E+00  0.86235316971E+03  0.86235316972E+03  0.50400001928E-02 0.  1.
       -1   -1    0    0    0  501  0.00000000000E+00  0.00000000000E+00 -0.35249501636E+03  0.35249501640E+03  0.50400001928E-02 0. -1.
    10030    2    1    2    0    0  0.00000000000E+00  0.00000000000E+00  0.50985815335E+03  0.12148481861E+04  0.11026789101E+04 0.  0.
        1    1    3    3  502    0 -0.30342496667E+02 -0.26141029785E+02 -0.35089026461E+03  0.35316851270E+03  0.50400001928E-02 0. -1.
       -1    1    3    3    0  502  0.30342496667E+02  0.26141029785E+02  0.86074841796E+03  0.86167967342E+03  0.50400001928E-02 0.  1.
</event>
<event>
 5   0  0.9215829E-04  0.1303121E+04  0.7818609E-02  0.9027094E-01
       -1   -1    0    0    0  501  0.00000000000E+00  0.00000000000E+00  0.33822779624E+03  0.33822779628E+03  0.50400001928E-02 0. -1.
        1   -1    0    0  501    0  0.00000000000E+00  0.00000000000E+00 -0.12551636157E+04  0.12551636157E+04  0.50400001928E-02 0.  1.
    10030    2    1    2    0    0  0.00000000000E+00  0.00000000000E+00 -0.91693581946E+03  0.15933914120E+04  0.13031212126E+04 0.  0.
        3    1    3    3  502    0  0.58228049253E+03 -0.29159770107E+03 -0.48444731091E+03  0.81164585781E+03  0.10100000352E+00 0.  1.
       -3    1    3    3    0  502 -0.58228049253E+03  0.29159770107E+03 -0.43248850854E+03  0.78174555418E+03  0.10100000352E+00 0. -1.
</event>
<event>
 5   0  0.1694675E-03  0.1299506E+04  0.7818609E-02  0.9029957E-01
        2   -1    0    0  501    0  0.00000000000E+00  0.00000000000E+00  0.15038225676E+04  0.15038225676E+04  0.25500000920E-02 0. -1.
       -2   -1    0    0    0  501  0.00000000000E+00  0.00000000000E+00 -0.28073720520E+03  0.28073720521E+03  0.25500000920E-02 0.  1.
    10030    2    1    2    0    0  0.00000000000E+00  0.00000000000E+00  0.12230853624E+04  0.17845597728E+04  0.12995059750E+04 0.  0.
        4    1    3    3  502    0 -0.25310285525E+03 -0.33154190554E+03 -0.72605880855E+02  0.42338436119E+03  0.12699999809E+01 0.  1.
       -4    1    3    3    0  502  0.25310285525E+03  0.33154190554E+03  0.12956912433E+04  0.13611754116E+04  0.12699999809E+01 0. -1.
</event>
<event>
 5   0  0.1694675E-03  0.1292233E+04  0.7818609E-02  0.9035747E-01
       -2   -1    0    0    0  501  0.00000000000E+00  0.00000000000E+00  0.17718666952E+03  0.17718666953E+03  0.25500000920E-02 0. -1.
        2   -1    0    0  501    0  0.00000000000E+00  0.00000000000E+00 -0.23560841517E+04  0.23560841517E+04  0.25500000920E-02 0.  1.
    10030    2    1    2    0    0  0.00000000000E+00  0.00000000000E+00 -0.21788974821E+04  0.25332708212E+04  0.12922332668E+04 0.  0.
        4    1    3    3  502    0 -0.18181482783E+03  0.36403128218E+03 -0.10556021632E+03  0.42038075383E+03  0.12699999809E+01 0. -1.
       -4    1    3    3    0  502  0.18181482783E+03 -0.36403128218E+03 -0.20733372658E+04  0.21128900674E+04  0.12699999809E+01 0.  1.
</event>
<event>
 5   0  0.1714861E-03  0.1256369E+04  0.7818609E-02  0.9064899E-01
        2   -1    0    0  501    0  0.00000000000E+00  0.00000000000E+00  0.11640299645E+04  0.11640299645E+04  0.25500000920E-02 0. -1.
       -2   -1    0    0    0  501  0.00000000000E+00  0.00000000000E+00 -0.33900831998E+03  0.33900831999E+03  0.25500000920E-02 0.  1.
    10030    2    1    2    0    0  0.00000000000E+00  0.00000000000E+00  0.82502164448E+03  0.15030382845E+04  0.12563691220E+04 0.  0.
        1    1    3    3  502    0  0.43037698708E+02 -0.57900028561E+03  0.69943740816E+03  0.90901389549E+03  0.50400001928E-02 0. -1.
       -1    1    3    3    0  502 -0.43037698708E+02  0.57900028561E+03  0.12558423632E+03  0.59402438896E+03  0.50400001928E-02 0.  1.
</event>
<event>
 5   0  0.6284125E-04  0.1287068E+04  0.7818609E-02  0.9039884E-01
        4   -1    0    0  501    0  0.00000000000E+00  0.00000000000E+00  0.56398682769E+03  0.56398825760E+03  0.12699999809E+01 0. -1.
       -4   -1    0    0    0  501  0.00000000000E+00  0.00000000000E+00 -0.73429811038E+03  0.73429920864E+03  0.12699999809E+01 0.  1.
    10030    2    1    2    0    0  0.00000000000E+00  0.00000000000E+00 -0.17031128269E+03  0.12982874662E+04  0.12870681458E+04 0.  0.
        2    1    3    3  502    0 -0.20692761879E+03  0.79075947331E+02 -0.69462778558E+03  0.72909519637E+03  0.25500000920E-02 0.  1.
       -2    1    3    3    0  502  0.20692761879E+03 -0.79075947331E+02  0.52431650289E+03  0.56919226987E+03  0.25500000920E-02 0. -1.
</event>
<event>
 5   0  0.9215829E-04  0.1312660E+04  0.7818609E-02  0.9019585E-01
        1   -1    0    0  501    0  0.00000000000E+00  0.00000000000E+00  0.82834168995E+03  0.82834168997E+03  0.50400001928E-02 0. -1.
       -1   -1    0    0    0  501  0.00000000000E+00  0.00000000000E+00 -0.52003809717E+03  0.52003809719E+03  0.50400001928E-02 0.  1.
    10030    2    1    2    0    0  0.00000000000E+00  0.00000000000E+00  0.30830359278E+03  0.13483797872E+04  0.13126602550E+04 0.  0.
        3    1    3    3  502    0  0.35761579444E+03 -0.30880778838E+03  0.62208913442E+03  0.78118257019E+03  0.10100000352E+00 0. -1.
       -3    1    3    3    0  502 -0.35761579444E+03  0.30880778838E+03 -0.31378554164E+03  0.56719721697E+03  0.10100000352E+00 0.  1.
</event>
<event>
 5   0  0.9098192E-04  0.1280062E+04  0.7818609E-02  0.9045528E-01
       -1   -1    0    0    0  501  0.00000000000E+00  0.00000000000E+00  0.59912552726E+03  0.59912552728E+03  0.50400001928E-02 0. -1.
        1   -1    0    0  501    0  0.00000000000E+00  0.00000000000E+00 -0.68372885536E+03  0.68372885538E+03  0.50400001928E-02 0.  1.
    10030    2    1    2    0    0  0.00000000000E+00  0.00000000000E+00 -0.84603328104E+02  0.12828543827E+04  0.12800615782E+04 0.  0.
        1    1    3    3  502    0 -0.28421071568E+02 -0.17236179924E+03 -0.65937474710E+03  0.68212271938E+03  0.50400001928E-02 0.  1.
       -1    1    3    3    0  502  0.28421071568E+02  0.17236179924E+03  0.57477141900E+03  0.60073166328E+03  0.50400001928E-02 0. -1.
</event>
<event>
 5   0  0.1700511E-03  0.1347438E+04  0.7818609E-02  0.8992770E-01
       -2   -1    0    0    0  501  0.00000000000E+00  0.00000000000E+00  0.34814918571E+03  0.34814918572E+03  0.25500000920E-02 0.  1.
        2   -1    0    0  501    0  0.00000000000E+00  0.00000000000E+00 -0.13037429536E+04  0.13037429536E+04  0.25500000920E-02 0. -1.
    10030    2    1    2    0    0  0.00000000000E+00  0.00000000000E+00 -0.95559376788E+03  0.16518921393E+04  0.13474376389E+04 0.  0.
        2    1    3    3  502    0 -0.44376032141E+03  0.22118508260E+03  0.81391188213E+02  0.50246451531E+03  0.25500000920E-02 0.  1.
       -2    1    3    3    0  502  0.44376032141E+03 -0.22118508260E+03 -0.10369849561E+04  0.11494276240E+04  0.25500000920E-02 0. -1.
</event>
<event>
 5   0  0.9027076E-04  0.1310931E+04  0.7818609E-02  0.9020942E-01
        1   -1    0    0  501    0  0.00000000000E+00  0.00000000000E+00  0.33737464820E+03  0.33737464824E+03  0.50400001928E-02 0. -1.
       -1   -1    0    0    0  501  0.00000000000E+00  0.00000000000E+00 -0.12734652044E+04  0.12734652045E+04  0.50400001928E-02 0.  1.
    10030    2    1    2    0    0  0.00000000000E+00  0.00000000000E+00 -0.93609055625E+03  0.16108398527E+04  0.13109307768E+04 0.  0.
        5    1    3    3  502    0 -0.12585089922E+02 -0.38260619970E+03 -0.11218034764E+04  0.11853316069E+04  0.46999998093E+01 0.  1.
       -5    1    3    3    0  502  0.12585089922E+02  0.38260619970E+03  0.18571292018E+03  0.42550824582E+03  0.46999998093E+01 0. -1.
</event>
<event>
 5   0  0.9098192E-04  0.1323434E+04  0.7818609E-02  0.9011186E-01
        1   -1    0    0  501    0  0.00000000000E+00  0.00000000000E+00  0.13126639429E+04  0.13126639429E+04  0.50400001928E-02 0. -1.
       -1   -1    0    0    0  501  0.00000000000E+00  0.00000000000E+00 -0.33357289972E+03  0.33357289976E+03  0.50400001928E-02 0.  1.
    10030    2    1    2    0    0  0.00000000000E+00  0.00000000000E+00  0.97909104318E+03  0.16462368427E+04  0.13234335916E+04 0.  0.
        1    1    3    3  502    0 -0.47421198806E+03  0.34718696983E+03  0.11131949546E+03  0.59817040359E+03  0.50400001928E-02 0. -1.
       -1    1    3    3    0  502  0.47421198806E+03 -0.34718696983E+03  0.86777154773E+03  0.10480664391E+04  0.50400001928E-02 0.  1.
</event>
<event>
 5   0  0.9110949E-04  0.1290571E+04  0.7818609E-02  0.9037076E-01
        1   -1    0    0  501    0  0.00000000000E+00  0.00000000000E+00  0.52787152178E+03  0.52787152180E+03  0.50400001928E-02 0.  1.
       -1   -1    0    0    0  501  0.00000000000E+00  0.00000000000E+00 -0.78881602219E+03  0.78881602221E+03  0.50400001928E-02 0. -1.
    10030    2    1    2    0    0  0.00000000000E+00  0.00000000000E+00 -0.26094450041E+03  0.13166875440E+04  0.12905712132E+04 0.  0.
        2    1    3    3  502    0 -0.60441835523E+03 -0.82089728345E+02  0.84343193675E+02  0.61577109868E+03  0.25500000920E-02 0.  1.
       -2    1    3    3    0  502  0.60441835523E+03  0.82089728345E+02 -0.34528769409E+03  0.70091644533E+03  0.25500000920E-02 0. -1.
</event>
<event>
 5   0  0.1700511E-03  0.1353761E+04  0.7818609E-02  0.8987986E-01
        2   -1    0    0  501    0  0.00000000000E+00  0.00000000000E+00  0.15168179996E+04  0.15168179996E+04  0.25500000920E-02 0. -1.
       -2   -1    0    0    0  501  0.00000000000E+00  0.00000000000E+00 -0.30205792217E+03  0.30205792218E+03  0.25500000920E-02 0.  1.
    10030    2    1    2    0    0  0.00000000000E+00  0.00000000000E+00  0.12147600774E+04  0.18188759218E+04  0.13537605302E+04 0.  0.
        2    1    3    3  502    0  0.27098239990E+03 -0.14231539073E+03 -0.20376614049E+03  0.36770337435E+03  0.25500000920E-02 0.  1.
       -2    1    3    3    0  502 -0.27098239990E+03  0.14231539073E+03  0.14185262179E+04  0.14511725474E+04  0.25500000920E-02 0. -1.
</event>
<event>
 5   0  0.1623890E-03  0.1282702E+04  0.7818609E-02  0.9043396E-01
        2   -1    0    0  501    0  0.00000000000E+00  0.00000000000E+00  0.20151722284E+04  0.20151722284E+04  0.25500000920E-02 0.  1.
       -2   -1    0    0    0  501  0.00000000000E+00  0.00000000000E+00 -0.20411720024E+03  0.20411720025E+03  0.25500000920E-02 0. -1.
    10030    2    1    2    0    0  0.00000000000E+00  0.00000000000E+00  0.18110550282E+04  0.22192894287E+04  0.12827023244E+04 0.  0.
        3    1    3    3  502    0  0.19755964976E+03 -0.59450185308E+03  0.66786378751E+03  0.91569881369E+03  0.10100000352E+00 0. -1.
       -3    1    3    3    0  502 -0.19755964976E+03  0.59450185308E+03  0.11431912407E+04  0.13035906150E+04  0.10100000352E+00 0.  1.
</event>
<event>
 5   0  0.9027076E-04  0.1301790E+04  0.7818609E-02  0.9028147E-01
        1   -1    0    0  501    0  0.00000000000E+00  0.00000000000E+00  0.45147147453E+03  0.45147147456E+03  0.50400001928E-02 0. -1.
       -1   -1    0    0    0  501  0.00000000000E+00  0.00000000000E+00 -0.93840825663E+03  0.93840825664E+03  0.50400001928E-02 0.  1.
    10030    2    1    2    0    0  0.00000000000E+00  0.00000000000E+00 -0.48693678210E+03  0.13898797312E+04  0.13017903969E+04 0.  0.
        5    1    3    3  502    0  0.27166755290E+02 -0.54319285258E+03 -0.62521893563E+03  0.82868408646E+03  0.46999998093E+01 0.  1.
       -5    1    3    3    0  502 -0.27166755290E+02  0.54319285258E+03  0.13828215353E+03  0.56119564474E+03  0.46999998093E+01 0. -1.
</event>
<event>
 5   0  0.9098192E-04  0.1297680E+04  0.7818609E-02  0.9031407E-01
        1   -1    0    0  501    0  0.00000000000E+00  0.00000000000E+00  0.53447456885E+03  0.53447456887E+03  0.50400001928E-02 0. -1.
       -1   -1    0    0    0  501  0.00000000000E+00  0.00000000000E+00 -0.78767653985E+03  0.78767653986E+03  0.50400001928E-02 0.  1.
    10030    2    1    2    0    0  0.00000000000E+00  0.00000000000E+00 -0.25320197100E+03  0.13221511087E+04  0.12976795892E+04 0.  0.
        1    1    3    3  502    0  0.98028296186E+02 -0.63715069933E+03 -0.20162739127E+03  0.67544368044E+03  0.50400001928E-02 0.  1.
       -1    1    3    3    0  502 -0.98028296186E+02  0.63715069933E+03 -0.51574579726E+02  0.64670742829E+03  0.50400001928E-02 0. -1.
</event>
<event>
 5   0  0.9215829E-04  0.1348030E+04  0.7818609E-02  0.8992321E-01
        1   -1    0    0  501    0  0.00000000000E+00  0.00000000000E+00  0.92605639031E+03  0.92605639032E+03  0.50400001928E-02 0.  1.
       -1   -1    0    0    0  501  0.00000000000E+00  0.00000000000E+00 -0.49057046876E+03  0.49057046879E+03  0.50400001928E-02 0. -1.
    10030    2    1    2    0    0  0.00000000000E+00  0.00000000000E+00  0.43548592155E+03  0.14166268591E+04  0.13480295509E+04 0.  0.
        3    1    3    3  502    0  0.59613791791E+02 -0.64284327153E+03  0.14254117425E+02  0.64575882959E+03  0.10100000352E+00 0.  1.
       -3    1    3    3    0  502 -0.59613791791E+02  0.64284327153E+03  0.42123180412E+03  0.77086802952E+03  0.10100000352E+00 0. -1.
</event>
<event>
 5   0  0.1667342E-03  0.1070412E+04  0.7818609E-02  0.9234520E-01
        2   -1    0    0  501    0  0.00000000000E+00  0.00000000000E+00  0.22141598248E+03  0.22141598249E+03  0.25500000920E-02 0. -1.
       -2   -1    0    0    0  501  0.00000000000E+00  0.00000000000E+00 -0.12936979226E+04  0.12936979226E+04  0.25500000920E-02 0.  1.
    10030    2    1    2    0    0  0.00000000000E+00  0.00000000000E+00 -0.10722819401E+04  0.15151139051E+04  0.10704118769E+04 0.  0.
        5    1    3    3  502    0 -0.52161624560E+03  0.30297662802E+02 -0.37215731443E+03  0.64150184156E+03  0.46999998093E+01 0. -1.
       -5    1    3    3    0  502  0.52161624560E+03 -0.30297662802E+02 -0.70012462568E+03  0.87361206352E+03  0.46999998093E+01 0.  1.
</event>
<event>
 5   0  0.6284125E-04  0.1286598E+04  0.7818609E-02  0.9040261E-01
        3   -1    0    0  501    0  0.00000000000E+00  0.00000000000E+00  0.13589197245E+04  0.13589197282E+04  0.10100000352E+00 0.  1.
       -3   -1    0    0    0  501  0.00000000000E+00  0.00000000000E+00 -0.30453114316E+03  0.30453115991E+03  0.10100000352E+00 0. -1.
    10030    2    1    2    0    0  0.00000000000E+00  0.00000000000E+00  0.10543885813E+04  0.16634508881E+04  0.12865976748E+04 0.  0.
        4    1    3    3  502    0 -0.27929413215E+02  0.43371177337E+03 -0.86011420926E+02  0.44304123049E+03  0.12699999809E+01 0. -1.
       -4    1    3    3    0  502  0.27929413215E+02 -0.43371177337E+03  0.11404000022E+04  0.12204096576E+04  0.12699999809E+01 0.  1.
</event>
<event>
 5   0  0.1700511E-03  0.1304138E+04  0.7818609E-02  0.9026290E-01
        2   -1    0    0  501    0  0.00000000000E+00  0.00000000000E+00  0.29786445409E+04  0.29786445409E+04  0.25500000920E-02 0. -1.
       -2   -1    0    0    0  501  0.00000000000E+00  0.00000000000E+00 -0.14274747077E+03  0.14274747080E+03  0.25500000920E-02 0.  1.
    10030    2    1    2    0    0  0.00000000000E+00  0.00000000000E+00  0.28358970701E+04  0.31213920117E+04  0.13041379905E+04 0.  0.
        2    1    3    3  502    0  0.49064660471E+03 -0.33085696856E+03  0.20733942447E+04  0.21561920411E+04  0.25500000920E-02 0. -1.
       -2    1    3    3    0  502 -0.49064660471E+03  0.33085696856E+03  0.76250282547E+03  0.96519997058E+03  0.25500000920E-02 0.  1.
</event>
<event>
 5   0  0.1700511E-03  0.1310656E+04  0.7818609E-02  0.9021157E-01
        2   -1    0    0  501    0  0.00000000000E+00  0.00000000000E+00  0.62338918773E+03  0.62338918774E+03  0.25500000920E-02 0.  1.
       -2   -1    0    0    0  501  0.00000000000E+00  0.00000000000E+00 -0.68890369440E+03  0.68890369440E+03  0.25500000920E-02 0. -1.
    10030    2    1    2    0    0  0.00000000000E+00  0.00000000000E+00 -0.65514506667E+02  0.13122928821E+04  0.13106564988E+04 0.  0.
        2    1    3    3  502    0  0.52370836178E+03 -0.37977657840E+03  0.72036770873E+02  0.65091473640E+03  0.25500000920E-02 0.  1.
       -2    1    3    3    0  502 -0.52370836178E+03  0.37977657840E+03 -0.13755127754E+03  0.66137814574E+03  0.25500000920E-02 0. -1.
</event>
<event>
 5   0  0.1667342E-03  0.1312940E+04  0.7818609E-02  0.9019366E-01
       -2   -1    0    0    0  501  0.00000000000E+00  0.00000000000E+00  0.29152197192E+03  0.29152197193E+03  0.25500000920E-02 0.  1.
        2   -1    0    0  501    0  0.00000000000E+00  0.00000000000E+00 -0.14782861751E+04  0.14782861751E+04  0.25500000920E-02 0. -1.
    10030    2    1    2    0    0  0.00000000000E+00  0.00000000000E+00 -0.11867642031E+04  0.17698081470E+04  0.13129400608E+04 0.  0.
        5    1    3    3  502    0 -0.41325719013E+02  0.34525539818E+03 -0.13439281467E+04  0.13881909302E+04  0.46999998093E+01 0. -1.
       -5    1    3    3    0  502  0.41325719013E+02 -0.34525539818E+03  0.15716394358E+03  0.38161721683E+03  0.46999998093E+01 0.  1.
</event>
<event>
 5   0  0.1714861E-03  0.1265111E+04  0.7818609E-02  0.9057699E-01
        2   -1    0    0  501    0  0.00000000000E+00  0.00000000000E+00  0.13731683336E+04  0.13731683336E+04  0.25500000920E-02 0. -1.
       -2   -1    0    0    0  501  0.00000000000E+00  0.00000000000E+00 -0.29138915671E+03  0.29138915672E+03  0.25500000920E-02 0.  1.
    10030    2    1    2    0    0  0.00000000000E+00  0.00000000000E+00  0.10817791769E+04  0.16645574904E+04  0.12651108454E+04 0.  0.
        1    1    3    3  502    0  0.23561194670E+03 -0.55004888671E+03  0.81072737560E+03  0.10076436100E+04  0.50400001928E-02 0.  1.
       -1    1    3    3    0  502 -0.23561194670E+03  0.55004888671E+03  0.27105180133E+03  0.65691388037E+03  0.50400001928E-02 0. -1.
</event>
<event>
 5   0  0.1700511E-03  0.1298549E+04  0.7818609E-02  0.9030717E-01
        2   -1    0    0  501    0  0.00000000000E+00  0.00000000000E+00  0.82638017813E+03  0.82638017813E+03  0.25500000920E-02 0. -1.
       -2   -1    0    0    0  501  0.00000000000E+00  0.00000000000E+00 -0.51012523159E+03  0.51012523160E+03  0.25500000920E-02 0.  1.
    10030    2    1    2    0    0  0.00000000000E+00  0.00000000000E+00  0.31625494653E+03  0.13365054097E+04  0.12985490053E+04 0.  0.
        2    1    3    3  502    0  0.21111200507E+03 -0.59766551860E+03  0.30289818920E+03  0.70250954715E+03  0.25500000920E-02 0. -1.
       -2    1    3    3    0  502 -0.21111200507E+03  0.59766551860E+03  0.13356757333E+02  0.63399586259E+03  0.25500000920E-02 0.  1.
</event>
<event>
 5   0  0.1714861E-03  0.1214901E+04  0.7818609E-02  0.9099913E-01
       -2   -1    0    0    0  501  0.00000000000E+00  0.00000000000E+00  0.64000699452E+03  0.64000699452E+03  0.25500000920E-02 0. -1.
        2   -1    0    0  501    0  0.00000000000E+00  0.00000000000E+00 -0.57655039380E+03  0.57655039380E+03  0.25500000920E-02 0.  1.
    10030    2    1    2    0    0  0.00000000000E+00  0.00000000000E+00  0.63456600719E+02  0.12165573883E+04  0.12149012877E+04 0.  0.
        1    1    3    3  502    0 -0.12513577773E+03  0.17533201740E+03 -0.53702129538E+03  0.57861226301E+03  0.50400001928E-02 0.  1.
       -1    1    3    3    0  502  0.12513577773E+03 -0.17533201740E+03  0.60047789609E+03  0.63794512532E+03  0.50400001928E-02 0. -1.
</event>
<event>
 5   0  0.9081324E-04  0.1304705E+04  0.7818609E-02  0.9025842E-01
        1   -1    0    0  501    0  0.00000000000E+00  0.00000000000E+00  0.15361956058E+04  0.15361956059E+04  0.50400001928E-02 0. -1.
       -1   -1    0    0    0  501  0.00000000000E+00  0.00000000000E+00 -0.27702462195E+03  0.27702462200E+03  0.50400001928E-02 0.  1.
    10030    2    1    2    0    0  0.00000000000E+00  0.00000000000E+00  0.12591709839E+04  0.18132202279E+04  0.13047053415E+04 0.  0.
        4    1    3    3  502    0 -0.57115274085E+03  0.30732121739E+03  0.72687436858E+03  0.97417131175E+03  0.12699999809E+01 0. -1.
       -4    1    3    3    0  502  0.57115274085E+03 -0.30732121739E+03  0.53229661531E+03  0.83904891610E+03  0.12699999809E+01 0.  1.
</event>
<event>
 5   0  0.9081324E-04  0.1305093E+04  0.7818609E-02  0.9025536E-01
        1   -1    0    0  501    0  0.00000000000E+00  0.00000000000E+00  0.13338033351E+04  0.13338033351E+04  0.50400001928E-02 0.  1.
       -1   -1    0    0    0  501  0.00000000000E+00  0.00000000000E+00 -0.31925031179E+03  0.31925031183E+03  0.50400001928E-02 0. -1.
    10030    2    1    2    0    0  0.00000000000E+00  0.00000000000E+00  0.10145530233E+04  0.16530536469E+04  0.13050933003E+04 0.  0.
        4    1    3    3  502    0 -0.35120360189E+03  0.53136064221E+03  0.68697291946E+03  0.93681455317E+03  0.12699999809E+01 0.  1.
       -4    1    3    3    0  502  0.35120360189E+03 -0.53136064221E+03  0.32758010383E+03  0.71623909374E+03  0.12699999809E+01 0. -1.
</event>
<event>
 5   0  0.9081324E-04  0.1320856E+04  0.7818609E-02  0.9013188E-01
       -1   -1    0    0    0  501  0.00000000000E+00  0.00000000000E+00  0.52058030853E+03  0.52058030856E+03  0.50400001928E-02 0.  1.
        1   -1    0    0  501    0  0.00000000000E+00  0.00000000000E+00 -0.83784377846E+03  0.83784377848E+03  0.50400001928E-02 0. -1.
    10030    2    1    2    0    0  0.00000000000E+00  0.00000000000E+00 -0.31726346993E+03  0.13584240870E+04  0.13208557419E+04 0.  0.
        4    1    3    3  502    0 -0.56866863969E+03 -0.13260642122E+03 -0.47594393447E+03  0.75332113097E+03  0.12699999809E+01 0. -1.
       -4    1    3    3    0  502  0.56866863969E+03  0.13260642122E+03  0.15868046454E+03  0.60510295606E+03  0.12699999809E+01 0.  1.
</event>
<event>
 5   0  0.1694675E-03  0.1310191E+04  0.7818609E-02  0.9021522E-01
       -2   -1    0    0    0  501  0.00000000000E+00  0.00000000000E+00  0.69149377271E+03  0.69149377272E+03  0.25500000920E-02 0.  1.
        2   -1    0    0  501    0  0.00000000000E+00  0.00000000000E+00 -0.62061315520E+03  0.62061315520E+03  0.25500000920E-02 0. -1.
    10030    2    1    2    0    0  0.00000000000E+00  0.00000000000E+00  0.70880617515E+02  0.13121069279E+04  0.13101910274E+04 0.  0.
        4    1    3    3  502    0  0.28093919044E+02 -0.60074112815E+03  0.29556876513E+03  0.67010572238E+03  0.12699999809E+01 0.  1.
       -4    1    3    3    0  502 -0.28093919044E+02  0.60074112815E+03 -0.22468814762E+03  0.64200120554E+03  0.12699999809E+01 0. -1.
</event>
<event>
 5   0  0.9027076E-04  0.1309346E+04  0.7818609E-02  0.9022186E-01
        1   -1    0    0  501    0  0.00000000000E+00  0.00000000000E+00  0.20222206113E+04  0.20222206113E+04  0.50400001928E-02 0.  1.
       -1   -1    0    0    0  501  0.00000000000E+00  0.00000000000E+00 -0.21194372228E+03  0.21194372234E+03  0.50400001928E-02 0. -1.
    10030    2    1    2    0    0  0.00000000000E+00  0.00000000000E+00  0.18102768890E+04  0.22341643336E+04  0.13093463464E+04 0.  0.
        5    1    3    3  502    0 -0.35691341640E+03  0.47980642093E+03  0.45056020733E+03  0.74875094577E+03  0.46999998093E+01 0. -1.
       -5    1    3    3    0  502  0.35691341640E+03 -0.47980642093E+03  0.13597166817E+04  0.14854133879E+04  0.46999998093E+01 0.  1.
</event>
<event>
 5   0  0.9110949E-04  0.1332157E+04  0.7818609E-02  0.9004446E-01
       -1   -1    0    0    0  501  0.00000000000E+00  0.00000000000E+00  0.21309629845E+03  0.21309629851E+03  0.50400001928E-02 0.  1.
        1   -1    0    0  501    0  0.00000000000E+00  0.00000000000E+00 -0.20819735402E+04  0.20819735402E+04  0.50400001928E-02 0. -1.
    10030    2    1    2    0    0  0.00000000000E+00  0.00000000000E+00 -0.18688772417E+04  0.22950698387E+04  0.13321574306E+04 0.  0.
        2    1    3    3  502    0  0.64251454183E+03  0.10779551555E+03 -0.11732595377E+04  0.13420069867E+04  0.25500000920E-02 0.  1.
       -2    1    3    3    0  502 -0.64251454183E+03 -0.10779551555E+03 -0.69561770402E+03  0.95306285196E+03  0.25500000920E-02 0. -1.
</event>
<event>
 5   0  0.9081324E-04  0.1302335E+04  0.7818609E-02  0.9027715E-01
       -1   -1    0    0    0  501  0.00000000000E+00  0.00000000000E+00  0.45426421861E+03  0.45426421864E+03  0.50400001928E-02 0.  1.
        1   -1    0    0  501    0  0.00000000000E+00  0.00000000000E+00 -0.93342000563E+03  0.93342000564E+03  0.50400001928E-02 0. -1.
    10030    2    1    2    0    0  0.00000000000E+00  0.00000000000E+00 -0.47915578702E+03  0.13876842243E+04  0.13023353017E+04 0.  0.
        4    1    3    3  502    0  0.28684037178E+03  0.57424735141E+03 -0.35620547518E+03  0.73411264322E+03  0.12699999809E+01 0. -1.
       -4    1    3    3    0  502 -0.28684037178E+03 -0.57424735141E+03 -0.12295031184E+03  0.65357158106E+03  0.12699999809E+01 0.  1.
</event>
<event>
 5   0  0.9081324E-04  0.1282236E+04  0.7818609E-02  0.9043772E-01
       -1   -1    0    0    0  501  0.00000000000E+00  0.00000000000E+00  0.73697658079E+03  0.73697658081E+03  0.50400001928E-02 0. -1.
        1   -1    0    0  501    0  0.00000000000E+00  0.00000000000E+00 -0.55772755039E+03  0.55772755041E+03  0.50400001928E-02 0.  1.
    10030    2    1    2    0    0  0.00000000000E+00  0.00000000000E+00  0.17924903040E+03  0.12947041312E+04  0.12822357710E+04 0.  0.
        4    1    3    3  502    0 -0.32340754903E+03  0.11281221356E+03  0.63684596836E+03  0.72311371071E+03  0.12699999809E+01 0. -1.
       -4    1    3    3    0  502  0.32340754903E+03 -0.11281221356E+03 -0.45759693796E+03  0.57159042052E+03  0.12699999809E+01 0.  1.
</event>
<event>
 5   0  0.1623890E-03  0.1153608E+04  0.7818609E-02  0.9154461E-01
        2   -1    0    0  501    0  0.00000000000E+00  0.00000000000E+00  0.27694129671E+03  0.27694129672E+03  0.25500000920E-02 0. -1.
       -2   -1    0    0    0  501  0.00000000000E+00  0.00000000000E+00 -0.12013480560E+04  0.12013480560E+04  0.25500000920E-02 0.  1.
    10030    2    1    2    0    0  0.00000000000E+00  0.00000000000E+00 -0.92440675927E+03  0.14782893527E+04  0.11536080590E+04 0.  0.
        3    1    3    3  502    0  0.25520596025E+03 -0.16242612992E+03 -0.10915375460E+04  0.11326811353E+04  0.10100000352E+00 0.  1.
       -3    1    3    3    0  502 -0.25520596025E+03  0.16242612992E+03  0.16713078674E+03  0.34560821735E+03  0.10100000352E+00 0. -1.
</event>
<event>
 5   0  0.9110949E-04  0.1310279E+04  0.7818609E-02  0.9021453E-01
        1   -1    0    0  501    0  0.00000000000E+00  0.00000000000E+00  0.33952312036E+03  0.33952312040E+03  0.50400001928E-02 0.  1.
       -1   -1    0    0    0  501  0.00000000000E+00  0.00000000000E+00 -0.12641495632E+04  0.12641495632E+04  0.50400001928E-02 0. -1.
    10030    2    1    2    0    0  0.00000000000E+00  0.00000000000E+00 -0.92462644279E+03  0.16036726836E+04  0.13102793661E+04 0.  0.
        2    1    3    3  502    0  0.20604061629E+03 -0.31384628638E+02  0.29786637608E+03  0.36354106849E+03  0.25500000920E-02 0.  1.
       -2    1    3    3    0  502 -0.20604061629E+03  0.31384628638E+02 -0.12224928189E+04  0.12401316151E+04  0.25500000920E-02 0. -1.
</event>
<event>
 5   0  0.1623890E-03  0.1308533E+04  0.7818609E-02  0.9022825E-01
        2   -1    0    0  501    0  0.00000000000E+00  0.00000000000E+00  0.25105863982E+04  0.25105863982E+04  0.25500000920E-02 0. -1.
       -2   -1    0    0    0  501  0.00000000000E+00  0.00000000000E+00 -0.17050397366E+03  0.17050397367E+03  0.25500000920E-02 0.  1.
    10030    2    1    2    0    0  0.00000000000E+00  0.00000000000E+00  0.23400824245E+04  0.26810903718E+04  0.13085334648E+04 0.  0.
        3    1    3    3  502    0  0.68555591405E+02 -0.62642671970E+03  0.80955428793E+03  0.10259086020E+04  0.10100000352E+00 0.  1.
       -3    1    3    3    0  502 -0.68555591405E+02  0.62642671970E+03  0.15305281366E+04  0.16551817699E+04  0.10100000352E+00 0. -1.
</event>
<event>
 5   0  0.9027076E-04  0.1334552E+04  0.7818609E-02  0.9002605E-01
        1   -1    0    0  501    0  0.00000000000E+00  0.00000000000E+00  0.52625481168E+03  0.52625481171E+03  0.50400001928E-02 0.  1.
       -1   -1    0    0    0  501  0.00000000000E+00  0.00000000000E+00 -0.84608718184E+03  0.84608718185E+03  0.50400001928E-02 0. -1.
    10030    2    1    2    0    0  0.00000000000E+00  0.00000000000E+00 -0.31983237016E+03  0.13723419936E+04  0.13345522853E+04 0.  0.
        5    1    3    3  502    0 -0.50894221500E+02 -0.33083087727E+03  0.43366030907E+03  0.54783450494E+03  0.46999998093E+01 0.  1.
       -5    1    3    3    0  502  0.50894221500E+02  0.33083087727E+03 -0.75349267923E+03  0.82450748862E+03  0.46999998093E+01 0. -1.
</event>
<event>
 5   0  0.1623890E-03  0.1277558E+04  0.7818609E-02  0.9047554E-01
       -2   -1    0    0    0  501  0.00000000000E+00  0.00000000000E+00  0.31588159017E+03  0.31588159018E+03  0.25500000920E-02 0.  1.
        2   -1    0    0  501    0  0.00000000000E+00  0.00000000000E+00 -0.12917446832E+04  0.12917446832E+04  0.25500000920E-02 0. -1.
    10030    2    1    2    0    0  0.00000000000E+00  0.00000000000E+00 -0.97586309306E+03  0.16076262734E+04  0.12775576146E+04 0.  0.
        3    1    3    3  502    0 -0.35530041189E+03  0.17178598388E+03  0.14412251925E+03  0.42014297293E+03  0.10100000352E+00 0.  1.
       -3    1    3    3    0  502  0.35530041189E+03 -0.17178598388E+03 -0.11199856123E+04  0.11874833005E+04  0.10100000352E+00 0. -1.
</event>
<event>
 5   0  0.9215829E-04  0.1300823E+04  0.7818609E-02  0.9028913E-01
       -1   -1    0    0    0  501  0.00000000000E+00  0.00000000000E+00  0.11954055010E+04  0.11954055010E+04  0.50400001928E-02 0.  1.
        1   -1    0    0  501    0  0.00000000000E+00  0.00000000000E+00 -0.35388409004E+03  0.35388409008E+03  0.50400001928E-02 0. -1.
    10030    2    1    2    0    0  0.00000000000E+00  0.00000000000E+00  0.84152141099E+03  0.15492895911E+04  0.13008227981E+04 0.  0.
        3    1    3    3  502    0  0.21385861934E+03  0.26063800389E+03 -0.24168710139E+03  0.41482567823E+03  0.10100000352E+00 0. -1.
       -3    1    3    3    0  502 -0.21385861934E+03 -0.26063800389E+03  0.10832085124E+04  0.11344639129E+04  0.10100000352E+00 0.  1.
</event>
<event>
 5   0  0.9027076E-04  0.1306554E+04  0.7818609E-02  0.9024384E-01
       -1   -1    0    0    0  501  0.00000000000E+00  0.00000000000E+00  0.58419725842E+03  0.58419725844E+03  0.50400001928E-02 0.  1.
        1   -1    0    0  501    0  0.00000000000E+00  0.00000000000E+00 -0.73052520535E+03  0.73052520537E+03  0.50400001928E-02 0. -1.
    10030    2    1    2    0    0  0.00000000000E+00  0.00000000000E+00 -0.14632794693E+03  0.13147224638E+04  0.13065539747E+04 0.  0.
        5    1    3    3  502    0 -0.36516835832E+03 -0.27230709056E+03  0.39800445620E+03  0.60492042339E+03  0.46999998093E+01 0.  1.
       -5    1    3    3    0  502  0.36516835832E+03  0.27230709056E+03 -0.54433240313E+03  0.70980204041E+03  0.46999998093E+01 0. -1.
</event>
<event>
 5   0  0.1667342E-03  0.1293318E+04  0.7818609E-02  0.9034881E-01
        2   -1    0    0  501    0  0.00000000000E+00  0.00000000000E+00  0.22076182961E+04  0.22076182961E+04  0.25500000920E-02 0. -1.
       -2   -1    0    0    0  501  0.00000000000E+00  0.00000000000E+00 -0.18942043382E+03  0.18942043384E+03  0.25500000920E-02 0.  1.
    10030    2    1    2    0    0  0.00000000000E+00  0.00000000000E+00  0.20181978623E+04  0.23970387300E+04  0.12933182368E+04 0.  0.
        5    1    3    3  502    0 -0.27124578823E+03 -0.31410777176E+03  0.90013378902E+02  0.42469102685E+03  0.46999998093E+01 0.  1.
       -5    1    3    3    0  502  0.27124578823E+03  0.31410777176E+03  0.19281844834E+04  0.19723477031E+04  0.46999998093E+01 0. -1.
</event>
<event>
 5   0  0.9098192E-04  0.1296515E+04  0.7818609E-02  0.9032333E-01
       -1   -1    0    0    0  501  0.00000000000E+00  0.00000000000E+00  0.59202115121E+03  0.59202115123E+03  0.50400001928E-02 0. -1.
        1   -1    0    0  501    0  0.00000000000E+00  0.00000000000E+00 -0.70983577001E+03  0.70983577003E+03  0.50400001928E-02 0.  1.
    10030    2    1    2    0    0  0.00000000000E+00  0.00000000000E+00 -0.11781461880E+03  0.13018569213E+04  0.12965150053E+04 0.  0.
        1    1    3    3  502    0 -0.87107736951E+02  0.51851991302E+03 -0.43966240052E+03  0.68538579245E+03  0.50400001928E-02 0.  1.
       -1    1    3    3    0  502  0.87107736951E+02 -0.51851991302E+03  0.32184778171E+03  0.61647112881E+03  0.50400001928E-02 0. -1.
</event>
<event>
 5   0  0.9110949E-04  0.1290878E+04  0.7818609E-02  0.9036830E-01
       -1   -1    0    0    0  501  0.00000000000E+00  0.00000000000E+00  0.20962103471E+03  0.20962103477E+03  0.50400001928E-02 0.  1.
        1   -1    0    0  501    0  0.00000000000E+00  0.00000000000E+00 -0.19873555097E+04  0.19873555097E+04  0.50400001928E-02 0. -1.
    10030    2    1    2    0    0  0.00000000000E+00  0.00000000000E+00 -0.17777344750E+04  0.21969765445E+04  0.12908780242E+04 0.  0.
        2    1    3    3  502    0 -0.13919610766E+03 -0.28637947739E+02 -0.19603982656E+04  0.19655424311E+04  0.25500000920E-02 0. -1.
       -2    1    3    3    0  502  0.13919610766E+03  0.28637947739E+02  0.18266379064E+03  0.23143411342E+03  0.25500000920E-02 0.  1.
</event>
<event>
 5   0  0.1700511E-03  0.1266070E+04  0.7818609E-02  0.9056913E-01
        2   -1    0    0  501    0  0.00000000000E+00  0.00000000000E+00  0.90978019442E+03  0.90978019442E+03  0.25500000920E-02 0.  1.
       -2   -1    0    0    0  501  0.00000000000E+00  0.00000000000E+00 -0.44047256125E+03  0.44047256126E+03  0.25500000920E-02 0. -1.
    10030    2    1    2    0    0  0.00000000000E+00  0.00000000000E+00  0.46930763316E+03  0.13502527557E+04  0.12660698439E+04 0.  0.
        2    1    3    3  502    0 -0.27413117170E+03  0.22927967457E+03 -0.32259810136E+03  0.48144221198E+03  0.25500000920E-02 0. -1.
       -2    1    3    3    0  502  0.27413117170E+03 -0.22927967457E+03  0.79190573453E+03  0.86881054370E+03  0.25500000920E-02 0.  1.
</event>
<event>
 5   0  0.1700511E-03  0.1304394E+04  0.7818609E-02  0.9026088E-01
       -2   -1    0    0    0  501  0.00000000000E+00  0.00000000000E+00  0.59035090136E+03  0.59035090137E+03  0.25500000920E-02 0. -1.
        2   -1    0    0  501    0  0.00000000000E+00  0.00000000000E+00 -0.72052167662E+03  0.72052167662E+03  0.25500000920E-02 0.  1.
    10030    2    1    2    0    0  0.00000000000E+00  0.00000000000E+00 -0.13017077526E+03  0.13108725780E+04  0.13043935315E+04 0.  0.
        2    1    3    3  502    0  0.16257749605E+03 -0.19574356314E+03 -0.66857932953E+03  0.71536375685E+03  0.25500000920E-02 0.  1.
       -2    1    3    3    0  502 -0.16257749605E+03  0.19574356314E+03  0.53840855427E+03  0.59550882114E+03  0.25500000920E-02 0. -1.
</event>
<event>
 5   0  0.1694675E-03  0.1293738E+04  0.7818609E-02  0.9034546E-01
       -2   -1    0    0    0  501  0.00000000000E+00  0.00000000000E+00  0.60006689627E+03  0.60006689627E+03  0.25500000920E-02 0. -1.
        2   -1    0    0  501    0  0.00000000000E+00  0.00000000000E+00 -0.69732171076E+03  0.69732171077E+03  0.25500000920E-02 0.  1.
    10030    2    1    2    0    0  0.00000000000E+00  0.00000000000E+00 -0.97254814492E+02  0.12973886070E+04  0.12937382652E+04 0.  0.
        4    1    3    3  502    0 -0.47842200344E+03  0.14368645475E+03 -0.46076711687E+03  0.67958911082E+03  0.12699999809E+01 0.  1.
       -4    1    3    3    0  502  0.47842200344E+03 -0.14368645475E+03  0.36351230238E+03  0.61779949622E+03  0.12699999809E+01 0. -1.
</event>
<event>
 5   0  0.1714861E-03  0.1311012E+04  0.7818609E-02  0.9020878E-01
       -2   -1    0    0    0  501  0.00000000000E+00  0.00000000000E+00  0.17583866016E+03  0.17583866018E+03  0.25500000920E-02 0.  1.
        2   -1    0    0  501    0  0.00000000000E+00  0.00000000000E+00 -0.24436510113E+04  0.24436510113E+04  0.25500000920E-02 0. -1.
    10030    2    1    2    0    0  0.00000000000E+00  0.00000000000E+00 -0.22678123512E+04  0.26194896715E+04  0.13110123108E+04 0.  0.
        1    1    3    3  502    0 -0.14031255847E+01 -0.56418658587E+03 -0.46707909361E+03  0.73244204695E+03  0.50400001928E-02 0.  1.
       -1    1    3    3    0  502  0.14031255847E+01  0.56418658587E+03 -0.18007332576E+04  0.18870476246E+04  0.50400001928E-02 0. -1.
</event>
<event>
 5   0  0.6284125E-04  0.1305215E+04  0.7818609E-02  0.9025440E-01
       -4   -1    0    0    0  501  0.00000000000E+00  0.00000000000E+00  0.35905698604E+03  0.35905923206E+03  0.12699999809E+01 0. -1.
        4   -1    0    0  501    0  0.00000000000E+00  0.00000000000E+00 -0.11861462995E+04  0.11861469794E+04  0.12699999809E+01 0.  1.
    10030    2    1    2    0    0  0.00000000000E+00  0.00000000000E+00 -0.82708931348E+03  0.15452062115E+04  0.13052147346E+04 0.  0.
        3    1    3    3  502    0 -0.54137573647E+03 -0.32171226190E+03 -0.21086431299E+03  0.66411613155E+03  0.10100000352E+00 0.  1.
       -3    1    3    3    0  502  0.54137573647E+03  0.32171226190E+03 -0.61622500049E+03  0.88109007991E+03  0.10100000352E+00 0. -1.
</event>
<event>
 5   0  0.1694675E-03  0.1311665E+04  0.7818609E-02  0.9020366E-01
       -2   -1    0    0    0  501  0.00000000000E+00  0.00000000000E+00  0.37373830911E+03  0.37373830912E+03  0.25500000920E-02 0. -1.
        2   -1    0    0  501    0  0.00000000000E+00  0.00000000000E+00 -0.11508478954E+04  0.11508478954E+04  0.25500000920E-02 0.  1.
    10030    2    1    2    0    0  0.00000000000E+00  0.00000000000E+00 -0.77710958633E+03  0.15245862046E+04  0.13116645097E+04 0.  0.
        4    1    3    3  502    0  0.47427552061E+03  0.39199553196E+03 -0.65237173115E+03  0.89676544037E+03  0.12699999809E+01 0.  1.
       -4    1    3    3    0  502 -0.47427552061E+03 -0.39199553196E+03 -0.12473785517E+03  0.62782076419E+03  0.12699999809E+01 0. -1.
</event>
<event>
 5   0  0.1623890E-03  0.1327372E+04  0.7818609E-02  0.9008136E-01
        2   -1    0    0  501    0  0.00000000000E+00  0.00000000000E+00  0.70122582926E+03  0.70122582926E+03  0.25500000920E-02 0. -1.
       -2   -1    0    0    0  501  0.00000000000E+00  0.00000000000E+00 -0.62815613316E+03  0.62815613317E+03  0.25500000920E-02 0.  1.
    10030    2    1    2    0    0  0.00000000000E+00  0.00000000000E+00  0.73069696096E+02  0.13293819624E+04  0.13273722995E+04 0.  0.
        3    1    3    3  502    0  0.36458171584E+03  0.53465263062E+03  0.18408757945E+03  0.67280124113E+03  0.10100000352E+00 0.  1.
       -3    1    3    3    0  502 -0.36458171584E+03 -0.53465263062E+03 -0.11101788335E+03  0.65658072130E+03  0.10100000352E+00 0. -1.
</event>
<event>
 5   0  0.6284125E-04  0.1301976E+04  0.7818609E-02  0.9028000E-01
        3   -1    0    0  501    0  0.00000000000E+00  0.00000000000E+00  0.35214539133E+03  0.35214540582E+03  0.10100000352E+00 0.  1.
       -3   -1    0    0    0  501  0.00000000000E+00  0.00000000000E+00 -0.12034377180E+04  0.12034377222E+04  0.10100000352E+00 0. -1.
    10030    2    1    2    0    0  0.00000000000E+00  0.00000000000E+00 -0.85129232664E+03  0.15555831280E+04  0.13019755154E+04 0.  0.
        1    1    3    3  502    0  0.51500581276E+03  0.17722908764E+03 -0.85167423106E+03  0.10109352761E+04  0.50400001928E-02 0. -1.
       -1    1    3    3    0  502 -0.51500581276E+03 -0.17722908764E+03  0.38190442169E+00  0.54464785188E+03  0.50400001928E-02 0.  1.
</event>
<event>
 5   0  0.6284125E-04  0.1297574E+04  0.7818609E-02  0.9031491E-01
       -3   -1    0    0    0  501  0.00000000000E+00  0.00000000000E+00  0.16003191623E+04  0.16003191655E+04  0.10100000352E+00 0.  1.
        3   -1    0    0  501    0  0.00000000000E+00  0.00000000000E+00 -0.26302542669E+03  0.26302544608E+03  0.10100000352E+00 0. -1.
    10030    2    1    2    0    0  0.00000000000E+00  0.00000000000E+00  0.13372937356E+04  0.18633446116E+04  0.12975741236E+04 0.  0.
        4    1    3    3  502    0 -0.35193077907E+03  0.46987527656E+03  0.27202144136E+03  0.64702034453E+03  0.12699999809E+01 0. -1.
       -4    1    3    3    0  502  0.35193077907E+03 -0.46987527656E+03  0.10652722943E+04  0.12163242671E+04  0.12699999809E+01 0.  1.
</event>
<event>
 5   0  0.9215829E-04  0.1299375E+04  0.7818609E-02  0.9030061E-01
       -1   -1    0    0    0  501  0.00000000000E+00  0.00000000000E+00  0.11180065724E+04  0.11180065724E+04  0.50400001928E-02 0.  1.
        1   -1    0    0  501    0  0.00000000000E+00  0.00000000000E+00 -0.37754135490E+03  0.37754135493E+03  0.50400001928E-02 0. -1.
    10030    2    1    2    0    0  0.00000000000E+00  0.00000000000E+00  0.74046521751E+03  0.14955479273E+04  0.12993747976E+04 0.  0.
        3    1    3    3  502    0 -0.28252013499E+03  0.76315933497E+02 -0.29738445138E+03  0.41722807972E+03  0.10100000352E+00 0. -1.
       -3    1    3    3    0  502  0.28252013499E+03 -0.76315933497E+02  0.10378496689E+04  0.10783198476E+04  0.10100000352E+00 0.  1.
</event>
<event>
 5   0  0.1667342E-03  0.1298941E+04  0.7818609E-02  0.9030405E-01
       -2   -1    0    0    0  501  0.00000000000E+00  0.00000000000E+00  0.62902086867E+03  0.62902086868E+03  0.25500000920E-02 0. -1.
        2   -1    0    0  501    0  0.00000000000E+00  0.00000000000E+00 -0.67058513787E+03  0.67058513788E+03  0.25500000920E-02 0.  1.
    10030    2    1    2    0    0  0.00000000000E+00  0.00000000000E+00 -0.41564269200E+02  0.12996060066E+04  0.12989411780E+04 0.  0.
        5    1    3    3  502    0  0.46129853611E+03 -0.42479480454E+03 -0.18981531476E+03  0.65520905755E+03  0.46999998093E+01 0.  1.
       -5    1    3    3    0  502 -0.46129853611E+03  0.42479480454E+03  0.14825104556E+03  0.64439694901E+03  0.46999998093E+01 0. -1.
</event>
<event>
 5   0  0.9081324E-04  0.1287115E+04  0.7818609E-02  0.9039846E-01
       -1   -1    0    0    0  501  0.00000000000E+00  0.00000000000E+00  0.64847350719E+03  0.64847350721E+03  0.50400001928E-02 0. -1.
        1   -1    0    0  501    0  0.00000000000E+00  0.00000000000E+00 -0.63867829435E+03  0.63867829437E+03  0.50400001928E-02 0.  1.
    10030    2    1    2    0    0  0.00000000000E+00  0.00000000000E+00  0.97952128426E+01  0.12871518016E+04  0.12871145303E+04 0.  0.
        4    1    3    3  502    0  0.45131073728E+03 -0.66583244457E+01  0.46364678994E+03  0.64706697767E+03  0.12699999809E+01 0. -1.
       -4    1    3    3    0  502 -0.45131073728E+03  0.66583244457E+01 -0.45385157709E+03  0.64008482391E+03  0.12699999809E+01 0.  1.
</event>
<event>
 5   0  0.1714861E-03  0.1298514E+04  0.7818609E-02  0.9030745E-01
       -2   -1    0    0    0  501  0.00000000000E+00  0.00000000000E+00  0.23876602020E+03  0.23876602021E+03  0.25500000920E-02 0.  1.
        2   -1    0    0  501    0  0.00000000000E+00  0.00000000000E+00 -0.17654713322E+04  0.17654713322E+04  0.25500000920E-02 0. -1.
    10030    2    1    2    0    0  0.00000000000E+00  0.00000000000E+00 -0.15267053120E+04  0.20042373524E+04  0.12985138640E+04 0.  0.
        1    1    3    3  502    0  0.47247483581E+03 -0.44489433038E+03 -0.79308741713E+03  0.10247687968E+04  0.50400001928E-02 0. -1.
       -1    1    3    3    0  502 -0.47247483581E+03  0.44489433038E+03 -0.73361789483E+03  0.97946855556E+03  0.50400001928E-02 0.  1.
</event>
<event>
 5   0  0.6284125E-04  0.1271237E+04  0.7818609E-02  0.9052691E-01
        3   -1    0    0  501    0  0.00000000000E+00  0.00000000000E+00  0.38809900937E+03  0.38809902252E+03  0.10100000352E+00 0.  1.
       -3   -1    0    0    0  501  0.00000000000E+00  0.00000000000E+00 -0.10409994718E+04  0.10409994767E+04  0.10100000352E+00 0. -1.
    10030    2    1    2    0    0  0.00000000000E+00  0.00000000000E+00 -0.65290046239E+03  0.14290984992E+04  0.12712369986E+04 0.  0.
        5    1    3    3  502    0 -0.39899707124E+03 -0.16062538514E+02 -0.88235908910E+03  0.96852275147E+03  0.46999998093E+01 0. -1.
       -5    1    3    3    0  502  0.39899707124E+03  0.16062538514E+02  0.22945862671E+03  0.46057574770E+03  0.46999998093E+01 0.  1.
</event>
<event>
 5   0  0.1700511E-03  0.1294199E+04  0.7818609E-02  0.9034178E-01
        2   -1    0    0  501    0  0.00000000000E+00  0.00000000000E+00  0.18022060768E+04  0.18022060768E+04  0.25500000920E-02 0.  1.
       -2   -1    0    0    0  501  0.00000000000E+00  0.00000000000E+00 -0.23234726965E+03  0.23234726966E+03  0.25500000920E-02 0. -1.
    10030    2    1    2    0    0  0.00000000000E+00  0.00000000000E+00  0.15698588071E+04  0.20345533464E+04  0.12941988430E+04 0.  0.
        2    1    3    3  502    0 -0.30369107870E+03  0.57138437762E+03  0.77642241311E+03  0.10107126901E+04  0.25500000920E-02 0.  1.
       -2    1    3    3    0  502  0.30369107870E+03 -0.57138437762E+03  0.79343639400E+03  0.10238406563E+04  0.25500000920E-02 0. -1.
</event>
<event>
 5   0  0.9027076E-04  0.1288944E+04  0.7818609E-02  0.9038379E-01
       -1   -1    0    0    0  501  0.00000000000E+00  0.00000000000E+00  0.49060608602E+03  0.49060608605E+03  0.50400001928E-02 0. -1.
        1   -1    0    0  501    0  0.00000000000E+00  0.00000000000E+00 -0.84659434096E+03  0.84659434098E+03  0.50400001928E-02 0.  1.
    10030    2    1    2    0    0  0.00000000000E+00  0.00000000000E+00 -0.35598825494E+03  0.13372004270E+04  0.12889442751E+04 0.  0.
        5    1    3    3  502    0 -0.49678382692E+03  0.30972004067E+01 -0.60387303845E+03  0.78197730140E+03  0.46999998093E+01 0.  1.
       -5    1    3    3    0  502  0.49678382692E+03 -0.30972004067E+01  0.24788478351E+03  0.55522312563E+03  0.46999998093E+01 0. -1.
</event>
<event>
 5   0  0.1694675E-03  0.1299004E+04  0.7818609E-02  0.9030356E-01
        2   -1    0    0  501    0  0.00000000000E+00  0.00000000000E+00  0.28646681951E+04  0.28646681951E+04  0.25500000920E-02 0.  1.
       -2   -1    0    0    0  501  0.00000000000E+00  0.00000000000E+00 -0.14726053303E+03  0.14726053305E+03  0.25500000920E-02 0. -1.
    10030    2    1    2    0    0  0.00000000000E+00  0.00000000000E+00  0.27174076621E+04  0.30119287281E+04  0.12990035649E+04 0.  0.
        4    1    3    3  502    0  0.26447235949E+03 -0.27140413926E+03  0.25817648467E+04  0.26094285145E+04  0.12699999809E+01 0.  1.
       -4    1    3    3    0  502 -0.26447235949E+03  0.27140413926E+03  0.13564281540E+03  0.40250021368E+03  0.12699999809E+01 0. -1.
</event>
<event>
 5   0  0.1667342E-03  0.1348397E+04  0.7818609E-02  0.8992043E-01
        2   -1    0    0  501    0  0.00000000000E+00  0.00000000000E+00  0.13564083542E+04  0.13564083542E+04  0.25500000920E-02 0. -1.
       -2   -1    0    0    0  501  0.00000000000E+00  0.00000000000E+00 -0.33510811636E+03  0.33510811637E+03  0.25500000920E-02 0.  1.
    10030    2    1    2    0    0  0.00000000000E+00  0.00000000000E+00  0.10213002378E+04  0.16915164706E+04  0.13483967496E+04 0.  0.
        5    1    3    3  502    0 -0.13007464931E+03  0.62565213653E+03  0.78017432568E+03  0.10084909909E+04  0.46999998093E+01 0. -1.
       -5    1    3    3    0  502  0.13007464931E+03 -0.62565213653E+03  0.24112591217E+03  0.68302547965E+03  0.46999998093E+01 0.  1.
</event>
<event>
 5   0  0.9081324E-04  0.1304746E+04  0.7818609E-02  0.9025810E-01
        1   -1    0    0  501    0  0.00000000000E+00  0.00000000000E+00  0.60927114115E+03  0.60927114117E+03  0.50400001928E-02 0.  1.
       -1   -1    0    0    0  501  0.00000000000E+00  0.00000000000E+00 -0.69852449166E+03  0.69852449168E+03  0.50400001928E-02 0. -1.
    10030    2    1    2    0    0  0.00000000000E+00  0.00000000000E+00 -0.89253350512E+02  0.13077956328E+04  0.13047464339E+04 0.  0.
        4    1    3    3  502    0  0.50331371350E+03  0.35193771612E+03  0.17589737750E+03  0.63884767397E+03  0.12699999809E+01 0. -1.
       -4    1    3    3    0  502 -0.50331371350E+03 -0.35193771612E+03 -0.26515072801E+03  0.66894795888E+03  0.12699999809E+01 0.  1.
</event>
<event>
 5   0  0.1623890E-03  0.1312160E+04  0.7818609E-02  0.9019977E-01
       -2   -1    0    0    0  501  0.00000000000E+00  0.00000000000E+00  0.53576542537E+03  0.53576542537E+03  0.25500000920E-02 0. -1.
        2   -1    0    0  501    0  0.00000000000E+00  0.00000000000E+00 -0.80341351315E+03  0.80341351315E+03  0.25500000920E-02 0.  1.
    10030    2    1    2    0    0  0.00000000000E+00  0.00000000000E+00 -0.26764808778E+03  0.13391789385E+04  0.13121603296E+04 0.  0.
        3    1    3    3  502    0 -0.27210022767E+03  0.50653747071E+03 -0.45627656305E+03  0.73403477800E+03  0.10100000352E+00 0.  1.
       -3    1    3    3    0  502  0.27210022767E+03 -0.50653747071E+03  0.18862847526E+03  0.60514416052E+03  0.10100000352E+00 0. -1.
</event>
<event>
 5   0  0.9027076E-04  0.1316059E+04  0.7818609E-02  0.9016926E-01
        1   -1    0    0  501    0  0.00000000000E+00  0.00000000000E+00  0.92959114879E+03  0.92959114881E+03  0.50400001928E-02 0.  1.
       -1   -1    0    0    0  501  0.00000000000E+00  0.00000000000E+00 -0.46579935211E+03  0.46579935214E+03  0.50400001928E-02 0. -1.
    10030    2    1    2    0    0  0.00000000000E+00  0.00000000000E+00  0.46379179668E+03  0.13953905009E+04  0.13160592006E+04 0.  0.
        5    1    3    3  502    0  0.28242269702E+03  0.54622649634E+03 -0.16433450329E+02  0.61515698272E+03  0.46999998093E+01 0. -1.
       -5    1    3    3    0  502 -0.28242269702E+03 -0.54622649634E+03  0.48022524701E+03  0.78023351823E+03  0.46999998093E+01 0.  1.
</event>
<event>
 5   0  0.9215829E-04  0.1298516E+04  0.7818609E-02  0.9030742E-01
        1   -1    0    0  501    0  0.00000000000E+00  0.00000000000E+00  0.98092418730E+03  0.98092418731E+03  0.50400001928E-02 0.  1.
       -1   -1    0    0    0  501  0.00000000000E+00  0.00000000000E+00 -0.42973375206E+03  0.42973375209E+03  0.50400001928E-02 0. -1.
    10030    2    1    2    0    0  0.00000000000E+00  0.00000000000E+00  0.55119043524E+03  0.14106579394E+04  0.12985164327E+04 0.  0.
        3    1    3    3  502    0  0.18050966887E+03  0.60246773177E+03  0.45071554960E+03  0.77375424085E+03  0.10100000352E+00 0. -1.
       -3    1    3    3    0  502 -0.18050966887E+03 -0.60246773177E+03  0.10047488563E+03  0.63690369855E+03  0.10100000352E+00 0.  1.
</event>
<event>
 5   0  0.9215829E-04  0.1278037E+04  0.7818609E-02  0.9047166E-01
       -1   -1    0    0    0  501  0.00000000000E+00  0.00000000000E+00  0.48317080058E+03  0.48317080060E+03  0.50400001928E-02 0. -1.
        1   -1    0    0  501    0  0.00000000000E+00  0.00000000000E+00 -0.84513522724E+03  0.84513522725E+03  0.50400001928E-02 0.  1.
    10030    2    1    2    0    0  0.00000000000E+00  0.00000000000E+00 -0.36196442666E+03  0.13283060279E+04  0.12780370329E+04 0.  0.
        3    1    3    3  502    0  0.33930088484E+03 -0.30184894620E+03  0.28626330432E+03  0.53682824662E+03  0.10100000352E+00 0. -1.
       -3    1    3    3    0  502 -0.33930088484E+03  0.30184894620E+03 -0.64822773098E+03  0.79147778123E+03  0.10100000352E+00 0.  1.
</event>
<event>
 5   0  0.9098192E-04  0.1296447E+04  0.7818609E-02  0.9032388E-01
        1   -1    0    0  501    0  0.00000000000E+00  0.00000000000E+00  0.17913264379E+04  0.17913264379E+04  0.50400001928E-02 0.  1.
       -1   -1    0    0    0  501  0.00000000000E+00  0.00000000000E+00 -0.23457121871E+03  0.23457121877E+03  0.50400001928E-02 0. -1.
    10030    2    1    2    0    0  0.00000000000E+00  0.00000000000E+00  0.15567552191E+04  0.20258976566E+04  0.12964468762E+04 0.  0.
        1    1    3    3  502    0 -0.60565105126E+03 -0.73049204864E+02  0.43585956499E+03  0.74974858628E+03  0.50400001928E-02 0. -1.
       -1    1    3    3    0  502  0.60565105126E+03  0.73049204864E+02  0.11208956542E+04  0.12761490703E+04  0.50400001928E-02 0.  1.
</event>
<event>
 5   0  0.1623890E-03  0.1290373E+04  0.7818609E-02  0.9037234E-01
       -2   -1    0    0    0  501  0.00000000000E+00  0.00000000000E+00  0.24167221778E+03  0.24167221780E+03  0.25500000920E-02 0. -1.
        2   -1    0    0  501    0  0.00000000000E+00  0.00000000000E+00 -0.17224394741E+04  0.17224394741E+04  0.25500000920E-02 0.  1.
    10030    2    1    2    0    0  0.00000000000E+00  0.00000000000E+00 -0.14807672563E+04  0.19641116919E+04  0.12903732293E+04 0.  0.
        3    1    3    3  502    0  0.34755598114E+02  0.12164661054E+02  0.24007144271E+03  0.24287906124E+03  0.10100000352E+00 0. -1.
       -3    1    3    3    0  502 -0.34755598114E+02 -0.12164661054E+02 -0.17208386990E+04  0.17212326307E+04  0.10100000352E+00 0.  1.
</event>
<event>
 5   0  0.6284125E-04  0.1312466E+04  0.7818609E-02  0.9019738E-01
       -3   -1    0    0    0  501  0.00000000000E+00  0.00000000000E+00  0.54602225065E+03  0.54602225999E+03  0.10100000352E+00 0.  1.
        3   -1    0    0  501    0  0.00000000000E+00  0.00000000000E+00 -0.78868856892E+03  0.78868857538E+03  0.10100000352E+00 0. -1.
    10030    2    1    2    0    0  0.00000000000E+00  0.00000000000E+00 -0.24266631826E+03  0.13347108354E+04  0.13124656460E+04 0.  0.
        2    1    3    3  502    0 -0.41008398631E+03  0.18371752787E+03  0.36502006476E+03  0.57893061204E+03  0.25500000920E-02 0.  1.
       -2    1    3    3    0  502  0.41008398631E+03 -0.18371752787E+03 -0.60768638302E+03  0.75578022334E+03  0.25500000920E-02 0. -1.
</event>
<event>
 5   0  0.1623890E-03  0.1343755E+04  0.7818609E-02  0.8995569E-01
        2   -1    0    0  501    0  0.00000000000E+00  0.00000000000E+00  0.70282414039E+03  0.70282414039E+03  0.25500000920E-02 0. -1.
       -2   -1    0    0    0  501  0.00000000000E+00  0.00000000000E+00 -0.64229363588E+03  0.64229363589E+03  0.25500000920E-02 0.  1.
    10030    2    1    2    0    0  0.00000000000E+00  0.00000000000E+00  0.60530504506E+02  0.13451177763E+04  0.13437551451E+04 0.  0.
        3    1    3    3  502    0  0.50780353046E+03 -0.43403105358E+03 -0.41724858771E+02  0.66931932220E+03  0.10100000352E+00 0.  1.
       -3    1    3    3    0  502 -0.50780353046E+03  0.43403105358E+03  0.10225536328E+03  0.67579845409E+03  0.10100000352E+00 0. -1.
</event>
<event>
 5   0  0.1667342E-03  0.1292171E+04  0.7818609E-02  0.9035797E-01
       -2   -1    0    0    0  501  0.00000000000E+00  0.00000000000E+00  0.40489500672E+03  0.40489500672E+03  0.25500000920E-02 0.  1.
        2   -1    0    0  501    0  0.00000000000E+00  0.00000000000E+00 -0.10309503229E+04  0.10309503229E+04  0.25500000920E-02 0. -1.
    10030    2    1    2    0    0  0.00000000000E+00  0.00000000000E+00 -0.62605531619E+03  0.14358453296E+04  0.12921712548E+04 0.  0.
        5    1    3    3  502    0 -0.60961288137E+03 -0.40041486994E+02 -0.54657117290E+03  0.81975198862E+03  0.46999998093E+01 0.  1.
       -5    1    3    3    0  502  0.60961288137E+03  0.40041486994E+02 -0.79484143299E+02  0.61609334102E+03  0.46999998093E+01 0. -1.
</event>
<event>
 5   0  0.9110949E-04  0.1493655E+04  0.7818609E-02  0.8888683E-01
        1   -1    0    0  501    0  0.00000000000E+00  0.00000000000E+00  0.88663984606E+03  0.88663984608E+03  0.50400001928E-02 0. -1.
       -1   -1    0    0    0  501  0.00000000000E+00  0.00000000000E+00 -0.62906223299E+03  0.62906223301E+03  0.50400001928E-02 0.  1.
    10030    2    1    2    0    0  0.00000000000E+00  0.00000000000E+00  0.25757761307E+03  0.15157020791E+04  0.14936554374E+04 0.  0.
        2    1    3    3  502    0 -0.67387166030E+03 -0.19550774206E+03  0.38834801938E+03  0.80196039548E+03  0.25500000920E-02 0. -1.
       -2    1    3    3    0  502  0.67387166030E+03  0.19550774206E+03 -0.13077040631E+03  0.71374168361E+03  0.25500000920E-02 0.  1.
</event>
<event>
 5   0  0.9081324E-04  0.1313171E+04  0.7818609E-02  0.9019185E-01
       -1   -1    0    0    0  501  0.00000000000E+00  0.00000000000E+00  0.30714599927E+03  0.30714599931E+03  0.50400001928E-02 0. -1.
        1   -1    0    0  501    0  0.00000000000E+00  0.00000000000E+00 -0.14035813298E+04  0.14035813298E+04  0.50400001928E-02 0.  1.
    10030    2    1    2    0    0  0.00000000000E+00  0.00000000000E+00 -0.10964353305E+04  0.17107273291E+04  0.13131708040E+04 0.  0.
        4    1    3    3  502    0 -0.56306462491E+02 -0.47705559781E+03  0.34897841768E+02  0.48163464719E+03  0.12699999809E+01 0.  1.
       -4    1    3    3    0  502  0.56306462491E+02  0.47705559781E+03 -0.11313331723E+04  0.12290926819E+04  0.12699999809E+01 0. -1.
</event>
<event>
 5   0  0.1700511E-03  0.1297386E+04  0.7818609E-02  0.9031640E-01
       -2   -1    0    0    0  501  0.00000000000E+00  0.00000000000E+00  0.65724403091E+03  0.65724403091E+03  0.25500000920E-02 0. -1.
        2   -1    0    0  501    0  0.00000000000E+00  0.00000000000E+00 -0.64025364318E+03  0.64025364318E+03  0.25500000920E-02 0.  1.
    10030    2    1    2    0    0  0.00000000000E+00  0.00000000000E+00  0.16990387730E+02  0.12974976741E+04  0.12973864270E+04 0.  0.
        2    1    3    3  502    0 -0.41303940754E+03  0.50016605225E+03  0.14433147477E+02  0.64882659297E+03  0.25500000920E-02 0. -1.
       -2    1    3    3    0  502  0.41303940754E+03 -0.50016605225E+03  0.25572402538E+01  0.64867108112E+03  0.25500000920E-02 0.  1.
</event>
<event>
 5   0  0.1623890E-03  0.1293407E+04  0.7818609E-02  0.9034810E-01
       -2   -1    0    0    0  501  0.00000000000E+00  0.00000000000E+00  0.45838391673E+03  0.45838391674E+03  0.25500000920E-02 0.  1.
        2   -1    0    0  501    0  0.00000000000E+00  0.00000000000E+00 -0.91239095587E+03  0.91239095588E+03  0.25500000920E-02 0. -1.
    10030    2    1    2    0    0  0.00000000000E+00  0.00000000000E+00 -0.45400703914E+03  0.13707748726E+04  0.12934068810E+04 0.  0.
        3    1    3    3  502    0  0.47741639742E+03 -0.60674554508E+02 -0.68483659556E+03  0.83702388909E+03  0.10100000352E+00 0. -1.
       -3    1    3    3    0  502 -0.47741639742E+03  0.60674554508E+02  0.23082955642E+03  0.53375098352E+03  0.10100000352E+00 0.  1.
</event>
<event>
 5   0  0.9098192E-04  0.1288447E+04  0.7818609E-02  0.9038777E-01
       -1   -1    0    0    0  501  0.00000000000E+00  0.00000000000E+00  0.71986724999E+03  0.71986725001E+03  0.50400001928E-02 0.  1.
        1   -1    0    0  501    0  0.00000000000E+00  0.00000000000E+00 -0.57652827769E+03  0.57652827772E+03  0.50400001928E-02 0. -1.
    10030    2    1    2    0    0  0.00000000000E+00  0.00000000000E+00  0.14333897230E+03  0.12963955277E+04  0.12884468570E+04 0.  0.
        1    1    3    3  502    0  0.17099792825E+03 -0.90474567445E+02  0.68995033054E+03  0.71655941656E+03  0.50400001928E-02 0.  1.
       -1    1    3    3    0  502 -0.17099792825E+03  0.90474567445E+02 -0.54661135825E+03  0.57983611116E+03  0.50400001928E-02 0. -1.
</event>
<event>
 5   0  0.1667342E-03  0.1304097E+04  0.7818609E-02  0.9026322E-01
        2   -1    0    0  501    0  0.00000000000E+00  0.00000000000E+00  0.87240070477E+03  0.87240070478E+03  0.25500000920E-02 0.  1.
       -2   -1    0    0    0  501  0.00000000000E+00  0.00000000000E+00 -0.48735348729E+03  0.48735348729E+03  0.25500000920E-02 0. -1.
    10030    2    1    2    0    0  0.00000000000E+00  0.00000000000E+00  0.38504721749E+03  0.13597541921E+04  0.13040974286E+04 0.  0.
        5    1    3    3  502    0  0.28815082836E+03  0.31777151093E+03 -0.31948966078E+03  0.53488818120E+03  0.46999998093E+01 0. -1.
       -5    1    3    3    0  502 -0.28815082836E+03 -0.31777151093E+03  0.70453687827E+03  0.82486601087E+03  0.46999998093E+01 0.  1.
</event>
<event>
 5   0  0.9081324E-04  0.1305661E+04  0.7818609E-02  0.9025088E-01
       -1   -1    0    0    0  501  0.00000000000E+00  0.00000000000E+00  0.21632120806E+03  0.21632120812E+03  0.50400001928E-02 0. -1.
        1   -1    0    0  501    0  0.00000000000E+00  0.00000000000E+00 -0.19701620920E+04  0.19701620920E+04  0.50400001928E-02 0.  1.
    10030    2    1    2    0    0  0.00000000000E+00  0.00000000000E+00 -0.17538408840E+04  0.21864833002E+04  0.13056612790E+04 0.  0.
        4    1    3    3  502    0 -0.11569777171E+03 -0.60851683645E+03 -0.12221822220E+04  0.13701860134E+04  0.12699999809E+01 0.  1.
       -4    1    3    3    0  502  0.11569777171E+03  0.60851683645E+03 -0.53165866196E+03  0.81629728676E+03  0.12699999809E+01 0. -1.
</event>
<event>
 5   0  0.9027076E-04  0.1296308E+04  0.7818609E-02  0.9032498E-01
       -1   -1    0    0    0  501  0.00000000000E+00  0.00000000000E+00  0.38178840917E+03  0.38178840920E+03  0.50400001928E-02 0. -1.
        1   -1    0    0  501    0  0.00000000000E+00  0.00000000000E+00 -0.11003579413E+04  0.11003579413E+04  0.50400001928E-02 0.  1.
    10030    2    1    2    0    0  0.00000000000E+00  0.00000000000E+00 -0.71856953216E+03  0.14821463505E+04  0.12963084632E+04 0.  0.
        5    1    3    3  502    0  0.57117289241E+03  0.22826643650E+03 -0.59287108338E+03  0.85431975897E+03  0.46999998093E+01 0.  1.
       -5    1    3    3    0  502 -0.57117289241E+03 -0.22826643650E+03 -0.12569844878E+03  0.62782659157E+03  0.46999998093E+01 0. -1.
</event>
<event>
 5   0  0.1700511E-03  0.1306230E+04  0.7818609E-02  0.9024640E-01
       -2   -1    0    0    0  501  0.00000000000E+00  0.00000000000E+00  0.63019645146E+03  0.63019645146E+03  0.25500000920E-02 0.  1.
        2   -1    0    0  501    0  0.00000000000E+00  0.00000000000E+00 -0.67686662920E+03  0.67686662921E+03  0.25500000920E-02 0. -1.
    10030    2    1    2    0    0  0.00000000000E+00  0.00000000000E+00 -0.46670177745E+02  0.13070630807E+04  0.13062296090E+04 0.  0.
        2    1    3    3  502    0 -0.53044916058E+03 -0.37311823316E+03  0.53950324691E+02  0.65077197651E+03  0.25500000920E-02 0.  1.
       -2    1    3    3    0  502  0.53044916058E+03  0.37311823316E+03 -0.10062050244E+03  0.65629110415E+03  0.25500000920E-02 0. -1.
</event>
<event>
 5   0  0.9098192E-04  0.1067246E+04  0.7818609E-02  0.9237717E-01
        1   -1    0    0  501    0  0.00000000000E+00  0.00000000000E+00  0.12475209942E+04  0.12475209942E+04  0.50400001928E-02 0.  1.
       -1   -1    0    0    0  501  0.00000000000E+00  0.00000000000E+00 -0.22825557524E+03  0.22825557529E+03  0.50400001928E-02 0. -1.
    10030    2    1    2    0    0  0.00000000000E+00  0.00000000000E+00  0.10192654190E+04  0.14757765695E+04  0.10672462175E+04 0.  0.
        1    1    3    3  502    0  0.50827065397E+03  0.10590672350E+00  0.73437128392E+03  0.89310707733E+03  0.50400001928E-02 0. -1.
       -1    1    3    3    0  502 -0.50827065397E+03 -0.10590672350E+00  0.28489413505E+03  0.58266949218E+03  0.50400001928E-02 0.  1.
</event>
<event>
 5   0  0.9110949E-04  0.1284410E+04  0.7818609E-02  0.9042020E-01
        1   -1    0    0  501    0  0.00000000000E+00  0.00000000000E+00  0.20379170459E+04  0.20379170459E+04  0.50400001928E-02 0. -1.
       -1   -1    0    0    0  501  0.00000000000E+00  0.00000000000E+00 -0.20237693854E+03  0.20237693860E+03  0.50400001928E-02 0.  1.
    10030    2    1    2    0    0  0.00000000000E+00  0.00000000000E+00  0.18355401073E+04  0.22402939845E+04  0.12844102348E+04 0.  0.
        2    1    3    3  502    0  0.49801598048E+03  0.14892537351E+03  0.25996846218E+03  0.58119040342E+03  0.25500000920E-02 0.  1.
       -2    1    3    3    0  502 -0.49801598048E+03 -0.14892537351E+03  0.15755716451E+04  0.16591035811E+04  0.25500000920E-02 0. -1.
</event>
<event>
 5   0  0.1667342E-03  0.1289486E+04  0.7818609E-02  0.9037945E-01
        2   -1    0    0  501    0  0.00000000000E+00  0.00000000000E+00  0.86970575923E+03  0.86970575923E+03  0.25500000920E-02 0. -1.
       -2   -1    0    0    0  501  0.00000000000E+00  0.00000000000E+00 -0.47797031782E+03  0.47797031783E+03  0.25500000920E-02 0.  1.
    10030    2    1    2    0    0  0.00000000000E+00  0.00000000000E+00  0.39173544141E+03  0.13476760771E+04  0.12894860033E+04 0.  0.
        5    1    3    3  502    0  0.36813160202E+03 -0.52838818050E+03  0.22819074084E+03  0.68323352516E+03  0.46999998093E+01 0. -1.
       -5    1    3    3    0  502 -0.36813160202E+03  0.52838818050E+03  0.16354470057E+03  0.66444255190E+03  0.46999998093E+01 0.  1.
</event>
<event>
 5   0  0.1694675E-03  0.1291067E+04  0.7818609E-02  0.9036679E-01
        2   -1    0    0  501    0  0.00000000000E+00  0.00000000000E+00  0.20117389775E+04  0.20117389775E+04  0.25500000920E-02 0.  1.
       -2   -1    0    0    0  501  0.00000000000E+00  0.00000000000E+00 -0.20714085321E+03  0.20714085323E+03  0.25500000920E-02 0. -1.
    10030    2    1    2    0    0  0.00000000000E+00  0.00000000000E+00  0.18045981243E+04  0.22188798308E+04  0.12910667346E+04 0.  0.
        4    1    3    3  502    0  0.48134288883E+03 -0.39339389606E+03  0.12012733020E+04  0.13525933953E+04  0.12699999809E+01 0.  1.
       -4    1    3    3    0  502 -0.48134288883E+03  0.39339389606E+03  0.60332482231E+03  0.86628643543E+03  0.12699999809E+01 0. -1.
</event>
<event>
 5   0  0.9110949E-04  0.1305894E+04  0.7818609E-02  0.9024904E-01
       -1   -1    0    0    0  501  0.00000000000E+00  0.00000000000E+00  0.35636686195E+03  0.35636686198E+03  0.50400001928E-02 0. -1.
        1   -1    0    0  501    0  0.00000000000E+00  0.00000000000E+00 -0.11963514832E+04  0.11963514832E+04  0.50400001928E-02 0.  1.
    10030    2    1    2    0    0  0.00000000000E+00  0.00000000000E+00 -0.83998462125E+03  0.15527183452E+04  0.13058943662E+04 0.  0.
        2    1    3    3  502    0  0.46330185146E+03  0.26044055848E+03  0.30988314961E+02  0.53238911122E+03  0.25500000920E-02 0. -1.
       -2    1    3    3    0  502 -0.46330185146E+03 -0.26044055848E+03 -0.87097293621E+03  0.10203292340E+04  0.25500000920E-02 0.  1.
</event>
<event>
 5   0  0.9215829E-04  0.1297720E+04  0.7818609E-02  0.9031375E-01
       -1   -1    0    0    0  501  0.00000000000E+00  0.00000000000E+00  0.67784729608E+03  0.67784729610E+03  0.50400001928E-02 0.  1.
        1   -1    0    0  501    0  0.00000000000E+00  0.00000000000E+00 -0.62111257437E+03  0.62111257439E+03  0.50400001928E-02 0. -1.
    10030    2    1    2    0    0  0.00000000000E+00  0.00000000000E+00  0.56734721708E+02  0.12989598705E+04  0.12977202767E+04 0.  0.
        3    1    3    3  502    0 -0.16172430155E+03 -0.36574201547E+03  0.53983245332E+03  0.67181921635E+03  0.10100000352E+00 0.  1.
       -3    1    3    3    0  502  0.16172430155E+03  0.36574201547E+03 -0.48309773161E+03  0.62714065415E+03  0.10100000352E+00 0. -1.
</event>
<event>
 5   0  0.9110949E-04  0.1313959E+04  0.7818609E-02  0.9018569E-01
       -1   -1    0    0    0  501  0.00000000000E+00  0.00000000000E+00  0.67521846414E+03  0.67521846415E+03  0.50400001928E-02 0. -1.
        1   -1    0    0  501    0  0.00000000000E+00  0.00000000000E+00 -0.63923277427E+03  0.63923277429E+03  0.50400001928E-02 0.  1.
    10030    2    1    2    0    0  0.00000000000E+00  0.00000000000E+00  0.35985689861E+02  0.13144512384E+04  0.13139585566E+04 0.  0.
        2    1    3    3  502    0 -0.51814589936E+03  0.16461570831E+03  0.38697836238E+03  0.66732732403E+03  0.25500000920E-02 0. -1.
       -2    1    3    3    0  502  0.51814589936E+03 -0.16461570831E+03 -0.35099267252E+03  0.64712391442E+03  0.25500000920E-02 0.  1.
</event>
<event>
 5   0  0.1623890E-03  0.1298916E+04  0.7818609E-02  0.9030426E-01
        2   -1    0    0  501    0  0.00000000000E+00  0.00000000000E+00  0.14671088888E+04  0.14671088888E+04  0.25500000920E-02 0. -1.
       -2   -1    0    0    0  501  0.00000000000E+00  0.00000000000E+00 -0.28750112331E+03  0.28750112332E+03  0.25500000920E-02 0.  1.
    10030    2    1    2    0    0  0.00000000000E+00  0.00000000000E+00  0.11796077655E+04  0.17546100121E+04  0.12989156301E+04 0.  0.
        3    1    3    3  502    0  0.21584666247E+03 -0.51436906357E+03  0.10391038304E+04  0.11793651241E+04  0.10100000352E+00 0. -1.
       -3    1    3    3    0  502 -0.21584666247E+03  0.51436906357E+03  0.14050393506E+03  0.57524488805E+03  0.10100000352E+00 0.  1.
</event>
<event>
 5   0  0.9027076E-04  0.1314591E+04  0.7818609E-02  0.9018074E-01
        1   -1    0    0  501    0  0.00000000000E+00  0.00000000000E+00  0.55947876558E+03  0.55947876561E+03  0.50400001928E-02 0.  1.
       -1   -1    0    0    0  501  0.00000000000E+00  0.00000000000E+00 -0.77221421483E+03  0.77221421485E+03  0.50400001928E-02 0. -1.
    10030    2    1    2    0    0  0.00000000000E+00  0.00000000000E+00 -0.21273544925E+03  0.13316929805E+04  0.13145911238E+04 0.  0.
        5    1    3    3  502    0 -0.47352603026E+02  0.12432040899E-01 -0.77046703263E+03  0.77193510578E+03  0.46999998093E+01 0. -1.
       -5    1    3    3    0  502  0.47352603026E+02 -0.12432040899E-01  0.55773158338E+03  0.55975787468E+03  0.46999998093E+01 0.  1.
</event>
<event>
 5   0  0.9081324E-04  0.1296396E+04  0.7818609E-02  0.9032428E-01
        1   -1    0    0  501    0  0.00000000000E+00  0.00000000000E+00  0.19102229326E+04  0.19102229326E+04  0.50400001928E-02 0. -1.
       -1   -1    0    0    0  501  0.00000000000E+00  0.00000000000E+00 -0.21995375295E+03  0.21995375301E+03  0.50400001928E-02 0.  1.
    10030    2    1    2    0    0  0.00000000000E+00  0.00000000000E+00  0.16902691796E+04  0.21301766856E+04  0.12963960862E+04 0.  0.
        4    1    3    3  502    0  0.24067198523E+03  0.52416036192E+03  0.13311634852E+04  0.14507463344E+04  0.12699999809E+01 0. -1.
       -4    1    3    3    0  502 -0.24067198523E+03 -0.52416036192E+03  0.35910569442E+03  0.67943035121E+03  0.12699999809E+01 0.  1.
</event>
<event>
 5   0  0.9215829E-04  0.1300586E+04  0.7818609E-02  0.9029101E-01
       -1   -1    0    0    0  501  0.00000000000E+00  0.00000000000E+00  0.46531361157E+03  0.46531361159E+03  0.50400001928E-02 0. -1.
        1   -1    0    0  501    0  0.00000000000E+00  0.00000000000E+00 -0.90880868086E+03  0.90880868088E+03  0.50400001928E-02 0.  1.
    10030    2    1    2    0    0  0.00000000000E+00  0.00000000000E+00 -0.44349506930E+03  0.13741222925E+04  0.13005860979E+04 0.  0.
        3    1    3    3  502    0  0.40351222090E+02 -0.51708883221E+03 -0.63619168824E+03  0.82082212197E+03  0.10100000352E+00 0.  1.
       -3    1    3    3    0  502 -0.40351222090E+02  0.51708883221E+03  0.19269661894E+03  0.55330017050E+03  0.10100000352E+00 0. -1.
</event>
<event>
 5   0  0.1714861E-03  0.1301294E+04  0.7818609E-02  0.9028540E-01
       -2   -1    0    0    0  501  0.00000000000E+00  0.00000000000E+00  0.36872319646E+03  0.36872319647E+03  0.25500000920E-02 0. -1.
        2   -1    0    0  501    0  0.00000000000E+00  0.00000000000E+00 -0.11481278216E+04  0.11481278216E+04  0.25500000920E-02 0.  1.
    10030    2    1    2    0    0  0.00000000000E+00  0.00000000000E+00 -0.77940462512E+03  0.15168510180E+04  0.13012937567E+04 0.  0.
        1    1    3    3  502    0  0.61448250589E+03  0.18779151321E+02 -0.14133451489E+03  0.63080650892E+03  0.50400001928E-02 0.  1.
       -1    1    3    3    0  502 -0.61448250589E+03 -0.18779151321E+02 -0.63807011023E+03  0.88604450913E+03  0.50400001928E-02 0. -1.
</event>
<event>
 5   0  0.9098192E-04  0.1279471E+04  0.7818609E-02  0.9046005E-01
       -1   -1    0    0    0  501  0.00000000000E+00  0.00000000000E+00  0.19406498757E+03  0.19406498763E+03  0.50400001928E-02 0. -1.
        1   -1    0    0  501    0  0.00000000000E+00  0.00000000000E+00 -0.21088887461E+04  0.21088887461E+04  0.50400001928E-02 0.  1.
    10030    2    1    2    0    0  0.00000000000E+00  0.00000000000E+00 -0.19148237585E+04  0.23029537337E+04  0.12794709350E+04 0.  0.
        1    1    3    3  502    0  0.36743673257E+02 -0.53653562512E+02 -0.21029243293E+04  0.21039295466E+04  0.50400001928E-02 0.  1.
       -1    1    3    3    0  502 -0.36743673257E+02  0.53653562512E+02  0.18810057079E+03  0.19902418711E+03  0.50400001928E-02 0. -1.
</event>
<event>
 5   0  0.1623890E-03  0.1300879E+04  0.7818609E-02  0.9028868E-01
       -2   -1    0    0    0  501  0.00000000000E+00  0.00000000000E+00  0.40725273252E+03  0.40725273253E+03  0.25500000920E-02 0. -1.
        2   -1    0    0  501    0  0.00000000000E+00  0.00000000000E+00 -0.10388433223E+04  0.10388433223E+04  0.25500000920E-02 0.  1.
    10030    2    1    2    0    0  0.00000000000E+00  0.00000000000E+00 -0.63159058981E+03  0.14460960549E+04  0.13008793667E+04 0.  0.
        3    1    3    3  502    0  0.64633736464E+03 -0.72423922844E+02 -0.32539387763E+03  0.72724026245E+03  0.10100000352E+00 0. -1.
       -3    1    3    3    0  502 -0.64633736464E+03  0.72423922844E+02 -0.30619671218E+03  0.71885579241E+03  0.10100000352E+00 0.  1.
</event>
<event>
 5   0  0.1623890E-03  0.1300013E+04  0.7818609E-02  0.9029554E-01
        2   -1    0    0  501    0  0.00000000000E+00  0.00000000000E+00  0.77045977369E+03  0.77045977369E+03  0.25500000920E-02 0. -1.
       -2   -1    0    0    0  501  0.00000000000E+00  0.00000000000E+00 -0.54838522906E+03  0.54838522907E+03  0.25500000920E-02 0.  1.
    10030    2    1    2    0    0  0.00000000000E+00  0.00000000000E+00  0.22207454463E+03  0.13188450028E+04  0.13000134761E+04 0.  0.
        3    1    3    3  502    0  0.50928337834E+03  0.40204059045E+03  0.15036156053E+03  0.66604414637E+03  0.10100000352E+00 0. -1.
       -3    1    3    3    0  502 -0.50928337834E+03 -0.40204059045E+03  0.71712984101E+02  0.65280085640E+03  0.10100000352E+00 0.  1.
</event>
<event>
 5   0  0.1694675E-03  0.1307922E+04  0.7818609E-02  0.9023306E-01
        2   -1    0    0  501    0  0.00000000000E+00  0.00000000000E+00  0.12138314624E+04  0.12138314624E+04  0.25500000920E-02 0.  1.
       -2   -1    0    0    0  501  0.00000000000E+00  0.00000000000E+00 -0.35232673751E+03  0.35232673752E+03  0.25500000920E-02 0. -1.
    10030    2    1    2    0    0  0.00000000000E+00  0.00000000000E+00  0.86150472485E+03  0.15661581999E+04  0.13079224427E+04 0.  0.
        4    1    3    3  502    0  0.34746696787E+02 -0.65284752744E+03  0.41195450047E+03  0.77273886299E+03  0.12699999809E+01 0. -1.
       -4    1    3    3    0  502 -0.34746696787E+02  0.65284752744E+03  0.44955022438E+03  0.79341933690E+03  0.12699999809E+01 0.  1.
</event>
<event>
 5   0  0.9215829E-04  0.1307494E+04  0.7818609E-02  0.9023644E-01
        1   -1    0    0  501    0  0.00000000000E+00  0.00000000000E+00  0.83334262687E+03  0.83334262689E+03  0.50400001928E-02 0.  1.
       -1   -1    0    0    0  501  0.00000000000E+00  0.00000000000E+00 -0.51285620876E+03  0.51285620879E+03  0.50400001928E-02 0. -1.
    10030    2    1    2    0    0  0.00000000000E+00  0.00000000000E+00  0.32048641811E+03  0.13461988357E+04  0.13074936944E+04 0.  0.
        3    1    3    3  502    0 -0.30352422470E+03 -0.54353539513E+03  0.36571857558E+03  0.72201645927E+03  0.10100000352E+00 0.  1.
       -3    1    3    3    0  502  0.30352422470E+03  0.54353539513E+03 -0.45232157468E+02  0.62418237640E+03  0.10100000352E+00 0. -1.
</event>
<event>
 5   0  0.1694675E-03  0.1297241E+04  0.7818609E-02  0.9031756E-01
       -2   -1    0    0    0  501  0.00000000000E+00  0.00000000000E+00  0.17710834234E+03  0.17710834236E+03  0.25500000920E-02 0.  1.
        2   -1    0    0  501    0  0.00000000000E+00  0.00000000000E+00 -0.23754299863E+04  0.23754299863E+04  0.25500000920E-02 0. -1.
    10030    2    1    2    0    0  0.00000000000E+00  0.00000000000E+00 -0.21983216439E+04  0.25525383286E+04  0.12972408677E+04 0.  0.
        4    1    3    3  502    0 -0.47068054859E+03  0.15483454492E+03 -0.19227487069E+04  0.19855674549E+04  0.12699999809E+01 0. -1.
       -4    1    3    3    0  502  0.47068054859E+03 -0.15483454492E+03 -0.27557293699E+03  0.56697087370E+03  0.12699999809E+01 0.  1.
</event>
<event>
 5   0  0.9027076E-04  0.1297729E+04  0.7818609E-02  0.9031368E-01
       -1   -1    0    0    0  501  0.00000000000E+00  0.00000000000E+00  0.28004240782E+03  0.28004240787E+03  0.50400001928E-02 0.  1.
        1   -1    0    0  501    0  0.00000000000E+00  0.00000000000E+00 -0.15034345680E+04  0.15034345680E+04  0.50400001928E-02 0. -1.
    10030    2    1    2    0    0  0.00000000000E+00  0.00000000000E+00 -0.12233921601E+04  0.17834769758E+04  0.12977294579E+04 0.  0.
        5    1    3    3  502    0  0.46290650142E+03  0.38644895879E+03 -0.28249860161E+03  0.66592250053E+03  0.46999998093E+01 0.  1.
       -5    1    3    3    0  502 -0.46290650142E+03 -0.38644895879E+03 -0.94089355853E+03  0.11175544753E+04  0.46999998093E+01 0. -1.
</event>
<event>
 5   0  0.1714861E-03  0.1304017E+04  0.7818609E-02  0.9026385E-01
       -2   -1    0    0    0  501  0.00000000000E+00  0.00000000000E+00  0.73278195995E+03  0.73278195996E+03  0.25500000920E-02 0. -1.
        2   -1    0    0  501    0  0.00000000000E+00  0.00000000000E+00 -0.58013885611E+03  0.58013885612E+03  0.25500000920E-02 0.  1.
    10030    2    1    2    0    0  0.00000000000E+00  0.00000000000E+00  0.15264310384E+03  0.13129208161E+04  0.13040173128E+04 0.  0.
        1    1    3    3  502    0 -0.14886078607E+03 -0.49949501972E+03  0.47073657833E+03  0.70231597914E+03  0.50400001928E-02 0. -1.
       -1    1    3    3    0  502  0.14886078607E+03  0.49949501972E+03 -0.31809347449E+03  0.61060483694E+03  0.50400001928E-02 0.  1.
</event>
<event>
 5   0  0.9110949E-04  0.1310299E+04  0.7818609E-02  0.9021438E-01
       -1   -1    0    0    0  501  0.00000000000E+00  0.00000000000E+00  0.44831066730E+03  0.44831066732E+03  0.50400001928E-02 0. -1.
        1   -1    0    0  501    0  0.00000000000E+00  0.00000000000E+00 -0.95741792445E+03  0.95741792446E+03  0.50400001928E-02 0.  1.
    10030    2    1    2    0    0  0.00000000000E+00  0.00000000000E+00 -0.50910725715E+03  0.14057285918E+04  0.13102986967E+04 0.  0.
        2    1    3    3  502    0 -0.32175333250E+02 -0.45123216920E+03  0.25385372225E+03  0.51873638286E+03  0.25500000920E-02 0. -1.
       -2    1    3    3    0  502  0.32175333250E+02  0.45123216920E+03 -0.76296097941E+03  0.88699220893E+03  0.25500000920E-02 0.  1.
</event>
<event>
 5   0  0.1667342E-03  0.1310700E+04  0.7818609E-02  0.9021122E-01
        2   -1    0    0  501    0  0.00000000000E+00  0.00000000000E+00  0.15717272075E+04  0.15717272075E+04  0.25500000920E-02 0.  1.
       -2   -1    0    0    0  501  0.00000000000E+00  0.00000000000E+00 -0.27325596903E+03  0.27325596905E+03  0.25500000920E-02 0. -1.
    10030    2    1    2    0    0  0.00000000000E+00  0.00000000000E+00  0.12984712385E+04  0.18449831766E+04  0.13107003337E+04 0.  0.
        5    1    3    3  502    0  0.61561029657E+03  0.15912208246E+03  0.87253886392E+03  0.10796490325E+04  0.46999998093E+01 0.  1.
       -5    1    3    3    0  502 -0.61561029657E+03 -0.15912208246E+03  0.42593237459E+03  0.76533414407E+03  0.46999998093E+01 0. -1.
</event>
<event>
 5   0  0.9215829E-04  0.1276332E+04  0.7818609E-02  0.9048548E-01
       -1   -1    0    0    0  501  0.00000000000E+00  0.00000000000E+00  0.26364007351E+03  0.26364007355E+03  0.50400001928E-02 0. -1.
        1   -1    0    0  501    0  0.00000000000E+00  0.00000000000E+00 -0.15447415996E+04  0.15447415996E+04  0.50400001928E-02 0.  1.
    10030    2    1    2    0    0  0.00000000000E+00  0.00000000000E+00 -0.12811015261E+04  0.18083816732E+04  0.12763319144E+04 0.  0.
        3    1    3    3  502    0 -0.58342533453E+03  0.21965648650E+03 -0.83389710706E+03  0.10411620856E+04  0.10100000352E+00 0.  1.
       -3    1    3    3    0  502  0.58342533453E+03 -0.21965648650E+03 -0.44720441906E+03  0.76721958764E+03  0.10100000352E+00 0. -1.
</event>
<event>
 5   0  0.9215829E-04  0.1293180E+04  0.7818609E-02  0.9034991E-01
        1   -1    0    0  501    0  0.00000000000E+00  0.00000000000E+00  0.14416196758E+04  0.14416196758E+04  0.50400001928E-02 0. -1.
       -1   -1    0    0    0  501  0.00000000000E+00  0.00000000000E+00 -0.29000627613E+03  0.29000627617E+03  0.50400001928E-02 0.  1.
    10030    2    1    2    0    0  0.00000000000E+00  0.00000000000E+00  0.11516133997E+04  0.17316259520E+04  0.12931801944E+04 0.  0.
        3    1    3    3  502    0 -0.26462801622E+03  0.52851644372E+03  0.92683341725E+03  0.10992623944E+04  0.10100000352E+00 0. -1.
       -3    1    3    3    0  502  0.26462801622E+03 -0.52851644372E+03  0.22477998243E+03  0.63236355758E+03  0.10100000352E+00 0.  1.
</event>
<event>
 5   0  0.6284125E-04  0.1338912E+04  0.7818609E-02  0.8999264E-01
       -3   -1    0    0    0  501  0.00000000000E+00  0.00000000000E+00  0.71185299593E+03  0.71185300310E+03  0.10100000352E+00 0.  1.
        3   -1    0    0  501    0  0.00000000000E+00  0.00000000000E+00 -0.62958381638E+03  0.62958382448E+03  0.10100000352E+00 0. -1.
    10030    2    1    2    0    0  0.00000000000E+00  0.00000000000E+00  0.82269179551E+02  0.13414368276E+04  0.13389117015E+04 0.  0.
        4    1    3    3  502    0  0.55245942775E+03  0.31939321777E+03 -0.16159840417E+03  0.65828497173E+03  0.12699999809E+01 0.  1.
       -4    1    3    3    0  502 -0.55245942775E+03 -0.31939321777E+03  0.24386758372E+03  0.68315185586E+03  0.12699999809E+01 0. -1.
</event>
<event>
 5   0  0.9098192E-04  0.1289318E+04  0.7818609E-02  0.9038080E-01
       -1   -1    0    0    0  501  0.00000000000E+00  0.00000000000E+00  0.67495690968E+03  0.67495690969E+03  0.50400001928E-02 0. -1.
        1   -1    0    0  501    0  0.00000000000E+00  0.00000000000E+00 -0.61572066766E+03  0.61572066768E+03  0.50400001928E-02 0.  1.
    10030    2    1    2    0    0  0.00000000000E+00  0.00000000000E+00  0.59236242017E+02  0.12906775774E+04  0.12893175235E+04 0.  0.
        1    1    3    3  502    0  0.12974026817E+03  0.59458858148E+03 -0.18324861210E+03  0.63556917191E+03  0.50400001928E-02 0.  1.
       -1    1    3    3    0  502 -0.12974026817E+03 -0.59458858148E+03  0.24248485412E+03  0.65510840547E+03  0.50400001928E-02 0. -1.
</event>
<event>
 5   0  0.9110949E-04  0.1300840E+04  0.7818609E-02  0.9028899E-01
       -1   -1    0    0    0  501  0.00000000000E+00  0.00000000000E+00  0.49062401741E+03  0.49062401743E+03  0.50400001928E-02 0.  1.
        1   -1    0    0  501    0  0.00000000000E+00  0.00000000000E+00 -0.86226159027E+03  0.86226159028E+03  0.50400001928E-02 0. -1.
    10030    2    1    2    0    0  0.00000000000E+00  0.00000000000E+00 -0.37163757286E+03  0.13528856077E+04  0.13008401062E+04 0.  0.
        2    1    3    3  502    0 -0.31303332737E+03 -0.17559460751E+03 -0.74994386321E+03  0.83140791926E+03  0.25500000920E-02 0. -1.
       -2    1    3    3    0  502  0.31303332737E+03  0.17559460751E+03  0.37830629035E+03  0.52147768846E+03  0.25500000920E-02 0.  1.
</event>
<event>
 5   0  0.9027076E-04  0.1296344E+04  0.7818609E-02  0.9032470E-01
       -1   -1    0    0    0  501  0.00000000000E+00  0.00000000000E+00  0.30671183370E+03  0.30671183374E+03  0.50400001928E-02 0.  1.
        1   -1    0    0  501    0  0.00000000000E+00  0.00000000000E+00 -0.13697770592E+04  0.13697770592E+04  0.50400001928E-02 0. -1.
    10030    2    1    2    0    0  0.00000000000E+00  0.00000000000E+00 -0.10630652255E+04  0.16764888930E+04  0.12963438335E+04 0.  0.
        5    1    3    3  502    0  0.12296894602E+03 -0.51263542469E+03 -0.10191873083E+04  0.11474673415E+04  0.46999998093E+01 0. -1.
       -5    1    3    3    0  502 -0.12296894602E+03  0.51263542469E+03 -0.43877917202E+02  0.52902155149E+03  0.46999998093E+01 0.  1.
</event>
<event>
 5   0  0.1667342E-03  0.1360430E+04  0.7818609E-02  0.8982970E-01
        2   -1    0    0  501    0  0.00000000000E+00  0.00000000000E+00  0.89054517380E+03  0.89054517381E+03  0.25500000920E-02 0. -1.
       -2   -1    0    0    0  501  0.00000000000E+00  0.00000000000E+00 -0.51956125020E+03  0.51956125021E+03  0.25500000920E-02 0.  1.
    10030    2    1    2    0    0  0.00000000000E+00  0.00000000000E+00  0.37098392360E+03  0.14101064240E+04  0.13604304670E+04 0.  0.
        5    1    3    3  502    0  0.14201287439E+03 -0.19095226193E+03 -0.47498866812E+03  0.53128781999E+03  0.46999998093E+01 0.  1.
       -5    1    3    3    0  502 -0.14201287439E+03  0.19095226193E+03  0.84597259172E+03  0.87881860402E+03  0.46999998093E+01 0. -1.
</event>
<event>
 5   0  0.9027076E-04  0.1303496E+04  0.7818609E-02  0.9026797E-01
       -1   -1    0    0    0  501  0.00000000000E+00  0.00000000000E+00  0.60793216726E+03  0.60793216728E+03  0.50400001928E-02 0. -1.
        1   -1    0    0  501    0  0.00000000000E+00  0.00000000000E+00 -0.69872183132E+03  0.69872183133E+03  0.50400001928E-02 0.  1.
    10030    2    1    2    0    0  0.00000000000E+00  0.00000000000E+00 -0.90789664059E+02  0.13066539986E+04  0.13034960334E+04 0.  0.
        5    1    3    3  502    0  0.51290319872E+03  0.19157138207E+03  0.30899256943E+03  0.62870325564E+03  0.46999998093E+01 0. -1.
       -5    1    3    3    0  502 -0.51290319872E+03 -0.19157138207E+03 -0.39978223349E+03  0.67795074297E+03  0.46999998093E+01 0.  1.
</event>
<event>
 5   0  0.1714861E-03  0.1300697E+04  0.7818609E-02  0.9029012E-01
        2   -1    0    0  501    0  0.00000000000E+00  0.00000000000E+00  0.18703775547E+04  0.18703775547E+04  0.25500000920E-02 0.  1.
       -2   -1    0    0    0  501  0.00000000000E+00  0.00000000000E+00 -0.22613256922E+03  0.22613256923E+03  0.25500000920E-02 0. -1.
    10030    2    1    2    0    0  0.00000000000E+00  0.00000000000E+00  0.16442449855E+04  0.20965101239E+04  0.13006971698E+04 0.  0.
        1    1    3    3  502    0 -0.26659515250E+02  0.29797965018E+03  0.17528800529E+04  0.17782269488E+04  0.50400001928E-02 0.  1.
       -1    1    3    3    0  502  0.26659515250E+02 -0.29797965018E+03 -0.10863506739E+03  0.31828317512E+03  0.50400001928E-02 0. -1.
</event>
<event>
 5   0  0.9098192E-04  0.1302466E+04  0.7818609E-02  0.9027612E-01
       -1   -1    0    0    0  501  0.00000000000E+00  0.00000000000E+00  0.91002665362E+03  0.91002665363E+03  0.50400001928E-02 0.  1.
        1   -1    0    0  501    0  0.00000000000E+00  0.00000000000E+00 -0.46603540391E+03  0.46603540394E+03  0.50400001928E-02 0. -1.
    10030    2    1    2    0    0  0.00000000000E+00  0.00000000000E+00  0.44399124971E+03  0.13760620576E+04  0.13024663360E+04 0.  0.
        1    1    3    3  502    0 -0.19879267196E+03 -0.58039805327E+03  0.45279833177E+03  0.76250033176E+03  0.50400001928E-02 0.  1.
       -1    1    3    3    0  502  0.19879267196E+03  0.58039805327E+03 -0.88070820609E+01  0.61356172581E+03  0.50400001928E-02 0. -1.
</event>
<event>
 5   0  0.1694675E-03  0.1324431E+04  0.7818609E-02  0.9010412E-01
       -2   -1    0    0    0  501  0.00000000000E+00  0.00000000000E+00  0.35409902445E+03  0.35409902446E+03  0.25500000920E-02 0.  1.
        2   -1    0    0  501    0  0.00000000000E+00  0.00000000000E+00 -0.12384373829E+04  0.12384373829E+04  0.25500000920E-02 0. -1.
    10030    2    1    2    0    0  0.00000000000E+00  0.00000000000E+00 -0.88433835842E+03  0.15925364073E+04  0.13244311520E+04 0.  0.
        4    1    3    3  502    0 -0.64368761541E+03  0.35830398739E+02 -0.26016753999E+03  0.69520236297E+03  0.12699999809E+01 0.  1.
       -4    1    3    3    0  502  0.64368761541E+03 -0.35830398739E+02 -0.62417081843E+03  0.89733404437E+03  0.12699999809E+01 0. -1.
</event>
<event>
 5   0  0.1623890E-03  0.1319150E+04  0.7818609E-02  0.9014516E-01
       -2   -1    0    0    0  501  0.00000000000E+00  0.00000000000E+00  0.34713709022E+03  0.34713709023E+03  0.25500000920E-02 0. -1.
        2   -1    0    0  501    0  0.00000000000E+00  0.00000000000E+00 -0.12532196238E+04  0.12532196238E+04  0.25500000920E-02 0.  1.
    10030    2    1    2    0    0  0.00000000000E+00  0.00000000000E+00 -0.90608253355E+03  0.16003567140E+04  0.13191497468E+04 0.  0.
        3    1    3    3  502    0  0.30753768094E+03  0.53298510005E+03 -0.16496325042E+03  0.63707568331E+03  0.10100000352E+00 0. -1.
       -3    1    3    3    0  502 -0.30753768094E+03 -0.53298510005E+03 -0.74111928313E+03  0.96328103070E+03  0.10100000352E+00 0.  1.
</event>
<event>
 5   0  0.9215829E-04  0.1306377E+04  0.7818609E-02  0.9024523E-01
       -1   -1    0    0    0  501  0.00000000000E+00  0.00000000000E+00  0.39174542100E+03  0.39174542104E+03  0.50400001928E-02 0.  1.
        1   -1    0    0  501    0  0.00000000000E+00  0.00000000000E+00 -0.10891141138E+04  0.10891141138E+04  0.50400001928E-02 0. -1.
    10030    2    1    2    0    0  0.00000000000E+00  0.00000000000E+00 -0.69736869279E+03  0.14808595348E+04  0.13063773835E+04 0.  0.
        3    1    3    3  502    0 -0.27029497864E+03 -0.58895170794E+03 -0.44169146823E+03  0.78422882699E+03  0.10100000352E+00 0. -1.
       -3    1    3    3    0  502  0.27029497864E+03  0.58895170794E+03 -0.25567722455E+03  0.69663070785E+03  0.10100000352E+00 0.  1.
</event>
<event>
 5   0  0.9027076E-04  0.1254157E+04  0.7818609E-02  0.9066731E-01
       -1   -1    0    0    0  501  0.00000000000E+00  0.00000000000E+00  0.48641809006E+03  0.48641809009E+03  0.50400001928E-02 0. -1.
        1   -1    0    0  501    0  0.00000000000E+00  0.00000000000E+00 -0.80841420694E+03  0.80841420695E+03  0.50400001928E-02 0.  1.
    10030    2    1    2    0    0  0.00000000000E+00  0.00000000000E+00 -0.32199611687E+03  0.12948322970E+04  0.12541567598E+04 0.  0.
        5    1    3    3  502    0  0.23237809580E+03 -0.33114118250E+03 -0.65565194917E+03  0.77042561652E+03  0.46999998093E+01 0.  1.
       -5    1    3    3    0  502 -0.23237809580E+03  0.33114118250E+03  0.33365583230E+03  0.52440668052E+03  0.46999998093E+01 0. -1.
</event>
<event>
 5   0  0.6284125E-04  0.1303882E+04  0.7818609E-02  0.9026492E-01
        3   -1    0    0  501    0  0.00000000000E+00  0.00000000000E+00  0.20319195429E+03  0.20319197939E+03  0.10100000352E+00 0. -1.
       -3   -1    0    0    0  501  0.00000000000E+00  0.00000000000E+00 -0.20917511059E+04  0.20917511084E+04  0.10100000352E+00 0.  1.
    10030    2    1    2    0    0  0.00000000000E+00  0.00000000000E+00 -0.18885591516E+04  0.22949430878E+04  0.13038819374E+04 0.  0.
        1    1    3    3  502    0 -0.43720732809E+03 -0.39075600237E+03 -0.14457849932E+04  0.15601713841E+04  0.50400001928E-02 0. -1.
       -1    1    3    3    0  502  0.43720732809E+03  0.39075600237E+03 -0.44277415848E+03  0.73477170370E+03  0.50400001928E-02 0.  1.
</event>
<event>
 5   0  0.9081324E-04  0.1297999E+04  0.7818609E-02  0.9031154E-01
        1   -1    0    0  501    0  0.00000000000E+00  0.00000000000E+00  0.75681818755E+03  0.75681818757E+03  0.50400001928E-02 0.  1.
       -1   -1    0    0    0  501  0.00000000000E+00  0.00000000000E+00 -0.55654077018E+03  0.55654077020E+03  0.50400001928E-02 0. -1.
    10030    2    1    2    0    0  0.00000000000E+00  0.00000000000E+00  0.20027741737E+03  0.13133589578E+04  0.12979987319E+04 0.  0.
        4    1    3    3  502    0  0.33320467163E+02  0.17523128077E+03 -0.53125068230E+03  0.56039731944E+03  0.12699999809E+01 0. -1.
       -4    1    3    3    0  502 -0.33320467163E+02 -0.17523128077E+03  0.73152809967E+03  0.75296163833E+03  0.12699999809E+01 0.  1.
</event>
<event>
 5   0  0.1667342E-03  0.1290134E+04  0.7818609E-02  0.9037426E-01
       -2   -1    0    0    0  501  0.00000000000E+00  0.00000000000E+00  0.49233741029E+03  0.49233741030E+03  0.25500000920E-02 0.  1.
        2   -1    0    0  501    0  0.00000000000E+00  0.00000000000E+00 -0.84517552317E+03  0.84517552317E+03  0.25500000920E-02 0. -1.
    10030    2    1    2    0    0  0.00000000000E+00  0.00000000000E+00 -0.35283811288E+03  0.13375129335E+04  0.12901341455E+04 0.  0.
        5    1    3    3  502    0 -0.19551960625E+03  0.58433575718E+03 -0.37424935702E+03  0.72094442558E+03  0.46999998093E+01 0. -1.
       -5    1    3    3    0  502  0.19551960625E+03 -0.58433575718E+03  0.21411244141E+02  0.61656850789E+03  0.46999998093E+01 0.  1.
</event>
<event>
 5   0  0.1700511E-03  0.1299244E+04  0.7818609E-02  0.9030165E-01
       -2   -1    0    0    0  501  0.00000000000E+00  0.00000000000E+00  0.88057540366E+03  0.88057540367E+03  0.25500000920E-02 0. -1.
        2   -1    0    0  501    0  0.00000000000E+00  0.00000000000E+00 -0.47924201377E+03  0.47924201377E+03  0.25500000920E-02 0.  1.
    10030    2    1    2    0    0  0.00000000000E+00  0.00000000000E+00  0.40133338990E+03  0.13598174174E+04  0.12992439798E+04 0.  0.
        2    1    3    3  502    0 -0.38119294930E+03 -0.20091087026E+03 -0.30814180265E+03  0.52974013717E+03  0.25500000920E-02 0.  1.
       -2    1    3    3    0  502  0.38119294930E+03  0.20091087026E+03  0.70947519254E+03  0.83007728027E+03  0.25500000920E-02 0. -1.
</event>
<event>
 5   0  0.1623890E-03  0.1132090E+04  0.7818609E-02  0.9174467E-01
        2   -1    0    0  501    0  0.00000000000E+00  0.00000000000E+00  0.20506039556E+04  0.20506039556E+04  0.25500000920E-02 0.  1.
       -2   -1    0    0    0  501  0.00000000000E+00  0.00000000000E+00 -0.15625006608E+03  0.15625006611E+03  0.25500000920E-02 0. -1.
    10030    2    1    2    0    0  0.00000000000E+00  0.00000000000E+00  0.18943538895E+04  0.22068540217E+04  0.11320901088E+04 0.  0.
        3    1    3    3  502    0  0.52561237775E+03  0.10555205236E+03  0.13012822057E+04  0.14073894260E+04  0.10100000352E+00 0.  1.
       -3    1    3    3    0  502 -0.52561237775E+03 -0.10555205236E+03  0.59307168380E+03  0.79946459567E+03  0.10100000352E+00 0. -1.
</event>
<event>
 5   0  0.1700511E-03  0.1292224E+04  0.7818609E-02  0.9035755E-01
        2   -1    0    0  501    0  0.00000000000E+00  0.00000000000E+00  0.21064596024E+04  0.21064596024E+04  0.25500000920E-02 0.  1.
       -2   -1    0    0    0  501  0.00000000000E+00  0.00000000000E+00 -0.19818109985E+03  0.19818109986E+03  0.25500000920E-02 0. -1.
    10030    2    1    2    0    0  0.00000000000E+00  0.00000000000E+00  0.19082785026E+04  0.23046407023E+04  0.12922236351E+04 0.  0.
        2    1    3    3  502    0 -0.63895750366E+03 -0.21214701669E+02  0.11209076702E+04  0.12904072071E+04  0.25500000920E-02 0. -1.
       -2    1    3    3    0  502  0.63895750366E+03  0.21214701669E+02  0.78737083237E+03  0.10142334952E+04  0.25500000920E-02 0.  1.
</event>
<event>
 5   0  0.1623890E-03  0.1304077E+04  0.7818609E-02  0.9026338E-01
        2   -1    0    0  501    0  0.00000000000E+00  0.00000000000E+00  0.55720458597E+03  0.55720458598E+03  0.25500000920E-02 0. -1.
       -2   -1    0    0    0  501  0.00000000000E+00  0.00000000000E+00 -0.76301270055E+03  0.76301270055E+03  0.25500000920E-02 0.  1.
    10030    2    1    2    0    0  0.00000000000E+00  0.00000000000E+00 -0.20580811458E+03  0.13202172865E+04  0.13040769546E+04 0.  0.
        3    1    3    3  502    0 -0.45583804398E+03 -0.18090990788E+03  0.33210879667E+03  0.59229467339E+03  0.10100000352E+00 0. -1.
       -3    1    3    3    0  502  0.45583804398E+03  0.18090990788E+03 -0.53791691125E+03  0.72792261313E+03  0.10100000352E+00 0.  1.
</event>
<event>
 5   0  0.1667342E-03  0.1301801E+04  0.7818609E-02  0.9028138E-01
        2   -1    0    0  501    0  0.00000000000E+00  0.00000000000E+00  0.19571175423E+04  0.19571175423E+04  0.25500000920E-02 0.  1.
       -2   -1    0    0    0  501  0.00000000000E+00  0.00000000000E+00 -0.21647741665E+03  0.21647741667E+03  0.25500000920E-02 0. -1.
    10030    2    1    2    0    0  0.00000000000E+00  0.00000000000E+00  0.17406401257E+04  0.21735949590E+04  0.13018014436E+04 0.  0.
        5    1    3    3  502    0  0.99946474261E+02 -0.63116551492E+03  0.10767839359E+04  0.12521361505E+04  0.46999998093E+01 0.  1.
       -5    1    3    3    0  502 -0.99946474261E+02  0.63116551492E+03  0.66385618979E+03  0.92145880845E+03  0.46999998093E+01 0. -1.
</event>
<event>
 5   0  0.1694675E-03  0.1288777E+04  0.7818609E-02  0.9038513E-01
        2   -1    0    0  501    0  0.00000000000E+00  0.00000000000E+00  0.94680452778E+03  0.94680452778E+03  0.25500000920E-02 0.  1.
       -2   -1    0    0    0  501  0.00000000000E+00  0.00000000000E+00 -0.43856620932E+03  0.43856620933E+03  0.25500000920E-02 0. -1.
    10030    2    1    2    0    0  0.00000000000E+00  0.00000000000E+00  0.50823831845E+03  0.13853707371E+04  0.12887768973E+04 0.  0.
        4    1    3    3  502    0  0.13949828486E+02 -0.99178630237E+02 -0.43014698903E+03  0.44165489184E+03  0.12699999809E+01 0. -1.
       -4    1    3    3    0  502 -0.13949828486E+02  0.99178630237E+02  0.93838530749E+03  0.94371584527E+03  0.12699999809E+01 0.  1.
</event>
<event>
 5   0  0.1694675E-03  0.1301008E+04  0.7818609E-02  0.9028767E-01
        2   -1    0    0  501    0  0.00000000000E+00  0.00000000000E+00  0.11011306994E+04  0.11011306994E+04  0.25500000920E-02 0.  1.
       -2   -1    0    0    0  501  0.00000000000E+00  0.00000000000E+00 -0.38429150657E+03  0.38429150658E+03  0.25500000920E-02 0. -1.
    10030    2    1    2    0    0  0.00000000000E+00  0.00000000000E+00  0.71683919279E+03  0.14854222059E+04  0.13010075717E+04 0.  0.
        4    1    3    3  502    0 -0.29381349735E+02 -0.59670171936E+03  0.64572377283E+02  0.60090549208E+03  0.12699999809E+01 0.  1.
       -4    1    3    3    0  502  0.29381349735E+02  0.59670171936E+03  0.65226681551E+03  0.88451671387E+03  0.12699999809E+01 0. -1.
</event>
<event>
 5   0  0.9098192E-04  0.1222048E+04  0.7818609E-02  0.9093774E-01
        1   -1    0    0  501    0  0.00000000000E+00  0.00000000000E+00  0.16895920428E+04  0.16895920428E+04  0.50400001928E-02 0. -1.
       -1   -1    0    0    0  501  0.00000000000E+00  0.00000000000E+00 -0.22097064645E+03  0.22097064650E+03  0.50400001928E-02 0.  1.
    10030    2    1    2    0    0  0.00000000000E+00  0.00000000000E+00  0.14686213963E+04  0.19105626893E+04  0.12220478648E+04 0.  0.
        1    1    3    3  502    0  0.51462497070E+03  0.35647272407E+02  0.22233091786E+03  0.56173002907E+03  0.50400001928E-02 0. -1.
       -1    1    3    3    0  502 -0.51462497070E+03 -0.35647272407E+02  0.12462904785E+04  0.13488326602E+04  0.50400001928E-02 0.  1.
</event>
<event>
 5   0  0.1700511E-03  0.1349655E+04  0.7818609E-02  0.8991089E-01
       -2   -1    0    0    0  501  0.00000000000E+00  0.00000000000E+00  0.61076836030E+03  0.61076836030E+03  0.25500000920E-02 0.  1.
        2   -1    0    0  501    0  0.00000000000E+00  0.00000000000E+00 -0.74560552133E+03  0.74560552133E+03  0.25500000920E-02 0. -1.
    10030    2    1    2    0    0  0.00000000000E+00  0.00000000000E+00 -0.13483716103E+03  0.13563738816E+04  0.13496551585E+04 0.  0.
        2    1    3    3  502    0 -0.63824509968E+03  0.17131148022E+02 -0.28700567105E+03  0.70001609890E+03  0.25500000920E-02 0.  1.
       -2    1    3    3    0  502  0.63824509968E+03 -0.17131148022E+02  0.15216851002E+03  0.65635778273E+03  0.25500000920E-02 0. -1.
</event>
<event>
 5   0  0.9027076E-04  0.1308055E+04  0.7818609E-02  0.9023202E-01
       -1   -1    0    0    0  501  0.00000000000E+00  0.00000000000E+00  0.29334618710E+03  0.29334618714E+03  0.50400001928E-02 0.  1.
        1   -1    0    0  501    0  0.00000000000E+00  0.00000000000E+00 -0.14581812500E+04  0.14581812500E+04  0.50400001928E-02 0. -1.
    10030    2    1    2    0    0  0.00000000000E+00  0.00000000000E+00 -0.11648350629E+04  0.17515274371E+04  0.13080549068E+04 0.  0.
        5    1    3    3  502    0 -0.40687821468E+03  0.46310902697E+03 -0.87489709795E+03  0.10702742053E+04  0.46999998093E+01 0. -1.
       -5    1    3    3    0  502  0.40687821468E+03 -0.46310902697E+03 -0.28993796495E+03  0.68125323189E+03  0.46999998093E+01 0.  1.
</event>
<event>
 5   0  0.9081324E-04  0.1225380E+04  0.7818609E-02  0.9090927E-01
       -1   -1    0    0    0  501  0.00000000000E+00  0.00000000000E+00  0.61477356160E+03  0.61477356162E+03  0.50400001928E-02 0.  1.
        1   -1    0    0  501    0  0.00000000000E+00  0.00000000000E+00 -0.61061337873E+03  0.61061337875E+03  0.50400001928E-02 0. -1.
    10030    2    1    2    0    0  0.00000000000E+00  0.00000000000E+00  0.41601828703E+01  0.12253869404E+04  0.12253798785E+04 0.  0.
        4    1    3    3  502    0 -0.56032363701E+03  0.12157956578E+03 -0.21389147460E+03  0.61196024774E+03  0.12699999809E+01 0. -1.
       -4    1    3    3    0  502  0.56032363701E+03 -0.12157956578E+03  0.21805165747E+03  0.61342669264E+03  0.12699999809E+01 0.  1.
</event>
<event>
 5   0  0.9027076E-04  0.1298880E+04  0.7818609E-02  0.9030454E-01
       -1   -1    0    0    0  501  0.00000000000E+00  0.00000000000E+00  0.14394324296E+04  0.14394324296E+04  0.50400001928E-02 0. -1.
        1   -1    0    0  501    0  0.00000000000E+00  0.00000000000E+00 -0.29301276414E+03  0.29301276418E+03  0.50400001928E-02 0.  1.
    10030    2    1    2    0    0  0.00000000000E+00  0.00000000000E+00  0.11464196655E+04  0.17324451938E+04  0.12988796327E+04 0.  0.
        5    1    3    3  502    0  0.52145731809E+03  0.36505804419E+03  0.40154367892E+03  0.75262509013E+03  0.46999998093E+01 0.  1.
       -5    1    3    3    0  502 -0.52145731809E+03 -0.36505804419E+03  0.74487598657E+03  0.97982010368E+03  0.46999998093E+01 0. -1.
</event>
<event>
 5   0  0.1714861E-03  0.1328921E+04  0.7818609E-02  0.9006940E-01
       -2   -1    0    0    0  501  0.00000000000E+00  0.00000000000E+00  0.46178273614E+03  0.46178273615E+03  0.25500000920E-02 0. -1.
        2   -1    0    0  501    0  0.00000000000E+00  0.00000000000E+00 -0.95609455526E+03  0.95609455527E+03  0.25500000920E-02 0.  1.
    10030    2    1    2    0    0  0.00000000000E+00  0.00000000000E+00 -0.49431181912E+03  0.14178772914E+04  0.13289213065E+04 0.  0.
        1    1    3    3  502    0 -0.12951391211E+03 -0.21224428819E+03 -0.90458957938E+03  0.93813847509E+03  0.50400001928E-02 0.  1.
       -1    1    3    3    0  502  0.12951391211E+03  0.21224428819E+03  0.41027776026E+03  0.47973881632E+03  0.50400001928E-02 0. -1.
</event>
<event>
 5   0  0.1623890E-03  0.1290622E+04  0.7818609E-02  0.9037035E-01
        2   -1    0    0  501    0  0.00000000000E+00  0.00000000000E+00  0.54048570047E+03  0.54048570048E+03  0.25500000920E-02 0. -1.
       -2   -1    0    0    0  501  0.00000000000E+00  0.00000000000E+00 -0.77046697197E+03  0.77046697198E+03  0.25500000920E-02 0.  1.
    10030    2    1    2    0    0  0.00000000000E+00  0.00000000000E+00 -0.22998127150E+03  0.13109526725E+04  0.12906221462E+04 0.  0.
        3    1    3    3  502    0 -0.12255709902E+03 -0.19274109275E+03 -0.72803492778E+03  0.76302309114E+03  0.10100000352E+00 0.  1.
       -3    1    3    3    0  502  0.12255709902E+03  0.19274109275E+03  0.49805365627E+03  0.54792958132E+03  0.10100000352E+00 0. -1.
</event>
<event>
 5   0  0.1667342E-03  0.1322666E+04  0.7818609E-02  0.9011781E-01
       -2   -1    0    0    0  501  0.00000000000E+00  0.00000000000E+00  0.36653548203E+03  0.36653548204E+03  0.25500000920E-02 0. -1.
        2   -1    0    0  501    0  0.00000000000E+00  0.00000000000E+00 -0.11932311463E+04  0.11932311463E+04  0.25500000920E-02 0.  1.
    10030    2    1    2    0    0  0.00000000000E+00  0.00000000000E+00 -0.82669566429E+03  0.15597666284E+04  0.13226663274E+04 0.  0.
        5    1    3    3  502    0  0.12982801953E+03  0.50633311874E+03  0.64377277851E+02  0.52668307898E+03  0.46999998093E+01 0.  1.
       -5    1    3    3    0  502 -0.12982801953E+03 -0.50633311874E+03 -0.89107294214E+03  0.10330835494E+04  0.46999998093E+01 0. -1.
</event>
<event>
 5   0  0.9027076E-04  0.1193776E+04  0.7818609E-02  0.9118322E-01
        1   -1    0    0  501    0  0.00000000000E+00  0.00000000000E+00  0.15476300688E+04  0.15476300688E+04  0.50400001928E-02 0. -1.
       -1   -1    0    0    0  501  0.00000000000E+00  0.00000000000E+00 -0.23020693036E+03  0.23020693042E+03  0.50400001928E-02 0.  1.
    10030    2    1    2    0    0  0.00000000000E+00  0.00000000000E+00  0.13174231384E+04  0.17778369992E+04  0.11937758040E+04 0.  0.
        5    1    3    3  502    0 -0.22270784763E+03 -0.34704951436E+03  0.13013574805E+04  0.13651357196E+04  0.46999998093E+01 0. -1.
       -5    1    3    3    0  502  0.22270784763E+03  0.34704951436E+03  0.16065657875E+02  0.41270127959E+03  0.46999998093E+01 0.  1.
</event>
<event>
 5   0  0.1623890E-03  0.1301732E+04  0.7818609E-02  0.9028193E-01
       -2   -1    0    0    0  501  0.00000000000E+00  0.00000000000E+00  0.26291132242E+03  0.26291132243E+03  0.25500000920E-02 0.  1.
        2   -1    0    0  501    0  0.00000000000E+00  0.00000000000E+00 -0.16112897901E+04  0.16112897901E+04  0.25500000920E-02 0. -1.
    10030    2    1    2    0    0  0.00000000000E+00  0.00000000000E+00 -0.13483784677E+04  0.18742011125E+04  0.13017316613E+04 0.  0.
        3    1    3    3  502    0 -0.28769926823E+03  0.40606933203E+03 -0.12781456296E+04  0.13716119830E+04  0.10100000352E+00 0. -1.
       -3    1    3    3    0  502  0.28769926823E+03 -0.40606933203E+03 -0.70232838104E+02  0.50258912951E+03  0.10100000352E+00 0.  1.
</event>
<event>
 5   0  0.1694675E-03  0.1285536E+04  0.7818609E-02  0.9041115E-01
       -2   -1    0    0    0  501  0.00000000000E+00  0.00000000000E+00  0.47792210452E+03  0.47792210453E+03  0.25500000920E-02 0.  1.
        2   -1    0    0  501    0  0.00000000000E+00  0.00000000000E+00 -0.86447222468E+03  0.86447222468E+03  0.25500000920E-02 0. -1.
    10030    2    1    2    0    0  0.00000000000E+00  0.00000000000E+00 -0.38655012016E+03  0.13423943292E+04  0.12855355070E+04 0.  0.
        4    1    3    3  502    0 -0.11575453570E+03  0.23314928848E+03  0.42041852546E+03  0.49448058880E+03  0.12699999809E+01 0.  1.
       -4    1    3    3    0  502  0.11575453570E+03 -0.23314928848E+03 -0.80696864562E+03  0.84791374041E+03  0.12699999809E+01 0. -1.
</event>
<event>
 5   0  0.1667342E-03  0.1302826E+04  0.7818609E-02  0.9027327E-01
       -2   -1    0    0    0  501  0.00000000000E+00  0.00000000000E+00  0.20009296599E+03  0.20009296600E+03  0.25500000920E-02 0.  1.
        2   -1    0    0  501    0  0.00000000000E+00  0.00000000000E+00 -0.21207076047E+04  0.21207076047E+04  0.25500000920E-02 0. -1.
    10030    2    1    2    0    0  0.00000000000E+00  0.00000000000E+00 -0.19206146387E+04  0.23208005707E+04  0.13028256593E+04 0.  0.
        5    1    3    3  502    0 -0.52124277575E+03  0.34473795986E+03 -0.12877010544E+04  0.14313400671E+04  0.46999998093E+01 0. -1.
       -5    1    3    3    0  502  0.52124277575E+03 -0.34473795986E+03 -0.63291358434E+03  0.88946050361E+03  0.46999998093E+01 0.  1.
</event>
<event>
 5   0  0.9027076E-04  0.1309730E+04  0.7818609E-02  0.9021885E-01
       -1   -1    0    0    0  501  0.00000000000E+00  0.00000000000E+00  0.45658272148E+03  0.45658272151E+03  0.50400001928E-02 0.  1.
        1   -1    0    0  501    0  0.00000000000E+00  0.00000000000E+00 -0.93925595036E+03  0.93925595037E+03  0.50400001928E-02 0. -1.
    10030    2    1    2    0    0  0.00000000000E+00  0.00000000000E+00 -0.48267322888E+03  0.13958386719E+04  0.13097298012E+04 0.  0.
        5    1    3    3  502    0  0.37097872505E+03  0.56691335873E+02 -0.81326259783E+03  0.89568815167E+03  0.46999998093E+01 0. -1.
       -5    1    3    3    0  502 -0.37097872505E+03 -0.56691335873E+02  0.33058936895E+03  0.50015052021E+03  0.46999998093E+01 0.  1.
</event>
<event>
 5   0  0.1623890E-03  0.1371843E+04  0.7818609E-02  0.8974456E-01
       -2   -1    0    0    0  501  0.00000000000E+00  0.00000000000E+00  0.87375872360E+03  0.87375872361E+03  0.25500000920E-02 0.  1.
        2   -1    0    0  501    0  0.00000000000E+00  0.00000000000E+00 -0.53846477473E+03  0.53846477473E+03  0.25500000920E-02 0. -1.
    10030    2    1    2    0    0  0.00000000000E+00  0.00000000000E+00  0.33529394888E+03  0.14122234983E+04  0.13718429856E+04 0.  0.
        3    1    3    3  502    0 -0.18155899401E+03  0.64284049813E+03  0.72376111163E+01  0.66802692129E+03  0.10100000352E+00 0.  1.
       -3    1    3    3    0  502  0.18155899401E+03 -0.64284049813E+03  0.32805633776E+03  0.74419657705E+03  0.10100000352E+00 0. -1.
</event>
<event>
 5   0  0.1714861E-03  0.1309854E+04  0.7818609E-02  0.9021787E-01
        2   -1    0    0  501    0  0.00000000000E+00  0.00000000000E+00  0.65306959258E+03  0.65306959259E+03  0.25500000920E-02 0. -1.
       -2   -1    0    0    0  501  0.00000000000E+00  0.00000000000E+00 -0.65678949707E+03  0.65678949707E+03  0.25500000920E-02 0.  1.
    10030    2    1    2    0    0  0.00000000000E+00  0.00000000000E+00 -0.37199044845E+01  0.13098590897E+04  0.13098538075E+04 0.  0.
        1    1    3    3  502    0  0.47147357835E+03  0.42900469533E+03 -0.15218316335E+03  0.65535645181E+03  0.50400001928E-02 0. -1.
       -1    1    3    3    0  502 -0.47147357835E+03 -0.42900469533E+03  0.14846325886E+03  0.65450263785E+03  0.50400001928E-02 0.  1.
</event>
<event>
 5   0  0.1694675E-03  0.1315237E+04  0.7818609E-02  0.9017568E-01
       -2   -1    0    0    0  501  0.00000000000E+00  0.00000000000E+00  0.65060036039E+03  0.65060036039E+03  0.25500000920E-02 0.  1.
        2   -1    0    0  501    0  0.00000000000E+00  0.00000000000E+00 -0.66471272304E+03  0.66471272304E+03  0.25500000920E-02 0. -1.
    10030    2    1    2    0    0  0.00000000000E+00  0.00000000000E+00 -0.14112362653E+02  0.13153130834E+04  0.13152373735E+04 0.  0.
        4    1    3    3  502    0  0.25247266668E+03  0.19502287585E+03  0.56802853128E+03  0.65148629668E+03  0.12699999809E+01 0.  1.
       -4    1    3    3    0  502 -0.25247266668E+03 -0.19502287585E+03 -0.58214089393E+03  0.66382678675E+03  0.12699999809E+01 0. -1.
</event>
<event>
 5   0  0.1714861E-03  0.1439854E+04  0.7818609E-02  0.8925465E-01
       -2   -1    0    0    0  501  0.00000000000E+00  0.00000000000E+00  0.35061107093E+03  0.35061107094E+03  0.25500000920E-02 0. -1.
        2   -1    0    0  501    0  0.00000000000E+00  0.00000000000E+00 -0.14782620714E+04  0.14782620714E+04  0.25500000920E-02 0.  1.
    10030    2    1    2    0    0  0.00000000000E+00  0.00000000000E+00 -0.11276510005E+04  0.18288731424E+04  0.14398542259E+04 0.  0.
        1    1    3    3  502    0 -0.27508230890E+03 -0.62645368736E+02  0.27747091211E+03  0.39570800596E+03  0.50400001928E-02 0. -1.
       -1    1    3    3    0  502  0.27508230890E+03  0.62645368736E+02 -0.14051219126E+04  0.14331651364E+04  0.50400001928E-02 0.  1.
</event>
<event>
 5   0  0.1623890E-03  0.1305096E+04  0.7818609E-02  0.9025534E-01
        2   -1    0    0  501    0  0.00000000000E+00  0.00000000000E+00  0.22298598632E+04  0.22298598632E+04  0.25500000920E-02 0. -1.
       -2   -1    0    0    0  501  0.00000000000E+00  0.00000000000E+00 -0.19096204780E+03  0.19096204782E+03  0.25500000920E-02 0.  1.
    10030    2    1    2    0    0  0.00000000000E+00  0.00000000000E+00  0.20388978154E+04  0.24208219110E+04  0.13050955610E+04 0.  0.
        3    1    3    3  502    0  0.60187310806E+03  0.16403548600E+03  0.66429623976E+03  0.91128940696E+03  0.10100000352E+00 0. -1.
       -3    1    3    3    0  502 -0.60187310806E+03 -0.16403548600E+03  0.13746015757E+04  0.15095325041E+04  0.10100000352E+00 0.  1.
</event>
<event>
 5   0  0.1700511E-03  0.1282567E+04  0.7818609E-02  0.9043505E-01
       -2   -1    0    0    0  501  0.00000000000E+00  0.00000000000E+00  0.52129017600E+03  0.52129017601E+03  0.25500000920E-02 0. -1.
        2   -1    0    0  501    0  0.00000000000E+00  0.00000000000E+00 -0.78889740461E+03  0.78889740461E+03  0.25500000920E-02 0.  1.
    10030    2    1    2    0    0  0.00000000000E+00  0.00000000000E+00 -0.26760722861E+03  0.13101875806E+04  0.12825669057E+04 0.  0.
        2    1    3    3  502    0 -0.47234162995E+03 -0.34760628152E+02 -0.57546804956E+03  0.74530422830E+03  0.25500000920E-02 0.  1.
       -2    1    3    3    0  502  0.47234162995E+03  0.34760628152E+02  0.30786082095E+03  0.56488335232E+03  0.25500000920E-02 0. -1.
</event>
<event>
 5   0  0.1714861E-03  0.1301034E+04  0.7818609E-02  0.9028746E-01
        2   -1    0    0  501    0  0.00000000000E+00  0.00000000000E+00  0.75814266703E+03  0.75814266704E+03  0.25500000920E-02 0.  1.
       -2   -1    0    0    0  501  0.00000000000E+00  0.00000000000E+00 -0.55816940689E+03  0.55816940689E+03  0.25500000920E-02 0. -1.
    10030    2    1    2    0    0  0.00000000000E+00  0.00000000000E+00  0.19997326015E+03  0.13163120739E+04  0.13010335012E+04 0.  0.
        1    1    3    3  502    0  0.17896321605E+03 -0.10300911765E+03 -0.52413141150E+03  0.56334043665E+03  0.50400001928E-02 0. -1.
       -1    1    3    3    0  502 -0.17896321605E+03  0.10300911765E+03  0.72410467165E+03  0.75297163728E+03  0.50400001928E-02 0.  1.
</event>
<event>
 5   0  0.1700511E-03  0.1203525E+04  0.7818609E-02  0.9109777E-01
        2   -1    0    0  501    0  0.00000000000E+00  0.00000000000E+00  0.96996091014E+03  0.96996091015E+03  0.25500000920E-02 0.  1.
       -2   -1    0    0    0  501  0.00000000000E+00  0.00000000000E+00 -0.37333255071E+03  0.37333255072E+03  0.25500000920E-02 0. -1.
    10030    2    1    2    0    0  0.00000000000E+00  0.00000000000E+00  0.59662835943E+03  0.13432934609E+04  0.12035247911E+04 0.  0.
        2    1    3    3  502    0  0.49333446993E+02 -0.39768165555E+03 -0.20274552207E+03  0.44909935969E+03  0.25500000920E-02 0. -1.
       -2    1    3    3    0  502 -0.49333446993E+02  0.39768165555E+03  0.79937388150E+03  0.89419410117E+03  0.25500000920E-02 0.  1.
</event>
<event>
 5   0  0.9098192E-04  0.1293370E+04  0.7818609E-02  0.9034839E-01
       -1   -1    0    0    0  501  0.00000000000E+00  0.00000000000E+00  0.21240850812E+03  0.21240850818E+03  0.50400001928E-02 0.  1.
        1   -1    0    0  501    0  0.00000000000E+00  0.00000000000E+00 -0.19688544909E+04  0.19688544909E+04  0.50400001928E-02 0. -1.
    10030    2    1    2    0    0  0.00000000000E+00  0.00000000000E+00 -0.17564459828E+04  0.21812629991E+04  0.12933699319E+04 0.  0.
        1    1    3    3  502    0 -0.16252435791E+03  0.62432837701E+02 -0.19285855650E+04  0.19364282346E+04  0.50400001928E-02 0. -1.
       -1    1    3    3    0  502  0.16252435791E+03 -0.62432837701E+02  0.17213958220E+03  0.24483476453E+03  0.50400001928E-02 0.  1.
</event>
<event>
 5   0  0.9110949E-04  0.1300474E+04  0.7818609E-02  0.9029189E-01
       -1   -1    0    0    0  501  0.00000000000E+00  0.00000000000E+00  0.20104840262E+03  0.20104840268E+03  0.50400001928E-02 0.  1.
        1   -1    0    0  501    0  0.00000000000E+00  0.00000000000E+00 -0.21030180545E+04  0.21030180545E+04  0.50400001928E-02 0. -1.
    10030    2    1    2    0    0  0.00000000000E+00  0.00000000000E+00 -0.19019696519E+04  0.23040664572E+04  0.13004744067E+04 0.  0.
        2    1    3    3  502    0 -0.16864668404E+03 -0.27722022023E+02 -0.20625111359E+04  0.20695802473E+04  0.25500000920E-02 0. -1.
       -2    1    3    3    0  502  0.16864668404E+03  0.27722022023E+02  0.16054148396E+03  0.23448620988E+03  0.25500000920E-02 0.  1.
</event>
<event>
 5   0  0.9081324E-04  0.1255963E+04  0.7818609E-02  0.9065235E-01
       -1   -1    0    0    0  501  0.00000000000E+00  0.00000000000E+00  0.59244046860E+03  0.59244046862E+03  0.50400001928E-02 0.  1.
        1   -1    0    0  501    0  0.00000000000E+00  0.00000000000E+00 -0.66565427731E+03  0.66565427732E+03  0.50400001928E-02 0. -1.
    10030    2    1    2    0    0  0.00000000000E+00  0.00000000000E+00 -0.73213808705E+02  0.12580947459E+04  0.12559626300E+04 0.  0.
        4    1    3    3  502    0 -0.46938078980E+02  0.45784413775E+03 -0.46457272853E+03  0.65395249883E+03  0.12699999809E+01 0. -1.
       -4    1    3    3    0  502  0.46938078980E+02 -0.45784413775E+03  0.39135891982E+03  0.60414224712E+03  0.12699999809E+01 0.  1.
</event>
<event>
 5   0  0.9027076E-04  0.1296349E+04  0.7818609E-02  0.9032466E-01
       -1   -1    0    0    0  501  0.00000000000E+00  0.00000000000E+00  0.81752506407E+03  0.81752506408E+03  0.50400001928E-02 0. -1.
        1   -1    0    0  501    0  0.00000000000E+00  0.00000000000E+00 -0.51390468964E+03  0.51390468967E+03  0.50400001928E-02 0.  1.
    10030    2    1    2    0    0  0.00000000000E+00  0.00000000000E+00  0.30362037443E+03  0.13314297537E+04  0.12963486635E+04 0.  0.
        5    1    3    3  502    0 -0.39053041074E+03 -0.13381582804E+03  0.66501954960E+03  0.78274757674E+03  0.46999998093E+01 0. -1.
       -5    1    3    3    0  502  0.39053041074E+03  0.13381582804E+03 -0.36139917518E+03  0.54868217700E+03  0.46999998093E+01 0.  1.
</event>
<event>
 5   0  0.1623890E-03  0.1293538E+04  0.7818609E-02  0.9034706E-01
       -2   -1    0    0    0  501  0.00000000000E+00  0.00000000000E+00  0.37145324688E+03  0.37145324689E+03  0.25500000920E-02 0. -1.
        2   -1    0    0  501    0  0.00000000000E+00  0.00000000000E+00 -0.11261440749E+04  0.11261440749E+04  0.25500000920E-02 0.  1.
    10030    2    1    2    0    0  0.00000000000E+00  0.00000000000E+00 -0.75469082804E+03  0.14975973218E+04  0.12935375883E+04 0.  0.
        3    1    3    3  502    0 -0.62629503261E+03  0.20765128061E+02 -0.19198480296E+03  0.65538907009E+03  0.10100000352E+00 0. -1.
       -3    1    3    3    0  502  0.62629503261E+03 -0.20765128061E+02 -0.56270602508E+03  0.84220825173E+03  0.10100000352E+00 0.  1.
</event>
<event>
 5   0  0.6284125E-04  0.1288658E+04  0.7818609E-02  0.9038608E-01
       -3   -1    0    0    0  501  0.00000000000E+00  0.00000000000E+00  0.14936485245E+04  0.14936485279E+04  0.10100000352E+00 0. -1.
        3   -1    0    0  501    0  0.00000000000E+00  0.00000000000E+00 -0.27795010814E+03  0.27795012649E+03  0.10100000352E+00 0.  1.
    10030    2    1    2    0    0  0.00000000000E+00  0.00000000000E+00  0.12156984163E+04  0.17715986544E+04  0.12886578882E+04 0.  0.
        3    1    3    3  502    0  0.58612978392E+03 -0.13336519106E+03  0.28890019828E+03  0.66693158011E+03  0.10100000352E+00 0.  1.
       -3    1    3    3    0  502 -0.58612978392E+03  0.13336519106E+03  0.92679821806E+03  0.11046670743E+04  0.10100000352E+00 0. -1.
</event>
<event>
 5   0  0.1623890E-03  0.1330990E+04  0.7818609E-02  0.9005344E-01
        2   -1    0    0  501    0  0.00000000000E+00  0.00000000000E+00  0.15505179735E+04  0.15505179735E+04  0.25500000920E-02 0.  1.
       -2   -1    0    0    0  501  0.00000000000E+00  0.00000000000E+00 -0.28563602581E+03  0.28563602582E+03  0.25500000920E-02 0. -1.
    10030    2    1    2    0    0  0.00000000000E+00  0.00000000000E+00  0.12648819477E+04  0.18361539993E+04  0.13309902958E+04 0.  0.
        3    1    3    3  502    0 -0.76211526425E+02  0.44926764057E+03 -0.36648841836E+02  0.45715725678E+03  0.10100000352E+00 0. -1.
       -3    1    3    3    0  502  0.76211526425E+02 -0.44926764057E+03  0.13015307895E+04  0.13789967425E+04  0.10100000352E+00 0.  1.
</event>
<event>
 5   0  0.9215829E-04  0.1313528E+04  0.7818609E-02  0.9018906E-01
       -1   -1    0    0    0  501  0.00000000000E+00  0.00000000000E+00  0.26674826147E+03  0.26674826152E+03  0.50400001928E-02 0. -1.
        1   -1    0    0  501    0  0.00000000000E+00  0.00000000000E+00 -0.16170259095E+04  0.16170259095E+04  0.50400001928E-02 0.  1.
    10030    2    1    2    0    0  0.00000000000E+00  0.00000000000E+00 -0.13502776481E+04  0.18837741711E+04  0.13135278454E+04 0.  0.
        3    1    3    3  502    0  0.14577506022E+03 -0.53109620502E+03 -0.11882806827E+04  0.13097039888E+04  0.10100000352E+00 0.  1.
       -3    1    3    3    0  502 -0.14577506022E+03  0.53109620502E+03 -0.16199696534E+03  0.57407018226E+03  0.10100000352E+00 0. -1.
</event>
<event>
 5   0  0.9081324E-04  0.1300237E+04  0.7818609E-02  0.9029377E-01
        1   -1    0    0  501    0  0.00000000000E+00  0.00000000000E+00  0.83872940752E+03  0.83872940754E+03  0.50400001928E-02 0. -1.
       -1   -1    0    0    0  501  0.00000000000E+00  0.00000000000E+00 -0.50392173679E+03  0.50392173681E+03  0.50400001928E-02 0.  1.
    10030    2    1    2    0    0  0.00000000000E+00  0.00000000000E+00  0.33480767074E+03  0.13426511444E+04  0.13002368704E+04 0.  0.
        4    1    3    3  502    0 -0.51059980277E+03 -0.22781155612E+03  0.50995082123E+03  0.75674415536E+03  0.12699999809E+01 0. -1.
       -4    1    3    3    0  502  0.51059980277E+03  0.22781155612E+03 -0.17514315050E+03  0.58590698900E+03  0.12699999809E+01 0.  1.
</event>
<event>
 5   0  0.9027076E-04  0.1185546E+04  0.7818609E-02  0.9125603E-01
       -1   -1    0    0    0  501  0.00000000000E+00  0.00000000000E+00  0.31342682726E+03  0.31342682730E+03  0.50400001928E-02 0. -1.
        1   -1    0    0  501    0  0.00000000000E+00  0.00000000000E+00 -0.11210898117E+04  0.11210898117E+04  0.50400001928E-02 0.  1.
    10030    2    1    2    0    0  0.00000000000E+00  0.00000000000E+00 -0.80766298445E+03  0.14345166390E+04  0.11855456512E+04 0.  0.
        5    1    3    3  502    0 -0.36327918434E+02  0.48553712858E+03 -0.81289835220E+03  0.94757154975E+03  0.46999998093E+01 0.  1.
       -5    1    3    3    0  502  0.36327918434E+02 -0.48553712858E+03  0.52353677541E+01  0.48694508926E+03  0.46999998093E+01 0. -1.
</event>
<event>
 5   0  0.1694675E-03  0.1196130E+04  0.7818609E-02  0.9116250E-01
        2   -1    0    0  501    0  0.00000000000E+00  0.00000000000E+00  0.10152614989E+04  0.10152614989E+04  0.25500000920E-02 0. -1.
       -2   -1    0    0    0  501  0.00000000000E+00  0.00000000000E+00 -0.35230533551E+03  0.35230533552E+03  0.25500000920E-02 0.  1.
    10030    2    1    2    0    0  0.00000000000E+00  0.00000000000E+00  0.66295616338E+03  0.13675668344E+04  0.11961304996E+04 0.  0.
        4    1    3    3  502    0  0.32820496382E+02  0.14060626073E+03  0.99503379449E+03  0.10054557030E+04  0.12699999809E+01 0. -1.
       -4    1    3    3    0  502 -0.32820496382E+02 -0.14060626073E+03 -0.33207763111E+03  0.36211113145E+03  0.12699999809E+01 0.  1.
</event>
<event>
 5   0  0.1694675E-03  0.1327377E+04  0.7818609E-02  0.9008132E-01
        2   -1    0    0  501    0  0.00000000000E+00  0.00000000000E+00  0.76910863390E+03  0.76910863390E+03  0.25500000920E-02 0.  1.
       -2   -1    0    0    0  501  0.00000000000E+00  0.00000000000E+00 -0.57271832198E+03  0.57271832199E+03  0.25500000920E-02 0. -1.
    10030    2    1    2    0    0  0.00000000000E+00  0.00000000000E+00  0.19639031192E+03  0.13418269559E+04  0.13273772730E+04 0.  0.
        4    1    3    3  502    0 -0.13756531904E+03  0.63380488303E+03 -0.44221936116E+02  0.65006925730E+03  0.12699999809E+01 0. -1.
       -4    1    3    3    0  502  0.13756531904E+03 -0.63380488303E+03  0.24061224803E+03  0.69175769859E+03  0.12699999809E+01 0.  1.
</event>
<event>
 5   0  0.1623890E-03  0.1291967E+04  0.7818609E-02  0.9035959E-01
        2   -1    0    0  501    0  0.00000000000E+00  0.00000000000E+00  0.80248643247E+03  0.80248643247E+03  0.25500000920E-02 0.  1.
       -2   -1    0    0    0  501  0.00000000000E+00  0.00000000000E+00 -0.52000250571E+03  0.52000250572E+03  0.25500000920E-02 0. -1.
    10030    2    1    2    0    0  0.00000000000E+00  0.00000000000E+00  0.28248392676E+03  0.13224889382E+04  0.12919674233E+04 0.  0.
        3    1    3    3  502    0 -0.84917257891E+02 -0.64037767943E+03  0.14191513910E+03  0.66138825958E+03  0.10100000352E+00 0.  1.
       -3    1    3    3    0  502  0.84917257891E+02  0.64037767943E+03  0.14056878765E+03  0.66110067861E+03  0.10100000352E+00 0. -1.
</event>
<event>
 5   0  0.9098192E-04  0.1285227E+04  0.7818609E-02  0.9041363E-01
        1   -1    0    0  501    0  0.00000000000E+00  0.00000000000E+00  0.95520645593E+03  0.95520645594E+03  0.50400001928E-02 0. -1.
       -1   -1    0    0    0  501  0.00000000000E+00  0.00000000000E+00 -0.43231726366E+03  0.43231726369E+03  0.50400001928E-02 0.  1.
    10030    2    1    2    0    0  0.00000000000E+00  0.00000000000E+00  0.52288919227E+03  0.13875237196E+04  0.12852272037E+04 0.  0.
        1    1    3    3  502    0  0.22263303650E+03 -0.22870778104E+03 -0.34069365792E+03  0.46684567752E+03  0.50400001928E-02 0.  1.
       -1    1    3    3    0  502 -0.22263303650E+03  0.22870778104E+03  0.86358285019E+03  0.92067804211E+03  0.50400001928E-02 0. -1.
</event>
<event>
 5   0  0.1694675E-03  0.1286571E+04  0.7818609E-02  0.9040283E-01
       -2   -1    0    0    0  501  0.00000000000E+00  0.00000000000E+00  0.61164942392E+03  0.61164942393E+03  0.25500000920E-02 0. -1.
        2   -1    0    0  501    0  0.00000000000E+00  0.00000000000E+00 -0.67655803644E+03  0.67655803644E+03  0.25500000920E-02 0.  1.
    10030    2    1    2    0    0  0.00000000000E+00  0.00000000000E+00 -0.64908612515E+02  0.12882074604E+04  0.12865711535E+04 0.  0.
        4    1    3    3  502    0 -0.10184761845E+03  0.61156673549E+03 -0.20421813695E+03  0.65275835475E+03  0.12699999809E+01 0.  1.
       -4    1    3    3    0  502  0.10184761845E+03 -0.61156673549E+03  0.13930952443E+03  0.63544910562E+03  0.12699999809E+01 0. -1.
</event>
<event>
 5   0  0.9081324E-04  0.1316544E+04  0.7818609E-02  0.9016547E-01
       -1   -1    0    0    0  501  0.00000000000E+00  0.00000000000E+00  0.65943547239E+03  0.65943547241E+03  0.50400001928E-02 0.  1.
        1   -1    0    0  501    0  0.00000000000E+00  0.00000000000E+00 -0.65711073479E+03  0.65711073481E+03  0.50400001928E-02 0. -1.
    10030    2    1    2    0    0  0.00000000000E+00  0.00000000000E+00  0.23247375961E+01  0.13165462072E+04  0.13165441547E+04 0.  0.
        4    1    3    3  502    0 -0.91089857304E+02  0.16255454828E+03  0.63251046177E+03  0.65938792862E+03  0.12699999809E+01 0.  1.
       -4    1    3    3    0  502  0.91089857304E+02 -0.16255454828E+03 -0.63018572417E+03  0.65715827859E+03  0.12699999809E+01 0. -1.
</event>
<event>
 5   0  0.1714861E-03  0.1318160E+04  0.7818609E-02  0.9015287E-01
        2   -1    0    0  501    0  0.00000000000E+00  0.00000000000E+00  0.78845881061E+03  0.78845881061E+03  0.25500000920E-02 0. -1.
       -2   -1    0    0    0  501  0.00000000000E+00  0.00000000000E+00 -0.55093074126E+03  0.55093074126E+03  0.25500000920E-02 0.  1.
    10030    2    1    2    0    0  0.00000000000E+00  0.00000000000E+00  0.23752806935E+03  0.13393895519E+04  0.13181596216E+04 0.  0.
        1    1    3    3  502    0  0.60387912302E+03  0.20297764090E+03 -0.52823340475E+02  0.63926537779E+03  0.50400001928E-02 0.  1.
       -1    1    3    3    0  502 -0.60387912302E+03 -0.20297764090E+03  0.29035140983E+03  0.70012417408E+03  0.50400001928E-02 0. -1.
</event>
<event>
 5   0  0.1667342E-03  0.1282534E+04  0.7818609E-02  0.9043532E-01
        2   -1    0    0  501    0  0.00000000000E+00  0.00000000000E+00  0.13385972301E+04  0.13385972301E+04  0.25500000920E-02 0.  1.
       -2   -1    0    0    0  501  0.00000000000E+00  0.00000000000E+00 -0.30720464628E+03  0.30720464629E+03  0.25500000920E-02 0. -1.
    10030    2    1    2    0    0  0.00000000000E+00  0.00000000000E+00  0.10313925838E+04  0.16458018764E+04  0.12825338804E+04 0.  0.
        5    1    3    3  502    0 -0.41999317390E+02 -0.44744059205E+02  0.13347983050E+04  0.13362165163E+04  0.46999998093E+01 0.  1.
       -5    1    3    3    0  502  0.41999317390E+02  0.44744059205E+02 -0.30340572120E+03  0.30958536004E+03  0.46999998093E+01 0. -1.
</event>
<event>
 5   0  0.9098192E-04  0.1306043E+04  0.7818609E-02  0.9024787E-01
        1   -1    0    0  501    0  0.00000000000E+00  0.00000000000E+00  0.14960433692E+04  0.14960433693E+04  0.50400001928E-02 0. -1.
       -1   -1    0    0    0  501  0.00000000000E+00  0.00000000000E+00 -0.28504313298E+03  0.28504313302E+03  0.50400001928E-02 0.  1.
    10030    2    1    2    0    0  0.00000000000E+00  0.00000000000E+00  0.12110002363E+04  0.17810865023E+04  0.13060427085E+04 0.  0.
        1    1    3    3  502    0 -0.84537696980E+02  0.23557341399E+03  0.14280386567E+04  0.14498054561E+04  0.50400001928E-02 0. -1.
       -1    1    3    3    0  502  0.84537696980E+02 -0.23557341399E+03 -0.21703842040E+03  0.33128104617E+03  0.50400001928E-02 0.  1.
</event>
<event>
 5   0  0.9098192E-04  0.1245495E+04  0.7818609E-02  0.9073941E-01
       -1   -1    0    0    0  501  0.00000000000E+00  0.00000000000E+00  0.45626027571E+03  0.45626027574E+03  0.50400001928E-02 0. -1.
        1   -1    0    0  501    0  0.00000000000E+00  0.00000000000E+00 -0.84998554729E+03  0.84998554730E+03  0.50400001928E-02 0.  1.
    10030    2    1    2    0    0  0.00000000000E+00  0.00000000000E+00 -0.39372527158E+03  0.13062458230E+04  0.12454953074E+04 0.  0.
        1    1    3    3  502    0  0.52773598707E+03  0.24664658713E+02 -0.54264244808E+03  0.75734697724E+03  0.50400001928E-02 0.  1.
       -1    1    3    3    0  502 -0.52773598707E+03 -0.24664658713E+02  0.14891717650E+03  0.54889884581E+03  0.50400001928E-02 0. -1.
</event>
<event>
 5   0  0.9081324E-04  0.1279525E+04  0.7818609E-02  0.9045962E-01
       -1   -1    0    0    0  501  0.00000000000E+00  0.00000000000E+00  0.28993686362E+03  0.28993686367E+03  0.50400001928E-02 0. -1.
        1   -1    0    0  501    0  0.00000000000E+00  0.00000000000E+00 -0.14116723864E+04  0.14116723865E+04  0.50400001928E-02 0.  1.
    10030    2    1    2    0    0  0.00000000000E+00  0.00000000000E+00 -0.11217355228E+04  0.17016092501E+04  0.12795246996E+04 0.  0.
        4    1    3    3  502    0 -0.32413452916E+03  0.23665997877E+03  0.10170300872E+03  0.41402445994E+03  0.12699999809E+01 0. -1.
       -4    1    3    3    0  502  0.32413452916E+03 -0.23665997877E+03 -0.12234385315E+04  0.12875847902E+04  0.12699999809E+01 0.  1.
</event>
<event>
 5   0  0.1694675E-03  0.1297940E+04  0.7818609E-02  0.9031200E-01
        2   -1    0    0  501    0  0.00000000000E+00  0.00000000000E+00  0.98245851163E+03  0.98245851164E+03  0.25500000920E-02 0. -1.
       -2   -1    0    0    0  501  0.00000000000E+00  0.00000000000E+00 -0.42868177911E+03  0.42868177912E+03  0.25500000920E-02 0.  1.
    10030    2    1    2    0    0  0.00000000000E+00  0.00000000000E+00  0.55377673252E+03  0.14111402908E+04  0.12979400027E+04 0.  0.
        4    1    3    3  502    0  0.21856581062E+03 -0.28484334488E+03 -0.31086562525E+03  0.47491661853E+03  0.12699999809E+01 0.  1.
       -4    1    3    3    0  502 -0.21856581062E+03  0.28484334488E+03  0.86464235776E+03  0.93622367223E+03  0.12699999809E+01 0. -1.
</event>
<event>
 5   0  0.9098192E-04  0.1329116E+04  0.7818609E-02  0.9006789E-01
       -1   -1    0    0    0  501  0.00000000000E+00  0.00000000000E+00  0.83218727896E+03  0.83218727897E+03  0.50400001928E-02 0. -1.
        1   -1    0    0  501    0  0.00000000000E+00  0.00000000000E+00 -0.53069472732E+03  0.53069472735E+03  0.50400001928E-02 0.  1.
    10030    2    1    2    0    0  0.00000000000E+00  0.00000000000E+00  0.30149255163E+03  0.13628820063E+04  0.13291160989E+04 0.  0.
        1    1    3    3  502    0 -0.15073085707E+03  0.30648642971E+03  0.73530226455E+03  0.81075467507E+03  0.50400001928E-02 0. -1.
       -1    1    3    3    0  502  0.15073085707E+03 -0.30648642971E+03 -0.43380971291E+03  0.55212733125E+03  0.50400001928E-02 0.  1.
</event>
<event>
 5   0  0.1714861E-03  0.1289414E+04  0.7818609E-02  0.9038002E-01
        2   -1    0    0  501    0  0.00000000000E+00  0.00000000000E+00  0.86074867586E+03  0.86074867586E+03  0.25500000920E-02 0. -1.
       -2   -1    0    0    0  501  0.00000000000E+00  0.00000000000E+00 -0.48289026083E+03  0.48289026084E+03  0.25500000920E-02 0.  1.
    10030    2    1    2    0    0  0.00000000000E+00  0.00000000000E+00  0.37785841502E+03  0.13436389367E+04  0.12894140570E+04 0.  0.
        1    1    3    3  502    0  0.34546269134E+03 -0.35503494214E+03  0.61889846268E+03  0.79273550973E+03  0.50400001928E-02 0. -1.
       -1    1    3    3    0  502 -0.34546269134E+03  0.35503494214E+03 -0.24104004766E+03  0.55090342697E+03  0.50400001928E-02 0.  1.
</event>
<event>
 5   0  0.6284125E-04  0.1301472E+04  0.7818609E-02  0.9028399E-01
       -3   -1    0    0    0  501  0.00000000000E+00  0.00000000000E+00  0.10212185652E+04  0.10212185702E+04  0.10100000352E+00 0.  1.
        3   -1    0    0  501    0  0.00000000000E+00  0.00000000000E+00 -0.41465887112E+03  0.41465888342E+03  0.10100000352E+00 0. -1.
    10030    2    1    2    0    0  0.00000000000E+00  0.00000000000E+00  0.60655969406E+03  0.14358774536E+04  0.13014720125E+04 0.  0.
        4    1    3    3  502    0  0.31160979067E+03 -0.24859853218E+03 -0.26418580837E+03  0.47822342695E+03  0.12699999809E+01 0. -1.
       -4    1    3    3    0  502 -0.31160979067E+03  0.24859853218E+03  0.87074550243E+03  0.95765402664E+03  0.12699999809E+01 0.  1.
</event>
<event>
 5   0  0.9027076E-04  0.1295801E+04  0.7818609E-02  0.9032902E-01
       -1   -1    0    0    0  501  0.00000000000E+00  0.00000000000E+00  0.15956988460E+04  0.15956988461E+04  0.50400001928E-02 0.  1.
        1   -1    0    0  501    0  0.00000000000E+00  0.00000000000E+00 -0.26306646524E+03  0.26306646529E+03  0.50400001928E-02 0. -1.
    10030    2    1    2    0    0  0.00000000000E+00  0.00000000000E+00  0.13326323808E+04  0.18587653113E+04  0.12958006870E+04 0.  0.
        5    1    3    3  502    0 -0.48092256993E+03  0.14137753512E+03  0.77528425927E+02  0.50725424841E+03  0.46999998093E+01 0. -1.
       -5    1    3    3    0  502  0.48092256993E+03 -0.14137753512E+03  0.12551039549E+04  0.13515110629E+04  0.46999998093E+01 0.  1.
</event>
<event>
 5   0  0.1623890E-03  0.1275844E+04  0.7818609E-02  0.9048943E-01
        2   -1    0    0  501    0  0.00000000000E+00  0.00000000000E+00  0.67293067012E+03  0.67293067013E+03  0.25500000920E-02 0. -1.
       -2   -1    0    0    0  501  0.00000000000E+00  0.00000000000E+00 -0.60473504370E+03  0.60473504370E+03  0.25500000920E-02 0.  1.
    10030    2    1    2    0    0  0.00000000000E+00  0.00000000000E+00  0.68195626424E+02  0.12776657138E+04  0.12758444391E+04 0.  0.
        3    1    3    3  502    0 -0.68780137624E+02  0.18505010006E+03 -0.57337384100E+03  0.60640895327E+03  0.10100000352E+00 0.  1.
       -3    1    3    3    0  502  0.68780137624E+02 -0.18505010006E+03  0.64156946743E+03  0.67125676056E+03  0.10100000352E+00 0. -1.
</event>
<event>
 5   0  0.9098192E-04  0.1278919E+04  0.7818609E-02  0.9046451E-01
        1   -1    0    0  501    0  0.00000000000E+00  0.00000000000E+00  0.60042015311E+03  0.60042015313E+03  0.50400001928E-02 0.  1.
       -1   -1    0    0    0  501  0.00000000000E+00  0.00000000000E+00 -0.68103759351E+03  0.68103759353E+03  0.50400001928E-02 0. -1.
    10030    2    1    2    0    0  0.00000000000E+00  0.00000000000E+00 -0.80617440403E+02  0.12814577467E+04  0.12789193817E+04 0.  0.
        1    1    3    3  502    0  0.38766507492E+03 -0.28510585381E+03  0.38164363793E+03  0.61418354308E+03  0.50400001928E-02 0.  1.
       -1    1    3    3    0  502 -0.38766507492E+03  0.28510585381E+03 -0.46226107833E+03  0.66727420358E+03  0.50400001928E-02 0. -1.
</event>
<event>
 5   0  0.9027076E-04  0.1301957E+04  0.7818609E-02  0.9028015E-01
       -1   -1    0    0    0  501  0.00000000000E+00  0.00000000000E+00  0.44770824486E+03  0.44770824489E+03  0.50400001928E-02 0.  1.
        1   -1    0    0  501    0  0.00000000000E+00  0.00000000000E+00 -0.94653831220E+03  0.94653831222E+03  0.50400001928E-02 0. -1.
    10030    2    1    2    0    0  0.00000000000E+00  0.00000000000E+00 -0.49883006734E+03  0.13942465571E+04  0.13019569985E+04 0.  0.
        5    1    3    3  502    0  0.13009195894E+03  0.22568573389E+03 -0.88827052436E+03  0.92569140793E+03  0.46999998093E+01 0. -1.
       -5    1    3    3    0  502 -0.13009195894E+03 -0.22568573389E+03  0.38944045702E+03  0.46855514918E+03  0.46999998093E+01 0.  1.
</event>
<event>
 5   0  0.6284125E-04  0.1310131E+04  0.7818609E-02  0.9021569E-01
        3   -1    0    0  501    0  0.00000000000E+00  0.00000000000E+00  0.55942634148E+03  0.55942635059E+03  0.10100000352E+00 0. -1.
       -3   -1    0    0    0  501  0.00000000000E+00  0.00000000000E+00 -0.76705512682E+03  0.76705513347E+03  0.10100000352E+00 0.  1.
    10030    2    1    2    0    0  0.00000000000E+00  0.00000000000E+00 -0.20762878534E+03  0.13264814841E+04  0.13101310679E+04 0.  0.
        5    1    3    3  502    0  0.28725555613E+03 -0.41374815551E+03 -0.52783137997E+03  0.72961040727E+03  0.46999998093E+01 0.  1.
       -5    1    3    3    0  502 -0.28725555613E+03  0.41374815551E+03  0.32020259462E+03  0.59687107680E+03  0.46999998093E+01 0. -1.
</event>
<event>
 5   0  0.1667342E-03  0.1312229E+04  0.7818609E-02  0.9019924E-01
        2   -1    0    0  501    0  0.00000000000E+00  0.00000000000E+00  0.96949623769E+03  0.96949623769E+03  0.25500000920E-02 0.  1.
       -2   -1    0    0    0  501  0.00000000000E+00  0.00000000000E+00 -0.44403057533E+03  0.44403057534E+03  0.25500000920E-02 0. -1.
    10030    2    1    2    0    0  0.00000000000E+00  0.00000000000E+00  0.52546566236E+03  0.14135268130E+04  0.13122285963E+04 0.  0.
        5    1    3    3  502    0 -0.11451421879E+03 -0.12306623524E+03 -0.42042071616E+03  0.45280732451E+03  0.46999998093E+01 0. -1.
       -5    1    3    3    0  502  0.11451421879E+03  0.12306623524E+03  0.94588637851E+03  0.96071948852E+03  0.46999998093E+01 0.  1.
</event>
<event>
 5   0  0.9098192E-04  0.1285173E+04  0.7818609E-02  0.9041406E-01
       -1   -1    0    0    0  501  0.00000000000E+00  0.00000000000E+00  0.48297487617E+03  0.48297487619E+03  0.50400001928E-02 0.  1.
        1   -1    0    0  501    0  0.00000000000E+00  0.00000000000E+00 -0.85494588745E+03  0.85494588746E+03  0.50400001928E-02 0. -1.
    10030    2    1    2    0    0  0.00000000000E+00  0.00000000000E+00 -0.37197101128E+03  0.13379207637E+04  0.12851729598E+04 0.  0.
        1    1    3    3  502    0  0.40967978854E+03 -0.11549678928E+02 -0.70121936783E+03  0.81220657844E+03  0.50400001928E-02 0. -1.
       -1    1    3    3    0  502 -0.40967978854E+03  0.11549678928E+02  0.32924835655E+03  0.52571418521E+03  0.50400001928E-02 0.  1.
</event>
<event>
 5   0  0.9027076E-04  0.1302093E+04  0.7818609E-02  0.9027907E-01
       -1   -1    0    0    0  501  0.00000000000E+00  0.00000000000E+00  0.51264481546E+03  0.51264481548E+03  0.50400001928E-02 0.  1.
        1   -1    0    0  501    0  0.00000000000E+00  0.00000000000E+00 -0.82681307960E+03  0.82681307962E+03  0.50400001928E-02 0. -1.
    10030    2    1    2    0    0  0.00000000000E+00  0.00000000000E+00 -0.31416826415E+03  0.13394578951E+04  0.13020928364E+04 0.  0.
        5    1    3    3  502    0  0.12801627536E+02 -0.19024856178E+03  0.48325832147E+03  0.51953738287E+03  0.46999998093E+01 0.  1.
       -5    1    3    3    0  502 -0.12801627536E+02  0.19024856178E+03 -0.79742658562E+03  0.81992051223E+03  0.46999998093E+01 0. -1.
</event>
<event>
 5   0  0.9215829E-04  0.1300404E+04  0.7818609E-02  0.9029245E-01
       -1   -1    0    0    0  501  0.00000000000E+00  0.00000000000E+00  0.66115243359E+03  0.66115243361E+03  0.50400001928E-02 0. -1.
        1   -1    0    0  501    0  0.00000000000E+00  0.00000000000E+00 -0.63943266149E+03  0.63943266151E+03  0.50400001928E-02 0.  1.
    10030    2    1    2    0    0  0.00000000000E+00  0.00000000000E+00  0.21719772102E+02  0.13005850951E+04  0.13004037224E+04 0.  0.
        3    1    3    3  502    0 -0.13463859847E+03  0.43257960120E+03 -0.45558460662E+03  0.64250292417E+03  0.10100000352E+00 0.  1.
       -3    1    3    3    0  502  0.13463859847E+03 -0.43257960120E+03  0.47730437873E+03  0.65808217095E+03  0.10100000352E+00 0. -1.
</event>
<event>
 5   0  0.1694675E-03  0.1211389E+04  0.7818609E-02  0.9102946E-01
       -2   -1    0    0    0  501  0.00000000000E+00  0.00000000000E+00  0.21158913405E+03  0.21158913407E+03  0.25500000920E-02 0. -1.
        2   -1    0    0  501    0  0.00000000000E+00  0.00000000000E+00 -0.17338595970E+04  0.17338595970E+04  0.25500000920E-02 0.  1.
    10030    2    1    2    0    0  0.00000000000E+00  0.00000000000E+00 -0.15222704630E+04  0.19454487311E+04  0.12113890386E+04 0.  0.
        4    1    3    3  502    0 -0.13213519694E+03 -0.53778807292E+03 -0.36713818244E+03  0.66443041739E+03  0.12699999809E+01 0. -1.
       -4    1    3    3    0  502  0.13213519694E+03  0.53778807292E+03 -0.11551322805E+04  0.12810183137E+04  0.12699999809E+01 0.  1.
</event>
<event>
 5   0  0.9110949E-04  0.1323214E+04  0.7818609E-02  0.9011356E-01
        1   -1    0    0  501    0  0.00000000000E+00  0.00000000000E+00  0.82073268148E+03  0.82073268149E+03  0.50400001928E-02 0.  1.
       -1   -1    0    0    0  501  0.00000000000E+00  0.00000000000E+00 -0.53333338765E+03  0.53333338767E+03  0.50400001928E-02 0. -1.
    10030    2    1    2    0    0  0.00000000000E+00  0.00000000000E+00  0.28739929383E+03  0.13540660692E+04  0.13232144821E+04 0.  0.
        2    1    3    3  502    0 -0.65226276892E+03  0.10477246795E+03  0.10680132539E+03  0.66920139934E+03  0.25500000920E-02 0.  1.
       -2    1    3    3    0  502  0.65226276892E+03 -0.10477246795E+03  0.18059796843E+03  0.68486466983E+03  0.25500000920E-02 0. -1.
</event>
<event>
 5   0  0.6284125E-04  0.1302735E+04  0.7818609E-02  0.9027399E-01
        3   -1    0    0  501    0  0.00000000000E+00  0.00000000000E+00  0.11872856251E+04  0.11872856294E+04  0.10100000352E+00 0. -1.
       -3   -1    0    0    0  501  0.00000000000E+00  0.00000000000E+00 -0.35735247318E+03  0.35735248745E+03  0.10100000352E+00 0.  1.
    10030    2    1    2    0    0  0.00000000000E+00  0.00000000000E+00  0.82993315191E+03  0.15446381168E+04  0.13027347678E+04 0.  0.
        4    1    3    3  502    0 -0.17455979859E+03  0.54511412729E+03  0.46338745340E+02  0.57425554178E+03  0.12699999809E+01 0.  1.
       -4    1    3    3    0  502  0.17455979859E+03 -0.54511412729E+03  0.78359440657E+03  0.97038257505E+03  0.12699999809E+01 0. -1.
</event>
<event>
 5   0  0.1714861E-03  0.1298492E+04  0.7818609E-02  0.9030762E-01
        2   -1    0    0  501    0  0.00000000000E+00  0.00000000000E+00  0.17933171573E+04  0.17933171573E+04  0.25500000920E-02 0. -1.
       -2   -1    0    0    0  501  0.00000000000E+00  0.00000000000E+00 -0.23505067366E+03  0.23505067367E+03  0.25500000920E-02 0.  1.
    10030    2    1    2    0    0  0.00000000000E+00  0.00000000000E+00  0.15582664837E+04  0.20283678310E+04  0.12984920576E+04 0.  0.
        1    1    3    3  502    0 -0.12284573176E+03  0.61784541547E+03  0.53364877374E+03  0.82559375298E+03  0.50400001928E-02 0.  1.
       -1    1    3    3    0  502  0.12284573176E+03 -0.61784541547E+03  0.10246177100E+04  0.12027740780E+04  0.50400001928E-02 0. -1.
</event>
<event>
 5   0  0.1714861E-03  0.1304940E+04  0.7818609E-02  0.9025657E-01
        2   -1    0    0  501    0  0.00000000000E+00  0.00000000000E+00  0.15209648120E+04  0.15209648120E+04  0.25500000920E-02 0.  1.
       -2   -1    0    0    0  501  0.00000000000E+00  0.00000000000E+00 -0.27989928406E+03  0.27989928407E+03  0.25500000920E-02 0. -1.
    10030    2    1    2    0    0  0.00000000000E+00  0.00000000000E+00  0.12410655279E+04  0.18008640960E+04  0.13049397871E+04 0.  0.
        1    1    3    3  502    0 -0.20860553799E+03  0.60115238647E+03  0.42142219240E+03  0.76321499364E+03  0.50400001928E-02 0. -1.
       -1    1    3    3    0  502  0.20860553799E+03 -0.60115238647E+03  0.81964333549E+03  0.10376491024E+04  0.50400001928E-02 0.  1.
</event>
<event>
 5   0  0.1694675E-03  0.1317987E+04  0.7818609E-02  0.9015421E-01
       -2   -1    0    0    0  501  0.00000000000E+00  0.00000000000E+00  0.80007018323E+03  0.80007018323E+03  0.25500000920E-02 0. -1.
        2   -1    0    0  501    0  0.00000000000E+00  0.00000000000E+00 -0.54279332705E+03  0.54279332705E+03  0.25500000920E-02 0.  1.
    10030    2    1    2    0    0  0.00000000000E+00  0.00000000000E+00  0.25727685618E+03  0.13428635103E+04  0.13179874910E+04 0.  0.
        4    1    3    3  502    0 -0.16044077491E+03 -0.63455619543E+03  0.50587498075E+02  0.65647811485E+03  0.12699999809E+01 0.  1.
       -4    1    3    3    0  502  0.16044077491E+03  0.63455619543E+03  0.20668935811E+03  0.68638539544E+03  0.12699999809E+01 0. -1.
</event>
<event>
 5   0  0.1694675E-03  0.1298027E+04  0.7818609E-02  0.9031131E-01
        2   -1    0    0  501    0  0.00000000000E+00  0.00000000000E+00  0.53861228858E+03  0.53861228859E+03  0.25500000920E-02 0. -1.
       -2   -1    0    0    0  501  0.00000000000E+00  0.00000000000E+00 -0.78204382788E+03  0.78204382788E+03  0.25500000920E-02 0.  1.
    10030    2    1    2    0    0  0.00000000000E+00  0.00000000000E+00 -0.24343153929E+03  0.13206561165E+04  0.12980268347E+04 0.  0.
        4    1    3    3  502    0 -0.43574713057E+03  0.79038509256E+02 -0.60442786972E+03  0.74930455112E+03  0.12699999809E+01 0.  1.
       -4    1    3    3    0  502  0.43574713057E+03 -0.79038509256E+02  0.36099633043E+03  0.57135156535E+03  0.12699999809E+01 0. -1.
</event>
<event>
 5   0  0.1623890E-03  0.1299808E+04  0.7818609E-02  0.9029717E-01
        2   -1    0    0  501    0  0.00000000000E+00  0.00000000000E+00  0.90188839790E+03  0.90188839790E+03  0.25500000920E-02 0.  1.
       -2   -1    0    0    0  501  0.00000000000E+00  0.00000000000E+00 -0.46832337782E+03  0.46832337782E+03  0.25500000920E-02 0. -1.
    10030    2    1    2    0    0  0.00000000000E+00  0.00000000000E+00  0.43356502008E+03  0.13702117757E+04  0.12998083258E+04 0.  0.
        3    1    3    3  502    0  0.27821290728E+02 -0.15967664505E+03  0.88024047054E+03  0.89503851949E+03  0.10100000352E+00 0.  1.
       -3    1    3    3    0  502 -0.27821290728E+02  0.15967664505E+03 -0.44667545046E+03  0.47517325623E+03  0.10100000352E+00 0. -1.
</event>
<event>
 5   0  0.9215829E-04  0.1296511E+04  0.7818609E-02  0.9032337E-01
       -1   -1    0    0    0  501  0.00000000000E+00  0.00000000000E+00  0.35089180593E+03  0.35089180597E+03  0.50400001928E-02 0.  1.
        1   -1    0    0  501    0  0.00000000000E+00  0.00000000000E+00 -0.11976205305E+04  0.11976205305E+04  0.50400001928E-02 0. -1.
    10030    2    1    2    0    0  0.00000000000E+00  0.00000000000E+00 -0.84672872460E+03  0.15485123365E+04  0.12965110579E+04 0.  0.
        3    1    3    3  502    0  0.13510295477E+03 -0.84833692284E+02 -0.11738098097E+04  0.11846007949E+04  0.10100000352E+00 0. -1.
       -3    1    3    3    0  502 -0.13510295477E+03  0.84833692284E+02  0.32708108507E+03  0.36391154165E+03  0.10100000352E+00 0.  1.
</event>
<event>
 5   0  0.9081324E-04  0.1223990E+04  0.7818609E-02  0.9092113E-01
       -1   -1    0    0    0  501  0.00000000000E+00  0.00000000000E+00  0.51319832907E+03  0.51319832910E+03  0.50400001928E-02 0. -1.
        1   -1    0    0  501    0  0.00000000000E+00  0.00000000000E+00 -0.72981131241E+03  0.72981131242E+03  0.50400001928E-02 0.  1.
    10030    2    1    2    0    0  0.00000000000E+00  0.00000000000E+00 -0.21661298334E+03  0.12430096415E+04  0.12239901080E+04 0.  0.
        4    1    3    3  502    0  0.61937841678E+02  0.40869254657E+02 -0.72522425244E+03  0.72901194876E+03  0.12699999809E+01 0.  1.
       -4    1    3    3    0  502 -0.61937841678E+02 -0.40869254657E+02  0.50861126910E+03  0.51399769276E+03  0.12699999809E+01 0. -1.
</event>
<event>
 5   0  0.1623890E-03  0.1299033E+04  0.7818609E-02  0.9030332E-01
        2   -1    0    0  501    0  0.00000000000E+00  0.00000000000E+00  0.95714725296E+03  0.95714725297E+03  0.25500000920E-02 0. -1.
       -2   -1    0    0    0  501  0.00000000000E+00  0.00000000000E+00 -0.44075952965E+03  0.44075952966E+03  0.25500000920E-02 0.  1.
    10030    2    1    2    0    0  0.00000000000E+00  0.00000000000E+00  0.51638772331E+03  0.13979067826E+04  0.12990331374E+04 0.  0.
        3    1    3    3  502    0 -0.60496994879E+03  0.23149127887E+03  0.20664240140E+03  0.67991024657E+03  0.10100000352E+00 0.  1.
       -3    1    3    3    0  502  0.60496994879E+03 -0.23149127887E+03  0.30974532192E+03  0.71799653605E+03  0.10100000352E+00 0. -1.
</event>
<event>
 5   0  0.1700511E-03  0.1298593E+04  0.7818609E-02  0.9030682E-01
       -2   -1    0    0    0  501  0.00000000000E+00  0.00000000000E+00  0.19266967636E+03  0.19266967637E+03  0.25500000920E-02 0.  1.
        2   -1    0    0  501    0  0.00000000000E+00  0.00000000000E+00 -0.21881276288E+04  0.21881276288E+04  0.25500000920E-02 0. -1.
    10030    2    1    2    0    0  0.00000000000E+00  0.00000000000E+00 -0.19954579524E+04  0.23807973052E+04  0.12985928416E+04 0.  0.
        2    1    3    3  502    0 -0.51637263813E+03  0.23802071165E+02 -0.17180779963E+04  0.17941569724E+04  0.25500000920E-02 0. -1.
       -2    1    3    3    0  502  0.51637263813E+03 -0.23802071165E+02 -0.27737995609E+03  0.58664033278E+03  0.25500000920E-02 0.  1.
</event>
<event>
 5   0  0.9098192E-04  0.1309164E+04  0.7818609E-02  0.9022329E-01
        1   -1    0    0  501    0  0.00000000000E+00  0.00000000000E+00  0.74151290947E+03  0.74151290949E+03  0.50400001928E-02 0.  1.
       -1   -1    0    0    0  501  0.00000000000E+00  0.00000000000E+00 -0.57784246663E+03  0.57784246665E+03  0.50400001928E-02 0. -1.
    10030    2    1    2    0    0  0.00000000000E+00  0.00000000000E+00  0.16367044284E+03  0.13193553761E+04  0.13091640824E+04 0.  0.
        1    1    3    3  502    0 -0.62677791803E+03 -0.13346949915E+03 -0.52669037208E+02  0.64299198536E+03  0.50400001928E-02 0. -1.
       -1    1    3    3    0  502  0.62677791803E+03  0.13346949915E+03  0.21633948005E+03  0.67636339078E+03  0.50400001928E-02 0.  1.
</event>
<event>
 5   0  0.1714861E-03  0.1293575E+04  0.7818609E-02  0.9034676E-01
       -2   -1    0    0    0  501  0.00000000000E+00  0.00000000000E+00  0.34222126552E+03  0.34222126553E+03  0.25500000920E-02 0.  1.
        2   -1    0    0  501    0  0.00000000000E+00  0.00000000000E+00 -0.12224088808E+04  0.12224088808E+04  0.25500000920E-02 0. -1.
    10030    2    1    2    0    0  0.00000000000E+00  0.00000000000E+00 -0.88018761527E+03  0.15646301463E+04  0.12935753773E+04 0.  0.
        1    1    3    3  502    0 -0.51312975888E+03 -0.22667109064E+03 -0.50681569992E+02  0.56324999276E+03  0.50400001928E-02 0.  1.
       -1    1    3    3    0  502  0.51312975888E+03  0.22667109064E+03 -0.82950604528E+03  0.10013801536E+04  0.50400001928E-02 0. -1.
</event>
<event>
 5   0  0.9110949E-04  0.1297482E+04  0.7818609E-02  0.9031565E-01
       -1   -1    0    0    0  501  0.00000000000E+00  0.00000000000E+00  0.60150454518E+03  0.60150454521E+03  0.50400001928E-02 0. -1.
        1   -1    0    0  501    0  0.00000000000E+00  0.00000000000E+00 -0.69968673600E+03  0.69968673602E+03  0.50400001928E-02 0.  1.
    10030    2    1    2    0    0  0.00000000000E+00  0.00000000000E+00 -0.98182190815E+02  0.13011912812E+04  0.12974817948E+04 0.  0.
        2    1    3    3  502    0 -0.56545740644E+03 -0.20709589133E+03 -0.29109816509E+03  0.66885643335E+03  0.25500000920E-02 0.  1.
       -2    1    3    3    0  502  0.56545740644E+03  0.20709589133E+03  0.19291597428E+03  0.63233484788E+03  0.25500000920E-02 0. -1.
</event>
<event>
 5   0  0.1667342E-03  0.1304599E+04  0.7818609E-02  0.9025926E-01
       -2   -1    0    0    0  501  0.00000000000E+00  0.00000000000E+00  0.97696255713E+03  0.97696255713E+03  0.25500000920E-02 0. -1.
        2   -1    0    0  501    0  0.00000000000E+00  0.00000000000E+00 -0.43552832101E+03  0.43552832102E+03  0.25500000920E-02 0.  1.
    10030    2    1    2    0    0  0.00000000000E+00  0.00000000000E+00  0.54143423612E+03  0.14124908781E+04  0.13045993442E+04 0.  0.
        5    1    3    3  502    0 -0.17094610653E+02 -0.47813733392E+03 -0.20930566713E+03  0.52224370565E+03  0.46999998093E+01 0.  1.
       -5    1    3    3    0  502  0.17094610653E+02  0.47813733392E+03  0.75073990325E+03  0.89024717249E+03  0.46999998093E+01 0. -1.
</event>
<event>
 5   0  0.9110949E-04  0.1299481E+04  0.7818609E-02  0.9029976E-01
        1   -1    0    0  501    0  0.00000000000E+00  0.00000000000E+00  0.17943271589E+04  0.17943271589E+04  0.50400001928E-02 0. -1.
       -1   -1    0    0    0  501  0.00000000000E+00  0.00000000000E+00 -0.23527651535E+03  0.23527651540E+03  0.50400001928E-02 0.  1.
    10030    2    1    2    0    0  0.00000000000E+00  0.00000000000E+00  0.15590506436E+04  0.20296036743E+04  0.12994814988E+04 0.  0.
        2    1    3    3  502    0  0.57724192975E+03 -0.22157042678E+03  0.10913547492E+04  0.12543352375E+04  0.25500000920E-02 0. -1.
       -2    1    3    3    0  502 -0.57724192975E+03  0.22157042678E+03  0.46769589438E+03  0.77526843681E+03  0.25500000920E-02 0.  1.
</event>
<event>
 5   0  0.9215829E-04  0.1312038E+04  0.7818609E-02  0.9020073E-01
        1   -1    0    0  501    0  0.00000000000E+00  0.00000000000E+00  0.81323435679E+03  0.81323435680E+03  0.50400001928E-02 0. -1.
       -1   -1    0    0    0  501  0.00000000000E+00  0.00000000000E+00 -0.52919668910E+03  0.52919668912E+03  0.50400001928E-02 0.  1.
    10030    2    1    2    0    0  0.00000000000E+00  0.00000000000E+00  0.28403766769E+03  0.13424310459E+04  0.13120380011E+04 0.  0.
        3    1    3    3  502    0  0.49949538202E+02 -0.26620931562E+03 -0.46931552813E+03  0.54186661757E+03  0.10100000352E+00 0.  1.
       -3    1    3    3    0  502 -0.49949538202E+02  0.26620931562E+03  0.75335319582E+03  0.80056442835E+03  0.10100000352E+00 0. -1.
</event>
<event>
 5   0  0.9027076E-04  0.1293049E+04  0.7818609E-02  0.9035096E-01
       -1   -1    0    0    0  501  0.00000000000E+00  0.00000000000E+00  0.34211019275E+03  0.34211019279E+03  0.50400001928E-02 0. -1.
        1   -1    0    0  501    0  0.00000000000E+00  0.00000000000E+00 -0.12218100011E+04  0.12218100011E+04  0.50400001928E-02 0.  1.
    10030    2    1    2    0    0  0.00000000000E+00  0.00000000000E+00 -0.87969980836E+03  0.15639201939E+04  0.12930485761E+04 0.  0.
        5    1    3    3  502    0 -0.18233458381E+03  0.37490710825E+02  0.30897546589E+03  0.36074836434E+03  0.46999998093E+01 0. -1.
       -5    1    3    3    0  502  0.18233458381E+03 -0.37490710825E+02 -0.11886752742E+04  0.12031718296E+04  0.46999998093E+01 0.  1.
</event>
<event>
 5   0  0.1714861E-03  0.1362461E+04  0.7818609E-02  0.8981449E-01
       -2   -1    0    0    0  501  0.00000000000E+00  0.00000000000E+00  0.34846501760E+03  0.34846501761E+03  0.25500000920E-02 0. -1.
        2   -1    0    0  501    0  0.00000000000E+00  0.00000000000E+00 -0.13317693539E+04  0.13317693539E+04  0.25500000920E-02 0.  1.
    10030    2    1    2    0    0  0.00000000000E+00  0.00000000000E+00 -0.98330433633E+03  0.16802343715E+04  0.13624610547E+04 0.  0.
        1    1    3    3  502    0 -0.21644256326E+03  0.13433254968E+02  0.30476088641E+03  0.37404148625E+03  0.50400001928E-02 0. -1.
       -1    1    3    3    0  502  0.21644256326E+03 -0.13433254968E+02 -0.12880652227E+04  0.13061928853E+04  0.50400001928E-02 0.  1.
</event>
<event>
 5   0  0.9215829E-04  0.1261068E+04  0.7818609E-02  0.9061021E-01
        1   -1    0    0  501    0  0.00000000000E+00  0.00000000000E+00  0.60560735012E+03  0.60560735015E+03  0.50400001928E-02 0.  1.
       -1   -1    0    0    0  501  0.00000000000E+00  0.00000000000E+00 -0.65648670419E+03  0.65648670421E+03  0.50400001928E-02 0. -1.
    10030    2    1    2    0    0  0.00000000000E+00  0.00000000000E+00 -0.50879354062E+02  0.12620940544E+04  0.12610680764E+04 0.  0.
        3    1    3    3  502    0  0.48402518157E+03 -0.27382472025E+03  0.27197680973E+03  0.61905714522E+03  0.10100000352E+00 0. -1.
       -3    1    3    3    0  502 -0.48402518157E+03  0.27382472025E+03 -0.32285616379E+03  0.64303690914E+03  0.10100000352E+00 0.  1.
</event>
<event>
 5   0  0.1700511E-03  0.1300701E+04  0.7818609E-02  0.9029010E-01
       -2   -1    0    0    0  501  0.00000000000E+00  0.00000000000E+00  0.52499676710E+03  0.52499676711E+03  0.25500000920E-02 0.  1.
        2   -1    0    0  501    0  0.00000000000E+00  0.00000000000E+00 -0.80563453743E+03  0.80563453744E+03  0.25500000920E-02 0. -1.
    10030    2    1    2    0    0  0.00000000000E+00  0.00000000000E+00 -0.28063777033E+03  0.13306313045E+04  0.13007006229E+04 0.  0.
        2    1    3    3  502    0 -0.62672489071E+03 -0.14944268634E+03 -0.23089046683E+03  0.68441771807E+03  0.25500000920E-02 0.  1.
       -2    1    3    3    0  502  0.62672489071E+03  0.14944268634E+03 -0.49747303495E+02  0.64621358647E+03  0.25500000920E-02 0. -1.
</event>
<event>
 5   0  0.9081324E-04  0.1285308E+04  0.7818609E-02  0.9041298E-01
        1   -1    0    0  501    0  0.00000000000E+00  0.00000000000E+00  0.24670670720E+04  0.24670670720E+04  0.50400001928E-02 0. -1.
       -1   -1    0    0    0  501  0.00000000000E+00  0.00000000000E+00 -0.16740692803E+03  0.16740692811E+03  0.50400001928E-02 0.  1.
    10030    2    1    2    0    0  0.00000000000E+00  0.00000000000E+00  0.22996601440E+04  0.26344740001E+04  0.12853079318E+04 0.  0.
        4    1    3    3  502    0 -0.46203094586E+02 -0.24196798615E+03  0.23664500139E+04  0.23792373807E+04  0.12699999809E+01 0. -1.
       -4    1    3    3    0  502  0.46203094586E+02  0.24196798615E+03 -0.66789869962E+02  0.25523661943E+03  0.12699999809E+01 0.  1.
</event>
<event>
 5   0  0.9027076E-04  0.1289820E+04  0.7818609E-02  0.9037677E-01
       -1   -1    0    0    0  501  0.00000000000E+00  0.00000000000E+00  0.39048629251E+03  0.39048629254E+03  0.50400001928E-02 0. -1.
        1   -1    0    0  501    0  0.00000000000E+00  0.00000000000E+00 -0.10651051617E+04  0.10651051618E+04  0.50400001928E-02 0.  1.
    10030    2    1    2    0    0  0.00000000000E+00  0.00000000000E+00 -0.67461886924E+03  0.14555914543E+04  0.12898200894E+04 0.  0.
        5    1    3    3  502    0 -0.57570463638E+03  0.18336972749E+03 -0.82886739398E+02  0.60987915760E+03  0.46999998093E+01 0.  1.
       -5    1    3    3    0  502  0.57570463638E+03 -0.18336972749E+03 -0.59173212984E+03  0.84571229670E+03  0.46999998093E+01 0. -1.
</event>
<event>
 5   0  0.1667342E-03  0.1302480E+04  0.7818609E-02  0.9027601E-01
        2   -1    0    0  501    0  0.00000000000E+00  0.00000000000E+00  0.68345135561E+03  0.68345135561E+03  0.25500000920E-02 0.  1.
       -2   -1    0    0    0  501  0.00000000000E+00  0.00000000000E+00 -0.62054680414E+03  0.62054680415E+03  0.25500000920E-02 0. -1.
    10030    2    1    2    0    0  0.00000000000E+00  0.00000000000E+00  0.62904551469E+02  0.13039981598E+04  0.13024800260E+04 0.  0.
        5    1    3    3  502    0 -0.25145001177E+02  0.20731883476E+03  0.64900029819E+03  0.68178944505E+03  0.46999998093E+01 0.  1.
       -5    1    3    3    0  502  0.25145001177E+02 -0.20731883476E+03 -0.58609574672E+03  0.62220871471E+03  0.46999998093E+01 0. -1.
</event>
<event>
 5   0  0.9027076E-04  0.1306969E+04  0.7818609E-02  0.9024057E-01
       -1   -1    0    0    0  501  0.00000000000E+00  0.00000000000E+00  0.34482983026E+03  0.34482983030E+03  0.50400001928E-02 0.  1.
        1   -1    0    0  501    0  0.00000000000E+00  0.00000000000E+00 -0.12384128375E+04  0.12384128375E+04  0.50400001928E-02 0. -1.
    10030    2    1    2    0    0  0.00000000000E+00  0.00000000000E+00 -0.89358300728E+03  0.15832426678E+04  0.13069685361E+04 0.  0.
        5    1    3    3  502    0  0.48847122379E+03  0.38182278373E+03 -0.69689734821E+03  0.93278120617E+03  0.46999998093E+01 0. -1.
       -5    1    3    3    0  502 -0.48847122379E+03 -0.38182278373E+03 -0.19668565907E+03  0.65046146168E+03  0.46999998093E+01 0.  1.
</event>
<event>
 5   0  0.9110949E-04  0.1274182E+04  0.7818609E-02  0.9050293E-01
        1   -1    0    0  501    0  0.00000000000E+00  0.00000000000E+00  0.92873810333E+03  0.92873810334E+03  0.50400001928E-02 0.  1.
       -1   -1    0    0    0  501  0.00000000000E+00  0.00000000000E+00 -0.43702857056E+03  0.43702857059E+03  0.50400001928E-02 0. -1.
    10030    2    1    2    0    0  0.00000000000E+00  0.00000000000E+00  0.49170953277E+03  0.13657666739E+04  0.12741822252E+04 0.  0.
        2    1    3    3  502    0  0.13200477698E+03 -0.34257820599E+03  0.80395181467E+03  0.88381197587E+03  0.25500000920E-02 0.  1.
       -2    1    3    3    0  502 -0.13200477698E+03  0.34257820599E+03 -0.31224228190E+03  0.48195469806E+03  0.25500000920E-02 0. -1.
</event>
<event>
 5   0  0.1714861E-03  0.1308044E+04  0.7818609E-02  0.9023211E-01
        2   -1    0    0  501    0  0.00000000000E+00  0.00000000000E+00  0.12784374364E+04  0.12784374364E+04  0.25500000920E-02 0.  1.
       -2   -1    0    0    0  501  0.00000000000E+00  0.00000000000E+00 -0.33458385812E+03  0.33458385813E+03  0.25500000920E-02 0. -1.
    10030    2    1    2    0    0  0.00000000000E+00  0.00000000000E+00  0.94385357824E+03  0.16130212945E+04  0.13080436229E+04 0.  0.
        1    1    3    3  502    0  0.33608688420E+03  0.16744769828E+03 -0.18841783989E+03  0.42011237520E+03  0.50400001928E-02 0. -1.
       -1    1    3    3    0  502 -0.33608688420E+03 -0.16744769828E+03  0.11322714181E+04  0.11929089193E+04  0.50400001928E-02 0.  1.
</event>
<event>
 5   0  0.9081324E-04  0.1297708E+04  0.7818609E-02  0.9031384E-01
       -1   -1    0    0    0  501  0.00000000000E+00  0.00000000000E+00  0.58279168627E+03  0.58279168629E+03  0.50400001928E-02 0. -1.
        1   -1    0    0  501    0  0.00000000000E+00  0.00000000000E+00 -0.72240516604E+03  0.72240516606E+03  0.50400001928E-02 0.  1.
    10030    2    1    2    0    0  0.00000000000E+00  0.00000000000E+00 -0.13961347977E+03  0.13051968524E+04  0.12977083261E+04 0.  0.
        4    1    3    3  502    0  0.53996204361E+03  0.26333182729E+03 -0.31638971408E+03  0.67897475938E+03  0.12699999809E+01 0.  1.
       -4    1    3    3    0  502 -0.53996204361E+03 -0.26333182729E+03  0.17677623431E+03  0.62622209297E+03  0.12699999809E+01 0. -1.
</event>
<event>
 5   0  0.1714861E-03  0.1480936E+04  0.7818609E-02  0.8897230E-01
       -2   -1    0    0    0  501  0.00000000000E+00  0.00000000000E+00  0.78162708910E+03  0.78162708911E+03  0.25500000920E-02 0.  1.
        2   -1    0    0  501    0  0.00000000000E+00  0.00000000000E+00 -0.70147607600E+03  0.70147607600E+03  0.25500000920E-02 0. -1.
    10030    2    1    2    0    0  0.00000000000E+00  0.00000000000E+00  0.80151013104E+02  0.14831031651E+04  0.14809357898E+04 0.  0.
        1    1    3    3  502    0 -0.31115618842E+03  0.57592635815E+03 -0.30652833988E+03  0.72282014829E+03  0.50400001928E-02 0. -1.
       -1    1    3    3    0  502  0.31115618842E+03 -0.57592635815E+03  0.38667935298E+03  0.76028301681E+03  0.50400001928E-02 0.  1.
</event>
<event>
 5   0  0.1714861E-03  0.1307708E+04  0.7818609E-02  0.9023475E-01
        2   -1    0    0  501    0  0.00000000000E+00  0.00000000000E+00  0.50484092603E+03  0.50484092603E+03  0.25500000920E-02 0.  1.
       -2   -1    0    0    0  501  0.00000000000E+00  0.00000000000E+00 -0.84685143864E+03  0.84685143864E+03  0.25500000920E-02 0. -1.
    10030    2    1    2    0    0  0.00000000000E+00  0.00000000000E+00 -0.34201051261E+03  0.13516923647E+04  0.13077083230E+04 0.  0.
        1    1    3    3  502    0  0.30885132063E+03 -0.33900893719E+03  0.31072724441E+03  0.55395633239E+03  0.50400001928E-02 0.  1.
       -1    1    3    3    0  502 -0.30885132063E+03  0.33900893719E+03 -0.65273775702E+03  0.79773603229E+03  0.50400001928E-02 0. -1.
</event>
<event>
 5   0  0.9081324E-04  0.1292516E+04  0.7818609E-02  0.9035521E-01
       -1   -1    0    0    0  501  0.00000000000E+00  0.00000000000E+00  0.25480733317E+03  0.25480733322E+03  0.50400001928E-02 0. -1.
        1   -1    0    0  501    0  0.00000000000E+00  0.00000000000E+00 -0.16390798335E+04  0.16390798335E+04  0.50400001928E-02 0.  1.
    10030    2    1    2    0    0  0.00000000000E+00  0.00000000000E+00 -0.13842725003E+04  0.18938871667E+04  0.12925162456E+04 0.  0.
        4    1    3    3  502    0 -0.31212498220E+03 -0.23753614414E+03 -0.14447247265E+04  0.14970225691E+04  0.12699999809E+01 0.  1.
       -4    1    3    3    0  502  0.31212498220E+03  0.23753614414E+03  0.60452226137E+02  0.39686459760E+03  0.12699999809E+01 0. -1.
</event>
<event>
 5   0  0.9215829E-04  0.1292597E+04  0.7818609E-02  0.9035457E-01
       -1   -1    0    0    0  501  0.00000000000E+00  0.00000000000E+00  0.29145040036E+03  0.29145040040E+03  0.50400001928E-02 0.  1.
        1   -1    0    0  501    0  0.00000000000E+00  0.00000000000E+00 -0.14331827272E+04  0.14331827272E+04  0.50400001928E-02 0. -1.
    10030    2    1    2    0    0  0.00000000000E+00  0.00000000000E+00 -0.11417323269E+04  0.17246331276E+04  0.12925968895E+04 0.  0.
        3    1    3    3  502    0 -0.64417441602E+03  0.47807259028E+02 -0.54239157795E+03  0.84346597222E+03  0.10100000352E+00 0.  1.
       -3    1    3    3    0  502  0.64417441602E+03 -0.47807259028E+02 -0.59934074891E+03  0.88116715541E+03  0.10100000352E+00 0. -1.
</event>
<event>
 5   0  0.1714861E-03  0.1305968E+04  0.7818609E-02  0.9024846E-01
        2   -1    0    0  501    0  0.00000000000E+00  0.00000000000E+00  0.20942539328E+04  0.20942539328E+04  0.25500000920E-02 0. -1.
       -2   -1    0    0    0  501  0.00000000000E+00  0.00000000000E+00 -0.20359907003E+03  0.20359907004E+03  0.25500000920E-02 0.  1.
    10030    2    1    2    0    0  0.00000000000E+00  0.00000000000E+00  0.18906548628E+04  0.22978530028E+04  0.13059680749E+04 0.  0.
        1    1    3    3  502    0 -0.20259744004E+03 -0.38252348062E+03  0.85116051486E+02  0.44115153653E+03  0.50400001928E-02 0.  1.
       -1    1    3    3    0  502  0.20259744004E+03  0.38252348062E+03  0.18055388113E+04  0.18567014663E+04  0.50400001928E-02 0. -1.
</event>
<event>
 5   0  0.9081324E-04  0.1299153E+04  0.7818609E-02  0.9030237E-01
       -1   -1    0    0    0  501  0.00000000000E+00  0.00000000000E+00  0.46490494452E+03  0.46490494455E+03  0.50400001928E-02 0.  1.
        1   -1    0    0  501    0  0.00000000000E+00  0.00000000000E+00 -0.90760426383E+03  0.90760426384E+03  0.50400001928E-02 0. -1.
    10030    2    1    2    0    0  0.00000000000E+00  0.00000000000E+00 -0.44269931931E+03  0.13725092084E+04  0.12991531241E+04 0.  0.
        4    1    3    3  502    0 -0.13230713865E+03  0.51110370982E+02  0.44834441099E+03  0.47024650209E+03  0.12699999809E+01 0.  1.
       -4    1    3    3    0  502  0.13230713865E+03 -0.51110370982E+02 -0.89104373030E+03  0.90226270630E+03  0.12699999809E+01 0. -1.
</event>
<event>
 5   0  0.9098192E-04  0.1304178E+04  0.7818609E-02  0.9026259E-01
       -1   -1    0    0    0  501  0.00000000000E+00  0.00000000000E+00  0.36144290558E+03  0.36144290562E+03  0.50400001928E-02 0. -1.
        1   -1    0    0  501    0  0.00000000000E+00  0.00000000000E+00 -0.11764512355E+04  0.11764512355E+04  0.50400001928E-02 0.  1.
    10030    2    1    2    0    0  0.00000000000E+00  0.00000000000E+00 -0.81500832994E+03  0.15378941412E+04  0.13041778297E+04 0.  0.
        1    1    3    3  502    0  0.27621286466E+03  0.31906571539E+03  0.17869693746E+03  0.45828928945E+03  0.50400001928E-02 0. -1.
       -1    1    3    3    0  502 -0.27621286466E+03 -0.31906571539E+03 -0.99370526740E+03  0.10796048517E+04  0.50400001928E-02 0.  1.
</event>
<event>
 5   0  0.9027076E-04  0.1296992E+04  0.7818609E-02  0.9031954E-01
        1   -1    0    0  501    0  0.00000000000E+00  0.00000000000E+00  0.11283480382E+04  0.11283480382E+04  0.50400001928E-02 0.  1.
       -1   -1    0    0    0  501  0.00000000000E+00  0.00000000000E+00 -0.37271058184E+03  0.37271058188E+03  0.50400001928E-02 0. -1.
    10030    2    1    2    0    0  0.00000000000E+00  0.00000000000E+00  0.75563745631E+03  0.15010586200E+04  0.12969922958E+04 0.  0.
        5    1    3    3  502    0 -0.15576983083E+03  0.51712853870E+03 -0.37597947473E+02  0.54140729714E+03  0.46999998093E+01 0. -1.
       -5    1    3    3    0  502  0.15576983083E+03 -0.51712853870E+03  0.79323540379E+03  0.95965132291E+03  0.46999998093E+01 0.  1.
</event>
<event>
 5   0  0.1694675E-03  0.1275528E+04  0.7818609E-02  0.9049200E-01
        2   -1    0    0  501    0  0.00000000000E+00  0.00000000000E+00  0.19312880975E+04  0.19312880975E+04  0.25500000920E-02 0.  1.
       -2   -1    0    0    0  501  0.00000000000E+00  0.00000000000E+00 -0.21060693203E+03  0.21060693205E+03  0.25500000920E-02 0. -1.
    10030    2    1    2    0    0  0.00000000000E+00  0.00000000000E+00  0.17206811654E+04  0.21418950295E+04  0.12755275945E+04 0.  0.
        4    1    3    3  502    0  0.32910773519E+03 -0.17796946055E+03  0.17276327764E+04  0.17676825657E+04  0.12699999809E+01 0.  1.
       -4    1    3    3    0  502 -0.32910773519E+03  0.17796946055E+03 -0.69516109584E+01  0.37421246378E+03  0.12699999809E+01 0. -1.
</event>
<event>
 5   0  0.1700511E-03  0.1306571E+04  0.7818609E-02  0.9024370E-01
        2   -1    0    0  501    0  0.00000000000E+00  0.00000000000E+00  0.83891392651E+03  0.83891392651E+03  0.25500000920E-02 0. -1.
       -2   -1    0    0    0  501  0.00000000000E+00  0.00000000000E+00 -0.50873167949E+03  0.50873167950E+03  0.25500000920E-02 0.  1.
    10030    2    1    2    0    0  0.00000000000E+00  0.00000000000E+00  0.33018224701E+03  0.13476456060E+04  0.13065712239E+04 0.  0.
        2    1    3    3  502    0  0.39013516507E+03  0.76067790374E+02  0.69983945100E+03  0.80483974364E+03  0.25500000920E-02 0. -1.
       -2    1    3    3    0  502 -0.39013516507E+03 -0.76067790374E+02 -0.36965720399E+03  0.54280586237E+03  0.25500000920E-02 0.  1.
</event>
<event>
 5   0  0.9027076E-04  0.1299743E+04  0.7818609E-02  0.9029769E-01
       -1   -1    0    0    0  501  0.00000000000E+00  0.00000000000E+00  0.26608791468E+03  0.26608791473E+03  0.50400001928E-02 0.  1.
        1   -1    0    0  501    0  0.00000000000E+00  0.00000000000E+00 -0.15871940984E+04  0.15871940984E+04  0.50400001928E-02 0. -1.
    10030    2    1    2    0    0  0.00000000000E+00  0.00000000000E+00 -0.13211061837E+04  0.18532820131E+04  0.12997433099E+04 0.  0.
        5    1    3    3  502    0  0.14958930604E+03  0.20052778877E+03  0.19464723148E+03  0.31701417834E+03  0.46999998093E+01 0.  1.
       -5    1    3    3    0  502 -0.14958930604E+03 -0.20052778877E+03 -0.15157534151E+04  0.15362678347E+04  0.46999998093E+01 0. -1.
</event>
<event>
 5   0  0.9098192E-04  0.1300390E+04  0.7818609E-02  0.9029256E-01
        1   -1    0    0  501    0  0.00000000000E+00  0.00000000000E+00  0.64238001145E+03  0.64238001146E+03  0.50400001928E-02 0.  1.
       -1   -1    0    0    0  501  0.00000000000E+00  0.00000000000E+00 -0.65810521107E+03  0.65810521109E+03  0.50400001928E-02 0. -1.
    10030    2    1    2    0    0  0.00000000000E+00  0.00000000000E+00 -0.15725199629E+02  0.13004852226E+04  0.13003901461E+04 0.  0.
        1    1    3    3  502    0  0.52689579398E+03  0.38051201008E+03 -0.26439896542E+02  0.65046724413E+03  0.50400001928E-02 0. -1.
       -1    1    3    3    0  502 -0.52689579398E+03 -0.38051201008E+03  0.10714696913E+02  0.65001797843E+03  0.50400001928E-02 0.  1.
</event>
<event>
 5   0  0.1623890E-03  0.1308977E+04  0.7818609E-02  0.9022477E-01
       -2   -1    0    0    0  501  0.00000000000E+00  0.00000000000E+00  0.36569088755E+03  0.36569088756E+03  0.25500000920E-02 0. -1.
        2   -1    0    0  501    0  0.00000000000E+00  0.00000000000E+00 -0.11713585435E+04  0.11713585435E+04  0.25500000920E-02 0.  1.
    10030    2    1    2    0    0  0.00000000000E+00  0.00000000000E+00 -0.80566765599E+03  0.15370494311E+04  0.13089769218E+04 0.  0.
        3    1    3    3  502    0 -0.72914281635E+02 -0.58981975256E+03 -0.72473614312E+03  0.93725467207E+03  0.10100000352E+00 0.  1.
       -3    1    3    3    0  502  0.72914281635E+02  0.58981975256E+03 -0.80931512869E+02  0.59979475902E+03  0.10100000352E+00 0. -1.
</event>
<event>
 5   0  0.1694675E-03  0.1331367E+04  0.7818609E-02  0.9005054E-01
        2   -1    0    0  501    0  0.00000000000E+00  0.00000000000E+00  0.61281919478E+03  0.61281919479E+03  0.25500000920E-02 0.  1.
       -2   -1    0    0    0  501  0.00000000000E+00  0.00000000000E+00 -0.72310821789E+03  0.72310821790E+03  0.25500000920E-02 0. -1.
    10030    2    1    2    0    0  0.00000000000E+00  0.00000000000E+00 -0.11028902311E+03  0.13359274127E+04  0.13313671107E+04 0.  0.
        4    1    3    3  502    0 -0.11289170916E+03  0.10950448950E+03 -0.70419641535E+03  0.72154693230E+03  0.12699999809E+01 0. -1.
       -4    1    3    3    0  502  0.11289170916E+03 -0.10950448950E+03  0.59390739224E+03  0.61438048038E+03  0.12699999809E+01 0.  1.
</event>
<event>
 5   0  0.1694675E-03  0.1349781E+04  0.7818609E-02  0.8990994E-01
        2   -1    0    0  501    0  0.00000000000E+00  0.00000000000E+00  0.14624116642E+04  0.14624116642E+04  0.25500000920E-02 0.  1.
       -2   -1    0    0    0  501  0.00000000000E+00  0.00000000000E+00 -0.31145630182E+03  0.31145630183E+03  0.25500000920E-02 0. -1.
    10030    2    1    2    0    0  0.00000000000E+00  0.00000000000E+00  0.11509553624E+04  0.17738679660E+04  0.13497812099E+04 0.  0.
        4    1    3    3  502    0  0.47395799825E+03  0.46800297124E+03  0.71831228351E+03  0.97961069550E+03  0.12699999809E+01 0.  1.
       -4    1    3    3    0  502 -0.47395799825E+03 -0.46800297124E+03  0.43264307884E+03  0.79425727051E+03  0.12699999809E+01 0. -1.
</event>
<event>
 5   0  0.9215829E-04  0.1229946E+04  0.7818609E-02  0.9087041E-01
       -1   -1    0    0    0  501  0.00000000000E+00  0.00000000000E+00  0.85725371576E+03  0.85725371577E+03  0.50400001928E-02 0.  1.
        1   -1    0    0  501    0  0.00000000000E+00  0.00000000000E+00 -0.44116685775E+03  0.44116685778E+03  0.50400001928E-02 0. -1.
    10030    2    1    2    0    0  0.00000000000E+00  0.00000000000E+00  0.41608685801E+03  0.12984205736E+04  0.12299462234E+04 0.  0.
        3    1    3    3  502    0 -0.41445416951E+03  0.26813805683E+03 -0.17914765179E+03  0.52513252374E+03  0.10100000352E+00 0. -1.
       -3    1    3    3    0  502  0.41445416951E+03 -0.26813805683E+03  0.59523450979E+03  0.77328804982E+03  0.10100000352E+00 0.  1.
</event>
<event>
 5   0  0.9215829E-04  0.1302937E+04  0.7818609E-02  0.9027239E-01
        1   -1    0    0  501    0  0.00000000000E+00  0.00000000000E+00  0.69880702262E+03  0.69880702263E+03  0.50400001928E-02 0. -1.
       -1   -1    0    0    0  501  0.00000000000E+00  0.00000000000E+00 -0.60733700611E+03  0.60733700613E+03  0.50400001928E-02 0.  1.
    10030    2    1    2    0    0  0.00000000000E+00  0.00000000000E+00  0.91470016506E+02  0.13061440288E+04  0.13029372433E+04 0.  0.
        3    1    3    3  502    0 -0.47945071034E+03 -0.17267169025E+03  0.45259455061E+03  0.68156462181E+03  0.10100000352E+00 0. -1.
       -3    1    3    3    0  502  0.47945071034E+03  0.17267169025E+03 -0.36112453410E+03  0.62457940696E+03  0.10100000352E+00 0.  1.
</event>
<event>
 5   0  0.9098192E-04  0.1292072E+04  0.7818609E-02  0.9035875E-01
        1   -1    0    0  501    0  0.00000000000E+00  0.00000000000E+00  0.42274547970E+03  0.42274547973E+03  0.50400001928E-02 0.  1.
       -1   -1    0    0    0  501  0.00000000000E+00  0.00000000000E+00 -0.98726737325E+03  0.98726737327E+03  0.50400001928E-02 0. -1.
    10030    2    1    2    0    0  0.00000000000E+00  0.00000000000E+00 -0.56452189355E+03  0.14100128530E+04  0.12920724737E+04 0.  0.
        1    1    3    3  502    0  0.43669129885E+03  0.44407267725E+03 -0.94945075039E+02  0.63001142884E+03  0.50400001928E-02 0.  1.
       -1    1    3    3    0  502 -0.43669129885E+03 -0.44407267725E+03 -0.46957681851E+03  0.78000142416E+03  0.50400001928E-02 0. -1.
</event>
<event>
 5   0  0.9110949E-04  0.1380719E+04  0.7818609E-02  0.8967895E-01
        1   -1    0    0  501    0  0.00000000000E+00  0.00000000000E+00  0.49615088678E+03  0.49615088680E+03  0.50400001928E-02 0.  1.
       -1   -1    0    0    0  501  0.00000000000E+00  0.00000000000E+00 -0.96058696991E+03  0.96058696993E+03  0.50400001928E-02 0. -1.
    10030    2    1    2    0    0  0.00000000000E+00  0.00000000000E+00 -0.46443608314E+03  0.14567378567E+04  0.13807187650E+04 0.  0.
        2    1    3    3  502    0 -0.15897471603E+02  0.16805165681E+03  0.47404196577E+03  0.50319963660E+03  0.25500000920E-02 0.  1.
       -2    1    3    3    0  502  0.15897471603E+02 -0.16805165681E+03 -0.93847804891E+03  0.95353822013E+03  0.25500000920E-02 0. -1.
</event>
<event>
 5   0  0.1623890E-03  0.1315223E+04  0.7818609E-02  0.9017580E-01
       -2   -1    0    0    0  501  0.00000000000E+00  0.00000000000E+00  0.32232596923E+03  0.32232596924E+03  0.25500000920E-02 0. -1.
        2   -1    0    0  501    0  0.00000000000E+00  0.00000000000E+00 -0.13416632265E+04  0.13416632265E+04  0.25500000920E-02 0.  1.
    10030    2    1    2    0    0  0.00000000000E+00  0.00000000000E+00 -0.10193372573E+04  0.16639891958E+04  0.13152230227E+04 0.  0.
        3    1    3    3  502    0  0.64460117579E+03  0.11862290670E+03 -0.57745682357E+03  0.87352072850E+03  0.10100000352E+00 0. -1.
       -3    1    3    3    0  502 -0.64460117579E+03 -0.11862290670E+03 -0.44188043371E+03  0.79046846726E+03  0.10100000352E+00 0.  1.
</event>
<event>
 5   0  0.1623890E-03  0.1102004E+04  0.7818609E-02  0.9203241E-01
        2   -1    0    0  501    0  0.00000000000E+00  0.00000000000E+00  0.16922192752E+04  0.16922192752E+04  0.25500000920E-02 0. -1.
       -2   -1    0    0    0  501  0.00000000000E+00  0.00000000000E+00 -0.17941123197E+03  0.17941123199E+03  0.25500000920E-02 0.  1.
    10030    2    1    2    0    0  0.00000000000E+00  0.00000000000E+00  0.15128080432E+04  0.18716305072E+04  0.11020038928E+04 0.  0.
        3    1    3    3  502    0 -0.37203297847E+03  0.24217148993E+03  0.20202248782E+03  0.48771781123E+03  0.10100000352E+00 0.  1.
       -3    1    3    3    0  502  0.37203297847E+03 -0.24217148993E+03  0.13107855554E+04  0.13839126959E+04  0.10100000352E+00 0. -1.
</event>
<event>
 5   0  0.9215829E-04  0.1299140E+04  0.7818609E-02  0.9030247E-01
        1   -1    0    0  501    0  0.00000000000E+00  0.00000000000E+00  0.96866845748E+03  0.96866845750E+03  0.50400001928E-02 0.  1.
       -1   -1    0    0    0  501  0.00000000000E+00  0.00000000000E+00 -0.43558915188E+03  0.43558915191E+03  0.50400001928E-02 0. -1.
    10030    2    1    2    0    0  0.00000000000E+00  0.00000000000E+00  0.53307930561E+03  0.14042576094E+04  0.12991404418E+04 0.  0.
        3    1    3    3  502    0  0.30990392037E+03  0.95841203160E+01  0.88352142392E+03  0.93634524185E+03  0.10100000352E+00 0.  1.
       -3    1    3    3    0  502 -0.30990392037E+03 -0.95841203160E+01 -0.35044211831E+03  0.46791236755E+03  0.10100000352E+00 0. -1.
</event>
<event>
 5   0  0.1700511E-03  0.1303917E+04  0.7818609E-02  0.9026465E-01
        2   -1    0    0  501    0  0.00000000000E+00  0.00000000000E+00  0.34650782318E+03  0.34650782319E+03  0.25500000920E-02 0.  1.
       -2   -1    0    0    0  501  0.00000000000E+00  0.00000000000E+00 -0.12266679703E+04  0.12266679703E+04  0.25500000920E-02 0. -1.
    10030    2    1    2    0    0  0.00000000000E+00  0.00000000000E+00 -0.88016014710E+03  0.15731757935E+04  0.13039172492E+04 0.  0.
        2    1    3    3  502    0  0.35456568561E+03  0.17891571916E+02  0.21965920768E+03  0.41747706677E+03  0.25500000920E-02 0.  1.
       -2    1    3    3    0  502 -0.35456568561E+03 -0.17891571916E+02 -0.10998193548E+04  0.11556987267E+04  0.25500000920E-02 0. -1.
</event>
<event>
 5   0  0.1714861E-03  0.1316363E+04  0.7818609E-02  0.9016689E-01
       -2   -1    0    0    0  501  0.00000000000E+00  0.00000000000E+00  0.17380018342E+03  0.17380018344E+03  0.25500000920E-02 0.  1.
        2   -1    0    0  501    0  0.00000000000E+00  0.00000000000E+00 -0.24925352406E+04  0.24925352406E+04  0.25500000920E-02 0. -1.
    10030    2    1    2    0    0  0.00000000000E+00  0.00000000000E+00 -0.23187350571E+04  0.26663354240E+04  0.13163632964E+04 0.  0.
        1    1    3    3  502    0  0.18407432823E+03 -0.63162766894E+03 -0.11206056321E+04  0.12994590618E+04  0.50400001928E-02 0.  1.
       -1    1    3    3    0  502 -0.18407432823E+03  0.63162766894E+03 -0.11981294250E+04  0.13668763622E+04  0.50400001928E-02 0. -1.
</event>
<event>
 5   0  0.1694675E-03  0.1295514E+04  0.7818609E-02  0.9033130E-01
        2   -1    0    0  501    0  0.00000000000E+00  0.00000000000E+00  0.79756572555E+03  0.79756572556E+03  0.25500000920E-02 0.  1.
       -2   -1    0    0    0  501  0.00000000000E+00  0.00000000000E+00 -0.52608701853E+03  0.52608701854E+03  0.25500000920E-02 0. -1.
    10030    2    1    2    0    0  0.00000000000E+00  0.00000000000E+00  0.27147870702E+03  0.13236527441E+04  0.12955137585E+04 0.  0.
        4    1    3    3  502    0 -0.44836588732E+03 -0.46335070305E+03  0.19923019934E+03  0.67484822601E+03  0.12699999809E+01 0. -1.
       -4    1    3    3    0  502  0.44836588732E+03  0.46335070305E+03  0.72248507687E+02  0.64880451809E+03  0.12699999809E+01 0.  1.
</event>
<event>
 5   0  0.9027076E-04  0.1297437E+04  0.7818609E-02  0.9031600E-01
       -1   -1    0    0    0  501  0.00000000000E+00  0.00000000000E+00  0.10289226030E+04  0.10289226030E+04  0.50400001928E-02 0.  1.
        1   -1    0    0  501    0  0.00000000000E+00  0.00000000000E+00 -0.40900632274E+03  0.40900632277E+03  0.50400001928E-02 0. -1.
    10030    2    1    2    0    0  0.00000000000E+00  0.00000000000E+00  0.61991628028E+03  0.14379289258E+04  0.12974372436E+04 0.  0.
        5    1    3    3  502    0  0.62946532153E+03 -0.74463651582E+02  0.46289464030E+03  0.78489805990E+03  0.46999998093E+01 0.  1.
       -5    1    3    3    0  502 -0.62946532153E+03  0.74463651582E+02  0.15702163998E+03  0.65303086591E+03  0.46999998093E+01 0. -1.
</event>
<event>
 5   0  0.1714861E-03  0.1332956E+04  0.7818609E-02  0.9003832E-01
        2   -1    0    0  501    0  0.00000000000E+00  0.00000000000E+00  0.83036665500E+03  0.83036665500E+03  0.25500000920E-02 0.  1.
       -2   -1    0    0    0  501  0.00000000000E+00  0.00000000000E+00 -0.53493575598E+03  0.53493575599E+03  0.25500000920E-02 0. -1.
    10030    2    1    2    0    0  0.00000000000E+00  0.00000000000E+00  0.29543089901E+03  0.13653024110E+04  0.13329558347E+04 0.  0.
        1    1    3    3  502    0  0.51539590577E+03  0.85151122046E+02  0.57165446920E+03  0.77438523065E+03  0.50400001928E-02 0. -1.
       -1    1    3    3    0  502 -0.51539590577E+03 -0.85151122046E+02 -0.27622357019E+03  0.59091718034E+03  0.50400001928E-02 0.  1.
</event>
<event>
 5   0  0.1623890E-03  0.1282073E+04  0.7818609E-02  0.9043904E-01
       -2   -1    0    0    0  501  0.00000000000E+00  0.00000000000E+00  0.44608524045E+03  0.44608524046E+03  0.25500000920E-02 0.  1.
        2   -1    0    0  501    0  0.00000000000E+00  0.00000000000E+00 -0.92118601109E+03  0.92118601109E+03  0.25500000920E-02 0. -1.
    10030    2    1    2    0    0  0.00000000000E+00  0.00000000000E+00 -0.47510077064E+03  0.13672712515E+04  0.12820725147E+04 0.  0.
        3    1    3    3  502    0 -0.20188330902E+03  0.46641365269E+03  0.17908916123E+03  0.53886130289E+03  0.10100000352E+00 0.  1.
       -3    1    3    3    0  502  0.20188330902E+03 -0.46641365269E+03 -0.65418993187E+03  0.82840994866E+03  0.10100000352E+00 0. -1.
</event>
<event>
 5   0  0.9081324E-04  0.1292114E+04  0.7818609E-02  0.9035843E-01
        1   -1    0    0  501    0  0.00000000000E+00  0.00000000000E+00  0.32873058200E+03  0.32873058203E+03  0.50400001928E-02 0. -1.
       -1   -1    0    0    0  501  0.00000000000E+00  0.00000000000E+00 -0.12697006510E+04  0.12697006510E+04  0.50400001928E-02 0.  1.
    10030    2    1    2    0    0  0.00000000000E+00  0.00000000000E+00 -0.94097006898E+03  0.15984312330E+04  0.12921136699E+04 0.  0.
        4    1    3    3  502    0 -0.37084478477E+03  0.16960371021E+03 -0.10903735739E+04  0.11641337623E+04  0.12699999809E+01 0.  1.
       -4    1    3    3    0  502  0.37084478477E+03 -0.16960371021E+03  0.14940350493E+03  0.43429747074E+03  0.12699999809E+01 0. -1.
</event>
<event>
 5   0  0.1667342E-03  0.1343905E+04  0.7818609E-02  0.8995455E-01
       -2   -1    0    0    0  501  0.00000000000E+00  0.00000000000E+00  0.22235720517E+03  0.22235720519E+03  0.25500000920E-02 0.  1.
        2   -1    0    0  501    0  0.00000000000E+00  0.00000000000E+00 -0.20306057905E+04  0.20306057905E+04  0.25500000920E-02 0. -1.
    10030    2    1    2    0    0  0.00000000000E+00  0.00000000000E+00 -0.18082485853E+04  0.22529629957E+04  0.13439045032E+04 0.  0.
        5    1    3    3  502    0  0.46376545114E+03 -0.48601510956E+03 -0.92834033637E+03  0.11459175147E+04  0.46999998093E+01 0.  1.
       -5    1    3    3    0  502 -0.46376545114E+03  0.48601510956E+03 -0.87990824897E+03  0.11070454810E+04  0.46999998093E+01 0. -1.
</event>
<event>
 5   0  0.1700511E-03  0.1307114E+04  0.7818609E-02  0.9023942E-01
        2   -1    0    0  501    0  0.00000000000E+00  0.00000000000E+00  0.72545561536E+03  0.72545561537E+03  0.25500000920E-02 0. -1.
       -2   -1    0    0    0  501  0.00000000000E+00  0.00000000000E+00 -0.58878434281E+03  0.58878434282E+03  0.25500000920E-02 0.  1.
    10030    2    1    2    0    0  0.00000000000E+00  0.00000000000E+00  0.13667127255E+03  0.13142399582E+04  0.13071142379E+04 0.  0.
        2    1    3    3  502    0 -0.92041993354E+02  0.26598232079E+03 -0.52472614240E+03  0.59544592369E+03  0.25500000920E-02 0.  1.
       -2    1    3    3    0  502  0.92041993354E+02 -0.26598232079E+03  0.66139741495E+03  0.71879403449E+03  0.25500000920E-02 0. -1.
</event>
<event>
 5   0  0.1700511E-03  0.1252778E+04  0.7818609E-02  0.9067874E-01
       -2   -1    0    0    0  501  0.00000000000E+00  0.00000000000E+00  0.52331454005E+03  0.52331454006E+03  0.25500000920E-02 0.  1.
        2   -1    0    0  501    0  0.00000000000E+00  0.00000000000E+00 -0.74976591046E+03  0.74976591046E+03  0.25500000920E-02 0. -1.
    10030    2    1    2    0    0  0.00000000000E+00  0.00000000000E+00 -0.22645137041E+03  0.12730804505E+04  0.12527783564E+04 0.  0.
        2    1    3    3  502    0  0.33843156670E+03  0.33095245491E+03  0.30366387557E+03  0.56238527904E+03  0.25500000920E-02 0.  1.
       -2    1    3    3    0  502 -0.33843156670E+03 -0.33095245491E+03 -0.53011524598E+03  0.71069517148E+03  0.25500000920E-02 0. -1.
</event>
<event>
 5   0  0.9215829E-04  0.1313000E+04  0.7818609E-02  0.9019319E-01
        1   -1    0    0  501    0  0.00000000000E+00  0.00000000000E+00  0.49281536463E+03  0.49281536465E+03  0.50400001928E-02 0. -1.
       -1   -1    0    0    0  501  0.00000000000E+00  0.00000000000E+00 -0.87455154729E+03  0.87455154730E+03  0.50400001928E-02 0.  1.
    10030    2    1    2    0    0  0.00000000000E+00  0.00000000000E+00 -0.38173618266E+03  0.13673669120E+04  0.13130002889E+04 0.  0.
        3    1    3    3  502    0  0.12216055537E+03  0.58736675796E+03  0.86759059072E+02  0.60617658663E+03  0.10100000352E+00 0. -1.
       -3    1    3    3    0  502 -0.12216055537E+03 -0.58736675796E+03 -0.46849524173E+03  0.76119032533E+03  0.10100000352E+00 0.  1.
</event>
<event>
 5   0  0.9110949E-04  0.1302382E+04  0.7818609E-02  0.9027679E-01
       -1   -1    0    0    0  501  0.00000000000E+00  0.00000000000E+00  0.44103460807E+03  0.44103460810E+03  0.50400001928E-02 0.  1.
        1   -1    0    0  501    0  0.00000000000E+00  0.00000000000E+00 -0.96148781874E+03  0.96148781875E+03  0.50400001928E-02 0. -1.
    10030    2    1    2    0    0  0.00000000000E+00  0.00000000000E+00 -0.52045321067E+03  0.14025224269E+04  0.13023815160E+04 0.  0.
        2    1    3    3  502    0  0.56260339640E+03 -0.11020987873E+03 -0.59281081455E+03  0.82467779215E+03  0.25500000920E-02 0. -1.
       -2    1    3    3    0  502 -0.56260339640E+03  0.11020987873E+03  0.72357603883E+02  0.57784463470E+03  0.25500000920E-02 0.  1.
</event>
<event>
 5   0  0.1714861E-03  0.1302472E+04  0.7818609E-02  0.9027607E-01
       -2   -1    0    0    0  501  0.00000000000E+00  0.00000000000E+00  0.60722871522E+03  0.60722871523E+03  0.25500000920E-02 0.  1.
        2   -1    0    0  501    0  0.00000000000E+00  0.00000000000E+00 -0.69843288893E+03  0.69843288894E+03  0.25500000920E-02 0. -1.
    10030    2    1    2    0    0  0.00000000000E+00  0.00000000000E+00 -0.91204173710E+02  0.13056616042E+04  0.13024722735E+04 0.  0.
        1    1    3    3  502    0 -0.37699115879E+03 -0.14090955968E+03 -0.55884275660E+03  0.68868212148E+03  0.50400001928E-02 0. -1.
       -1    1    3    3    0  502  0.37699115879E+03  0.14090955968E+03  0.46763858289E+03  0.61697948268E+03  0.50400001928E-02 0.  1.
</event>
<event>
 5   0  0.9110949E-04  0.1293928E+04  0.7818609E-02  0.9034394E-01
       -1   -1    0    0    0  501  0.00000000000E+00  0.00000000000E+00  0.87333606795E+03  0.87333606797E+03  0.50400001928E-02 0. -1.
        1   -1    0    0  501    0  0.00000000000E+00  0.00000000000E+00 -0.47926822123E+03  0.47926822125E+03  0.50400001928E-02 0.  1.
    10030    2    1    2    0    0  0.00000000000E+00  0.00000000000E+00  0.39406784673E+03  0.13526042892E+04  0.12939277010E+04 0.  0.
        2    1    3    3  502    0 -0.21095055742E+03  0.55828145837E+03  0.45812799356E+03  0.75236931285E+03  0.25500000920E-02 0. -1.
       -2    1    3    3    0  502  0.21095055742E+03 -0.55828145837E+03 -0.64060146829E+02  0.60023497637E+03  0.25500000920E-02 0.  1.
</event>
<event>
 5   0  0.9027076E-04  0.1302797E+04  0.7818609E-02  0.9027350E-01
        1   -1    0    0  501    0  0.00000000000E+00  0.00000000000E+00  0.17088998457E+04  0.17088998457E+04  0.50400001928E-02 0.  1.
       -1   -1    0    0    0  501  0.00000000000E+00  0.00000000000E+00 -0.24830001227E+03  0.24830001233E+03  0.50400001928E-02 0. -1.
    10030    2    1    2    0    0  0.00000000000E+00  0.00000000000E+00  0.14605998334E+04  0.19571998580E+04  0.13027967650E+04 0.  0.
        5    1    3    3  502    0  0.49147478702E+02  0.55236003756E+03  0.21691394387E+03  0.59547530159E+03  0.46999998093E+01 0.  1.
       -5    1    3    3    0  502 -0.49147478702E+02 -0.55236003756E+03  0.12436858896E+04  0.13617245565E+04  0.46999998093E+01 0. -1.
</event>
<event>
 5   0  0.1667342E-03  0.1284059E+04  0.7818609E-02  0.9042303E-01
        2   -1    0    0  501    0  0.00000000000E+00  0.00000000000E+00  0.13943173109E+04  0.13943173109E+04  0.25500000920E-02 0.  1.
       -2   -1    0    0    0  501  0.00000000000E+00  0.00000000000E+00 -0.29562969706E+03  0.29562969708E+03  0.25500000920E-02 0. -1.
    10030    2    1    2    0    0  0.00000000000E+00  0.00000000000E+00  0.10986876139E+04  0.16899470080E+04  0.12840585723E+04 0.  0.
        5    1    3    3  502    0  0.29080706619E+02  0.83648235638E+02  0.13862174431E+04  0.13890513325E+04  0.46999998093E+01 0.  1.
       -5    1    3    3    0  502 -0.29080706619E+02 -0.83648235638E+02 -0.28752982924E+03  0.30089567548E+03  0.46999998093E+01 0. -1.
</event>
<event>
 5   0  0.9110949E-04  0.1304132E+04  0.7818609E-02  0.9026295E-01
        1   -1    0    0  501    0  0.00000000000E+00  0.00000000000E+00  0.14890968090E+04  0.14890968091E+04  0.50400001928E-02 0.  1.
       -1   -1    0    0    0  501  0.00000000000E+00  0.00000000000E+00 -0.28553556995E+03  0.28553556999E+03  0.50400001928E-02 0. -1.
    10030    2    1    2    0    0  0.00000000000E+00  0.00000000000E+00  0.12035612391E+04  0.17746323790E+04  0.13041320579E+04 0.  0.
        2    1    3    3  502    0  0.32710018861E+03  0.86183917775E+02 -0.15680553257E+03  0.37284068464E+03  0.25500000920E-02 0. -1.
       -2    1    3    3    0  502 -0.32710018861E+03 -0.86183917775E+02  0.13603667717E+04  0.14017916944E+04  0.25500000920E-02 0.  1.
</event>
<event>
 5   0  0.9215829E-04  0.1294139E+04  0.7818609E-02  0.9034226E-01
        1   -1    0    0  501    0  0.00000000000E+00  0.00000000000E+00  0.91485263244E+03  0.91485263245E+03  0.50400001928E-02 0. -1.
       -1   -1    0    0    0  501  0.00000000000E+00  0.00000000000E+00 -0.45766799429E+03  0.45766799432E+03  0.50400001928E-02 0.  1.
    10030    2    1    2    0    0  0.00000000000E+00  0.00000000000E+00  0.45718463815E+03  0.13725206268E+04  0.12941387397E+04 0.  0.
        3    1    3    3  502    0  0.19303931151E+03 -0.53065510517E+03 -0.10651951809E+03  0.57463504450E+03  0.10100000352E+00 0. -1.
       -3    1    3    3    0  502 -0.19303931151E+03  0.53065510517E+03  0.56370415624E+03  0.79788558227E+03  0.10100000352E+00 0.  1.
</event>
<event>
 5   0  0.9027076E-04  0.1281008E+04  0.7818609E-02  0.9044763E-01
        1   -1    0    0  501    0  0.00000000000E+00  0.00000000000E+00  0.87618053397E+03  0.87618053398E+03  0.50400001928E-02 0. -1.
       -1   -1    0    0    0  501  0.00000000000E+00  0.00000000000E+00 -0.46822017816E+03  0.46822017818E+03  0.50400001928E-02 0.  1.
    10030    2    1    2    0    0  0.00000000000E+00  0.00000000000E+00  0.40796035581E+03  0.13444007122E+04  0.12810080495E+04 0.  0.
        5    1    3    3  502    0 -0.22434766946E+03  0.56954382111E+02  0.83073336455E+03  0.86238952417E+03  0.46999998093E+01 0. -1.
       -5    1    3    3    0  502  0.22434766946E+03 -0.56954382111E+02 -0.42277300874E+03  0.48201118799E+03  0.46999998093E+01 0.  1.
</event>
<event>
 5   0  0.1700511E-03  0.1328311E+04  0.7818609E-02  0.9007411E-01
        2   -1    0    0  501    0  0.00000000000E+00  0.00000000000E+00  0.32616960497E+03  0.32616960498E+03  0.25500000920E-02 0. -1.
       -2   -1    0    0    0  501  0.00000000000E+00  0.00000000000E+00 -0.13523716147E+04  0.13523716147E+04  0.25500000920E-02 0.  1.
    10030    2    1    2    0    0  0.00000000000E+00  0.00000000000E+00 -0.10262020098E+04  0.16785412197E+04  0.13283109807E+04 0.  0.
        2    1    3    3  502    0  0.50617824606E+03 -0.22776692060E+03 -0.97396381710E+03  0.11210261834E+04  0.25500000920E-02 0.  1.
       -2    1    3    3    0  502 -0.50617824606E+03  0.22776692060E+03 -0.52238192670E+02  0.55751503629E+03  0.25500000920E-02 0. -1.
</event>
<event>
 5   0  0.1623890E-03  0.1241812E+04  0.7818609E-02  0.9077026E-01
       -2   -1    0    0    0  501  0.00000000000E+00  0.00000000000E+00  0.43675947290E+03  0.43675947291E+03  0.25500000920E-02 0.  1.
        2   -1    0    0  501    0  0.00000000000E+00  0.00000000000E+00 -0.88269214276E+03  0.88269214276E+03  0.25500000920E-02 0. -1.
    10030    2    1    2    0    0  0.00000000000E+00  0.00000000000E+00 -0.44593266985E+03  0.13194516157E+04  0.12418118296E+04 0.  0.
        3    1    3    3  502    0  0.14098694062E+03  0.52277452653E+03 -0.54586380512E+03  0.76885488030E+03  0.10100000352E+00 0. -1.
       -3    1    3    3    0  502 -0.14098694062E+03 -0.52277452653E+03  0.99931135268E+02  0.55059673538E+03  0.10100000352E+00 0.  1.
</event>
<event>
 5   0  0.9215829E-04  0.1357782E+04  0.7818609E-02  0.8984958E-01
        1   -1    0    0  501    0  0.00000000000E+00  0.00000000000E+00  0.12800008464E+04  0.12800008464E+04  0.50400001928E-02 0.  1.
       -1   -1    0    0    0  501  0.00000000000E+00  0.00000000000E+00 -0.36007214683E+03  0.36007214687E+03  0.50400001928E-02 0. -1.
    10030    2    1    2    0    0  0.00000000000E+00  0.00000000000E+00  0.91992869959E+03  0.16400729933E+04  0.13577815034E+04 0.  0.
        3    1    3    3  502    0 -0.56650236978E+03 -0.18561696409E+03  0.67600997769E+02  0.59995707966E+03  0.10100000352E+00 0. -1.
       -3    1    3    3    0  502  0.56650236978E+03  0.18561696409E+03  0.85232770182E+03  0.10401159136E+04  0.10100000352E+00 0.  1.
</event>
<event>
 5   0  0.1714861E-03  0.1271866E+04  0.7818609E-02  0.9052178E-01
        2   -1    0    0  501    0  0.00000000000E+00  0.00000000000E+00  0.20400073090E+03  0.20400073091E+03  0.25500000920E-02 0. -1.
       -2   -1    0    0    0  501  0.00000000000E+00  0.00000000000E+00 -0.19824000004E+04  0.19824000004E+04  0.25500000920E-02 0.  1.
    10030    2    1    2    0    0  0.00000000000E+00  0.00000000000E+00 -0.17783992695E+04  0.21864007314E+04  0.12718664223E+04 0.  0.
        1    1    3    3  502    0 -0.12511078489E+03  0.19560057067E+03 -0.19069271195E+04  0.19210110179E+04  0.50400001928E-02 0.  1.
       -1    1    3    3    0  502  0.12511078489E+03 -0.19560057067E+03  0.12852785000E+03  0.26538971343E+03  0.50400001928E-02 0. -1.
</event>
<event>
 5   0  0.1714861E-03  0.1306217E+04  0.7818609E-02  0.9024650E-01
        2   -1    0    0  501    0  0.00000000000E+00  0.00000000000E+00  0.80770295775E+03  0.80770295775E+03  0.25500000920E-02 0.  1.
       -2   -1    0    0    0  501  0.00000000000E+00  0.00000000000E+00 -0.52810333085E+03  0.52810333086E+03  0.25500000920E-02 0. -1.
    10030    2    1    2    0    0  0.00000000000E+00  0.00000000000E+00  0.27959962689E+03  0.13358062886E+04  0.13062168615E+04 0.  0.
        1    1    3    3  502    0  0.25248249406E+03 -0.52367427770E+03  0.44414592193E+03  0.73160628682E+03  0.50400001928E-02 0.  1.
       -1    1    3    3    0  502 -0.25248249406E+03  0.52367427770E+03 -0.16454629503E+03  0.60420000179E+03  0.50400001928E-02 0. -1.
</event>
<event>
 5   0  0.1667342E-03  0.1305387E+04  0.7818609E-02  0.9025304E-01
        2   -1    0    0  501    0  0.00000000000E+00  0.00000000000E+00  0.80671208136E+03  0.80671208137E+03  0.25500000920E-02 0.  1.
       -2   -1    0    0    0  501  0.00000000000E+00  0.00000000000E+00 -0.52808000463E+03  0.52808000464E+03  0.25500000920E-02 0. -1.
    10030    2    1    2    0    0  0.00000000000E+00  0.00000000000E+00  0.27863207673E+03  0.13347920860E+04  0.13053865629E+04 0.  0.
        5    1    3    3  502    0  0.17685290256E+03  0.28463901176E+03  0.71201302870E+03  0.78694406357E+03  0.46999998093E+01 0.  1.
       -5    1    3    3    0  502 -0.17685290256E+03 -0.28463901176E+03 -0.43338095197E+03  0.54784802243E+03  0.46999998093E+01 0. -1.
</event>
<event>
 5   0  0.1623890E-03  0.1305537E+04  0.7818609E-02  0.9025186E-01
       -2   -1    0    0    0  501  0.00000000000E+00  0.00000000000E+00  0.28040675057E+03  0.28040675058E+03  0.25500000920E-02 0.  1.
        2   -1    0    0  501    0  0.00000000000E+00  0.00000000000E+00 -0.15196021605E+04  0.15196021605E+04  0.25500000920E-02 0. -1.
    10030    2    1    2    0    0  0.00000000000E+00  0.00000000000E+00 -0.12391954099E+04  0.18000089111E+04  0.13055369838E+04 0.  0.
        3    1    3    3  502    0  0.30661365725E+03  0.30313975137E+03  0.56131869205E+02  0.43480621041E+03  0.10100000352E+00 0.  1.
       -3    1    3    3    0  502 -0.30661365725E+03 -0.30313975137E+03 -0.12953272791E+04  0.13652027007E+04  0.10100000352E+00 0. -1.
</event>
<event>
 5   0  0.9098192E-04  0.1290399E+04  0.7818609E-02  0.9037213E-01
       -1   -1    0    0    0  501  0.00000000000E+00  0.00000000000E+00  0.37389533817E+03  0.37389533820E+03  0.50400001928E-02 0.  1.
        1   -1    0    0  501    0  0.00000000000E+00  0.00000000000E+00 -0.11133667724E+04  0.11133667724E+04  0.50400001928E-02 0. -1.
    10030    2    1    2    0    0  0.00000000000E+00  0.00000000000E+00 -0.73947143418E+03  0.14872621106E+04  0.12903993892E+04 0.  0.
        1    1    3    3  502    0 -0.32225386248E+03  0.20890939874E+03  0.22781049807E+03  0.44652918361E+03  0.50400001928E-02 0.  1.
       -1    1    3    3    0  502  0.32225386248E+03 -0.20890939874E+03 -0.96728193225E+03  0.10407329270E+04  0.50400001928E-02 0. -1.
</event>
<event>
 5   0  0.9098192E-04  0.1296664E+04  0.7818609E-02  0.9032215E-01
       -1   -1    0    0    0  501  0.00000000000E+00  0.00000000000E+00  0.78917761764E+03  0.78917761766E+03  0.50400001928E-02 0. -1.
        1   -1    0    0  501    0  0.00000000000E+00  0.00000000000E+00 -0.53262314084E+03  0.53262314086E+03  0.50400001928E-02 0.  1.
    10030    2    1    2    0    0  0.00000000000E+00  0.00000000000E+00  0.25655447680E+03  0.13218007585E+04  0.12966638137E+04 0.  0.
        1    1    3    3  502    0  0.25449694727E+03 -0.54448041528E+02  0.73359073963E+03  0.77838850113E+03  0.50400001928E-02 0. -1.
       -1    1    3    3    0  502 -0.25449694727E+03  0.54448041528E+02 -0.47703626283E+03  0.54341225738E+03  0.50400001928E-02 0.  1.
</event>
<event>
 5   0  0.9098192E-04  0.1277695E+04  0.7818609E-02  0.9047443E-01
       -1   -1    0    0    0  501  0.00000000000E+00  0.00000000000E+00  0.22591882594E+03  0.22591882600E+03  0.50400001928E-02 0.  1.
        1   -1    0    0  501    0  0.00000000000E+00  0.00000000000E+00 -0.18065160218E+04  0.18065160218E+04  0.50400001928E-02 0. -1.
    10030    2    1    2    0    0  0.00000000000E+00  0.00000000000E+00 -0.15805971959E+04  0.20324348478E+04  0.12776947660E+04 0.  0.
        1    1    3    3  502    0  0.28088239802E+03  0.53765184186E+03 -0.47151587772E+03  0.76830439771E+03  0.50400001928E-02 0.  1.
       -1    1    3    3    0  502 -0.28088239802E+03 -0.53765184186E+03 -0.11090813182E+04  0.12641304501E+04  0.50400001928E-02 0. -1.
</event>
<event>
 5   0  0.1667342E-03  0.1361656E+04  0.7818609E-02  0.8982051E-01
        2   -1    0    0  501    0  0.00000000000E+00  0.00000000000E+00  0.52926196906E+03  0.52926196907E+03  0.25500000920E-02 0.  1.
       -2   -1    0    0    0  501  0.00000000000E+00  0.00000000000E+00 -0.87579819396E+03  0.87579819396E+03  0.25500000920E-02 0. -1.
    10030    2    1    2    0    0  0.00000000000E+00  0.00000000000E+00 -0.34653622490E+03  0.14050601630E+04  0.13616558694E+04 0.  0.
        5    1    3    3  502    0  0.50760252164E+03  0.31412842255E+03  0.16453162860E+03  0.61921703193E+03  0.46999998093E+01 0.  1.
       -5    1    3    3    0  502 -0.50760252164E+03 -0.31412842255E+03 -0.51106785349E+03  0.78584313110E+03  0.46999998093E+01 0. -1.
</event>
<event>
 5   0  0.1714861E-03  0.1305590E+04  0.7818609E-02  0.9025144E-01
        2   -1    0    0  501    0  0.00000000000E+00  0.00000000000E+00  0.75790966130E+03  0.75790966131E+03  0.25500000920E-02 0. -1.
       -2   -1    0    0    0  501  0.00000000000E+00  0.00000000000E+00 -0.56225854717E+03  0.56225854718E+03  0.25500000920E-02 0.  1.
    10030    2    1    2    0    0  0.00000000000E+00  0.00000000000E+00  0.19565111413E+03  0.13201682085E+04  0.13055898055E+04 0.  0.
        1    1    3    3  502    0 -0.43000441814E+03 -0.24257873373E+03  0.52966920485E+03  0.72408404779E+03  0.50400001928E-02 0. -1.
       -1    1    3    3    0  502  0.43000441814E+03  0.24257873373E+03 -0.33401809072E+03  0.59608416069E+03  0.50400001928E-02 0.  1.
</event>
<event>
 5   0  0.9027076E-04  0.1307128E+04  0.7818609E-02  0.9023932E-01
        1   -1    0    0  501    0  0.00000000000E+00  0.00000000000E+00  0.51750440605E+03  0.51750440608E+03  0.50400001928E-02 0. -1.
       -1   -1    0    0    0  501  0.00000000000E+00  0.00000000000E+00 -0.82539552920E+03  0.82539552921E+03  0.50400001928E-02 0.  1.
    10030    2    1    2    0    0  0.00000000000E+00  0.00000000000E+00 -0.30789112314E+03  0.13428999353E+04  0.13071278792E+04 0.  0.
        5    1    3    3  502    0 -0.50137690068E+03  0.38782989492E+03  0.95733954758E+01  0.63395943390E+03  0.46999998093E+01 0. -1.
       -5    1    3    3    0  502  0.50137690068E+03 -0.38782989492E+03 -0.31746451862E+03  0.70894050139E+03  0.46999998093E+01 0.  1.
</event>
<event>
 5   0  0.9215829E-04  0.1324869E+04  0.7818609E-02  0.9010073E-01
        1   -1    0    0  501    0  0.00000000000E+00  0.00000000000E+00  0.30819367406E+04  0.30819367406E+04  0.50400001928E-02 0. -1.
       -1   -1    0    0    0  501  0.00000000000E+00  0.00000000000E+00 -0.14238431724E+03  0.14238431733E+03  0.50400001928E-02 0.  1.
    10030    2    1    2    0    0  0.00000000000E+00  0.00000000000E+00  0.29395524234E+04  0.32243210579E+04  0.13248689878E+04 0.  0.
        3    1    3    3  502    0 -0.69458476462E+02  0.61791864806E+03  0.20256575071E+04  0.21189469748E+04  0.10100000352E+00 0. -1.
       -3    1    3    3    0  502  0.69458476462E+02 -0.61791864806E+03  0.91389491624E+03  0.11053740831E+04  0.10100000352E+00 0.  1.
</event>
<event>
 5   0  0.1714861E-03  0.1337828E+04  0.7818609E-02  0.9000094E-01
       -2   -1    0    0    0  501  0.00000000000E+00  0.00000000000E+00  0.38487694063E+03  0.38487694064E+03  0.25500000920E-02 0. -1.
        2   -1    0    0  501    0  0.00000000000E+00  0.00000000000E+00 -0.11625685647E+04  0.11625685647E+04  0.25500000920E-02 0.  1.
    10030    2    1    2    0    0  0.00000000000E+00  0.00000000000E+00 -0.77769162405E+03  0.15474455053E+04  0.13378278401E+04 0.  0.
        1    1    3    3  502    0  0.50768585726E+03 -0.85590083135E+02 -0.88281296773E+03  0.10219732521E+04  0.50400001928E-02 0.  1.
       -1    1    3    3    0  502 -0.50768585726E+03  0.85590083135E+02  0.10512134368E+03  0.52547225323E+03  0.50400001928E-02 0. -1.
</event>
<event>
 5   0  0.9098192E-04  0.1268300E+04  0.7818609E-02  0.9055089E-01
       -1   -1    0    0    0  501  0.00000000000E+00  0.00000000000E+00  0.89712570229E+03  0.89712570231E+03  0.50400001928E-02 0. -1.
        1   -1    0    0  501    0  0.00000000000E+00  0.00000000000E+00 -0.44826051525E+03  0.44826051528E+03  0.50400001928E-02 0.  1.
    10030    2    1    2    0    0  0.00000000000E+00  0.00000000000E+00  0.44886518705E+03  0.13453862176E+04  0.12682996958E+04 0.  0.
        1    1    3    3  502    0 -0.19316613083E+03 -0.26172602510E+03 -0.35301772913E+03  0.48003664800E+03  0.50400001928E-02 0.  1.
       -1    1    3    3    0  502  0.19316613083E+03  0.26172602510E+03  0.80188291617E+03  0.86534956959E+03  0.50400001928E-02 0. -1.
</event>
<event>
 5   0  0.9110949E-04  0.1307922E+04  0.7818609E-02  0.9023307E-01
       -1   -1    0    0    0  501  0.00000000000E+00  0.00000000000E+00  0.10121200724E+04  0.10121200724E+04  0.50400001928E-02 0. -1.
        1   -1    0    0  501    0  0.00000000000E+00  0.00000000000E+00 -0.42254359413E+03  0.42254359416E+03  0.50400001928E-02 0.  1.
    10030    2    1    2    0    0  0.00000000000E+00  0.00000000000E+00  0.58957647829E+03  0.14346636666E+04  0.13079217914E+04 0.  0.
        2    1    3    3  502    0  0.35972967161E+00 -0.24340678942E+03 -0.37100389666E+03  0.44372388473E+03  0.25500000920E-02 0.  1.
       -2    1    3    3    0  502 -0.35972967161E+00  0.24340678942E+03  0.96058037494E+03  0.99093978186E+03  0.25500000920E-02 0. -1.
</event>
<event>
 5   0  0.9081324E-04  0.1289713E+04  0.7818609E-02  0.9037763E-01
        1   -1    0    0  501    0  0.00000000000E+00  0.00000000000E+00  0.65498012683E+03  0.65498012685E+03  0.50400001928E-02 0. -1.
       -1   -1    0    0    0  501  0.00000000000E+00  0.00000000000E+00 -0.63488895030E+03  0.63488895032E+03  0.50400001928E-02 0.  1.
    10030    2    1    2    0    0  0.00000000000E+00  0.00000000000E+00  0.20091176531E+02  0.12898690772E+04  0.12897125962E+04 0.  0.
        4    1    3    3  502    0  0.53505852113E+03 -0.32733478799E+03 -0.13964671059E+03  0.64260291094E+03  0.12699999809E+01 0.  1.
       -4    1    3    3    0  502 -0.53505852113E+03  0.32733478799E+03  0.15973788712E+03  0.64726616623E+03  0.12699999809E+01 0. -1.
</event>
<event>
 5   0  0.9081324E-04  0.1280518E+04  0.7818609E-02  0.9045159E-01
       -1   -1    0    0    0  501  0.00000000000E+00  0.00000000000E+00  0.47828967792E+03  0.47828967795E+03  0.50400001928E-02 0. -1.
        1   -1    0    0  501    0  0.00000000000E+00  0.00000000000E+00 -0.85707757305E+03  0.85707757306E+03  0.50400001928E-02 0.  1.
    10030    2    1    2    0    0  0.00000000000E+00  0.00000000000E+00 -0.37878789513E+03  0.13353672510E+04  0.12805176397E+04 0.  0.
        4    1    3    3  502    0  0.56058389101E+02  0.60162568727E+03  0.31415477022E+02  0.60504921755E+03  0.12699999809E+01 0.  1.
       -4    1    3    3    0  502 -0.56058389101E+02 -0.60162568727E+03 -0.41020337215E+03  0.73031803346E+03  0.12699999809E+01 0. -1.
</event>
<event>
 5   0  0.9098192E-04  0.1324573E+04  0.7818609E-02  0.9010303E-01
       -1   -1    0    0    0  501  0.00000000000E+00  0.00000000000E+00  0.95650160756E+03  0.95650160757E+03  0.50400001928E-02 0.  1.
        1   -1    0    0  501    0  0.00000000000E+00  0.00000000000E+00 -0.45857020785E+03  0.45857020788E+03  0.50400001928E-02 0. -1.
    10030    2    1    2    0    0  0.00000000000E+00  0.00000000000E+00  0.49793139971E+03  0.14150718154E+04  0.13245725967E+04 0.  0.
        1    1    3    3  502    0 -0.15190377476E+03 -0.42902211170E+03 -0.26503929917E+03  0.52666930729E+03  0.50400001928E-02 0. -1.
       -1    1    3    3    0  502  0.15190377476E+03  0.42902211170E+03  0.76297069888E+03  0.88840250815E+03  0.50400001928E-02 0.  1.
</event>
<event>
 5   0  0.9215829E-04  0.1329014E+04  0.7818609E-02  0.9006868E-01
       -1   -1    0    0    0  501  0.00000000000E+00  0.00000000000E+00  0.26571041071E+03  0.26571041075E+03  0.50400001928E-02 0.  1.
        1   -1    0    0  501    0  0.00000000000E+00  0.00000000000E+00 -0.16618460913E+04  0.16618460913E+04  0.50400001928E-02 0. -1.
    10030    2    1    2    0    0  0.00000000000E+00  0.00000000000E+00 -0.13961356806E+04  0.19275565020E+04  0.13290143829E+04 0.  0.
        3    1    3    3  502    0 -0.16853311328E+03 -0.21395367282E+03  0.18103812627E+03  0.32703883217E+03  0.10100000352E+00 0.  1.
       -3    1    3    3    0  502  0.16853311328E+03  0.21395367282E+03 -0.15771738068E+04  0.16005176699E+04  0.10100000352E+00 0. -1.
</event>
<event>
 5   0  0.9081324E-04  0.1292444E+04  0.7818609E-02  0.9035579E-01
        1   -1    0    0  501    0  0.00000000000E+00  0.00000000000E+00  0.42331124950E+03  0.42331124953E+03  0.50400001928E-02 0. -1.
       -1   -1    0    0    0  501  0.00000000000E+00  0.00000000000E+00 -0.98651465690E+03  0.98651465692E+03  0.50400001928E-02 0.  1.
    10030    2    1    2    0    0  0.00000000000E+00  0.00000000000E+00 -0.56320340741E+03  0.14098259064E+04  0.12924438125E+04 0.  0.
        4    1    3    3  502    0 -0.51017827217E+02 -0.62067905190E+03 -0.46976715489E+03  0.78008210906E+03  0.12699999809E+01 0. -1.
       -4    1    3    3    0  502  0.51017827217E+02  0.62067905190E+03 -0.93436252516E+02  0.62974379739E+03  0.12699999809E+01 0.  1.
</event>
<event>
 5   0  0.1667342E-03  0.1295682E+04  0.7818609E-02  0.9032997E-01
       -2   -1    0    0    0  501  0.00000000000E+00  0.00000000000E+00  0.28646829098E+03  0.28646829099E+03  0.25500000920E-02 0.  1.
        2   -1    0    0  501    0  0.00000000000E+00  0.00000000000E+00 -0.14650754771E+04  0.14650754771E+04  0.25500000920E-02 0. -1.
    10030    2    1    2    0    0  0.00000000000E+00  0.00000000000E+00 -0.11786071861E+04  0.17515437681E+04  0.12956815475E+04 0.  0.
        5    1    3    3  502    0 -0.32447192933E+03  0.16913930165E+03  0.13337097428E+03  0.38948689716E+03  0.46999998093E+01 0.  1.
       -5    1    3    3    0  502  0.32447192933E+03 -0.16913930165E+03 -0.13119781604E+04  0.13620568710E+04  0.46999998093E+01 0. -1.
</event>
<event>
 5   0  0.9110949E-04  0.1299355E+04  0.7818609E-02  0.9030077E-01
        1   -1    0    0  501    0  0.00000000000E+00  0.00000000000E+00  0.12579647031E+04  0.12579647032E+04  0.50400001928E-02 0.  1.
       -1   -1    0    0    0  501  0.00000000000E+00  0.00000000000E+00 -0.33552657796E+03  0.33552657800E+03  0.50400001928E-02 0. -1.
    10030    2    1    2    0    0  0.00000000000E+00  0.00000000000E+00  0.92243812518E+03  0.15934912812E+04  0.12993545968E+04 0.  0.
        2    1    3    3  502    0 -0.41190027707E+03  0.25833899705E+03 -0.67231344082E+02  0.49083696813E+03  0.25500000920E-02 0. -1.
       -2    1    3    3    0  502  0.41190027707E+03 -0.25833899705E+03  0.98966946926E+03  0.11026543130E+04  0.25500000920E-02 0.  1.
</event>
<event>
 5   0  0.9215829E-04  0.1375026E+04  0.7818609E-02  0.8972097E-01
       -1   -1    0    0    0  501  0.00000000000E+00  0.00000000000E+00  0.80645873789E+03  0.80645873790E+03  0.50400001928E-02 0.  1.
        1   -1    0    0  501    0  0.00000000000E+00  0.00000000000E+00 -0.58611051364E+03  0.58611051367E+03  0.50400001928E-02 0. -1.
    10030    2    1    2    0    0  0.00000000000E+00  0.00000000000E+00  0.22034822424E+03  0.13925692516E+04  0.13750257381E+04 0.  0.
        3    1    3    3  502    0  0.54528687852E+03 -0.96815849118E+02 -0.30240896581E+03  0.63100101531E+03  0.10100000352E+00 0. -1.
       -3    1    3    3    0  502 -0.54528687852E+03  0.96815849118E+02  0.52275719005E+03  0.76156823626E+03  0.10100000352E+00 0.  1.
</event>
<event>
 5   0  0.9110949E-04  0.1289434E+04  0.7818609E-02  0.9037986E-01
        1   -1    0    0  501    0  0.00000000000E+00  0.00000000000E+00  0.70680070572E+03  0.70680070574E+03  0.50400001928E-02 0.  1.
       -1   -1    0    0    0  501  0.00000000000E+00  0.00000000000E+00 -0.58808662956E+03  0.58808662958E+03  0.50400001928E-02 0. -1.
    10030    2    1    2    0    0  0.00000000000E+00  0.00000000000E+00  0.11871407616E+03  0.12948873353E+04  0.12894340539E+04 0.  0.
        2    1    3    3  502    0  0.52299283737E+03 -0.75237456728E+02 -0.31163445625E+03  0.61343150976E+03  0.25500000920E-02 0. -1.
       -2    1    3    3    0  502 -0.52299283737E+03  0.75237456728E+02  0.43034853242E+03  0.68145582556E+03  0.25500000920E-02 0.  1.
</event>
<event>
 5   0  0.1714861E-03  0.1305511E+04  0.7818609E-02  0.9025206E-01
       -2   -1    0    0    0  501  0.00000000000E+00  0.00000000000E+00  0.31698065012E+03  0.31698065013E+03  0.25500000920E-02 0.  1.
        2   -1    0    0  501    0  0.00000000000E+00  0.00000000000E+00 -0.13442141435E+04  0.13442141435E+04  0.25500000920E-02 0. -1.
    10030    2    1    2    0    0  0.00000000000E+00  0.00000000000E+00 -0.10272334934E+04  0.16611947937E+04  0.13055111997E+04 0.  0.
        1    1    3    3  502    0  0.32601765945E+03  0.53202977291E+03 -0.75753764489E+03  0.98143083148E+03  0.50400001928E-02 0. -1.
       -1    1    3    3    0  502 -0.32601765945E+03 -0.53202977291E+03 -0.26969584851E+03  0.67976396217E+03  0.50400001928E-02 0.  1.
</event>
<event>
 5   0  0.9098192E-04  0.1304091E+04  0.7818609E-02  0.9026327E-01
       -1   -1    0    0    0  501  0.00000000000E+00  0.00000000000E+00  0.34328542157E+03  0.34328542160E+03  0.50400001928E-02 0. -1.
        1   -1    0    0  501    0  0.00000000000E+00  0.00000000000E+00 -0.12385135860E+04  0.12385135860E+04  0.50400001928E-02 0.  1.
    10030    2    1    2    0    0  0.00000000000E+00  0.00000000000E+00 -0.89522816443E+03  0.15817990076E+04  0.13040914976E+04 0.  0.
        1    1    3    3  502    0 -0.32394894811E+03 -0.25878589887E+03  0.16279146740E+03  0.44543700376E+03  0.50400001928E-02 0. -1.
       -1    1    3    3    0  502  0.32394894811E+03  0.25878589887E+03 -0.10580196318E+04  0.11363620039E+04  0.50400001928E-02 0.  1.
</event>
<event>
 5   0  0.1700511E-03  0.1319820E+04  0.7818609E-02  0.9013993E-01
       -2   -1    0    0    0  501  0.00000000000E+00  0.00000000000E+00  0.20708346790E+03  0.20708346791E+03  0.25500000920E-02 0. -1.
        2   -1    0    0  501    0  0.00000000000E+00  0.00000000000E+00 -0.21029274267E+04  0.21029274267E+04  0.25500000920E-02 0.  1.
    10030    2    1    2    0    0  0.00000000000E+00  0.00000000000E+00 -0.18958439588E+04  0.23100108946E+04  0.13198204488E+04 0.  0.
        2    1    3    3  502    0 -0.25906337019E+03 -0.37302159839E+03 -0.17858907932E+04  0.18427329888E+04  0.25500000920E-02 0.  1.
       -2    1    3    3    0  502  0.25906337019E+03  0.37302159839E+03 -0.10995316556E+03  0.46727790582E+03  0.25500000920E-02 0. -1.
</event>
<event>
 5   0  0.9027076E-04  0.1248214E+04  0.7818609E-02  0.9071671E-01
        1   -1    0    0  501    0  0.00000000000E+00  0.00000000000E+00  0.18217358955E+04  0.18217358955E+04  0.50400001928E-02 0.  1.
       -1   -1    0    0    0  501  0.00000000000E+00  0.00000000000E+00 -0.21381243213E+03  0.21381243219E+03  0.50400001928E-02 0. -1.
    10030    2    1    2    0    0  0.00000000000E+00  0.00000000000E+00  0.16079234634E+04  0.20355483277E+04  0.12482143767E+04 0.  0.
        5    1    3    3  502    0  0.28071327457E+03 -0.50323485929E+03  0.41311307307E+03  0.70903439075E+03  0.46999998093E+01 0. -1.
       -5    1    3    3    0  502 -0.28071327457E+03  0.50323485929E+03  0.11948103903E+04  0.13265139369E+04  0.46999998093E+01 0.  1.
</event>
<event>
 5   0  0.9081324E-04  0.1290856E+04  0.7818609E-02  0.9036848E-01
       -1   -1    0    0    0  501  0.00000000000E+00  0.00000000000E+00  0.47711871031E+03  0.47711871033E+03  0.50400001928E-02 0. -1.
        1   -1    0    0  501    0  0.00000000000E+00  0.00000000000E+00 -0.87311031430E+03  0.87311031431E+03  0.50400001928E-02 0.  1.
    10030    2    1    2    0    0  0.00000000000E+00  0.00000000000E+00 -0.39599160399E+03  0.13502290246E+04  0.12908559442E+04 0.  0.
        4    1    3    3  502    0 -0.21214146978E+03 -0.45307434499E+02  0.43784439687E+03  0.48863697730E+03  0.12699999809E+01 0. -1.
       -4    1    3    3    0  502  0.21214146978E+03  0.45307434499E+02 -0.83383600085E+03  0.86159204734E+03  0.12699999809E+01 0.  1.
</event>
<event>
 5   0  0.9215829E-04  0.1312270E+04  0.7818609E-02  0.9019891E-01
       -1   -1    0    0    0  501  0.00000000000E+00  0.00000000000E+00  0.34165622123E+03  0.34165622127E+03  0.50400001928E-02 0.  1.
        1   -1    0    0  501    0  0.00000000000E+00  0.00000000000E+00 -0.12600777225E+04  0.12600777226E+04  0.50400001928E-02 0. -1.
    10030    2    1    2    0    0  0.00000000000E+00  0.00000000000E+00 -0.91842150132E+03  0.16017339438E+04  0.13122703886E+04 0.  0.
        3    1    3    3  502    0 -0.55572277102E+03 -0.23232750178E+03 -0.77681909725E+03  0.98298107122E+03  0.10100000352E+00 0. -1.
       -3    1    3    3    0  502  0.55572277102E+03  0.23232750178E+03 -0.14160240407E+03  0.61875287260E+03  0.10100000352E+00 0.  1.
</event>
<event>
 5   0  0.6284125E-04  0.1233077E+04  0.7818609E-02  0.9084387E-01
       -3   -1    0    0    0  501  0.00000000000E+00  0.00000000000E+00  0.87667879293E+03  0.87667879875E+03  0.10100000352E+00 0. -1.
        3   -1    0    0  501    0  0.00000000000E+00  0.00000000000E+00 -0.43359082693E+03  0.43359083869E+03  0.10100000352E+00 0.  1.
    10030    2    1    2    0    0  0.00000000000E+00  0.00000000000E+00  0.44308796600E+03  0.13102696374E+04  0.12330772795E+04 0.  0.
        3    1    3    3  502    0 -0.96199081445E+02  0.20034335792E+03  0.83263509749E+03  0.86178474117E+03  0.10100000352E+00 0. -1.
       -3    1    3    3    0  502  0.96199081445E+02 -0.20034335792E+03 -0.38954713149E+03  0.44848489627E+03  0.10100000352E+00 0.  1.
</event>
<event>
 5   0  0.1623890E-03  0.1306514E+04  0.7818609E-02  0.9024415E-01
        2   -1    0    0  501    0  0.00000000000E+00  0.00000000000E+00  0.10363568553E+04  0.10363568553E+04  0.25500000920E-02 0.  1.
       -2   -1    0    0    0  501  0.00000000000E+00  0.00000000000E+00 -0.41177394516E+03  0.41177394517E+03  0.25500000920E-02 0. -1.
    10030    2    1    2    0    0  0.00000000000E+00  0.00000000000E+00  0.62458291009E+03  0.14481308004E+04  0.13065140656E+04 0.  0.
        3    1    3    3  502    0  0.37860925942E+03 -0.53185455759E+03  0.28676232806E+03  0.71305461554E+03  0.10100000352E+00 0. -1.
       -3    1    3    3    0  502 -0.37860925942E+03  0.53185455759E+03  0.33782058204E+03  0.73507618489E+03  0.10100000352E+00 0.  1.
</event>
<event>
 5   0  0.1694675E-03  0.1287446E+04  0.7818609E-02  0.9039580E-01
        2   -1    0    0  501    0  0.00000000000E+00  0.00000000000E+00  0.46469462627E+03  0.46469462628E+03  0.25500000920E-02 0.  1.
       -2   -1    0    0    0  501  0.00000000000E+00  0.00000000000E+00 -0.89172450761E+03  0.89172450761E+03  0.25500000920E-02 0. -1.
    10030    2    1    2    0    0  0.00000000000E+00  0.00000000000E+00 -0.42702988134E+03  0.13564191339E+04  0.12874464444E+04 0.  0.
        4    1    3    3  502    0 -0.55235326014E+03  0.17275646727E+03  0.83433988954E+02  0.58472366498E+03  0.12699999809E+01 0.  1.
       -4    1    3    3    0  502  0.55235326014E+03 -0.17275646727E+03 -0.51046387029E+03  0.77169546891E+03  0.12699999809E+01 0. -1.
</event>
<event>
 5   0  0.9098192E-04  0.1299604E+04  0.7818609E-02  0.9029880E-01
       -1   -1    0    0    0  501  0.00000000000E+00  0.00000000000E+00  0.47839982692E+03  0.47839982694E+03  0.50400001928E-02 0.  1.
        1   -1    0    0  501    0  0.00000000000E+00  0.00000000000E+00 -0.88261401071E+03  0.88261401073E+03  0.50400001928E-02 0. -1.
    10030    2    1    2    0    0  0.00000000000E+00  0.00000000000E+00 -0.40421418380E+03  0.13610138377E+04  0.12996036165E+04 0.  0.
        1    1    3    3  502    0 -0.44068021698E+02 -0.57449610180E+03  0.11251294011E+03  0.58706637038E+03  0.50400001928E-02 0. -1.
       -1    1    3    3    0  502  0.44068021698E+02  0.57449610180E+03 -0.51672712390E+03  0.77394746729E+03  0.50400001928E-02 0.  1.
</event>
<event>
 5   0  0.9027076E-04  0.1305047E+04  0.7818609E-02  0.9025572E-01
       -1   -1    0    0    0  501  0.00000000000E+00  0.00000000000E+00  0.72736008843E+03  0.72736008845E+03  0.50400001928E-02 0. -1.
        1   -1    0    0  501    0  0.00000000000E+00  0.00000000000E+00 -0.58538666351E+03  0.58538666353E+03  0.50400001928E-02 0.  1.
    10030    2    1    2    0    0  0.00000000000E+00  0.00000000000E+00  0.14197342492E+03  0.13127467520E+04  0.13050469652E+04 0.  0.
        5    1    3    3  502    0  0.13392246581E+03 -0.63630238069E+03  0.12561049916E+03  0.66228093285E+03  0.46999998093E+01 0. -1.
       -5    1    3    3    0  502 -0.13392246581E+03  0.63630238069E+03  0.16362925764E+02  0.65046581913E+03  0.46999998093E+01 0.  1.
</event>
<event>
 5   0  0.1623890E-03  0.1301059E+04  0.7818609E-02  0.9028726E-01
       -2   -1    0    0    0  501  0.00000000000E+00  0.00000000000E+00  0.67888118993E+03  0.67888118993E+03  0.25500000920E-02 0.  1.
        2   -1    0    0  501    0  0.00000000000E+00  0.00000000000E+00 -0.62336214527E+03  0.62336214528E+03  0.25500000920E-02 0. -1.
    10030    2    1    2    0    0  0.00000000000E+00  0.00000000000E+00  0.55519044659E+02  0.13022433352E+04  0.13010593145E+04 0.  0.
        3    1    3    3  502    0 -0.62527383824E+03 -0.17923825553E+03  0.17998739761E+02  0.65070553238E+03  0.10100000352E+00 0.  1.
       -3    1    3    3    0  502  0.62527383824E+03  0.17923825553E+03  0.37520304898E+02  0.65153780283E+03  0.10100000352E+00 0. -1.
</event>
<event>
 5   0  0.9081324E-04  0.1305927E+04  0.7818609E-02  0.9024878E-01
       -1   -1    0    0    0  501  0.00000000000E+00  0.00000000000E+00  0.36169615244E+03  0.36169615248E+03  0.50400001928E-02 0. -1.
        1   -1    0    0  501    0  0.00000000000E+00  0.00000000000E+00 -0.11787823945E+04  0.11787823945E+04  0.50400001928E-02 0.  1.
    10030    2    1    2    0    0  0.00000000000E+00  0.00000000000E+00 -0.81708624205E+03  0.15404785470E+04  0.13059265779E+04 0.  0.
        4    1    3    3  502    0  0.64871268073E+03  0.53904193545E+02 -0.46898729524E+03  0.80229950780E+03  0.12699999809E+01 0.  1.
       -4    1    3    3    0  502 -0.64871268073E+03 -0.53904193545E+02 -0.34809894681E+03  0.73817903918E+03  0.12699999809E+01 0. -1.
</event>
<event>
 5   0  0.1623890E-03  0.1297478E+04  0.7818609E-02  0.9031567E-01
        2   -1    0    0  501    0  0.00000000000E+00  0.00000000000E+00  0.75740282527E+03  0.75740282527E+03  0.25500000920E-02 0. -1.
       -2   -1    0    0    0  501  0.00000000000E+00  0.00000000000E+00 -0.55566524306E+03  0.55566524307E+03  0.25500000920E-02 0.  1.
    10030    2    1    2    0    0  0.00000000000E+00  0.00000000000E+00  0.20173758221E+03  0.13130680683E+04  0.12974782079E+04 0.  0.
        3    1    3    3  502    0 -0.13296237907E+03  0.36084345805E+03  0.62961703593E+03  0.73777003029E+03  0.10100000352E+00 0. -1.
       -3    1    3    3    0  502  0.13296237907E+03 -0.36084345805E+03 -0.42787945372E+03  0.57529803805E+03  0.10100000352E+00 0.  1.
</event>
<event>
 5   0  0.9027076E-04  0.1297666E+04  0.7818609E-02  0.9031418E-01
        1   -1    0    0  501    0  0.00000000000E+00  0.00000000000E+00  0.15091749393E+04  0.15091749393E+04  0.50400001928E-02 0.  1.
       -1   -1    0    0    0  501  0.00000000000E+00  0.00000000000E+00 -0.27894998108E+03  0.27894998113E+03  0.50400001928E-02 0. -1.
    10030    2    1    2    0    0  0.00000000000E+00  0.00000000000E+00  0.12302249582E+04  0.17881249205E+04  0.12976660908E+04 0.  0.
        5    1    3    3  502    0 -0.42574822679E+03  0.39328073562E+03  0.10169249325E+04  0.11705083075E+04  0.46999998093E+01 0.  1.
       -5    1    3    3    0  502  0.42574822679E+03 -0.39328073562E+03  0.21330002577E+03  0.61761661297E+03  0.46999998093E+01 0. -1.
</event>
<event>
 5   0  0.9110949E-04  0.1302947E+04  0.7818609E-02  0.9027232E-01
        1   -1    0    0  501    0  0.00000000000E+00  0.00000000000E+00  0.55143311069E+03  0.55143311072E+03  0.50400001928E-02 0. -1.
       -1   -1    0    0    0  501  0.00000000000E+00  0.00000000000E+00 -0.76966287050E+03  0.76966287051E+03  0.50400001928E-02 0.  1.
    10030    2    1    2    0    0  0.00000000000E+00  0.00000000000E+00 -0.21822975980E+03  0.13210959812E+04  0.13029468000E+04 0.  0.
        2    1    3    3  502    0 -0.35400735521E+02 -0.48350715405E+03 -0.55036081614E+03  0.73343671032E+03  0.25500000920E-02 0.  1.
       -2    1    3    3    0  502  0.35400735521E+02  0.48350715405E+03  0.33213105634E+03  0.58765927091E+03  0.25500000920E-02 0. -1.
</event>
<event>
 5   0  0.1667342E-03  0.1294033E+04  0.7818609E-02  0.9034311E-01
       -2   -1    0    0    0  501  0.00000000000E+00  0.00000000000E+00  0.39983184145E+03  0.39983184146E+03  0.25500000920E-02 0.  1.
        2   -1    0    0  501    0  0.00000000000E+00  0.00000000000E+00 -0.10470159091E+04  0.10470159091E+04  0.25500000920E-02 0. -1.
    10030    2    1    2    0    0  0.00000000000E+00  0.00000000000E+00 -0.64718406763E+03  0.14468477505E+04  0.12940329192E+04 0.  0.
        5    1    3    3  502    0 -0.49978920102E+03  0.10598945361E+03  0.12025694131E+03  0.52488744666E+03  0.46999998093E+01 0.  1.
       -5    1    3    3    0  502  0.49978920102E+03 -0.10598945361E+03 -0.76744100894E+03  0.92196030388E+03  0.46999998093E+01 0. -1.
</event>
<event>
 5   0  0.9098192E-04  0.1306495E+04  0.7818609E-02  0.9024431E-01
        1   -1    0    0  501    0  0.00000000000E+00  0.00000000000E+00  0.14083217958E+04  0.14083217958E+04  0.50400001928E-02 0. -1.
       -1   -1    0    0    0  501  0.00000000000E+00  0.00000000000E+00 -0.30300747016E+03  0.30300747020E+03  0.50400001928E-02 0.  1.
    10030    2    1    2    0    0  0.00000000000E+00  0.00000000000E+00  0.11053143257E+04  0.17113292660E+04  0.13064945841E+04 0.  0.
        1    1    3    3  502    0  0.36780171889E+03 -0.25707529190E+02  0.12590039430E+04  0.13118802956E+04  0.50400001928E-02 0. -1.
       -1    1    3    3    0  502 -0.36780171889E+03  0.25707529190E+02 -0.15368961734E+03  0.39944897043E+03  0.50400001928E-02 0.  1.
</event>
<event>
 5   0  0.9098192E-04  0.1295626E+04  0.7818609E-02  0.9033041E-01
        1   -1    0    0  501    0  0.00000000000E+00  0.00000000000E+00  0.13931478751E+04  0.13931478751E+04  0.50400001928E-02 0.  1.
       -1   -1    0    0    0  501  0.00000000000E+00  0.00000000000E+00 -0.30123287503E+03  0.30123287508E+03  0.50400001928E-02 0. -1.
    10030    2    1    2    0    0  0.00000000000E+00  0.00000000000E+00  0.10919150001E+04  0.16943807502E+04  0.12956263965E+04 0.  0.
        1    1    3    3  502    0 -0.40182163857E+03  0.45573139053E+03  0.83987186282E+03  0.10365985122E+04  0.50400001928E-02 0.  1.
       -1    1    3    3    0  502  0.40182163857E+03 -0.45573139053E+03  0.25204313725E+03  0.65778223798E+03  0.50400001928E-02 0. -1.
</event>
<event>
 5   0  0.1667342E-03  0.1315153E+04  0.7818609E-02  0.9017634E-01
        2   -1    0    0  501    0  0.00000000000E+00  0.00000000000E+00  0.41498723089E+03  0.41498723089E+03  0.25500000920E-02 0. -1.
       -2   -1    0    0    0  501  0.00000000000E+00  0.00000000000E+00 -0.10419769114E+04  0.10419769114E+04  0.25500000920E-02 0.  1.
    10030    2    1    2    0    0  0.00000000000E+00  0.00000000000E+00 -0.62698968055E+03  0.14569641423E+04  0.13151533951E+04 0.  0.
        5    1    3    3  502    0 -0.87026400809E+02  0.15857366817E+03  0.38686455231E+03  0.42708953921E+03  0.46999998093E+01 0. -1.
       -5    1    3    3    0  502  0.87026400809E+02 -0.15857366817E+03 -0.10138542329E+04  0.10298746031E+04  0.46999998093E+01 0.  1.
</event>
<event>
 5   0  0.9081324E-04  0.1276232E+04  0.7818609E-02  0.9048629E-01
        1   -1    0    0  501    0  0.00000000000E+00  0.00000000000E+00  0.84182752724E+03  0.84182752726E+03  0.50400001928E-02 0.  1.
       -1   -1    0    0    0  501  0.00000000000E+00  0.00000000000E+00 -0.48370014239E+03  0.48370014242E+03  0.50400001928E-02 0. -1.
    10030    2    1    2    0    0  0.00000000000E+00  0.00000000000E+00  0.35812738485E+03  0.13255276697E+04  0.12762321024E+04 0.  0.
        4    1    3    3  502    0 -0.57511411984E+03  0.19683736649E+02 -0.10735380948E+03  0.58538034954E+03  0.12699999809E+01 0. -1.
       -4    1    3    3    0  502  0.57511411984E+03 -0.19683736649E+02  0.46548119433E+03  0.74014732013E+03  0.12699999809E+01 0.  1.
</event>
<event>
 5   0  0.9098192E-04  0.1314265E+04  0.7818609E-02  0.9018328E-01
       -1   -1    0    0    0  501  0.00000000000E+00  0.00000000000E+00  0.10379095677E+04  0.10379095677E+04  0.50400001928E-02 0.  1.
        1   -1    0    0  501    0  0.00000000000E+00  0.00000000000E+00 -0.41605106330E+03  0.41605106333E+03  0.50400001928E-02 0. -1.
    10030    2    1    2    0    0  0.00000000000E+00  0.00000000000E+00  0.62185850436E+03  0.14539606310E+04  0.13142653906E+04 0.  0.
        1    1    3    3  502    0 -0.50796160659E+03 -0.20725986855E+03  0.71109758558E+03  0.89813218578E+03  0.50400001928E-02 0.  1.
       -1    1    3    3    0  502  0.50796160659E+03  0.20725986855E+03 -0.89239081221E+02  0.55582844522E+03  0.50400001928E-02 0. -1.
</event>
<event>
 5   0  0.1667342E-03  0.1271995E+04  0.7818609E-02  0.9052073E-01
        2   -1    0    0  501    0  0.00000000000E+00  0.00000000000E+00  0.17188578894E+04  0.17188578894E+04  0.25500000920E-02 0.  1.
       -2   -1    0    0    0  501  0.00000000000E+00  0.00000000000E+00 -0.23532633180E+03  0.23532633181E+03  0.25500000920E-02 0. -1.
    10030    2    1    2    0    0  0.00000000000E+00  0.00000000000E+00  0.14835315576E+04  0.19541842212E+04  0.12719945314E+04 0.  0.
        5    1    3    3  502    0  0.71201727797E+02  0.37688672970E+03 -0.37612625896E+02  0.38542196706E+03  0.46999998093E+01 0. -1.
       -5    1    3    3    0  502 -0.71201727797E+02 -0.37688672970E+03  0.15211441835E+04  0.15687622541E+04  0.46999998093E+01 0.  1.
</event>
<event>
 5   0  0.9027076E-04  0.1298425E+04  0.7818609E-02  0.9030815E-01
        1   -1    0    0  501    0  0.00000000000E+00  0.00000000000E+00  0.56065502315E+03  0.56065502318E+03  0.50400001928E-02 0.  1.
       -1   -1    0    0    0  501  0.00000000000E+00  0.00000000000E+00 -0.75175774559E+03  0.75175774561E+03  0.50400001928E-02 0. -1.
    10030    2    1    2    0    0  0.00000000000E+00  0.00000000000E+00 -0.19110272244E+03  0.13124127688E+04  0.12984248246E+04 0.  0.
        5    1    3    3  502    0  0.18499132180E+03 -0.51373972425E+02 -0.72238841240E+03  0.74748122555E+03  0.46999998093E+01 0. -1.
       -5    1    3    3    0  502 -0.18499132180E+03  0.51373972425E+02  0.53128568996E+03  0.56493154323E+03  0.46999998093E+01 0.  1.
</event>
<event>
 5   0  0.1623890E-03  0.1291773E+04  0.7818609E-02  0.9036115E-01
       -2   -1    0    0    0  501  0.00000000000E+00  0.00000000000E+00  0.30940948202E+03  0.30940948203E+03  0.25500000920E-02 0. -1.
        2   -1    0    0  501    0  0.00000000000E+00  0.00000000000E+00 -0.13482766798E+04  0.13482766798E+04  0.25500000920E-02 0.  1.
    10030    2    1    2    0    0  0.00000000000E+00  0.00000000000E+00 -0.10388671978E+04  0.16576861618E+04  0.12917733379E+04 0.  0.
        3    1    3    3  502    0 -0.40496844396E+03  0.24258585257E+03  0.46254773916E+02  0.47432778833E+03  0.10100000352E+00 0. -1.
       -3    1    3    3    0  502  0.40496844396E+03 -0.24258585257E+03 -0.10851219717E+04  0.11833583735E+04  0.10100000352E+00 0.  1.
</event>
<event>
 5   0  0.9110949E-04  0.1304802E+04  0.7818609E-02  0.9025766E-01
        1   -1    0    0  501    0  0.00000000000E+00  0.00000000000E+00  0.16317064615E+04  0.16317064615E+04  0.50400001928E-02 0.  1.
       -1   -1    0    0    0  501  0.00000000000E+00  0.00000000000E+00 -0.26084788778E+03  0.26084788783E+03  0.50400001928E-02 0. -1.
    10030    2    1    2    0    0  0.00000000000E+00  0.00000000000E+00  0.13708585737E+04  0.18925543494E+04  0.13048021827E+04 0.  0.
        2    1    3    3  502    0 -0.11097666624E+03  0.47311873931E+03  0.54073829956E+02  0.48895924271E+03  0.25500000920E-02 0.  1.
       -2    1    3    3    0  502  0.11097666624E+03 -0.47311873931E+03  0.13167847438E+04  0.14035951066E+04  0.25500000920E-02 0. -1.
</event>
<event>
 5   0  0.9081324E-04  0.1307392E+04  0.7818609E-02  0.9023723E-01
        1   -1    0    0  501    0  0.00000000000E+00  0.00000000000E+00  0.14463110388E+04  0.14463110389E+04  0.50400001928E-02 0.  1.
       -1   -1    0    0    0  501  0.00000000000E+00  0.00000000000E+00 -0.29545418057E+03  0.29545418061E+03  0.50400001928E-02 0. -1.
    10030    2    1    2    0    0  0.00000000000E+00  0.00000000000E+00  0.11508568583E+04  0.17417652195E+04  0.13073922791E+04 0.  0.
        4    1    3    3  502    0  0.37493643448E+03  0.36662203153E+03  0.55464103148E+02  0.52732051311E+03  0.12699999809E+01 0. -1.
       -4    1    3    3    0  502 -0.37493643448E+03 -0.36662203153E+03  0.10953927551E+04  0.12144447064E+04  0.12699999809E+01 0.  1.
</event>
<event>
 5   0  0.9098192E-04  0.1269448E+04  0.7818609E-02  0.9054150E-01
        1   -1    0    0  501    0  0.00000000000E+00  0.00000000000E+00  0.12659287926E+04  0.12659287926E+04  0.50400001928E-02 0. -1.
       -1   -1    0    0    0  501  0.00000000000E+00  0.00000000000E+00 -0.31824447391E+03  0.31824447395E+03  0.50400001928E-02 0.  1.
    10030    2    1    2    0    0  0.00000000000E+00  0.00000000000E+00  0.94768431871E+03  0.15841732666E+04  0.12694484513E+04 0.  0.
        1    1    3    3  502    0  0.45137393887E+02 -0.41821149881E+03 -0.11933019935E+03  0.43723899479E+03  0.50400001928E-02 0.  1.
       -1    1    3    3    0  502 -0.45137393887E+02  0.41821149881E+03  0.10670145181E+04  0.11469342718E+04  0.50400001928E-02 0. -1.
</event>
<event>
 5   0  0.9081324E-04  0.1308324E+04  0.7818609E-02  0.9022990E-01
       -1   -1    0    0    0  501  0.00000000000E+00  0.00000000000E+00  0.41981105650E+03  0.41981105653E+03  0.50400001928E-02 0.  1.
        1   -1    0    0  501    0  0.00000000000E+00  0.00000000000E+00 -0.10193350486E+04  0.10193350487E+04  0.50400001928E-02 0. -1.
    10030    2    1    2    0    0  0.00000000000E+00  0.00000000000E+00 -0.59952399215E+03  0.14391461052E+04  0.13083243080E+04 0.  0.
        4    1    3    3  502    0 -0.54278064564E+03 -0.18070840267E+03  0.49232255127E+02  0.57418793432E+03  0.12699999809E+01 0.  1.
       -4    1    3    3    0  502  0.54278064564E+03  0.18070840267E+03 -0.64875624727E+03  0.86495817087E+03  0.12699999809E+01 0. -1.
</event>
<event>
 5   0  0.1700511E-03  0.1296473E+04  0.7818609E-02  0.9032367E-01
       -2   -1    0    0    0  501  0.00000000000E+00  0.00000000000E+00  0.30853946287E+03  0.30853946288E+03  0.25500000920E-02 0.  1.
        2   -1    0    0  501    0  0.00000000000E+00  0.00000000000E+00 -0.13619349616E+04  0.13619349616E+04  0.25500000920E-02 0. -1.
    10030    2    1    2    0    0  0.00000000000E+00  0.00000000000E+00 -0.10533954987E+04  0.16704744245E+04  0.12964731876E+04 0.  0.
        2    1    3    3  502    0 -0.51394513726E+03 -0.17718506242E+03 -0.71742535616E+02  0.54834399959E+03  0.25500000920E-02 0.  1.
       -2    1    3    3    0  502  0.51394513726E+03  0.17718506242E+03 -0.98165296309E+03  0.11221304249E+04  0.25500000920E-02 0. -1.
</event>
<event>
 5   0  0.1714861E-03  0.1288631E+04  0.7818609E-02  0.9038629E-01
        2   -1    0    0  501    0  0.00000000000E+00  0.00000000000E+00  0.93489088841E+03  0.93489088842E+03  0.25500000920E-02 0.  1.
       -2   -1    0    0    0  501  0.00000000000E+00  0.00000000000E+00 -0.44405476980E+03  0.44405476980E+03  0.25500000920E-02 0. -1.
    10030    2    1    2    0    0  0.00000000000E+00  0.00000000000E+00  0.49083611862E+03  0.13789456582E+04  0.12886314574E+04 0.  0.
        1    1    3    3  502    0  0.32707911155E+03  0.51029678553E+02 -0.34609623146E+03  0.47892314077E+03  0.50400001928E-02 0. -1.
       -1    1    3    3    0  502 -0.32707911155E+03 -0.51029678553E+02  0.83693235007E+03  0.90002251746E+03  0.50400001928E-02 0.  1.
</event>
<event>
 5   0  0.1623890E-03  0.1299963E+04  0.7818609E-02  0.9029595E-01
       -2   -1    0    0    0  501  0.00000000000E+00  0.00000000000E+00  0.24578011972E+03  0.24578011974E+03  0.25500000920E-02 0. -1.
        2   -1    0    0  501    0  0.00000000000E+00  0.00000000000E+00 -0.17189176868E+04  0.17189176868E+04  0.25500000920E-02 0.  1.
    10030    2    1    2    0    0  0.00000000000E+00  0.00000000000E+00 -0.14731375671E+04  0.19646978065E+04  0.12999627608E+04 0.  0.
        3    1    3    3  502    0 -0.34931045681E+03 -0.53220545776E+02 -0.15610864466E+04  0.16005752484E+04  0.10100000352E+00 0.  1.
       -3    1    3    3    0  502  0.34931045681E+03  0.53220545776E+02  0.87948879557E+02  0.36412255814E+03  0.10100000352E+00 0. -1.
</event>
<event>
 5   0  0.1714861E-03  0.1318706E+04  0.7818609E-02  0.9014861E-01
       -2   -1    0    0    0  501  0.00000000000E+00  0.00000000000E+00  0.11888058219E+04  0.11888058219E+04  0.25500000920E-02 0.  1.
        2   -1    0    0  501    0  0.00000000000E+00  0.00000000000E+00 -0.36570004563E+03  0.36570004564E+03  0.25500000920E-02 0. -1.
    10030    2    1    2    0    0  0.00000000000E+00  0.00000000000E+00  0.82310577628E+03  0.15545058676E+04  0.13187059465E+04 0.  0.
        1    1    3    3  502    0 -0.65855262524E+03 -0.31793094557E+02  0.40373511589E+03  0.77311344892E+03  0.50400001928E-02 0.  1.
       -1    1    3    3    0  502  0.65855262524E+03  0.31793094557E+02  0.41937066039E+03  0.78139241863E+03  0.50400001928E-02 0. -1.
</event>
<event>
 5   0  0.1694675E-03  0.1212571E+04  0.7818609E-02  0.9101924E-01
       -2   -1    0    0    0  501  0.00000000000E+00  0.00000000000E+00  0.34251927108E+03  0.34251927109E+03  0.25500000920E-02 0.  1.
        2   -1    0    0  501    0  0.00000000000E+00  0.00000000000E+00 -0.10731724179E+04  0.10731724179E+04  0.25500000920E-02 0. -1.
    10030    2    1    2    0    0  0.00000000000E+00  0.00000000000E+00 -0.73065314680E+03  0.14156916890E+04  0.12125712092E+04 0.  0.
        4    1    3    3  502    0 -0.24911931774E+03  0.40323269909E+03  0.76054157143E+02  0.48004467689E+03  0.12699999809E+01 0. -1.
       -4    1    3    3    0  502  0.24911931774E+03 -0.40323269909E+03 -0.80670730394E+03  0.93564701208E+03  0.12699999809E+01 0.  1.
</event>
<event>
 5   0  0.9215829E-04  0.1303300E+04  0.7818609E-02  0.9026952E-01
        1   -1    0    0  501    0  0.00000000000E+00  0.00000000000E+00  0.80949459010E+03  0.80949459011E+03  0.50400001928E-02 0.  1.
       -1   -1    0    0    0  501  0.00000000000E+00  0.00000000000E+00 -0.52458389400E+03  0.52458389403E+03  0.50400001928E-02 0. -1.
    10030    2    1    2    0    0  0.00000000000E+00  0.00000000000E+00  0.28491069609E+03  0.13340784841E+04  0.13033001562E+04 0.  0.
        3    1    3    3  502    0  0.60495039154E+02 -0.32879649256E+03  0.71502265889E+03  0.78931881785E+03  0.10100000352E+00 0.  1.
       -3    1    3    3    0  502 -0.60495039154E+02  0.32879649256E+03 -0.43011196279E+03  0.54475966629E+03  0.10100000352E+00 0. -1.
</event>
<event>
 5   0  0.9098192E-04  0.1299684E+04  0.7818609E-02  0.9029816E-01
       -1   -1    0    0    0  501  0.00000000000E+00  0.00000000000E+00  0.29241590445E+03  0.29241590450E+03  0.50400001928E-02 0. -1.
        1   -1    0    0  501    0  0.00000000000E+00  0.00000000000E+00 -0.14441564900E+04  0.14441564900E+04  0.50400001928E-02 0.  1.
    10030    2    1    2    0    0  0.00000000000E+00  0.00000000000E+00 -0.11517405856E+04  0.17365723945E+04  0.12996835403E+04 0.  0.
        1    1    3    3  502    0 -0.48835853348E+03 -0.87245257844E+02 -0.15023688119E+02  0.49631794595E+03  0.50400001928E-02 0. -1.
       -1    1    3    3    0  502  0.48835853348E+03  0.87245257844E+02 -0.11367168975E+04  0.12402544486E+04  0.50400001928E-02 0.  1.
</event>
<event>
 5   0  0.9027076E-04  0.1229726E+04  0.7818609E-02  0.9087228E-01
        1   -1    0    0  501    0  0.00000000000E+00  0.00000000000E+00  0.57175341213E+03  0.57175341215E+03  0.50400001928E-02 0. -1.
       -1   -1    0    0    0  501  0.00000000000E+00  0.00000000000E+00 -0.66122332041E+03  0.66122332043E+03  0.50400001928E-02 0.  1.
    10030    2    1    2    0    0  0.00000000000E+00  0.00000000000E+00 -0.89469908289E+02  0.12329767326E+04  0.12297262942E+04 0.  0.
        5    1    3    3  502    0  0.52051172443E+03  0.14714493973E+03  0.24835690395E+03  0.59522040480E+03  0.46999998093E+01 0. -1.
       -5    1    3    3    0  502 -0.52051172443E+03 -0.14714493973E+03 -0.33782681224E+03  0.63775632778E+03  0.46999998093E+01 0.  1.
</event>
<event>
 5   0  0.9098192E-04  0.1298066E+04  0.7818609E-02  0.9031100E-01
        1   -1    0    0  501    0  0.00000000000E+00  0.00000000000E+00  0.92026401766E+03  0.92026401767E+03  0.50400001928E-02 0. -1.
       -1   -1    0    0    0  501  0.00000000000E+00  0.00000000000E+00 -0.45774233171E+03  0.45774233174E+03  0.50400001928E-02 0.  1.
    10030    2    1    2    0    0  0.00000000000E+00  0.00000000000E+00  0.46252168595E+03  0.13780063494E+04  0.12980659417E+04 0.  0.
        1    1    3    3  502    0  0.44554240430E+02  0.48094802742E+03 -0.22896710139E+03  0.53452971757E+03  0.50400001928E-02 0.  1.
       -1    1    3    3    0  502 -0.44554240430E+02 -0.48094802742E+03  0.69148878734E+03  0.84347663184E+03  0.50400001928E-02 0. -1.
</event>
<event>
 5   0  0.9081324E-04  0.1314235E+04  0.7818609E-02  0.9018352E-01
        1   -1    0    0  501    0  0.00000000000E+00  0.00000000000E+00  0.19743208659E+04  0.19743208659E+04  0.50400001928E-02 0.  1.
       -1   -1    0    0    0  501  0.00000000000E+00  0.00000000000E+00 -0.21870973920E+03  0.21870973926E+03  0.50400001928E-02 0. -1.
    10030    2    1    2    0    0  0.00000000000E+00  0.00000000000E+00  0.17556111267E+04  0.21930306052E+04  0.13142346849E+04 0.  0.
        4    1    3    3  502    0 -0.27706949530E+03 -0.55743063603E+03  0.12290415206E+04  0.13776941211E+04  0.12699999809E+01 0.  1.
       -4    1    3    3    0  502  0.27706949530E+03  0.55743063603E+03  0.52656960617E+03  0.81533648407E+03  0.12699999809E+01 0. -1.
</event>
<event>
 5   0  0.9215829E-04  0.1291223E+04  0.7818609E-02  0.9036555E-01
        1   -1    0    0  501    0  0.00000000000E+00  0.00000000000E+00  0.14532705344E+04  0.14532705344E+04  0.50400001928E-02 0.  1.
       -1   -1    0    0    0  501  0.00000000000E+00  0.00000000000E+00 -0.28681111888E+03  0.28681111892E+03  0.50400001928E-02 0. -1.
    10030    2    1    2    0    0  0.00000000000E+00  0.00000000000E+00  0.11664594155E+04  0.17400816533E+04  0.12912229057E+04 0.  0.
        3    1    3    3  502    0 -0.33011577331E+03 -0.28750465153E+03 -0.56257919760E+02  0.44136188347E+03  0.10100000352E+00 0. -1.
       -3    1    3    3    0  502  0.33011577331E+03  0.28750465153E+03  0.12227173353E+04  0.12987197699E+04  0.10100000352E+00 0.  1.
</event>
<event>
 5   0  0.1694675E-03  0.1294150E+04  0.7818609E-02  0.9034217E-01
       -2   -1    0    0    0  501  0.00000000000E+00  0.00000000000E+00  0.54402388945E+03  0.54402388946E+03  0.25500000920E-02 0. -1.
        2   -1    0    0  501    0  0.00000000000E+00  0.00000000000E+00 -0.76964665868E+03  0.76964665869E+03  0.25500000920E-02 0.  1.
    10030    2    1    2    0    0  0.00000000000E+00  0.00000000000E+00 -0.22562276923E+03  0.13136705481E+04  0.12941501748E+04 0.  0.
        4    1    3    3  502    0  0.27295582953E+03 -0.15963233733E+03  0.46025446746E+03  0.55841127828E+03  0.12699999809E+01 0. -1.
       -4    1    3    3    0  502 -0.27295582953E+03  0.15963233733E+03 -0.68587723669E+03  0.75525926986E+03  0.12699999809E+01 0.  1.
</event>
<event>
 5   0  0.9110949E-04  0.1302315E+04  0.7818609E-02  0.9027732E-01
        1   -1    0    0  501    0  0.00000000000E+00  0.00000000000E+00  0.26083591444E+03  0.26083591449E+03  0.50400001928E-02 0.  1.
       -1   -1    0    0    0  501  0.00000000000E+00  0.00000000000E+00 -0.16255657724E+04  0.16255657724E+04  0.50400001928E-02 0. -1.
    10030    2    1    2    0    0  0.00000000000E+00  0.00000000000E+00 -0.13647298579E+04  0.18864016869E+04  0.13023147619E+04 0.  0.
        2    1    3    3  502    0 -0.51810829111E+03  0.17038897076E+03 -0.11976262582E+04  0.13159700821E+04  0.25500000920E-02 0. -1.
       -2    1    3    3    0  502  0.51810829111E+03 -0.17038897076E+03 -0.16710359975E+03  0.57043160478E+03  0.25500000920E-02 0.  1.
</event>
<event>
 5   0  0.9215829E-04  0.1286867E+04  0.7818609E-02  0.9040045E-01
       -1   -1    0    0    0  501  0.00000000000E+00  0.00000000000E+00  0.49260897884E+03  0.49260897887E+03  0.50400001928E-02 0.  1.
        1   -1    0    0  501    0  0.00000000000E+00  0.00000000000E+00 -0.84043613263E+03  0.84043613265E+03  0.50400001928E-02 0. -1.
    10030    2    1    2    0    0  0.00000000000E+00  0.00000000000E+00 -0.34782715379E+03  0.13330451115E+04  0.12868665589E+04 0.  0.
        3    1    3    3  502    0 -0.51337240366E+03  0.14843389379E+03  0.19730691411E+03  0.56966119248E+03  0.10100000352E+00 0.  1.
       -3    1    3    3    0  502  0.51337240366E+03 -0.14843389379E+03 -0.54513406789E+03  0.76338391904E+03  0.10100000352E+00 0. -1.
</event>
<event>
 5   0  0.1667342E-03  0.1161457E+04  0.7818609E-02  0.9147279E-01
        2   -1    0    0  501    0  0.00000000000E+00  0.00000000000E+00  0.14489773475E+04  0.14489773475E+04  0.25500000920E-02 0. -1.
       -2   -1    0    0    0  501  0.00000000000E+00  0.00000000000E+00 -0.23274734093E+03  0.23274734094E+03  0.25500000920E-02 0.  1.
    10030    2    1    2    0    0  0.00000000000E+00  0.00000000000E+00  0.12162300065E+04  0.16817246884E+04  0.11614570585E+04 0.  0.
        5    1    3    3  502    0  0.41379509280E+03 -0.13047067102E+03  0.11669811431E+04  0.12450365670E+04  0.46999998093E+01 0. -1.
       -5    1    3    3    0  502 -0.41379509280E+03  0.13047067102E+03  0.49248863428E+02  0.43668812140E+03  0.46999998093E+01 0.  1.
</event>
<event>
 5   0  0.9110949E-04  0.1489891E+04  0.7818609E-02  0.8891203E-01
        1   -1    0    0  501    0  0.00000000000E+00  0.00000000000E+00  0.14691820831E+04  0.14691820831E+04  0.50400001928E-02 0. -1.
       -1   -1    0    0    0  501  0.00000000000E+00  0.00000000000E+00 -0.37772301798E+03  0.37772301801E+03  0.50400001928E-02 0.  1.
    10030    2    1    2    0    0  0.00000000000E+00  0.00000000000E+00  0.10914590651E+04  0.18469051011E+04  0.14898911241E+04 0.  0.
        2    1    3    3  502    0 -0.26350983859E+03 -0.68066128598E+03  0.73045712031E+03  0.10326203687E+04  0.25500000920E-02 0. -1.
       -2    1    3    3    0  502  0.26350983859E+03  0.68066128598E+03  0.36100194483E+03  0.81428473242E+03  0.25500000920E-02 0.  1.
</event>
<event>
 5   0  0.9027076E-04  0.1312076E+04  0.7818609E-02  0.9020044E-01
       -1   -1    0    0    0  501  0.00000000000E+00  0.00000000000E+00  0.55350756152E+03  0.55350756154E+03  0.50400001928E-02 0.  1.
        1   -1    0    0  501    0  0.00000000000E+00  0.00000000000E+00 -0.77756038372E+03  0.77756038374E+03  0.50400001928E-02 0. -1.
    10030    2    1    2    0    0  0.00000000000E+00  0.00000000000E+00 -0.22405282220E+03  0.13310679453E+04  0.13120755343E+04 0.  0.
        5    1    3    3  502    0 -0.34073119666E+03 -0.53068333743E+03 -0.29530954809E+03  0.69638521825E+03  0.46999998093E+01 0. -1.
       -5    1    3    3    0  502  0.34073119666E+03  0.53068333743E+03  0.71256725891E+02  0.63468272703E+03  0.46999998093E+01 0.  1.
</event>
<event>
 5   0  0.9027076E-04  0.1502576E+04  0.7818609E-02  0.8882742E-01
        1   -1    0    0  501    0  0.00000000000E+00  0.00000000000E+00  0.12541541176E+04  0.12541541176E+04  0.50400001928E-02 0. -1.
       -1   -1    0    0    0  501  0.00000000000E+00  0.00000000000E+00 -0.45005146154E+03  0.45005146157E+03  0.50400001928E-02 0.  1.
    10030    2    1    2    0    0  0.00000000000E+00  0.00000000000E+00  0.80410265606E+03  0.17042055792E+04  0.15025763124E+04 0.  0.
        5    1    3    3  502    0  0.45216292190E+03 -0.44358829109E+02  0.10806649681E+04  0.11722959852E+04  0.46999998093E+01 0. -1.
       -5    1    3    3    0  502 -0.45216292190E+03  0.44358829109E+02 -0.27656231208E+03  0.53190959394E+03  0.46999998093E+01 0.  1.
</event>
<event>
 5   0  0.1700511E-03  0.1294865E+04  0.7818609E-02  0.9033647E-01
        2   -1    0    0  501    0  0.00000000000E+00  0.00000000000E+00  0.99795314097E+03  0.99795314097E+03  0.25500000920E-02 0.  1.
       -2   -1    0    0    0  501  0.00000000000E+00  0.00000000000E+00 -0.42002857879E+03  0.42002857879E+03  0.25500000920E-02 0. -1.
    10030    2    1    2    0    0  0.00000000000E+00  0.00000000000E+00  0.57792456218E+03  0.14179817198E+04  0.12948649961E+04 0.  0.
        2    1    3    3  502    0 -0.61847130509E+03 -0.17132434723E+03  0.19533414367E+03  0.67083098830E+03  0.25500000920E-02 0. -1.
       -2    1    3    3    0  502  0.61847130509E+03  0.17132434723E+03  0.38259041851E+03  0.74715073146E+03  0.25500000920E-02 0.  1.
</event>
<event>
 5   0  0.1700511E-03  0.1316571E+04  0.7818609E-02  0.9016526E-01
       -2   -1    0    0    0  501  0.00000000000E+00  0.00000000000E+00  0.59363650451E+03  0.59363650452E+03  0.25500000920E-02 0. -1.
        2   -1    0    0  501    0  0.00000000000E+00  0.00000000000E+00 -0.72997532034E+03  0.72997532034E+03  0.25500000920E-02 0.  1.
    10030    2    1    2    0    0  0.00000000000E+00  0.00000000000E+00 -0.13633881583E+03  0.13236118249E+04  0.13165713008E+04 0.  0.
        2    1    3    3  502    0 -0.60658865070E+03  0.12863585141E+03  0.15401702017E+03  0.63891956922E+03  0.25500000920E-02 0. -1.
       -2    1    3    3    0  502  0.60658865070E+03 -0.12863585141E+03 -0.29035583600E+03  0.68469225564E+03  0.25500000920E-02 0.  1.
</event>
<event>
 5   0  0.1667342E-03  0.1292852E+04  0.7818609E-02  0.9035253E-01
        2   -1    0    0  501    0  0.00000000000E+00  0.00000000000E+00  0.85076683020E+03  0.85076683021E+03  0.25500000920E-02 0.  1.
       -2   -1    0    0    0  501  0.00000000000E+00  0.00000000000E+00 -0.49116443067E+03  0.49116443068E+03  0.25500000920E-02 0. -1.
    10030    2    1    2    0    0  0.00000000000E+00  0.00000000000E+00  0.35960239953E+03  0.13419312609E+04  0.12928517406E+04 0.  0.
        5    1    3    3  502    0 -0.47503072714E+03  0.34107279606E+03  0.46568296365E+03  0.74757444885E+03  0.46999998093E+01 0.  1.
       -5    1    3    3    0  502  0.47503072714E+03 -0.34107279606E+03 -0.10608056411E+03  0.59435681204E+03  0.46999998093E+01 0. -1.
</event>
<event>
 5   0  0.1694675E-03  0.1308154E+04  0.7818609E-02  0.9023124E-01
        2   -1    0    0  501    0  0.00000000000E+00  0.00000000000E+00  0.15577480077E+04  0.15577480077E+04  0.25500000920E-02 0.  1.
       -2   -1    0    0    0  501  0.00000000000E+00  0.00000000000E+00 -0.27463794333E+03  0.27463794335E+03  0.25500000920E-02 0. -1.
    10030    2    1    2    0    0  0.00000000000E+00  0.00000000000E+00  0.12831100644E+04  0.18323859511E+04  0.13081539804E+04 0.  0.
        4    1    3    3  502    0 -0.33882997955E+03 -0.19904179573E+03 -0.90849044294E+02  0.40333429465E+03  0.12699999809E+01 0. -1.
       -4    1    3    3    0  502  0.33882997955E+03  0.19904179573E+03  0.13739591087E+04  0.14290516564E+04  0.12699999809E+01 0.  1.
</event>
<event>
 5   0  0.9098192E-04  0.1284527E+04  0.7818609E-02  0.9041927E-01
       -1   -1    0    0    0  501  0.00000000000E+00  0.00000000000E+00  0.25969797614E+03  0.25969797619E+03  0.50400001928E-02 0.  1.
        1   -1    0    0  501    0  0.00000000000E+00  0.00000000000E+00 -0.15883916034E+04  0.15883916034E+04  0.50400001928E-02 0. -1.
    10030    2    1    2    0    0  0.00000000000E+00  0.00000000000E+00 -0.13286936273E+04  0.18480895796E+04  0.12845265038E+04 0.  0.
        1    1    3    3  502    0  0.16349260270E+03  0.60736619301E+03 -0.85126332213E+03  0.10584293870E+04  0.50400001928E-02 0. -1.
       -1    1    3    3    0  502 -0.16349260270E+03 -0.60736619301E+03 -0.47743030515E+03  0.78966019265E+03  0.50400001928E-02 0.  1.
</event>
<event>
 5   0  0.1694675E-03  0.1290741E+04  0.7818609E-02  0.9036940E-01
       -2   -1    0    0    0  501  0.00000000000E+00  0.00000000000E+00  0.15947585490E+04  0.15947585490E+04  0.25500000920E-02 0. -1.
        2   -1    0    0  501    0  0.00000000000E+00  0.00000000000E+00 -0.26116988497E+03  0.26116988499E+03  0.25500000920E-02 0.  1.
    10030    2    1    2    0    0  0.00000000000E+00  0.00000000000E+00  0.13335886640E+04  0.18559284340E+04  0.12907407281E+04 0.  0.
        4    1    3    3  502    0 -0.15936258375E+03  0.31205583306E+03  0.14460741344E+04  0.14879204586E+04  0.12699999809E+01 0. -1.
       -4    1    3    3    0  502  0.15936258375E+03 -0.31205583306E+03 -0.11248547033E+03  0.36800797543E+03  0.12699999809E+01 0.  1.
</event>
<event>
 5   0  0.9081324E-04  0.1307160E+04  0.7818609E-02  0.9023907E-01
       -1   -1    0    0    0  501  0.00000000000E+00  0.00000000000E+00  0.71404701653E+03  0.71404701654E+03  0.50400001928E-02 0. -1.
        1   -1    0    0  501    0  0.00000000000E+00  0.00000000000E+00 -0.59823324170E+03  0.59823324172E+03  0.50400001928E-02 0.  1.
    10030    2    1    2    0    0  0.00000000000E+00  0.00000000000E+00  0.11581377483E+03  0.13122802583E+04  0.13071597629E+04 0.  0.
        4    1    3    3  502    0  0.64776651330E+03 -0.83552398214E+02  0.82138330001E+02  0.65827864704E+03  0.12699999809E+01 0. -1.
       -4    1    3    3    0  502 -0.64776651330E+03  0.83552398214E+02  0.33675444830E+02  0.65400161122E+03  0.12699999809E+01 0.  1.
</event>
<event>
 5   0  0.1714861E-03  0.1299418E+04  0.7818609E-02  0.9030027E-01
        2   -1    0    0  501    0  0.00000000000E+00  0.00000000000E+00  0.18880528737E+04  0.18880528737E+04  0.25500000920E-02 0.  1.
       -2   -1    0    0    0  501  0.00000000000E+00  0.00000000000E+00 -0.22357519912E+03  0.22357519914E+03  0.25500000920E-02 0. -1.
    10030    2    1    2    0    0  0.00000000000E+00  0.00000000000E+00  0.16644776746E+04  0.21116280728E+04  0.12994180193E+04 0.  0.
        1    1    3    3  502    0 -0.12895855341E+03  0.54883530050E+03  0.13569870156E+04  0.14694435192E+04  0.50400001928E-02 0.  1.
       -1    1    3    3    0  502  0.12895855341E+03 -0.54883530050E+03  0.30749065900E+03  0.64218455367E+03  0.50400001928E-02 0. -1.
</event>
<event>
 5   0  0.9215829E-04  0.1269586E+04  0.7818609E-02  0.9054038E-01
       -1   -1    0    0    0  501  0.00000000000E+00  0.00000000000E+00  0.24402773070E+03  0.24402773076E+03  0.50400001928E-02 0.  1.
        1   -1    0    0  501    0  0.00000000000E+00  0.00000000000E+00 -0.16512958200E+04  0.16512958200E+04  0.50400001928E-02 0. -1.
    10030    2    1    2    0    0  0.00000000000E+00  0.00000000000E+00 -0.14072680893E+04  0.18953235507E+04  0.12695857147E+04 0.  0.
        3    1    3    3  502    0  0.19028111915E+02  0.53524313577E+02 -0.16474937412E+04  0.16484727958E+04  0.10100000352E+00 0. -1.
       -3    1    3    3    0  502 -0.19028111915E+02 -0.53524313577E+02  0.24022565188E+03  0.24685075493E+03  0.10100000352E+00 0.  1.
</event>
<event>
 5   0  0.1623890E-03  0.1302131E+04  0.7818609E-02  0.9027877E-01
        2   -1    0    0  501    0  0.00000000000E+00  0.00000000000E+00  0.11130413936E+04  0.11130413936E+04  0.25500000920E-02 0. -1.
       -2   -1    0    0    0  501  0.00000000000E+00  0.00000000000E+00 -0.38083632442E+03  0.38083632442E+03  0.25500000920E-02 0.  1.
    10030    2    1    2    0    0  0.00000000000E+00  0.00000000000E+00  0.73220506922E+03  0.14938777181E+04  0.13021314731E+04 0.  0.
        3    1    3    3  502    0 -0.62746959869E+02 -0.92265887416E+02  0.11019902845E+04  0.11076248338E+04  0.10100000352E+00 0. -1.
       -3    1    3    3    0  502  0.62746959869E+02  0.92265887416E+02 -0.36978521532E+03  0.38625288430E+03  0.10100000352E+00 0.  1.
</event>
<event>
 5   0  0.9027076E-04  0.1295988E+04  0.7818609E-02  0.9032753E-01
       -1   -1    0    0    0  501  0.00000000000E+00  0.00000000000E+00  0.25184507200E+03  0.25184507205E+03  0.50400001928E-02 0. -1.
        1   -1    0    0  501    0  0.00000000000E+00  0.00000000000E+00 -0.16672792319E+04  0.16672792319E+04  0.50400001928E-02 0.  1.
    10030    2    1    2    0    0  0.00000000000E+00  0.00000000000E+00 -0.14154341599E+04  0.19191243040E+04  0.12959877442E+04 0.  0.
        5    1    3    3  502    0  0.31675763665E+03  0.18844868704E+03 -0.14969060375E+04  0.15416219002E+04  0.46999998093E+01 0.  1.
       -5    1    3    3    0  502 -0.31675763665E+03 -0.18844868704E+03  0.81471877590E+02  0.37750240378E+03  0.46999998093E+01 0. -1.
</event>
<event>
 5   0  0.1714861E-03  0.1305721E+04  0.7818609E-02  0.9025041E-01
       -2   -1    0    0    0  501  0.00000000000E+00  0.00000000000E+00  0.26272863899E+03  0.26272863901E+03  0.25500000920E-02 0. -1.
        2   -1    0    0  501    0  0.00000000000E+00  0.00000000000E+00 -0.16223072754E+04  0.16223072754E+04  0.25500000920E-02 0.  1.
    10030    2    1    2    0    0  0.00000000000E+00  0.00000000000E+00 -0.13595786364E+04  0.18850359144E+04  0.13057206171E+04 0.  0.
        1    1    3    3  502    0 -0.63755225930E+03  0.68632511068E+02 -0.85685753008E+03  0.10702280747E+04  0.50400001928E-02 0. -1.
       -1    1    3    3    0  502  0.63755225930E+03 -0.68632511068E+02 -0.50272110630E+03  0.81480783972E+03  0.50400001928E-02 0.  1.
</event>
<event>
 5   0  0.1623890E-03  0.1287999E+04  0.7818609E-02  0.9039137E-01
       -2   -1    0    0    0  501  0.00000000000E+00  0.00000000000E+00  0.24226798302E+03  0.24226798303E+03  0.25500000920E-02 0.  1.
        2   -1    0    0  501    0  0.00000000000E+00  0.00000000000E+00 -0.17118867952E+04  0.17118867952E+04  0.25500000920E-02 0. -1.
    10030    2    1    2    0    0  0.00000000000E+00  0.00000000000E+00 -0.14696188122E+04  0.19541547782E+04  0.12879990078E+04 0.  0.
        3    1    3    3  502    0  0.30532829683E+03 -0.52790547684E+03 -0.10487851655E+04  0.12132023305E+04  0.10100000352E+00 0. -1.
       -3    1    3    3    0  502 -0.30532829683E+03  0.52790547684E+03 -0.42083364671E+03  0.74095244768E+03  0.10100000352E+00 0.  1.
</event>
<event>
 5   0  0.9027076E-04  0.1308214E+04  0.7818609E-02  0.9023077E-01
       -1   -1    0    0    0  501  0.00000000000E+00  0.00000000000E+00  0.34235408005E+03  0.34235408009E+03  0.50400001928E-02 0. -1.
        1   -1    0    0  501    0  0.00000000000E+00  0.00000000000E+00 -0.12497471241E+04  0.12497471241E+04  0.50400001928E-02 0.  1.
    10030    2    1    2    0    0  0.00000000000E+00  0.00000000000E+00 -0.90739304407E+03  0.15921012042E+04  0.13082140911E+04 0.  0.
        5    1    3    3  502    0  0.27640634002E+03  0.12188039401E+03  0.25235293747E+03  0.39364881595E+03  0.46999998093E+01 0. -1.
       -5    1    3    3    0  502 -0.27640634002E+03 -0.12188039401E+03 -0.11597459815E+04  0.11984523883E+04  0.46999998093E+01 0.  1.
</event>
<event>
 5   0  0.9081324E-04  0.1280422E+04  0.7818609E-02  0.9045236E-01
        1   -1    0    0  501    0  0.00000000000E+00  0.00000000000E+00  0.60213731073E+03  0.60213731075E+03  0.50400001928E-02 0. -1.
       -1   -1    0    0    0  501  0.00000000000E+00  0.00000000000E+00 -0.68069200501E+03  0.68069200503E+03  0.50400001928E-02 0.  1.
    10030    2    1    2    0    0  0.00000000000E+00  0.00000000000E+00 -0.78554694277E+02  0.12828293158E+04  0.12804218888E+04 0.  0.
        4    1    3    3  502    0  0.31094426521E+03 -0.36654647922E+02 -0.59875234242E+03  0.67567438884E+03  0.12699999809E+01 0.  1.
       -4    1    3    3    0  502 -0.31094426521E+03  0.36654647922E+02  0.52019764814E+03  0.60715492694E+03  0.12699999809E+01 0. -1.
</event>
<event>
 5   0  0.9110949E-04  0.1319090E+04  0.7818609E-02  0.9014562E-01
       -1   -1    0    0    0  501  0.00000000000E+00  0.00000000000E+00  0.47768475952E+03  0.47768475955E+03  0.50400001928E-02 0. -1.
        1   -1    0    0  501    0  0.00000000000E+00  0.00000000000E+00 -0.91064154022E+03  0.91064154023E+03  0.50400001928E-02 0.  1.
    10030    2    1    2    0    0  0.00000000000E+00  0.00000000000E+00 -0.43295678069E+03  0.13883262998E+04  0.13190899669E+04 0.  0.
        2    1    3    3  502    0 -0.36213489846E+03  0.48281594622E+03  0.63464931860E+02  0.60686136818E+03  0.25500000920E-02 0. -1.
       -2    1    3    3    0  502  0.36213489846E+03 -0.48281594622E+03 -0.49642171256E+03  0.78146493160E+03  0.25500000920E-02 0.  1.
</event>
<event>
 5   0  0.1694675E-03  0.1278788E+04  0.7818609E-02  0.9046558E-01
       -2   -1    0    0    0  501  0.00000000000E+00  0.00000000000E+00  0.13735009612E+04  0.13735009613E+04  0.25500000920E-02 0.  1.
        2   -1    0    0  501    0  0.00000000000E+00  0.00000000000E+00 -0.29765149509E+03  0.29765149510E+03  0.25500000920E-02 0. -1.
    10030    2    1    2    0    0  0.00000000000E+00  0.00000000000E+00  0.10758494662E+04  0.16711524563E+04  0.12787878864E+04 0.  0.
        4    1    3    3  502    0  0.42668469160E+03  0.13631604677E+03  0.11341882248E+04  0.12194369327E+04  0.12699999809E+01 0.  1.
       -4    1    3    3    0  502 -0.42668469160E+03 -0.13631604677E+03 -0.58338758637E+02  0.45171552365E+03  0.12699999809E+01 0. -1.
</event>
<event>
 5   0  0.1714861E-03  0.1263642E+04  0.7818609E-02  0.9058905E-01
        2   -1    0    0  501    0  0.00000000000E+00  0.00000000000E+00  0.67749948171E+03  0.67749948172E+03  0.25500000920E-02 0.  1.
       -2   -1    0    0    0  501  0.00000000000E+00  0.00000000000E+00 -0.58922195569E+03  0.58922195570E+03  0.25500000920E-02 0. -1.
    10030    2    1    2    0    0  0.00000000000E+00  0.00000000000E+00  0.88277526017E+02  0.12667214374E+04  0.12636416733E+04 0.  0.
        1    1    3    3  502    0  0.26894650124E+03  0.55855952443E+03  0.16640572506E+03  0.64188147521E+03  0.50400001928E-02 0.  1.
       -1    1    3    3    0  502 -0.26894650124E+03 -0.55855952443E+03 -0.78128199042E+02  0.62483996221E+03  0.50400001928E-02 0. -1.
</event>
<event>
 5   0  0.9098192E-04  0.1302269E+04  0.7818609E-02  0.9027768E-01
        1   -1    0    0  501    0  0.00000000000E+00  0.00000000000E+00  0.81276531365E+03  0.81276531366E+03  0.50400001928E-02 0. -1.
       -1   -1    0    0    0  501  0.00000000000E+00  0.00000000000E+00 -0.52164611439E+03  0.52164611442E+03  0.50400001928E-02 0.  1.
    10030    2    1    2    0    0  0.00000000000E+00  0.00000000000E+00  0.29111919925E+03  0.13344114281E+04  0.13022685864E+04 0.  0.
        1    1    3    3  502    0  0.46072962036E+03  0.11412698321E+03  0.60229565635E+03  0.76684862200E+03  0.50400001928E-02 0. -1.
       -1    1    3    3    0  502 -0.46072962036E+03 -0.11412698321E+03 -0.31117645710E+03  0.56756280608E+03  0.50400001928E-02 0.  1.
</event>
<event>
 5   0  0.1667342E-03  0.1292390E+04  0.7818609E-02  0.9035622E-01
        2   -1    0    0  501    0  0.00000000000E+00  0.00000000000E+00  0.11439321734E+04  0.11439321734E+04  0.25500000920E-02 0. -1.
       -2   -1    0    0    0  501  0.00000000000E+00  0.00000000000E+00 -0.36502870887E+03  0.36502870888E+03  0.25500000920E-02 0.  1.
    10030    2    1    2    0    0  0.00000000000E+00  0.00000000000E+00  0.77890346454E+03  0.15089608823E+04  0.12923901645E+04 0.  0.
        5    1    3    3  502    0 -0.55163239130E+03  0.47565472031E+02  0.48100337851E+00  0.55369945875E+03  0.46999998093E+01 0.  1.
       -5    1    3    3    0  502  0.55163239130E+03 -0.47565472031E+02  0.77842246116E+03  0.95526142354E+03  0.46999998093E+01 0. -1.
</event>
<event>
 5   0  0.9081324E-04  0.1293788E+04  0.7818609E-02  0.9034506E-01
       -1   -1    0    0    0  501  0.00000000000E+00  0.00000000000E+00  0.63505697832E+03  0.63505697834E+03  0.50400001928E-02 0.  1.
        1   -1    0    0  501    0  0.00000000000E+00  0.00000000000E+00 -0.65895185560E+03  0.65895185562E+03  0.50400001928E-02 0. -1.
    10030    2    1    2    0    0  0.00000000000E+00  0.00000000000E+00 -0.23894877285E+02  0.12940088340E+04  0.12937881964E+04 0.  0.
        4    1    3    3  502    0  0.48735640069E+03 -0.25156590965E+03  0.33113976622E+03  0.64066904550E+03  0.12699999809E+01 0.  1.
       -4    1    3    3    0  502 -0.48735640069E+03  0.25156590965E+03 -0.35503464351E+03  0.65333978846E+03  0.12699999809E+01 0. -1.
</event>
<event>
 5   0  0.9215829E-04  0.1297515E+04  0.7818609E-02  0.9031538E-01
       -1   -1    0    0    0  501  0.00000000000E+00  0.00000000000E+00  0.38461984442E+03  0.38461984445E+03  0.50400001928E-02 0. -1.
        1   -1    0    0  501    0  0.00000000000E+00  0.00000000000E+00 -0.10942921529E+04  0.10942921529E+04  0.50400001928E-02 0.  1.
    10030    2    1    2    0    0  0.00000000000E+00  0.00000000000E+00 -0.70967230849E+03  0.14789119974E+04  0.12975152833E+04 0.  0.
        3    1    3    3  502    0 -0.15009500772E+03  0.22270946939E+03 -0.10279557260E+04  0.10624598835E+04  0.10100000352E+00 0.  1.
       -3    1    3    3    0  502  0.15009500772E+03 -0.22270946939E+03  0.31828341753E+03  0.41645211391E+03  0.10100000352E+00 0. -1.
</event>
<event>
 5   0  0.6284125E-04  0.1300022E+04  0.7818609E-02  0.9029548E-01
        3   -1    0    0  501    0  0.00000000000E+00  0.00000000000E+00  0.18303280670E+03  0.18303283457E+03  0.10100000352E+00 0.  1.
       -3   -1    0    0    0  501  0.00000000000E+00  0.00000000000E+00 -0.23084073639E+04  0.23084073661E+04  0.10100000352E+00 0. -1.
    10030    2    1    2    0    0  0.00000000000E+00  0.00000000000E+00 -0.21253745572E+04  0.24914402007E+04  0.13000220249E+04 0.  0.
        3    1    3    3  502    0 -0.37659914076E+03 -0.52947462659E+03 -0.10271415658E+04  0.12153970953E+04  0.10100000352E+00 0.  1.
       -3    1    3    3    0  502  0.37659914076E+03  0.52947462659E+03 -0.10982329915E+04  0.12760431054E+04  0.10100000352E+00 0. -1.
</event>
<event>
 5   0  0.9110949E-04  0.1300211E+04  0.7818609E-02  0.9029398E-01
       -1   -1    0    0    0  501  0.00000000000E+00  0.00000000000E+00  0.16740615410E+03  0.16740615418E+03  0.50400001928E-02 0. -1.
        1   -1    0    0  501    0  0.00000000000E+00  0.00000000000E+00 -0.25246230793E+04  0.25246230793E+04  0.50400001928E-02 0.  1.
    10030    2    1    2    0    0  0.00000000000E+00  0.00000000000E+00 -0.23572169252E+04  0.26920292335E+04  0.13002114295E+04 0.  0.
        2    1    3    3  502    0  0.43364830916E+03  0.16234353766E+03 -0.23381114487E+03  0.51872336725E+03  0.25500000920E-02 0. -1.
       -2    1    3    3    0  502 -0.43364830916E+03 -0.16234353766E+03 -0.21234057803E+04  0.21733058662E+04  0.25500000920E-02 0.  1.
</event>
<event>
 5   0  0.1694675E-03  0.1313139E+04  0.7818609E-02  0.9019210E-01
        2   -1    0    0  501    0  0.00000000000E+00  0.00000000000E+00  0.30879746417E+03  0.30879746418E+03  0.25500000920E-02 0.  1.
       -2   -1    0    0    0  501  0.00000000000E+00  0.00000000000E+00 -0.13960082648E+04  0.13960082648E+04  0.25500000920E-02 0. -1.
    10030    2    1    2    0    0  0.00000000000E+00  0.00000000000E+00 -0.10872108006E+04  0.17048057289E+04  0.13131394627E+04 0.  0.
        4    1    3    3  502    0  0.48390695633E+03  0.19601404414E+03 -0.26747111320E+02  0.52278529890E+03  0.12699999809E+01 0.  1.
       -4    1    3    3    0  502 -0.48390695633E+03 -0.19601404414E+03 -0.10604636893E+04  0.11820204300E+04  0.12699999809E+01 0. -1.
</event>
<event>
 5   0  0.9098192E-04  0.1337041E+04  0.7818609E-02  0.9000696E-01
        1   -1    0    0  501    0  0.00000000000E+00  0.00000000000E+00  0.12800291902E+04  0.12800291902E+04  0.50400001928E-02 0. -1.
       -1   -1    0    0    0  501  0.00000000000E+00  0.00000000000E+00 -0.34914809377E+03  0.34914809381E+03  0.50400001928E-02 0.  1.
    10030    2    1    2    0    0  0.00000000000E+00  0.00000000000E+00  0.93088109640E+03  0.16291772840E+04  0.13370411389E+04 0.  0.
        1    1    3    3  502    0 -0.15935527398E+03  0.63804875658E+03  0.61175851640E+03  0.89819196252E+03  0.50400001928E-02 0. -1.
       -1    1    3    3    0  502  0.15935527398E+03 -0.63804875658E+03  0.31912258001E+03  0.73098532148E+03  0.50400001928E-02 0.  1.
</event>
<event>
 5   0  0.9215829E-04  0.1298713E+04  0.7818609E-02  0.9030587E-01
        1   -1    0    0  501    0  0.00000000000E+00  0.00000000000E+00  0.58339505358E+03  0.58339505360E+03  0.50400001928E-02 0. -1.
       -1   -1    0    0    0  501  0.00000000000E+00  0.00000000000E+00 -0.72277537980E+03  0.72277537982E+03  0.50400001928E-02 0.  1.
    10030    2    1    2    0    0  0.00000000000E+00  0.00000000000E+00 -0.13938032623E+03  0.13061704334E+04  0.12987125647E+04 0.  0.
        3    1    3    3  502    0  0.48099297756E+02  0.59168489875E+03 -0.33437249022E+03  0.68132924073E+03  0.10100000352E+00 0. -1.
       -3    1    3    3    0  502 -0.48099297756E+02 -0.59168489875E+03  0.19499216400E+03  0.62484119269E+03  0.10100000352E+00 0.  1.
</event>
<event>
 5   0  0.1700511E-03  0.1300553E+04  0.7818609E-02  0.9029127E-01
        2   -1    0    0  501    0  0.00000000000E+00  0.00000000000E+00  0.22398515338E+03  0.22398515339E+03  0.25500000920E-02 0.  1.
       -2   -1    0    0    0  501  0.00000000000E+00  0.00000000000E+00 -0.18878899852E+04  0.18878899852E+04  0.25500000920E-02 0. -1.
    10030    2    1    2    0    0  0.00000000000E+00  0.00000000000E+00 -0.16639048318E+04  0.21118751386E+04  0.13005526947E+04 0.  0.
        2    1    3    3  502    0 -0.54147140468E+03 -0.96399682654E+02 -0.26856297959E+03  0.61205412744E+03  0.25500000920E-02 0.  1.
       -2    1    3    3    0  502  0.54147140468E+03  0.96399682654E+02 -0.13953418522E+04  0.14998210112E+04  0.25500000920E-02 0. -1.
</event>
<event>
 5   0  0.1694675E-03  0.1295777E+04  0.7818609E-02  0.9032921E-01
        2   -1    0    0  501    0  0.00000000000E+00  0.00000000000E+00  0.93031942163E+03  0.93031942163E+03  0.25500000920E-02 0.  1.
       -2   -1    0    0    0  501  0.00000000000E+00  0.00000000000E+00 -0.45119945266E+03  0.45119945267E+03  0.25500000920E-02 0. -1.
    10030    2    1    2    0    0  0.00000000000E+00  0.00000000000E+00  0.47911996897E+03  0.13815188743E+04  0.12957771627E+04 0.  0.
        4    1    3    3  502    0  0.22226363795E+03  0.60854142465E+03  0.23332396707E+03  0.68859674468E+03  0.12699999809E+01 0. -1.
       -4    1    3    3    0  502 -0.22226363795E+03 -0.60854142465E+03  0.24579600190E+03  0.69292212962E+03  0.12699999809E+01 0.  1.
</event>
<event>
 5   0  0.9027076E-04  0.1293591E+04  0.7818609E-02  0.9034663E-01
       -1   -1    0    0    0  501  0.00000000000E+00  0.00000000000E+00  0.30046927622E+03  0.30046927626E+03  0.50400001928E-02 0.  1.
        1   -1    0    0  501    0  0.00000000000E+00  0.00000000000E+00 -0.13923032071E+04  0.13923032071E+04  0.50400001928E-02 0. -1.
    10030    2    1    2    0    0  0.00000000000E+00  0.00000000000E+00 -0.10918339308E+04  0.16927724833E+04  0.12935908734E+04 0.  0.
        5    1    3    3  502    0  0.22394527303E+02  0.41535790420E+03 -0.11940275777E+04  0.12644159322E+04  0.46999998093E+01 0. -1.
       -5    1    3    3    0  502 -0.22394527303E+02 -0.41535790420E+03  0.10219364682E+03  0.42835655111E+03  0.46999998093E+01 0.  1.
</event>
<event>
 5   0  0.1694675E-03  0.1301446E+04  0.7818609E-02  0.9028420E-01
        2   -1    0    0  501    0  0.00000000000E+00  0.00000000000E+00  0.94935515900E+03  0.94935515901E+03  0.25500000920E-02 0. -1.
       -2   -1    0    0    0  501  0.00000000000E+00  0.00000000000E+00 -0.44602928214E+03  0.44602928215E+03  0.25500000920E-02 0.  1.
    10030    2    1    2    0    0  0.00000000000E+00  0.00000000000E+00  0.50332587686E+03  0.13953844412E+04  0.13014456578E+04 0.  0.
        4    1    3    3  502    0  0.23549729449E+03  0.57071504568E+03  0.47208388831E+03  0.77719974883E+03  0.12699999809E+01 0. -1.
       -4    1    3    3    0  502 -0.23549729449E+03 -0.57071504568E+03  0.31241988544E+02  0.61818469233E+03  0.12699999809E+01 0.  1.
</event>
<event>
 5   0  0.9110949E-04  0.1292551E+04  0.7818609E-02  0.9035494E-01
       -1   -1    0    0    0  501  0.00000000000E+00  0.00000000000E+00  0.42598681520E+03  0.42598681523E+03  0.50400001928E-02 0.  1.
        1   -1    0    0  501    0  0.00000000000E+00  0.00000000000E+00 -0.98048051376E+03  0.98048051377E+03  0.50400001928E-02 0. -1.
    10030    2    1    2    0    0  0.00000000000E+00  0.00000000000E+00 -0.55449369856E+03  0.14064673290E+04  0.12925506125E+04 0.  0.
        2    1    3    3  502    0  0.32607406438E+03  0.42082861959E+03 -0.67594153700E+03  0.86041733129E+03  0.25500000920E-02 0. -1.
       -2    1    3    3    0  502 -0.32607406438E+03 -0.42082861959E+03  0.12144783845E+03  0.54604999771E+03  0.25500000920E-02 0.  1.
</event>
<event>
 5   0  0.1667342E-03  0.1295261E+04  0.7818609E-02  0.9033332E-01
       -2   -1    0    0    0  501  0.00000000000E+00  0.00000000000E+00  0.43537141796E+03  0.43537141796E+03  0.25500000920E-02 0.  1.
        2   -1    0    0  501    0  0.00000000000E+00  0.00000000000E+00 -0.96337303318E+03  0.96337303318E+03  0.25500000920E-02 0. -1.
    10030    2    1    2    0    0  0.00000000000E+00  0.00000000000E+00 -0.52800161522E+03  0.13987444511E+04  0.12952607204E+04 0.  0.
        5    1    3    3  502    0  0.38934676148E+03  0.17336966634E+03  0.26255700131E+03  0.50060584377E+03  0.46999998093E+01 0.  1.
       -5    1    3    3    0  502 -0.38934676148E+03 -0.17336966634E+03 -0.79055861653E+03  0.89813860737E+03  0.46999998093E+01 0. -1.
</event>
<event>
 5   0  0.9081324E-04  0.1298700E+04  0.7818609E-02  0.9030597E-01
        1   -1    0    0  501    0  0.00000000000E+00  0.00000000000E+00  0.66308878594E+03  0.66308878596E+03  0.50400001928E-02 0. -1.
       -1   -1    0    0    0  501  0.00000000000E+00  0.00000000000E+00 -0.63589598973E+03  0.63589598975E+03  0.50400001928E-02 0.  1.
    10030    2    1    2    0    0  0.00000000000E+00  0.00000000000E+00  0.27192796209E+02  0.12989847757E+04  0.12987001191E+04 0.  0.
        4    1    3    3  502    0  0.46533791111E+03  0.41186046296E+03  0.20201357356E+03  0.65343669109E+03  0.12699999809E+01 0.  1.
       -4    1    3    3    0  502 -0.46533791111E+03 -0.41186046296E+03 -0.17482077736E+03  0.64554808462E+03  0.12699999809E+01 0. -1.
</event>
<event>
 5   0  0.1623890E-03  0.1307311E+04  0.7818609E-02  0.9023788E-01
       -2   -1    0    0    0  501  0.00000000000E+00  0.00000000000E+00  0.22276754803E+03  0.22276754805E+03  0.25500000920E-02 0. -1.
        2   -1    0    0  501    0  0.00000000000E+00  0.00000000000E+00 -0.19179880420E+04  0.19179880420E+04  0.25500000920E-02 0.  1.
    10030    2    1    2    0    0  0.00000000000E+00  0.00000000000E+00 -0.16952204940E+04  0.21407555901E+04  0.13073109703E+04 0.  0.
        3    1    3    3  502    0 -0.19001966392E+03 -0.31888652244E+03 -0.17286378369E+04  0.17680454938E+04  0.10100000352E+00 0.  1.
       -3    1    3    3    0  502  0.19001966392E+03  0.31888652244E+03  0.33417342869E+02  0.37271009629E+03  0.10100000352E+00 0. -1.
</event>
<event>
 5   0  0.6284125E-04  0.1335288E+04  0.7818609E-02  0.9002040E-01
        4   -1    0    0  501    0  0.00000000000E+00  0.00000000000E+00  0.54211696248E+03  0.54211845007E+03  0.12699999809E+01 0. -1.
       -4   -1    0    0    0  501  0.00000000000E+00  0.00000000000E+00 -0.82223392456E+03  0.82223490536E+03  0.12699999809E+01 0.  1.
    10030    2    1    2    0    0  0.00000000000E+00  0.00000000000E+00 -0.28011696208E+03  0.13643533554E+04  0.13352881959E+04 0.  0.
        5    1    3    3  502    0  0.20195715781E+02  0.49976948823E+03 -0.59189342181E+03  0.77494343089E+03  0.46999998093E+01 0.  1.
       -5    1    3    3    0  502 -0.20195715781E+02 -0.49976948823E+03  0.31177645973E+03  0.58940992454E+03  0.46999998093E+01 0. -1.
</event>
<event>
 5   0  0.1700511E-03  0.1297971E+04  0.7818609E-02  0.9031176E-01
       -2   -1    0    0    0  501  0.00000000000E+00  0.00000000000E+00  0.55841103248E+03  0.55841103248E+03  0.25500000920E-02 0.  1.
        2   -1    0    0  501    0  0.00000000000E+00  0.00000000000E+00 -0.75425078210E+03  0.75425078211E+03  0.25500000920E-02 0. -1.
    10030    2    1    2    0    0  0.00000000000E+00  0.00000000000E+00 -0.19583974963E+03  0.13126618146E+04  0.12979706591E+04 0.  0.
        2    1    3    3  502    0  0.31845507124E+03 -0.44203056384E+03  0.25874352887E+03  0.60311927967E+03  0.25500000920E-02 0.  1.
       -2    1    3    3    0  502 -0.31845507124E+03  0.44203056384E+03 -0.45458327849E+03  0.70954253492E+03  0.25500000920E-02 0. -1.
</event>
<event>
 5   0  0.6284125E-04  0.1290103E+04  0.7818609E-02  0.9037450E-01
       -3   -1    0    0    0  501  0.00000000000E+00  0.00000000000E+00  0.83803014088E+03  0.83803014697E+03  0.10100000352E+00 0. -1.
        3   -1    0    0  501    0  0.00000000000E+00  0.00000000000E+00 -0.49651139426E+03  0.49651140453E+03  0.10100000352E+00 0.  1.
    10030    2    1    2    0    0  0.00000000000E+00  0.00000000000E+00  0.34151874663E+03  0.13345415515E+04  0.12901031348E+04 0.  0.
        4    1    3    3  502    0  0.63403911989E+03 -0.75841519650E+02  0.26518544973E+03  0.69143508538E+03  0.12699999809E+01 0.  1.
       -4    1    3    3    0  502 -0.63403911989E+03  0.75841519650E+02  0.76333296894E+02  0.64310646612E+03  0.12699999809E+01 0. -1.
</event>
<event>
 5   0  0.1694675E-03  0.1290804E+04  0.7818609E-02  0.9036890E-01
        2   -1    0    0  501    0  0.00000000000E+00  0.00000000000E+00  0.45799577822E+03  0.45799577822E+03  0.25500000920E-02 0.  1.
       -2   -1    0    0    0  501  0.00000000000E+00  0.00000000000E+00 -0.90949249431E+03  0.90949249431E+03  0.25500000920E-02 0. -1.
    10030    2    1    2    0    0  0.00000000000E+00  0.00000000000E+00 -0.45149671609E+03  0.13674882725E+04  0.12908039707E+04 0.  0.
        4    1    3    3  502    0 -0.44388000344E+03 -0.21461697367E+03  0.21546965336E+03  0.53806940747E+03  0.12699999809E+01 0.  1.
       -4    1    3    3    0  502  0.44388000344E+03  0.21461697367E+03 -0.66696636945E+03  0.82941886506E+03  0.12699999809E+01 0. -1.
</event>
<event>
 5   0  0.1667342E-03  0.1309079E+04  0.7818609E-02  0.9022396E-01
        2   -1    0    0  501    0  0.00000000000E+00  0.00000000000E+00  0.18823336321E+04  0.18823336321E+04  0.25500000920E-02 0. -1.
       -2   -1    0    0    0  501  0.00000000000E+00  0.00000000000E+00 -0.22760146720E+03  0.22760146721E+03  0.25500000920E-02 0.  1.
    10030    2    1    2    0    0  0.00000000000E+00  0.00000000000E+00  0.16547321649E+04  0.21099350993E+04  0.13090789074E+04 0.  0.
        5    1    3    3  502    0 -0.50746118823E+03 -0.36717004140E+03  0.52126068876E+03  0.81490213677E+03  0.46999998093E+01 0.  1.
       -5    1    3    3    0  502  0.50746118823E+03  0.36717004140E+03  0.11334714761E+04  0.12950329626E+04  0.46999998093E+01 0. -1.
</event>
<event>
 5   0  0.9081324E-04  0.1298070E+04  0.7818609E-02  0.9031097E-01
       -1   -1    0    0    0  501  0.00000000000E+00  0.00000000000E+00  0.46211367166E+03  0.46211367169E+03  0.50400001928E-02 0.  1.
        1   -1    0    0  501    0  0.00000000000E+00  0.00000000000E+00 -0.91156509404E+03  0.91156509406E+03  0.50400001928E-02 0. -1.
    10030    2    1    2    0    0  0.00000000000E+00  0.00000000000E+00 -0.44945142238E+03  0.13736787657E+04  0.12980704027E+04 0.  0.
        4    1    3    3  502    0  0.50872716742E+03 -0.27597696493E+03 -0.53556659767E+03  0.78854283935E+03  0.12699999809E+01 0. -1.
       -4    1    3    3    0  502 -0.50872716742E+03  0.27597696493E+03  0.86115175293E+02  0.58513592640E+03  0.12699999809E+01 0.  1.
</event>
<event>
 5   0  0.9110949E-04  0.1297292E+04  0.7818609E-02  0.9031715E-01
        1   -1    0    0  501    0  0.00000000000E+00  0.00000000000E+00  0.19140382741E+04  0.19140382741E+04  0.50400001928E-02 0.  1.
       -1   -1    0    0    0  501  0.00000000000E+00  0.00000000000E+00 -0.21981887015E+03  0.21981887021E+03  0.50400001928E-02 0. -1.
    10030    2    1    2    0    0  0.00000000000E+00  0.00000000000E+00  0.16942194040E+04  0.21338571443E+04  0.12972921504E+04 0.  0.
        2    1    3    3  502    0 -0.56925432932E+03 -0.26961304263E+03  0.59228965330E+03  0.86460899695E+03  0.25500000920E-02 0. -1.
       -2    1    3    3    0  502  0.56925432932E+03  0.26961304263E+03  0.11019297507E+04  0.12692481474E+04  0.25500000920E-02 0.  1.
</event>
<event>
 5   0  0.1667342E-03  0.1303726E+04  0.7818609E-02  0.9026616E-01
       -2   -1    0    0    0  501  0.00000000000E+00  0.00000000000E+00  0.21659427252E+03  0.21659427253E+03  0.25500000920E-02 0.  1.
        2   -1    0    0  501    0  0.00000000000E+00  0.00000000000E+00 -0.19618484885E+04  0.19618484885E+04  0.25500000920E-02 0. -1.
    10030    2    1    2    0    0  0.00000000000E+00  0.00000000000E+00 -0.17452542160E+04  0.21784427610E+04  0.13037256555E+04 0.  0.
        5    1    3    3  502    0 -0.12963189855E+03 -0.16719118242E+03 -0.19028590309E+04  0.19145892254E+04  0.46999998093E+01 0. -1.
       -5    1    3    3    0  502  0.12963189855E+03  0.16719118242E+03  0.15760481489E+03  0.26385353565E+03  0.46999998093E+01 0.  1.
</event>
<event>
 5   0  0.9215829E-04  0.1296082E+04  0.7818609E-02  0.9032678E-01
        1   -1    0    0  501    0  0.00000000000E+00  0.00000000000E+00  0.13941940703E+04  0.13941940703E+04  0.50400001928E-02 0.  1.
       -1   -1    0    0    0  501  0.00000000000E+00  0.00000000000E+00 -0.30121844496E+03  0.30121844500E+03  0.50400001928E-02 0. -1.
    10030    2    1    2    0    0  0.00000000000E+00  0.00000000000E+00  0.10929756253E+04  0.16954125153E+04  0.12960817411E+04 0.  0.
        3    1    3    3  502    0  0.58158658950E+03 -0.24477499307E+03  0.73962383547E+03  0.97221457843E+03  0.10100000352E+00 0.  1.
       -3    1    3    3    0  502 -0.58158658950E+03  0.24477499307E+03  0.35335178988E+03  0.72319793689E+03  0.10100000352E+00 0. -1.
</event>
<event>
 5   0  0.1714861E-03  0.1302336E+04  0.7818609E-02  0.9027715E-01
        2   -1    0    0  501    0  0.00000000000E+00  0.00000000000E+00  0.18103153588E+04  0.18103153588E+04  0.25500000920E-02 0.  1.
       -2   -1    0    0    0  501  0.00000000000E+00  0.00000000000E+00 -0.23422413780E+03  0.23422413781E+03  0.25500000920E-02 0. -1.
    10030    2    1    2    0    0  0.00000000000E+00  0.00000000000E+00  0.15760912210E+04  0.20445394966E+04  0.13023356773E+04 0.  0.
        1    1    3    3  502    0  0.50232057975E+03  0.41041072717E+03  0.69845625942E+03  0.95320725772E+03  0.50400001928E-02 0.  1.
       -1    1    3    3    0  502 -0.50232057975E+03 -0.41041072717E+03  0.87763496156E+03  0.10913322389E+04  0.50400001928E-02 0. -1.
</event>
<event>
 5   0  0.9098192E-04  0.1229095E+04  0.7818609E-02  0.9087764E-01
        1   -1    0    0  501    0  0.00000000000E+00  0.00000000000E+00  0.10669022888E+04  0.10669022888E+04  0.50400001928E-02 0. -1.
       -1   -1    0    0    0  501  0.00000000000E+00  0.00000000000E+00 -0.35398618496E+03  0.35398618499E+03  0.50400001928E-02 0.  1.
    10030    2    1    2    0    0  0.00000000000E+00  0.00000000000E+00  0.71291610386E+03  0.14208884738E+04  0.12290950671E+04 0.  0.
        1    1    3    3  502    0 -0.40723532272E+03  0.24935259274E+03 -0.90755372089E+02  0.48605952431E+03  0.50400001928E-02 0.  1.
       -1    1    3    3    0  502  0.40723532272E+03 -0.24935259274E+03  0.80367147595E+03  0.93482894952E+03  0.50400001928E-02 0. -1.
</event>
<event>
 5   0  0.1714861E-03  0.1274073E+04  0.7818609E-02  0.9050382E-01
        2   -1    0    0  501    0  0.00000000000E+00  0.00000000000E+00  0.20395250511E+04  0.20395250511E+04  0.25500000920E-02 0.  1.
       -2   -1    0    0    0  501  0.00000000000E+00  0.00000000000E+00 -0.19897557553E+03  0.19897557554E+03  0.25500000920E-02 0. -1.
    10030    2    1    2    0    0  0.00000000000E+00  0.00000000000E+00  0.18405494756E+04  0.22385006266E+04  0.12740732646E+04 0.  0.
        1    1    3    3  502    0  0.32653214413E+03 -0.23603552056E+02 -0.39862669440E+02  0.32980206376E+03  0.50400001928E-02 0. -1.
       -1    1    3    3    0  502 -0.32653214413E+03  0.23603552056E+02  0.18804121450E+04  0.19086985629E+04  0.50400001928E-02 0.  1.
</event>
<event>
 5   0  0.1623890E-03  0.1309805E+04  0.7818609E-02  0.9021826E-01
        2   -1    0    0  501    0  0.00000000000E+00  0.00000000000E+00  0.19735258896E+04  0.19735258896E+04  0.25500000920E-02 0.  1.
       -2   -1    0    0    0  501  0.00000000000E+00  0.00000000000E+00 -0.21732542330E+03  0.21732542331E+03  0.25500000920E-02 0. -1.
    10030    2    1    2    0    0  0.00000000000E+00  0.00000000000E+00  0.17562004663E+04  0.21908513129E+04  0.13098050990E+04 0.  0.
        3    1    3    3  502    0 -0.32637764399E+03  0.29274863597E+03  0.16918310751E+04  0.17477175193E+04  0.10100000352E+00 0.  1.
       -3    1    3    3    0  502  0.32637764399E+03 -0.29274863597E+03  0.64369391248E+02  0.44313379367E+03  0.10100000352E+00 0. -1.
</event>
<event>
 5   0  0.1667342E-03  0.1283379E+04  0.7818609E-02  0.9042850E-01
       -2   -1    0    0    0  501  0.00000000000E+00  0.00000000000E+00  0.26958761170E+03  0.26958761172E+03  0.25500000920E-02 0. -1.
        2   -1    0    0  501    0  0.00000000000E+00  0.00000000000E+00 -0.15273910323E+04  0.15273910323E+04  0.25500000920E-02 0.  1.
    10030    2    1    2    0    0  0.00000000000E+00  0.00000000000E+00 -0.12578034206E+04  0.17969786440E+04  0.12833794459E+04 0.  0.
        5    1    3    3  502    0  0.13278910705E+03  0.36057533939E+03 -0.13484647049E+04  0.14021507311E+04  0.46999998093E+01 0. -1.
       -5    1    3    3    0  502 -0.13278910705E+03 -0.36057533939E+03  0.90661284333E+02  0.39482791290E+03  0.46999998093E+01 0.  1.
</event>
<event>
 5   0  0.1623890E-03  0.1298061E+04  0.7818609E-02  0.9031104E-01
        2   -1    0    0  501    0  0.00000000000E+00  0.00000000000E+00  0.11215320392E+04  0.11215320392E+04  0.25500000920E-02 0. -1.
       -2   -1    0    0    0  501  0.00000000000E+00  0.00000000000E+00 -0.37559394499E+03  0.37559394500E+03  0.25500000920E-02 0.  1.
    10030    2    1    2    0    0  0.00000000000E+00  0.00000000000E+00  0.74593809424E+03  0.14971259842E+04  0.12980610818E+04 0.  0.
        3    1    3    3  502    0 -0.29244466193E+02  0.62065905463E+03  0.15667956579E+03  0.64079746990E+03  0.10100000352E+00 0.  1.
       -3    1    3    3    0  502  0.29244466193E+02 -0.62065905463E+03  0.58925852845E+03  0.85632851433E+03  0.10100000352E+00 0. -1.
</event>
<event>
 5   0  0.9110949E-04  0.1275400E+04  0.7818609E-02  0.9049304E-01
        1   -1    0    0  501    0  0.00000000000E+00  0.00000000000E+00  0.70849012239E+03  0.70849012241E+03  0.50400001928E-02 0.  1.
       -1   -1    0    0    0  501  0.00000000000E+00  0.00000000000E+00 -0.57398330545E+03  0.57398330547E+03  0.50400001928E-02 0. -1.
    10030    2    1    2    0    0  0.00000000000E+00  0.00000000000E+00  0.13450681694E+03  0.12824734279E+04  0.12754003330E+04 0.  0.
        2    1    3    3  502    0 -0.29886100107E+03  0.39478614641E+02  0.63231739326E+03  0.70050106696E+03  0.25500000920E-02 0.  1.
       -2    1    3    3    0  502  0.29886100107E+03 -0.39478614641E+02 -0.49781057632E+03  0.58197236093E+03  0.25500000920E-02 0. -1.
</event>
<event>
 5   0  0.9215829E-04  0.1293517E+04  0.7818609E-02  0.9034722E-01
       -1   -1    0    0    0  501  0.00000000000E+00  0.00000000000E+00  0.98183966871E+03  0.98183966872E+03  0.50400001928E-02 0. -1.
        1   -1    0    0  501    0  0.00000000000E+00  0.00000000000E+00 -0.42603363837E+03  0.42603363840E+03  0.50400001928E-02 0.  1.
    10030    2    1    2    0    0  0.00000000000E+00  0.00000000000E+00  0.55580603034E+03  0.14078733071E+04  0.12935172614E+04 0.  0.
        3    1    3    3  502    0 -0.11646839982E+03  0.12436634720E+03 -0.40116603213E+03  0.43585097454E+03  0.10100000352E+00 0.  1.
       -3    1    3    3    0  502  0.11646839982E+03 -0.12436634720E+03  0.95697206247E+03  0.97202233258E+03  0.10100000352E+00 0. -1.
</event>
<event>
 5   0  0.6284125E-04  0.1299336E+04  0.7818609E-02  0.9030092E-01
       -3   -1    0    0    0  501  0.00000000000E+00  0.00000000000E+00  0.10940573130E+04  0.10940573177E+04  0.10100000352E+00 0. -1.
        3   -1    0    0  501    0  0.00000000000E+00  0.00000000000E+00 -0.38578291095E+03  0.38578292417E+03  0.10100000352E+00 0.  1.
    10030    2    1    2    0    0  0.00000000000E+00  0.00000000000E+00  0.70827440208E+03  0.14798402419E+04  0.12993361816E+04 0.  0.
        1    1    3    3  502    0  0.53029305895E+03  0.26566970770E+03  0.65606386755E+03  0.88442688804E+03  0.50400001928E-02 0. -1.
       -1    1    3    3    0  502 -0.53029305895E+03 -0.26566970770E+03  0.52210534530E+02  0.59541335381E+03  0.50400001928E-02 0.  1.
</event>
<event>
 5   0  0.9110949E-04  0.1296866E+04  0.7818609E-02  0.9032054E-01
       -1   -1    0    0    0  501  0.00000000000E+00  0.00000000000E+00  0.42524161181E+03  0.42524161184E+03  0.50400001928E-02 0.  1.
        1   -1    0    0  501    0  0.00000000000E+00  0.00000000000E+00 -0.98876886578E+03  0.98876886580E+03  0.50400001928E-02 0. -1.
    10030    2    1    2    0    0  0.00000000000E+00  0.00000000000E+00 -0.56352725397E+03  0.14140104776E+04  0.12968664792E+04 0.  0.
        2    1    3    3  502    0 -0.56334429392E+03  0.27899379341E+03 -0.45509271952E+03  0.77608228534E+03  0.25500000920E-02 0. -1.
       -2    1    3    3    0  502  0.56334429392E+03 -0.27899379341E+03 -0.10843453445E+03  0.63792819230E+03  0.25500000920E-02 0.  1.
</event>
<event>
 5   0  0.9098192E-04  0.1314693E+04  0.7818609E-02  0.9017994E-01
        1   -1    0    0  501    0  0.00000000000E+00  0.00000000000E+00  0.10803234451E+04  0.10803234451E+04  0.50400001928E-02 0. -1.
       -1   -1    0    0    0  501  0.00000000000E+00  0.00000000000E+00 -0.39997684800E+03  0.39997684803E+03  0.50400001928E-02 0.  1.
    10030    2    1    2    0    0  0.00000000000E+00  0.00000000000E+00  0.68034659712E+03  0.14803002932E+04  0.13146929169E+04 0.  0.
        1    1    3    3  502    0  0.54062804782E+03 -0.85761852609E+02 -0.69639227903E+02  0.55180014818E+03  0.50400001928E-02 0.  1.
       -1    1    3    3    0  502 -0.54062804782E+03  0.85761852609E+02  0.74998582502E+03  0.92850014497E+03  0.50400001928E-02 0. -1.
</event>
<event>
 5   0  0.1714861E-03  0.1357401E+04  0.7818609E-02  0.8985244E-01
       -2   -1    0    0    0  501  0.00000000000E+00  0.00000000000E+00  0.93788283902E+03  0.93788283903E+03  0.25500000920E-02 0.  1.
        2   -1    0    0  501    0  0.00000000000E+00  0.00000000000E+00 -0.49114291745E+03  0.49114291746E+03  0.25500000920E-02 0. -1.
    10030    2    1    2    0    0  0.00000000000E+00  0.00000000000E+00  0.44673992157E+03  0.14290257565E+04  0.13574012138E+04 0.  0.
        1    1    3    3  502    0  0.36855258638E+03  0.41476672722E+03 -0.18811484217E+03  0.58587510684E+03  0.50400001928E-02 0. -1.
       -1    1    3    3    0  502 -0.36855258638E+03 -0.41476672722E+03  0.63485476374E+03  0.84315064965E+03  0.50400001928E-02 0.  1.
</event>
<event>
 5   0  0.9215829E-04  0.1292368E+04  0.7818609E-02  0.9035640E-01
       -1   -1    0    0    0  501  0.00000000000E+00  0.00000000000E+00  0.30772444229E+03  0.30772444233E+03  0.50400001928E-02 0.  1.
        1   -1    0    0  501    0  0.00000000000E+00  0.00000000000E+00 -0.13569076655E+04  0.13569076655E+04  0.50400001928E-02 0. -1.
    10030    2    1    2    0    0  0.00000000000E+00  0.00000000000E+00 -0.10491832232E+04  0.16646321079E+04  0.12923678341E+04 0.  0.
        3    1    3    3  502    0  0.87591382052E+02  0.19261061550E+03  0.26183809718E+03  0.33664565756E+03  0.10100000352E+00 0.  1.
       -3    1    3    3    0  502 -0.87591382052E+02 -0.19261061550E+03 -0.13110213204E+04  0.13279864503E+04  0.10100000352E+00 0. -1.
</event>
<event>
 5   0  0.1700511E-03  0.1288038E+04  0.7818609E-02  0.9039105E-01
        2   -1    0    0  501    0  0.00000000000E+00  0.00000000000E+00  0.10037849211E+04  0.10037849211E+04  0.25500000920E-02 0.  1.
       -2   -1    0    0    0  501  0.00000000000E+00  0.00000000000E+00 -0.41319653493E+03  0.41319653493E+03  0.25500000920E-02 0. -1.
    10030    2    1    2    0    0  0.00000000000E+00  0.00000000000E+00  0.59058838618E+03  0.14169814560E+04  0.12880379672E+04 0.  0.
        2    1    3    3  502    0  0.58781870235E+03 -0.24794304096E+03  0.39216542857E+03  0.74886601056E+03  0.25500000920E-02 0.  1.
       -2    1    3    3    0  502 -0.58781870235E+03  0.24794304096E+03  0.19842295761E+03  0.66811544549E+03  0.25500000920E-02 0. -1.
</event>
<event>
 5   0  0.9027076E-04  0.1282380E+04  0.7818609E-02  0.9043656E-01
       -1   -1    0    0    0  501  0.00000000000E+00  0.00000000000E+00  0.27016641655E+03  0.27016641660E+03  0.50400001928E-02 0.  1.
        1   -1    0    0  501    0  0.00000000000E+00  0.00000000000E+00 -0.15217448859E+04  0.15217448860E+04  0.50400001928E-02 0. -1.
    10030    2    1    2    0    0  0.00000000000E+00  0.00000000000E+00 -0.12515784694E+04  0.17919113026E+04  0.12823796049E+04 0.  0.
        5    1    3    3  502    0  0.41838884386E+02  0.81979834319E+02 -0.15124419704E+04  0.15152471711E+04  0.46999998093E+01 0. -1.
       -5    1    3    3    0  502 -0.41838884386E+02 -0.81979834319E+02  0.26086350104E+03  0.27666413149E+03  0.46999998093E+01 0.  1.
</event>
<event>
 5   0  0.1694675E-03  0.1315802E+04  0.7818609E-02  0.9017127E-01
        2   -1    0    0  501    0  0.00000000000E+00  0.00000000000E+00  0.12401693298E+04  0.12401693298E+04  0.25500000920E-02 0. -1.
       -2   -1    0    0    0  501  0.00000000000E+00  0.00000000000E+00 -0.34901205631E+03  0.34901205632E+03  0.25500000920E-02 0.  1.
    10030    2    1    2    0    0  0.00000000000E+00  0.00000000000E+00  0.89115727353E+03  0.15891813862E+04  0.13158024897E+04 0.  0.
        4    1    3    3  502    0 -0.21837371727E+03 -0.53563369785E+03  0.67021764757E+02  0.58230925505E+03  0.12699999809E+01 0.  1.
       -4    1    3    3    0  502  0.21837371727E+03  0.53563369785E+03  0.82413550877E+03  0.10068721311E+04  0.12699999809E+01 0. -1.
</event>
<event>
 5   0  0.1714861E-03  0.1306310E+04  0.7818609E-02  0.9024577E-01
        2   -1    0    0  501    0  0.00000000000E+00  0.00000000000E+00  0.88915541054E+03  0.88915541055E+03  0.25500000920E-02 0. -1.
       -2   -1    0    0    0  501  0.00000000000E+00  0.00000000000E+00 -0.47979368666E+03  0.47979368667E+03  0.25500000920E-02 0.  1.
    10030    2    1    2    0    0  0.00000000000E+00  0.00000000000E+00  0.40936172388E+03  0.13689490972E+04  0.13063095383E+04 0.  0.
        1    1    3    3  502    0  0.11556989135E+03 -0.57675175652E+03  0.50221821258E+03  0.77344820221E+03  0.50400001928E-02 0. -1.
       -1    1    3    3    0  502 -0.11556989135E+03  0.57675175652E+03 -0.92856488697E+02  0.59550089501E+03  0.50400001928E-02 0.  1.
</event>
<event>
 5   0  0.1623890E-03  0.1305152E+04  0.7818609E-02  0.9025490E-01
        2   -1    0    0  501    0  0.00000000000E+00  0.00000000000E+00  0.17985032442E+04  0.17985032442E+04  0.25500000920E-02 0.  1.
       -2   -1    0    0    0  501  0.00000000000E+00  0.00000000000E+00 -0.23678315549E+03  0.23678315550E+03  0.25500000920E-02 0. -1.
    10030    2    1    2    0    0  0.00000000000E+00  0.00000000000E+00  0.15617200887E+04  0.20352863997E+04  0.13051517511E+04 0.  0.
        3    1    3    3  502    0  0.11934399044E+03  0.49900922127E+03  0.15203828972E+03  0.53513441556E+03  0.10100000352E+00 0. -1.
       -3    1    3    3    0  502 -0.11934399044E+03 -0.49900922127E+03  0.14096817990E+04  0.15001519842E+04  0.10100000352E+00 0.  1.
</event>
<event>
 5   0  0.9081324E-04  0.1303156E+04  0.7818609E-02  0.9027066E-01
       -1   -1    0    0    0  501  0.00000000000E+00  0.00000000000E+00  0.31722358383E+03  0.31722358387E+03  0.50400001928E-02 0.  1.
        1   -1    0    0  501    0  0.00000000000E+00  0.00000000000E+00 -0.13383432172E+04  0.13383432172E+04  0.50400001928E-02 0. -1.
    10030    2    1    2    0    0  0.00000000000E+00  0.00000000000E+00 -0.10211196334E+04  0.16555668011E+04  0.13031562175E+04 0.  0.
        4    1    3    3  502    0  0.34792822664E+03  0.41428674175E+03 -0.97189308428E+03  0.11123242942E+04  0.12699999809E+01 0. -1.
       -4    1    3    3    0  502 -0.34792822664E+03 -0.41428674175E+03 -0.49226549119E+02  0.54324250691E+03  0.12699999809E+01 0.  1.
</event>
<event>
 5   0  0.1694675E-03  0.1311216E+04  0.7818609E-02  0.9020718E-01
        2   -1    0    0  501    0  0.00000000000E+00  0.00000000000E+00  0.55852003665E+03  0.55852003666E+03  0.25500000920E-02 0. -1.
       -2   -1    0    0    0  501  0.00000000000E+00  0.00000000000E+00 -0.76957247398E+03  0.76957247399E+03  0.25500000920E-02 0.  1.
    10030    2    1    2    0    0  0.00000000000E+00  0.00000000000E+00 -0.21105243733E+03  0.13280925106E+04  0.13112156899E+04 0.  0.
        4    1    3    3  502    0 -0.42571302072E+03 -0.10057148701E+03 -0.60014950296E+03  0.74264879910E+03  0.12699999809E+01 0.  1.
       -4    1    3    3    0  502  0.42571302072E+03  0.10057148701E+03  0.38909706562E+03  0.58544371154E+03  0.12699999809E+01 0. -1.
</event>
<event>
 5   0  0.1694675E-03  0.1286547E+04  0.7818609E-02  0.9040302E-01
       -2   -1    0    0    0  501  0.00000000000E+00  0.00000000000E+00  0.67256405588E+03  0.67256405588E+03  0.25500000920E-02 0.  1.
        2   -1    0    0  501    0  0.00000000000E+00  0.00000000000E+00 -0.61525832343E+03  0.61525832344E+03  0.25500000920E-02 0. -1.
    10030    2    1    2    0    0  0.00000000000E+00  0.00000000000E+00  0.57305732445E+02  0.12878223793E+04  0.12865467476E+04 0.  0.
        4    1    3    3  502    0  0.13720115451E+03 -0.42929494761E+03 -0.43080192526E+03  0.62346629464E+03  0.12699999809E+01 0. -1.
       -4    1    3    3    0  502 -0.13720115451E+03  0.42929494761E+03  0.48810765771E+03  0.66435608468E+03  0.12699999809E+01 0.  1.
</event>
<event>
 5   0  0.9110949E-04  0.1259415E+04  0.7818609E-02  0.9062383E-01
       -1   -1    0    0    0  501  0.00000000000E+00  0.00000000000E+00  0.29563398031E+03  0.29563398035E+03  0.50400001928E-02 0.  1.
        1   -1    0    0  501    0  0.00000000000E+00  0.00000000000E+00 -0.13412928631E+04  0.13412928632E+04  0.50400001928E-02 0. -1.
    10030    2    1    2    0    0  0.00000000000E+00  0.00000000000E+00 -0.10456588828E+04  0.16369268435E+04  0.12594153373E+04 0.  0.
        2    1    3    3  502    0  0.97394932520E+02  0.61841880373E+03 -0.61102270489E+03  0.87480074050E+03  0.25500000920E-02 0. -1.
       -2    1    3    3    0  502 -0.97394932520E+02 -0.61841880373E+03 -0.43463617795E+03  0.76212610300E+03  0.25500000920E-02 0.  1.
</event>
<event>
 5   0  0.1714861E-03  0.1301390E+04  0.7818609E-02  0.9028464E-01
       -2   -1    0    0    0  501  0.00000000000E+00  0.00000000000E+00  0.20820948920E+03  0.20820948922E+03  0.25500000920E-02 0.  1.
        2   -1    0    0  501    0  0.00000000000E+00  0.00000000000E+00 -0.20335482016E+04  0.20335482016E+04  0.25500000920E-02 0. -1.
    10030    2    1    2    0    0  0.00000000000E+00  0.00000000000E+00 -0.18253387124E+04  0.22417576908E+04  0.13013900758E+04 0.  0.
        1    1    3    3  502    0  0.26216007843E+03  0.13229183515E+02 -0.19382976193E+04  0.19559909455E+04  0.50400001928E-02 0. -1.
       -1    1    3    3    0  502 -0.26216007843E+03 -0.13229183515E+02  0.11295890692E+03  0.28576674526E+03  0.50400001928E-02 0.  1.
</event>
<event>
 5   0  0.9027076E-04  0.1299631E+04  0.7818609E-02  0.9029858E-01
       -1   -1    0    0    0  501  0.00000000000E+00  0.00000000000E+00  0.95499897324E+03  0.95499897325E+03  0.50400001928E-02 0.  1.
        1   -1    0    0  501    0  0.00000000000E+00  0.00000000000E+00 -0.44215801729E+03  0.44215801732E+03  0.50400001928E-02 0. -1.
    10030    2    1    2    0    0  0.00000000000E+00  0.00000000000E+00  0.51284095595E+03  0.13971569906E+04  0.12996314132E+04 0.  0.
        5    1    3    3  502    0  0.26467791212E+03 -0.72952078618E+02 -0.37672475978E+03  0.46617597275E+03  0.46999998093E+01 0. -1.
       -5    1    3    3    0  502 -0.26467791212E+03  0.72952078618E+02  0.88956571573E+03  0.93098101782E+03  0.46999998093E+01 0.  1.
</event>
<event>
 5   0  0.9027076E-04  0.1320131E+04  0.7818609E-02  0.9013752E-01
       -1   -1    0    0    0  501  0.00000000000E+00  0.00000000000E+00  0.30534374539E+03  0.30534374543E+03  0.50400001928E-02 0. -1.
        1   -1    0    0  501    0  0.00000000000E+00  0.00000000000E+00 -0.14268713896E+04  0.14268713896E+04  0.50400001928E-02 0.  1.
    10030    2    1    2    0    0  0.00000000000E+00  0.00000000000E+00 -0.11215276442E+04  0.17322151350E+04  0.13201306819E+04 0.  0.
        5    1    3    3  502    0  0.69650530534E+02 -0.41223305177E+03 -0.12309611610E+04  0.13000287517E+04  0.46999998093E+01 0.  1.
       -5    1    3    3    0  502 -0.69650530534E+02  0.41223305177E+03  0.10943351675E+03  0.43218638336E+03  0.46999998093E+01 0. -1.
</event>
<event>
 5   0  0.9027076E-04  0.1117362E+04  0.7818609E-02  0.9188433E-01
       -1   -1    0    0    0  501  0.00000000000E+00  0.00000000000E+00  0.19140678640E+03  0.19140678646E+03  0.50400001928E-02 0. -1.
        1   -1    0    0  501    0  0.00000000000E+00  0.00000000000E+00 -0.16306868374E+04  0.16306868374E+04  0.50400001928E-02 0.  1.
    10030    2    1    2    0    0  0.00000000000E+00  0.00000000000E+00 -0.14392800510E+04  0.18220936238E+04  0.11173621208E+04 0.  0.
        5    1    3    3  502    0 -0.18434040208E+03 -0.50323801395E+03 -0.97681987701E+03  0.11141943478E+04  0.46999998093E+01 0.  1.
       -5    1    3    3    0  502  0.18434040208E+03  0.50323801395E+03 -0.46246017394E+03  0.70789927603E+03  0.46999998093E+01 0. -1.
</event>
<event>
 5   0  0.9110949E-04  0.1291438E+04  0.7818609E-02  0.9036383E-01
        1   -1    0    0  501    0  0.00000000000E+00  0.00000000000E+00  0.20893222637E+04  0.20893222637E+04  0.50400001928E-02 0.  1.
       -1   -1    0    0    0  501  0.00000000000E+00  0.00000000000E+00 -0.19956366357E+03  0.19956366363E+03  0.50400001928E-02 0. -1.
    10030    2    1    2    0    0  0.00000000000E+00  0.00000000000E+00  0.18897586001E+04  0.22888859273E+04  0.12914376569E+04 0.  0.
        2    1    3    3  502    0 -0.59741936690E+03  0.24269473608E+03  0.88498076831E+03  0.10949893128E+04  0.25500000920E-02 0. -1.
       -2    1    3    3    0  502  0.59741936690E+03 -0.24269473608E+03  0.10047778318E+04  0.11938966145E+04  0.25500000920E-02 0.  1.
</event>
<event>
 5   0  0.1623890E-03  0.1273258E+04  0.7818609E-02  0.9051045E-01
        2   -1    0    0  501    0  0.00000000000E+00  0.00000000000E+00  0.48031789370E+03  0.48031789371E+03  0.25500000920E-02 0. -1.
       -2   -1    0    0    0  501  0.00000000000E+00  0.00000000000E+00 -0.84380931012E+03  0.84380931013E+03  0.25500000920E-02 0.  1.
    10030    2    1    2    0    0  0.00000000000E+00  0.00000000000E+00 -0.36349141642E+03  0.13241272038E+04  0.12732583564E+04 0.  0.
        3    1    3    3  502    0 -0.20728722622E+03 -0.13495072431E+02 -0.80757425970E+03  0.83386228256E+03  0.10100000352E+00 0.  1.
       -3    1    3    3    0  502  0.20728722622E+03  0.13495072431E+02  0.44408284329E+03  0.49026492128E+03  0.10100000352E+00 0. -1.
</event>
<event>
 5   0  0.1667342E-03  0.1272934E+04  0.7818609E-02  0.9051309E-01
        2   -1    0    0  501    0  0.00000000000E+00  0.00000000000E+00  0.92076534792E+03  0.92076534792E+03  0.25500000920E-02 0. -1.
       -2   -1    0    0    0  501  0.00000000000E+00  0.00000000000E+00 -0.43994924297E+03  0.43994924298E+03  0.25500000920E-02 0.  1.
    10030    2    1    2    0    0  0.00000000000E+00  0.00000000000E+00  0.48081610494E+03  0.13607145909E+04  0.12729336476E+04 0.  0.
        5    1    3    3  502    0 -0.14284087300E+02  0.24209577377E+02  0.92008292792E+03  0.92052421100E+03  0.46999998093E+01 0. -1.
       -5    1    3    3    0  502  0.14284087300E+02 -0.24209577377E+02 -0.43926682298E+03  0.44019037990E+03  0.46999998093E+01 0.  1.
</event>
<event>
 5   0  0.1700511E-03  0.1299783E+04  0.7818609E-02  0.9029737E-01
        2   -1    0    0  501    0  0.00000000000E+00  0.00000000000E+00  0.13588556004E+04  0.13588556004E+04  0.25500000920E-02 0.  1.
       -2   -1    0    0    0  501  0.00000000000E+00  0.00000000000E+00 -0.31081969549E+03  0.31081969550E+03  0.25500000920E-02 0. -1.
    10030    2    1    2    0    0  0.00000000000E+00  0.00000000000E+00  0.10480359049E+04  0.16696752959E+04  0.12997831880E+04 0.  0.
        2    1    3    3  502    0  0.58021896306E+03 -0.15212011791E+03  0.20270729927E+03  0.63315466085E+03  0.25500000920E-02 0. -1.
       -2    1    3    3    0  502 -0.58021896306E+03  0.15212011791E+03  0.84532860562E+03  0.10365206350E+04  0.25500000920E-02 0.  1.
</event>
<event>
 5   0  0.9110949E-04  0.1268398E+04  0.7818609E-02  0.9055009E-01
        1   -1    0    0  501    0  0.00000000000E+00  0.00000000000E+00  0.66043099186E+03  0.66043099188E+03  0.50400001928E-02 0. -1.
       -1   -1    0    0    0  501  0.00000000000E+00  0.00000000000E+00 -0.60900846881E+03  0.60900846883E+03  0.50400001928E-02 0.  1.
    10030    2    1    2    0    0  0.00000000000E+00  0.00000000000E+00  0.51422523049E+02  0.12694394607E+04  0.12683975199E+04 0.  0.
        2    1    3    3  502    0 -0.31745874274E+03 -0.31563242353E+03  0.47530649310E+03  0.65293195857E+03  0.25500000920E-02 0. -1.
       -2    1    3    3    0  502  0.31745874274E+03  0.31563242353E+03 -0.42388397005E+03  0.61650750214E+03  0.25500000920E-02 0.  1.
</event>
<event>
 5   0  0.1714861E-03  0.1298910E+04  0.7818609E-02  0.9030430E-01
        2   -1    0    0  501    0  0.00000000000E+00  0.00000000000E+00  0.51521500300E+03  0.51521500301E+03  0.25500000920E-02 0.  1.
       -2   -1    0    0    0  501  0.00000000000E+00  0.00000000000E+00 -0.81867186264E+03  0.81867186265E+03  0.25500000920E-02 0. -1.
    10030    2    1    2    0    0  0.00000000000E+00  0.00000000000E+00 -0.30345685964E+03  0.13338868657E+04  0.12989103528E+04 0.  0.
        1    1    3    3  502    0  0.22760552765E+03  0.55167973895E+03 -0.41482482192E+03  0.72679738820E+03  0.50400001928E-02 0. -1.
       -1    1    3    3    0  502 -0.22760552765E+03 -0.55167973895E+03  0.11136796228E+03  0.60708947745E+03  0.50400001928E-02 0.  1.
</event>
<event>
 5   0  0.6284125E-04  0.1321863E+04  0.7818609E-02  0.9012405E-01
        3   -1    0    0  501    0  0.00000000000E+00  0.00000000000E+00  0.34199884959E+03  0.34199886450E+03  0.10100000352E+00 0.  1.
       -3   -1    0    0    0  501  0.00000000000E+00  0.00000000000E+00 -0.12772865645E+04  0.12772865685E+04  0.10100000352E+00 0. -1.
    10030    2    1    2    0    0  0.00000000000E+00  0.00000000000E+00 -0.93528771496E+03  0.16192854330E+04  0.13218631563E+04 0.  0.
        1    1    3    3  502    0 -0.43014497331E+03 -0.29239752185E+03 -0.96721287362E+03  0.10981902166E+04  0.50400001928E-02 0. -1.
       -1    1    3    3    0  502  0.43014497331E+03  0.29239752185E+03  0.31925158662E+02  0.52109521647E+03  0.50400001928E-02 0.  1.
</event>
<event>
 5   0  0.9110949E-04  0.1305910E+04  0.7818609E-02  0.9024892E-01
       -1   -1    0    0    0  501  0.00000000000E+00  0.00000000000E+00  0.24508334550E+03  0.24508334555E+03  0.50400001928E-02 0. -1.
        1   -1    0    0  501    0  0.00000000000E+00  0.00000000000E+00 -0.17396132250E+04  0.17396132250E+04  0.50400001928E-02 0.  1.
    10030    2    1    2    0    0  0.00000000000E+00  0.00000000000E+00 -0.14945298795E+04  0.19846965706E+04  0.13059099956E+04 0.  0.
        2    1    3    3  502    0 -0.49029694204E+03 -0.40471657185E+03 -0.97352159375E+03  0.11627256290E+04  0.25500000920E-02 0. -1.
       -2    1    3    3    0  502  0.49029694204E+03  0.40471657185E+03 -0.52100828579E+03  0.82197094156E+03  0.25500000920E-02 0.  1.
</event>
<event>
 5   0  0.9098192E-04  0.1284611E+04  0.7818609E-02  0.9041858E-01
       -1   -1    0    0    0  501  0.00000000000E+00  0.00000000000E+00  0.70280660047E+03  0.70280660048E+03  0.50400001928E-02 0. -1.
        1   -1    0    0  501    0  0.00000000000E+00  0.00000000000E+00 -0.58701285654E+03  0.58701285656E+03  0.50400001928E-02 0.  1.
    10030    2    1    2    0    0  0.00000000000E+00  0.00000000000E+00  0.11579374393E+03  0.12898194570E+04  0.12846112410E+04 0.  0.
        1    1    3    3  502    0  0.59732365182E+03  0.90513646736E+02 -0.16108883504E+03  0.62525025235E+03  0.50400001928E-02 0.  1.
       -1    1    3    3    0  502 -0.59732365182E+03 -0.90513646736E+02  0.27688257897E+03  0.66456920469E+03  0.50400001928E-02 0. -1.
</event>
<event>
 5   0  0.9215829E-04  0.1299640E+04  0.7818609E-02  0.9029851E-01
       -1   -1    0    0    0  501  0.00000000000E+00  0.00000000000E+00  0.45729225659E+03  0.45729225661E+03  0.50400001928E-02 0. -1.
        1   -1    0    0  501    0  0.00000000000E+00  0.00000000000E+00 -0.92340538845E+03  0.92340538846E+03  0.50400001928E-02 0.  1.
    10030    2    1    2    0    0  0.00000000000E+00  0.00000000000E+00 -0.46611313186E+03  0.13806976451E+04  0.12996401561E+04 0.  0.
        3    1    3    3  502    0 -0.89356647759E+02 -0.34543839418E+03 -0.81002556872E+03  0.88512921478E+03  0.10100000352E+00 0.  1.
       -3    1    3    3    0  502  0.89356647759E+02  0.34543839418E+03  0.34391243686E+03  0.49556843029E+03  0.10100000352E+00 0. -1.
</event>
<event>
 5   0  0.9110949E-04  0.1305237E+04  0.7818609E-02  0.9025422E-01
        1   -1    0    0  501    0  0.00000000000E+00  0.00000000000E+00  0.94010522457E+03  0.94010522458E+03  0.50400001928E-02 0. -1.
       -1   -1    0    0    0  501  0.00000000000E+00  0.00000000000E+00 -0.45304632886E+03  0.45304632889E+03  0.50400001928E-02 0.  1.
    10030    2    1    2    0    0  0.00000000000E+00  0.00000000000E+00  0.48705889571E+03  0.13931515535E+04  0.13052374815E+04 0.  0.
        2    1    3    3  502    0 -0.34980598619E+03  0.21607077669E+03 -0.29742091269E+03  0.50745443916E+03  0.25500000920E-02 0.  1.
       -2    1    3    3    0  502  0.34980598619E+03 -0.21607077669E+03  0.78447980840E+03  0.88569711431E+03  0.25500000920E-02 0. -1.
</event>
<event>
 5   0  0.9215829E-04  0.1310319E+04  0.7818609E-02  0.9021422E-01
       -1   -1    0    0    0  501  0.00000000000E+00  0.00000000000E+00  0.41787702766E+03  0.41787702769E+03  0.50400001928E-02 0. -1.
        1   -1    0    0  501    0  0.00000000000E+00  0.00000000000E+00 -0.10271776764E+04  0.10271776764E+04  0.50400001928E-02 0.  1.
    10030    2    1    2    0    0  0.00000000000E+00  0.00000000000E+00 -0.60930064877E+03  0.14450547041E+04  0.13103189754E+04 0.  0.
        3    1    3    3  502    0  0.28054796944E+02 -0.63295242841E+03 -0.48858811163E+03  0.80008387141E+03  0.10100000352E+00 0.  1.
       -3    1    3    3    0  502 -0.28054796944E+02  0.63295242841E+03 -0.12071253714E+03  0.64497083274E+03  0.10100000352E+00 0. -1.
</event>
<event>
 5   0  0.9081324E-04  0.1296216E+04  0.7818609E-02  0.9032571E-01
       -1   -1    0    0    0  501  0.00000000000E+00  0.00000000000E+00  0.32467515841E+03  0.32467515844E+03  0.50400001928E-02 0. -1.
        1   -1    0    0  501    0  0.00000000000E+00  0.00000000000E+00 -0.12937360622E+04  0.12937360622E+04  0.50400001928E-02 0.  1.
    10030    2    1    2    0    0  0.00000000000E+00  0.00000000000E+00 -0.96906090376E+03  0.16184112206E+04  0.12962159711E+04 0.  0.
        4    1    3    3  502    0  0.10240882386E+03 -0.58259360984E+03 -0.15386201528E+03  0.61121028630E+03  0.12699999809E+01 0. -1.
       -4    1    3    3    0  502 -0.10240882386E+03  0.58259360984E+03 -0.81519888848E+03  0.10072009343E+04  0.12699999809E+01 0.  1.
</event>
<event>
 5   0  0.9110949E-04  0.1301072E+04  0.7818609E-02  0.9028715E-01
       -1   -1    0    0    0  501  0.00000000000E+00  0.00000000000E+00  0.40500549305E+03  0.40500549308E+03  0.50400001928E-02 0.  1.
        1   -1    0    0  501    0  0.00000000000E+00  0.00000000000E+00 -0.10449171399E+04  0.10449171400E+04  0.50400001928E-02 0. -1.
    10030    2    1    2    0    0  0.00000000000E+00  0.00000000000E+00 -0.63991164690E+03  0.14499226330E+04  0.13010721448E+04 0.  0.
        2    1    3    3  502    0  0.15671614218E+03  0.24122822823E+03 -0.97018683607E+03  0.10119355237E+04  0.25500000920E-02 0. -1.
       -2    1    3    3    0  502 -0.15671614218E+03 -0.24122822823E+03  0.33027518917E+03  0.43798710929E+03  0.25500000920E-02 0.  1.
</event>
<event>
 5   0  0.1700511E-03  0.1303720E+04  0.7818609E-02  0.9026620E-01
        2   -1    0    0  501    0  0.00000000000E+00  0.00000000000E+00  0.23403943740E+04  0.23403943740E+04  0.25500000920E-02 0. -1.
       -2   -1    0    0    0  501  0.00000000000E+00  0.00000000000E+00 -0.18155985317E+03  0.18155985319E+03  0.25500000920E-02 0.  1.
    10030    2    1    2    0    0  0.00000000000E+00  0.00000000000E+00  0.21588345209E+04  0.25219542272E+04  0.13037203058E+04 0.  0.
        2    1    3    3  502    0  0.52614630638E+03  0.37592177253E+03  0.12386354966E+04  0.13972705566E+04  0.25500000920E-02 0. -1.
       -2    1    3    3    0  502 -0.52614630638E+03 -0.37592177253E+03  0.92019902422E+03  0.11246836706E+04  0.25500000920E-02 0.  1.
</event>
<event>
 5   0  0.9110949E-04  0.1366243E+04  0.7818609E-02  0.8978623E-01
        1   -1    0    0  501    0  0.00000000000E+00  0.00000000000E+00  0.47217103117E+03  0.47217103120E+03  0.50400001928E-02 0.  1.
       -1   -1    0    0    0  501  0.00000000000E+00  0.00000000000E+00 -0.98831707705E+03  0.98831707707E+03  0.50400001928E-02 0. -1.
    10030    2    1    2    0    0  0.00000000000E+00  0.00000000000E+00 -0.51614604588E+03  0.14604881083E+04  0.13662425750E+04 0.  0.
        2    1    3    3  502    0  0.10151491264E+03 -0.34864073235E+02  0.46310055787E+03  0.47537659576E+03  0.25500000920E-02 0.  1.
       -2    1    3    3    0  502 -0.10151491264E+03  0.34864073235E+02 -0.97924660376E+03  0.98511151250E+03  0.25500000920E-02 0. -1.
</event>
<event>
 5   0  0.9027076E-04  0.1293324E+04  0.7818609E-02  0.9034876E-01
        1   -1    0    0  501    0  0.00000000000E+00  0.00000000000E+00  0.56036748522E+03  0.56036748524E+03  0.50400001928E-02 0.  1.
       -1   -1    0    0    0  501  0.00000000000E+00  0.00000000000E+00 -0.74624578147E+03  0.74624578149E+03  0.50400001928E-02 0. -1.
    10030    2    1    2    0    0  0.00000000000E+00  0.00000000000E+00 -0.18587829625E+03  0.13066132667E+04  0.12933242006E+04 0.  0.
        5    1    3    3  502    0  0.17364378848E+03  0.46690668194E+03  0.32360277046E+03  0.59404954168E+03  0.46999998093E+01 0.  1.
       -5    1    3    3    0  502 -0.17364378848E+03 -0.46690668194E+03 -0.50948106671E+03  0.71256372505E+03  0.46999998093E+01 0. -1.
</event>
<event>
 5   0  0.6284125E-04  0.1296017E+04  0.7818609E-02  0.9032730E-01
       -3   -1    0    0    0  501  0.00000000000E+00  0.00000000000E+00  0.64851062439E+03  0.64851063226E+03  0.10100000352E+00 0.  1.
        3   -1    0    0  501    0  0.00000000000E+00  0.00000000000E+00 -0.64750659908E+03  0.64750660696E+03  0.10100000352E+00 0. -1.
    10030    2    1    2    0    0  0.00000000000E+00  0.00000000000E+00  0.10040253083E+01  0.12960172392E+04  0.12960168503E+04 0.  0.
        4    1    3    3  502    0  0.15548064511E+03 -0.51626101063E+03 -0.35896108923E+03  0.64773014334E+03  0.12699999809E+01 0.  1.
       -4    1    3    3    0  502 -0.15548064511E+03  0.51626101063E+03  0.35996511454E+03  0.64828709588E+03  0.12699999809E+01 0. -1.
</event>
<event>
 5   0  0.1623890E-03  0.1350878E+04  0.7818609E-02  0.8990164E-01
       -2   -1    0    0    0  501  0.00000000000E+00  0.00000000000E+00  0.63706603999E+03  0.63706604000E+03  0.25500000920E-02 0. -1.
        2   -1    0    0  501    0  0.00000000000E+00  0.00000000000E+00 -0.71612308478E+03  0.71612308479E+03  0.25500000920E-02 0.  1.
    10030    2    1    2    0    0  0.00000000000E+00  0.00000000000E+00 -0.79057044794E+02  0.13531891248E+04  0.13508777854E+04 0.  0.
        3    1    3    3  502    0  0.12112527335E+03  0.28119789844E+03 -0.64261685625E+03  0.71182864797E+03  0.10100000352E+00 0.  1.
       -3    1    3    3    0  502 -0.12112527335E+03 -0.28119789844E+03  0.56355981146E+03  0.64136047682E+03  0.10100000352E+00 0. -1.
</event>
<event>
 5   0  0.1623890E-03  0.1330436E+04  0.7818609E-02  0.9005771E-01
        2   -1    0    0  501    0  0.00000000000E+00  0.00000000000E+00  0.13009801387E+04  0.13009801387E+04  0.25500000920E-02 0. -1.
       -2   -1    0    0    0  501  0.00000000000E+00  0.00000000000E+00 -0.34013975048E+03  0.34013975049E+03  0.25500000920E-02 0.  1.
    10030    2    1    2    0    0  0.00000000000E+00  0.00000000000E+00  0.96084038822E+03  0.16411198892E+04  0.13304361086E+04 0.  0.
        3    1    3    3  502    0  0.35659912571E+03 -0.25765054056E+03 -0.13506601025E+03  0.46020601346E+03  0.10100000352E+00 0.  1.
       -3    1    3    3    0  502 -0.35659912571E+03  0.25765054056E+03  0.10959063985E+04  0.11809138757E+04  0.10100000352E+00 0. -1.
</event>
<event>
 5   0  0.1694675E-03  0.1255031E+04  0.7818609E-02  0.9066007E-01
        2   -1    0    0  501    0  0.00000000000E+00  0.00000000000E+00  0.15847167360E+04  0.15847167360E+04  0.25500000920E-02 0. -1.
       -2   -1    0    0    0  501  0.00000000000E+00  0.00000000000E+00 -0.24848315362E+03  0.24848315363E+03  0.25500000920E-02 0.  1.
    10030    2    1    2    0    0  0.00000000000E+00  0.00000000000E+00  0.13362335824E+04  0.18331998896E+04  0.12550305370E+04 0.  0.
        4    1    3    3  502    0 -0.18065359974E+02  0.37529018422E+03  0.14022523492E+04  0.14517170328E+04  0.12699999809E+01 0. -1.
       -4    1    3    3    0  502  0.18065359974E+02 -0.37529018422E+03 -0.66018766798E+02  0.38148285685E+03  0.12699999809E+01 0.  1.
</event>
<event>
 5   0  0.1623890E-03  0.1280095E+04  0.7818609E-02  0.9045501E-01
        2   -1    0    0  501    0  0.00000000000E+00  0.00000000000E+00  0.12091532084E+04  0.12091532084E+04  0.25500000920E-02 0. -1.
       -2   -1    0    0    0  501  0.00000000000E+00  0.00000000000E+00 -0.33879976124E+03  0.33879976125E+03  0.25500000920E-02 0.  1.
    10030    2    1    2    0    0  0.00000000000E+00  0.00000000000E+00  0.87035344712E+03  0.15479529696E+04  0.12800950251E+04 0.  0.
        3    1    3    3  502    0 -0.60797050910E+03  0.13172401022E+03  0.61729393467E+03  0.87637387386E+03  0.10100000352E+00 0. -1.
       -3    1    3    3    0  502  0.60797050910E+03 -0.13172401022E+03  0.25305951245E+03  0.67157909575E+03  0.10100000352E+00 0.  1.
</event>
<event>
 5   0  0.1714861E-03  0.1318623E+04  0.7818609E-02  0.9014926E-01
       -2   -1    0    0    0  501  0.00000000000E+00  0.00000000000E+00  0.18455788717E+03  0.18455788718E+03  0.25500000920E-02 0. -1.
        2   -1    0    0  501    0  0.00000000000E+00  0.00000000000E+00 -0.23553139455E+04  0.23553139455E+04  0.25500000920E-02 0.  1.
    10030    2    1    2    0    0  0.00000000000E+00  0.00000000000E+00 -0.21707560583E+04  0.25398718327E+04  0.13186231689E+04 0.  0.
        1    1    3    3  502    0 -0.58394670944E+03  0.41295555350E+02 -0.50116970300E+03  0.77062971237E+03  0.50400001928E-02 0. -1.
       -1    1    3    3    0  502  0.58394670944E+03 -0.41295555350E+02 -0.16695863553E+04  0.17692421203E+04  0.50400001928E-02 0.  1.
</event>
<event>
 5   0  0.1667342E-03  0.1299265E+04  0.7818609E-02  0.9030148E-01
        2   -1    0    0  501    0  0.00000000000E+00  0.00000000000E+00  0.17242474508E+04  0.17242474508E+04  0.25500000920E-02 0. -1.
       -2   -1    0    0    0  501  0.00000000000E+00  0.00000000000E+00 -0.24475748392E+03  0.24475748394E+03  0.25500000920E-02 0.  1.
    10030    2    1    2    0    0  0.00000000000E+00  0.00000000000E+00  0.14794899669E+04  0.19690049347E+04  0.12992651273E+04 0.  0.
        5    1    3    3  502    0 -0.20561828196E+03  0.51724372849E+03  0.12473285622E+04  0.13658955248E+04  0.46999998093E+01 0. -1.
       -5    1    3    3    0  502  0.20561828196E+03 -0.51724372849E+03  0.23216140463E+03  0.60310940992E+03  0.46999998093E+01 0.  1.
</event>
<event>
 5   0  0.1667342E-03  0.1300455E+04  0.7818609E-02  0.9029204E-01
        2   -1    0    0  501    0  0.00000000000E+00  0.00000000000E+00  0.10517824145E+04  0.10517824145E+04  0.25500000920E-02 0. -1.
       -2   -1    0    0    0  501  0.00000000000E+00  0.00000000000E+00 -0.40198034287E+03  0.40198034288E+03  0.25500000920E-02 0.  1.
    10030    2    1    2    0    0  0.00000000000E+00  0.00000000000E+00  0.64980207167E+03  0.14537627574E+04  0.13004550829E+04 0.  0.
        5    1    3    3  502    0  0.47476371233E+03  0.14226448584E+01  0.82153912961E+03  0.94886839864E+03  0.46999998093E+01 0. -1.
       -5    1    3    3    0  502 -0.47476371233E+03 -0.14226448584E+01 -0.17173705794E+03  0.50489435878E+03  0.46999998093E+01 0.  1.
</event>
<event>
 5   0  0.9215829E-04  0.1322699E+04  0.7818609E-02  0.9011756E-01
       -1   -1    0    0    0  501  0.00000000000E+00  0.00000000000E+00  0.10156121475E+04  0.10156121475E+04  0.50400001928E-02 0. -1.
        1   -1    0    0  501    0  0.00000000000E+00  0.00000000000E+00 -0.43065957444E+03  0.43065957447E+03  0.50400001928E-02 0.  1.
    10030    2    1    2    0    0  0.00000000000E+00  0.00000000000E+00  0.58495257307E+03  0.14462717220E+04  0.13226989004E+04 0.  0.
        3    1    3    3  502    0  0.30634531064E+03  0.45075779204E+03  0.70211390024E+03  0.88881605270E+03  0.10100000352E+00 0. -1.
       -3    1    3    3    0  502 -0.30634531064E+03 -0.45075779204E+03 -0.11716132717E+03  0.55745566928E+03  0.10100000352E+00 0.  1.
</event>
<event>
 5   0  0.9098192E-04  0.1311384E+04  0.7818609E-02  0.9020586E-01
        1   -1    0    0  501    0  0.00000000000E+00  0.00000000000E+00  0.71169348153E+03  0.71169348155E+03  0.50400001928E-02 0. -1.
       -1   -1    0    0    0  501  0.00000000000E+00  0.00000000000E+00 -0.60409712706E+03  0.60409712708E+03  0.50400001928E-02 0.  1.
    10030    2    1    2    0    0  0.00000000000E+00  0.00000000000E+00  0.10759635447E+03  0.13157906086E+04  0.13113839828E+04 0.  0.
        1    1    3    3  502    0  0.49872846077E+03  0.17959096491E+03 -0.33343779699E+03  0.62622979548E+03  0.50400001928E-02 0.  1.
       -1    1    3    3    0  502 -0.49872846077E+03 -0.17959096491E+03  0.44103415146E+03  0.68956081316E+03  0.50400001928E-02 0. -1.
</event>
<event>
 5   0  0.9215829E-04  0.1306255E+04  0.7818609E-02  0.9024620E-01
        1   -1    0    0  501    0  0.00000000000E+00  0.00000000000E+00  0.10828611279E+04  0.10828611279E+04  0.50400001928E-02 0. -1.
       -1   -1    0    0    0  501  0.00000000000E+00  0.00000000000E+00 -0.39393368773E+03  0.39393368776E+03  0.50400001928E-02 0.  1.
    10030    2    1    2    0    0  0.00000000000E+00  0.00000000000E+00  0.68892744013E+03  0.14767948156E+04  0.13062549176E+04 0.  0.
        3    1    3    3  502    0 -0.15763844765E+03  0.12578228796E+03 -0.35785151184E+03  0.41076608778E+03  0.10100000352E+00 0.  1.
       -3    1    3    3    0  502  0.15763844765E+03 -0.12578228796E+03  0.10467789520E+04  0.10660287279E+04  0.10100000352E+00 0. -1.
</event>
<event>
 5   0  0.9098192E-04  0.1291080E+04  0.7818609E-02  0.9036669E-01
        1   -1    0    0  501    0  0.00000000000E+00  0.00000000000E+00  0.14883985960E+04  0.14883985960E+04  0.50400001928E-02 0. -1.
       -1   -1    0    0    0  501  0.00000000000E+00  0.00000000000E+00 -0.27998007256E+03  0.27998007261E+03  0.50400001928E-02 0.  1.
    10030    2    1    2    0    0  0.00000000000E+00  0.00000000000E+00  0.12084185234E+04  0.17683786686E+04  0.12910800858E+04 0.  0.
        1    1    3    3  502    0  0.46914850320E+03  0.96106803149E+02  0.11298100768E+02  0.47902451166E+03  0.50400001928E-02 0.  1.
       -1    1    3    3    0  502 -0.46914850320E+03 -0.96106803149E+02  0.11971204227E+04  0.12893541570E+04  0.50400001928E-02 0. -1.
</event>
<event>
 5   0  0.9081324E-04  0.1299212E+04  0.7818609E-02  0.9030191E-01
        1   -1    0    0  501    0  0.00000000000E+00  0.00000000000E+00  0.10115877267E+04  0.10115877267E+04  0.50400001928E-02 0. -1.
       -1   -1    0    0    0  501  0.00000000000E+00  0.00000000000E+00 -0.41715391085E+03  0.41715391088E+03  0.50400001928E-02 0.  1.
    10030    2    1    2    0    0  0.00000000000E+00  0.00000000000E+00  0.59443381583E+03  0.14287416376E+04  0.12992117247E+04 0.  0.
        4    1    3    3  502    0 -0.76970289823E+02 -0.62309389678E+02  0.10032366535E+04  0.10081132285E+04  0.12699999809E+01 0. -1.
       -4    1    3    3    0  502  0.76970289823E+02  0.62309389678E+02 -0.40880283768E+03  0.42062840911E+03  0.12699999809E+01 0.  1.
</event>
<event>
 5   0  0.1694675E-03  0.1358720E+04  0.7818609E-02  0.8984254E-01
        2   -1    0    0  501    0  0.00000000000E+00  0.00000000000E+00  0.91224295252E+03  0.91224295253E+03  0.25500000920E-02 0. -1.
       -2   -1    0    0    0  501  0.00000000000E+00  0.00000000000E+00 -0.50592852528E+03  0.50592852528E+03  0.25500000920E-02 0.  1.
    10030    2    1    2    0    0  0.00000000000E+00  0.00000000000E+00  0.40631442725E+03  0.14181714778E+04  0.13587195909E+04 0.  0.
        4    1    3    3  502    0  0.24345921379E+03 -0.40030639505E+03  0.71662834524E+03  0.85619822284E+03  0.12699999809E+01 0. -1.
       -4    1    3    3    0  502 -0.24345921379E+03  0.40030639505E+03 -0.31031391799E+03  0.56197325497E+03  0.12699999809E+01 0.  1.
</event>
<event>
 5   0  0.1667342E-03  0.1292512E+04  0.7818609E-02  0.9035525E-01
       -2   -1    0    0    0  501  0.00000000000E+00  0.00000000000E+00  0.52900702534E+03  0.52900702534E+03  0.25500000920E-02 0.  1.
        2   -1    0    0  501    0  0.00000000000E+00  0.00000000000E+00 -0.78949143852E+03  0.78949143852E+03  0.25500000920E-02 0. -1.
    10030    2    1    2    0    0  0.00000000000E+00  0.00000000000E+00 -0.26048441318E+03  0.13184984639E+04  0.12925115356E+04 0.  0.
        5    1    3    3  502    0  0.59768164529E+03 -0.17042952310E+03 -0.31087541892E+03  0.69493538372E+03  0.46999998093E+01 0. -1.
       -5    1    3    3    0  502 -0.59768164529E+03  0.17042952310E+03  0.50391005736E+02  0.62356308014E+03  0.46999998093E+01 0.  1.
</event>
<event>
 5   0  0.9098192E-04  0.1260065E+04  0.7818609E-02  0.9061848E-01
        1   -1    0    0  501    0  0.00000000000E+00  0.00000000000E+00  0.64131766998E+03  0.64131767000E+03  0.50400001928E-02 0.  1.
       -1   -1    0    0    0  501  0.00000000000E+00  0.00000000000E+00 -0.61894542255E+03  0.61894542257E+03  0.50400001928E-02 0. -1.
    10030    2    1    2    0    0  0.00000000000E+00  0.00000000000E+00  0.22372247429E+02  0.12602630926E+04  0.12600645003E+04 0.  0.
        1    1    3    3  502    0 -0.24365713083E+03 -0.26993077171E+03 -0.50339396021E+03  0.62099669736E+03  0.50400001928E-02 0. -1.
       -1    1    3    3    0  502  0.24365713083E+03  0.26993077171E+03  0.52576620764E+03  0.63926639521E+03  0.50400001928E-02 0.  1.
</event>
<event>
 5   0  0.1623890E-03  0.1292442E+04  0.7818609E-02  0.9035580E-01
        2   -1    0    0  501    0  0.00000000000E+00  0.00000000000E+00  0.39717720819E+03  0.39717720820E+03  0.25500000920E-02 0.  1.
       -2   -1    0    0    0  501  0.00000000000E+00  0.00000000000E+00 -0.10514243076E+04  0.10514243076E+04  0.25500000920E-02 0. -1.
    10030    2    1    2    0    0  0.00000000000E+00  0.00000000000E+00 -0.65424709938E+03  0.14486015158E+04  0.12924422944E+04 0.  0.
        3    1    3    3  502    0 -0.21793948595E+03  0.36629824245E+03 -0.87153733960E+03  0.97018006909E+03  0.10100000352E+00 0. -1.
       -3    1    3    3    0  502  0.21793948595E+03 -0.36629824245E+03  0.21729024022E+03  0.47842144669E+03  0.10100000352E+00 0.  1.
</event>
<event>
 5   0  0.1714861E-03  0.1304713E+04  0.7818609E-02  0.9025836E-01
       -2   -1    0    0    0  501  0.00000000000E+00  0.00000000000E+00  0.75317227102E+03  0.75317227103E+03  0.25500000920E-02 0.  1.
        2   -1    0    0  501    0  0.00000000000E+00  0.00000000000E+00 -0.56503511733E+03  0.56503511734E+03  0.25500000920E-02 0. -1.
    10030    2    1    2    0    0  0.00000000000E+00  0.00000000000E+00  0.18813715369E+03  0.13182073884E+04  0.13047126619E+04 0.  0.
        1    1    3    3  502    0  0.69257851512E+02 -0.40404866543E+03  0.60677841972E+03  0.73227865235E+03  0.50400001928E-02 0.  1.
       -1    1    3    3    0  502 -0.69257851512E+02  0.40404866543E+03 -0.41864126603E+03  0.58592873601E+03  0.50400001928E-02 0. -1.
</event>
<event>
 5   0  0.1700511E-03  0.1360788E+04  0.7818609E-02  0.8982702E-01
       -2   -1    0    0    0  501  0.00000000000E+00  0.00000000000E+00  0.29110937864E+03  0.29110937865E+03  0.25500000920E-02 0. -1.
        2   -1    0    0  501    0  0.00000000000E+00  0.00000000000E+00 -0.15902477608E+04  0.15902477608E+04  0.25500000920E-02 0.  1.
    10030    2    1    2    0    0  0.00000000000E+00  0.00000000000E+00 -0.12991383821E+04  0.18813571394E+04  0.13607880622E+04 0.  0.
        2    1    3    3  502    0  0.16662713658E+03  0.65618392906E+03 -0.74327797924E+03  0.10053875401E+04  0.25500000920E-02 0.  1.
       -2    1    3    3    0  502 -0.16662713658E+03 -0.65618392906E+03 -0.55586040289E+03  0.87596959931E+03  0.25500000920E-02 0. -1.
</event>
<event>
 5   0  0.9110949E-04  0.1296749E+04  0.7818609E-02  0.9032147E-01
        1   -1    0    0  501    0  0.00000000000E+00  0.00000000000E+00  0.11957880074E+04  0.11957880075E+04  0.50400001928E-02 0.  1.
       -1   -1    0    0    0  501  0.00000000000E+00  0.00000000000E+00 -0.35155836812E+03  0.35155836816E+03  0.50400001928E-02 0. -1.
    10030    2    1    2    0    0  0.00000000000E+00  0.00000000000E+00  0.84422963932E+03  0.15473463756E+04  0.12967486735E+04 0.  0.
        2    1    3    3  502    0  0.27541399859E+03  0.58695299445E+03  0.42778649422E+03  0.77676764412E+03  0.25500000920E-02 0. -1.
       -2    1    3    3    0  502 -0.27541399859E+03 -0.58695299445E+03  0.41644314510E+03  0.77057873149E+03  0.25500000920E-02 0.  1.
</event>
<event>
 5   0  0.9081324E-04  0.1300093E+04  0.7818609E-02  0.9029492E-01
       -1   -1    0    0    0  501  0.00000000000E+00  0.00000000000E+00  0.90477169473E+03  0.90477169475E+03  0.50400001928E-02 0. -1.
        1   -1    0    0  501    0  0.00000000000E+00  0.00000000000E+00 -0.46703516049E+03  0.46703516052E+03  0.50400001928E-02 0.  1.
    10030    2    1    2    0    0  0.00000000000E+00  0.00000000000E+00  0.43773653424E+03  0.13718068553E+04  0.13000926024E+04 0.  0.
        4    1    3    3  502    0  0.61381955919E+03  0.17322197561E+03  0.86327809476E+02  0.64361044714E+03  0.12699999809E+01 0. -1.
       -4    1    3    3    0  502 -0.61381955919E+03 -0.17322197561E+03  0.35140872476E+03  0.72819640813E+03  0.12699999809E+01 0.  1.
</event>
<event>
 5   0  0.1667342E-03  0.1265117E+04  0.7818609E-02  0.9057695E-01
        2   -1    0    0  501    0  0.00000000000E+00  0.00000000000E+00  0.75990290369E+03  0.75990290369E+03  0.25500000920E-02 0.  1.
       -2   -1    0    0    0  501  0.00000000000E+00  0.00000000000E+00 -0.52655424082E+03  0.52655424083E+03  0.25500000920E-02 0. -1.
    10030    2    1    2    0    0  0.00000000000E+00  0.00000000000E+00  0.23334866287E+03  0.12864571445E+04  0.12651167481E+04 0.  0.
        5    1    3    3  502    0  0.75349961035E+02 -0.44267536006E+03  0.56968764581E+03  0.72540002400E+03  0.46999998093E+01 0.  1.
       -5    1    3    3    0  502 -0.75349961035E+02  0.44267536006E+03 -0.33633898295E+03  0.56105712051E+03  0.46999998093E+01 0. -1.
</event>
<event>
 5   0  0.6284125E-04  0.1310737E+04  0.7818609E-02  0.9021094E-01
        4   -1    0    0  501    0  0.00000000000E+00  0.00000000000E+00  0.19925730133E+04  0.19925734180E+04  0.12699999809E+01 0. -1.
       -4   -1    0    0    0  501  0.00000000000E+00  0.00000000000E+00 -0.21555213530E+03  0.21555587659E+03  0.12699999809E+01 0.  1.
    10030    2    1    2    0    0  0.00000000000E+00  0.00000000000E+00  0.17770208780E+04  0.22081292946E+04  0.13107371136E+04 0.  0.
        5    1    3    3  502    0 -0.52751507919E+03  0.19118261675E+03  0.31805677990E+03  0.64498461761E+03  0.46999998093E+01 0.  1.
       -5    1    3    3    0  502  0.52751507919E+03 -0.19118261675E+03  0.14589640981E+04  0.15631446770E+04  0.46999998093E+01 0. -1.
</event>
<event>
 5   0  0.9027076E-04  0.1304937E+04  0.7818609E-02  0.9025659E-01
       -1   -1    0    0    0  501  0.00000000000E+00  0.00000000000E+00  0.99251845926E+03  0.99251845927E+03  0.50400001928E-02 0. -1.
        1   -1    0    0  501    0  0.00000000000E+00  0.00000000000E+00 -0.42892428867E+03  0.42892428870E+03  0.50400001928E-02 0.  1.
    10030    2    1    2    0    0  0.00000000000E+00  0.00000000000E+00  0.56359417059E+03  0.14214427480E+04  0.13049372003E+04 0.  0.
        5    1    3    3  502    0 -0.60179449500E+03  0.16331294693E+03  0.72651097435E+02  0.62779614908E+03  0.46999998093E+01 0.  1.
       -5    1    3    3    0  502  0.60179449500E+03 -0.16331294693E+03  0.49094307315E+03  0.79364659888E+03  0.46999998093E+01 0. -1.
</event>
<event>
 5   0  0.9081324E-04  0.1304749E+04  0.7818609E-02  0.9025807E-01
       -1   -1    0    0    0  501  0.00000000000E+00  0.00000000000E+00  0.26459280972E+03  0.26459280977E+03  0.50400001928E-02 0.  1.
        1   -1    0    0  501    0  0.00000000000E+00  0.00000000000E+00 -0.16084813227E+04  0.16084813227E+04  0.50400001928E-02 0. -1.
    10030    2    1    2    0    0  0.00000000000E+00  0.00000000000E+00 -0.13438885129E+04  0.18730741324E+04  0.13047491599E+04 0.  0.
        4    1    3    3  502    0 -0.10550519658E+03  0.19863344162E+03 -0.15510601175E+04  0.15672829009E+04  0.12699999809E+01 0. -1.
       -4    1    3    3    0  502  0.10550519658E+03 -0.19863344162E+03  0.20717160453E+03  0.30579123150E+03  0.12699999809E+01 0.  1.
</event>
<event>
 5   0  0.9215829E-04  0.1320760E+04  0.7818609E-02  0.9013263E-01
       -1   -1    0    0    0  501  0.00000000000E+00  0.00000000000E+00  0.29076933114E+03  0.29076933118E+03  0.50400001928E-02 0. -1.
        1   -1    0    0  501    0  0.00000000000E+00  0.00000000000E+00 -0.14998197394E+04  0.14998197394E+04  0.50400001928E-02 0.  1.
    10030    2    1    2    0    0  0.00000000000E+00  0.00000000000E+00 -0.12090504082E+04  0.17905890705E+04  0.13207597548E+04 0.  0.
        3    1    3    3  502    0  0.51866423230E+03  0.40867423358E+03 -0.59283468768E+03  0.88740080695E+03  0.10100000352E+00 0. -1.
       -3    1    3    3    0  502 -0.51866423230E+03 -0.40867423358E+03 -0.61621572053E+03  0.90318826359E+03  0.10100000352E+00 0.  1.
</event>
<event>
 5   0  0.6284125E-04  0.1302217E+04  0.7818609E-02  0.9027809E-01
        3   -1    0    0  501    0  0.00000000000E+00  0.00000000000E+00  0.60607442854E+03  0.60607443695E+03  0.10100000352E+00 0.  1.
       -3   -1    0    0    0  501  0.00000000000E+00  0.00000000000E+00 -0.69948842397E+03  0.69948843126E+03  0.10100000352E+00 0. -1.
    10030    2    1    2    0    0  0.00000000000E+00  0.00000000000E+00 -0.93413995428E+02  0.13055628682E+04  0.13022166595E+04 0.  0.
        5    1    3    3  502    0 -0.19960793077E+03 -0.22471872733E+03  0.53233935517E+03  0.61135023636E+03  0.46999998093E+01 0.  1.
       -5    1    3    3    0  502  0.19960793077E+03  0.22471872733E+03 -0.62575335060E+03  0.69421263185E+03  0.46999998093E+01 0. -1.
</event>
<event>
 5   0  0.9027076E-04  0.1279145E+04  0.7818609E-02  0.9046268E-01
       -1   -1    0    0    0  501  0.00000000000E+00  0.00000000000E+00  0.49420352939E+03  0.49420352941E+03  0.50400001928E-02 0.  1.
        1   -1    0    0  501    0  0.00000000000E+00  0.00000000000E+00 -0.82770208644E+03  0.82770208646E+03  0.50400001928E-02 0. -1.
    10030    2    1    2    0    0  0.00000000000E+00  0.00000000000E+00 -0.33349855705E+03  0.13219056159E+04  0.12791454842E+04 0.  0.
        5    1    3    3  502    0  0.58138339059E+03 -0.25634835656E+03 -0.91443056531E+02  0.64195408664E+03  0.46999998093E+01 0.  1.
       -5    1    3    3    0  502 -0.58138339059E+03  0.25634835656E+03 -0.24205550052E+03  0.67995152923E+03  0.46999998093E+01 0. -1.
</event>
<event>
 5   0  0.9098192E-04  0.1320194E+04  0.7818609E-02  0.9013703E-01
       -1   -1    0    0    0  501  0.00000000000E+00  0.00000000000E+00  0.23427748837E+03  0.23427748843E+03  0.50400001928E-02 0.  1.
        1   -1    0    0  501    0  0.00000000000E+00  0.00000000000E+00 -0.18598800808E+04  0.18598800808E+04  0.50400001928E-02 0. -1.
    10030    2    1    2    0    0  0.00000000000E+00  0.00000000000E+00 -0.16256025924E+04  0.20941575692E+04  0.13201939767E+04 0.  0.
        1    1    3    3  502    0  0.34272158142E+03 -0.24467436116E+03 -0.16191475421E+04  0.16730099786E+04  0.50400001928E-02 0. -1.
       -1    1    3    3    0  502 -0.34272158142E+03  0.24467436116E+03 -0.64550503112E+01  0.42114759061E+03  0.50400001928E-02 0.  1.
</event>
<event>
 5   0  0.6284125E-04  0.1296759E+04  0.7818609E-02  0.9032139E-01
        3   -1    0    0  501    0  0.00000000000E+00  0.00000000000E+00  0.39672243824E+03  0.39672245110E+03  0.10100000352E+00 0.  1.
       -3   -1    0    0    0  501  0.00000000000E+00  0.00000000000E+00 -0.10596728053E+04  0.10596728101E+04  0.10100000352E+00 0. -1.
    10030    2    1    2    0    0  0.00000000000E+00  0.00000000000E+00 -0.66295036702E+03  0.14563952612E+04  0.12967590245E+04 0.  0.
        4    1    3    3  502    0  0.23723492221E+03 -0.59975381891E+03 -0.40605239689E+03  0.76214513941E+03  0.12699999809E+01 0. -1.
       -4    1    3    3    0  502 -0.23723492221E+03  0.59975381891E+03 -0.25689797013E+03  0.69425012176E+03  0.12699999809E+01 0.  1.
</event>
<event>
 5   0  0.1714861E-03  0.1063613E+04  0.7818609E-02  0.9241401E-01
       -2   -1    0    0    0  501  0.00000000000E+00  0.00000000000E+00  0.45160730710E+03  0.45160730710E+03  0.25500000920E-02 0. -1.
        2   -1    0    0  501    0  0.00000000000E+00  0.00000000000E+00 -0.62624773303E+03  0.62624773303E+03  0.25500000920E-02 0.  1.
    10030    2    1    2    0    0  0.00000000000E+00  0.00000000000E+00 -0.17464042593E+03  0.10778550401E+04  0.10636128098E+04 0.  0.
        1    1    3    3  502    0 -0.14519216114E+03  0.35030048401E+03  0.29053564013E+03  0.47770508786E+03  0.50400001928E-02 0. -1.
       -1    1    3    3    0  502  0.14519216114E+03 -0.35030048401E+03 -0.46517606606E+03  0.60014995228E+03  0.50400001928E-02 0.  1.
</event>
<event>
 5   0  0.9098192E-04  0.1275715E+04  0.7818609E-02  0.9049048E-01
       -1   -1    0    0    0  501  0.00000000000E+00  0.00000000000E+00  0.63654805139E+03  0.63654805141E+03  0.50400001928E-02 0. -1.
        1   -1    0    0  501    0  0.00000000000E+00  0.00000000000E+00 -0.63916982886E+03  0.63916982888E+03  0.50400001928E-02 0.  1.
    10030    2    1    2    0    0  0.00000000000E+00  0.00000000000E+00 -0.26217774705E+01  0.12757178803E+04  0.12757151862E+04 0.  0.
        1    1    3    3  502    0  0.15670498360E+03 -0.48118008693E+03 -0.38960487262E+03  0.63865693822E+03  0.50400001928E-02 0. -1.
       -1    1    3    3    0  502 -0.15670498360E+03  0.48118008693E+03  0.38698309515E+03  0.63706094206E+03  0.50400001928E-02 0.  1.
</event>
<event>
 5   0  0.1714861E-03  0.1318018E+04  0.7818609E-02  0.9015398E-01
        2   -1    0    0  501    0  0.00000000000E+00  0.00000000000E+00  0.94224673424E+03  0.94224673424E+03  0.25500000920E-02 0. -1.
       -2   -1    0    0    0  501  0.00000000000E+00  0.00000000000E+00 -0.46091195519E+03  0.46091195520E+03  0.25500000920E-02 0.  1.
    10030    2    1    2    0    0  0.00000000000E+00  0.00000000000E+00  0.48133477904E+03  0.14031586894E+04  0.13180178824E+04 0.  0.
        1    1    3    3  502    0  0.31931189017E+03 -0.43149898452E+03  0.64764640022E+03  0.84118803878E+03  0.50400001928E-02 0. -1.
       -1    1    3    3    0  502 -0.31931189017E+03  0.43149898452E+03 -0.16631162117E+03  0.56197065066E+03  0.50400001928E-02 0.  1.
</event>
<event>
 5   0  0.1667342E-03  0.1298459E+04  0.7818609E-02  0.9030788E-01
        2   -1    0    0  501    0  0.00000000000E+00  0.00000000000E+00  0.42152255627E+03  0.42152255628E+03  0.25500000920E-02 0.  1.
       -2   -1    0    0    0  501  0.00000000000E+00  0.00000000000E+00 -0.99994373553E+03  0.99994373553E+03  0.25500000920E-02 0. -1.
    10030    2    1    2    0    0  0.00000000000E+00  0.00000000000E+00 -0.57842117926E+03  0.14214662918E+04  0.12984588396E+04 0.  0.
        5    1    3    3  502    0 -0.84346815861E+02  0.21025025376E+03  0.37683119507E+03  0.43970830573E+03  0.46999998093E+01 0.  1.
       -5    1    3    3    0  502  0.84346815861E+02 -0.21025025376E+03 -0.95525237433E+03  0.98175798607E+03  0.46999998093E+01 0. -1.
</event>
<event>
 5   0  0.9110949E-04  0.1288474E+04  0.7818609E-02  0.9038755E-01
        1   -1    0    0  501    0  0.00000000000E+00  0.00000000000E+00  0.14254141661E+04  0.14254141661E+04  0.50400001928E-02 0. -1.
       -1   -1    0    0    0  501  0.00000000000E+00  0.00000000000E+00 -0.29117264577E+03  0.29117264581E+03  0.50400001928E-02 0.  1.
    10030    2    1    2    0    0  0.00000000000E+00  0.00000000000E+00  0.11342415203E+04  0.17165868119E+04  0.12884744687E+04 0.  0.
        2    1    3    3  502    0  0.47923101341E+03  0.34602521962E+03  0.22577586064E+03  0.63274841452E+03  0.25500000920E-02 0.  1.
       -2    1    3    3    0  502 -0.47923101341E+03 -0.34602521962E+03  0.90846565967E+03  0.10838383974E+04  0.25500000920E-02 0. -1.
</event>
<event>
 5   0  0.9098192E-04  0.1293225E+04  0.7818609E-02  0.9034955E-01
       -1   -1    0    0    0  501  0.00000000000E+00  0.00000000000E+00  0.63714780251E+03  0.63714780253E+03  0.50400001928E-02 0.  1.
        1   -1    0    0  501    0  0.00000000000E+00  0.00000000000E+00 -0.65621758183E+03  0.65621758185E+03  0.50400001928E-02 0. -1.
    10030    2    1    2    0    0  0.00000000000E+00  0.00000000000E+00 -0.19069779322E+02  0.12933653844E+04  0.12932247914E+04 0.  0.
        1    1    3    3  502    0  0.57891199526E+02  0.64164124565E+03 -0.64792241284E+02  0.64749742367E+03  0.50400001928E-02 0.  1.
       -1    1    3    3    0  502 -0.57891199526E+02 -0.64164124565E+03  0.45722461962E+02  0.64586796070E+03  0.50400001928E-02 0. -1.
</event>
<event>
 5   0  0.1700511E-03  0.1306929E+04  0.7818609E-02  0.9024089E-01
       -2   -1    0    0    0  501  0.00000000000E+00  0.00000000000E+00  0.28515600473E+03  0.28515600474E+03  0.25500000920E-02 0.  1.
        2   -1    0    0  501    0  0.00000000000E+00  0.00000000000E+00 -0.14974807931E+04  0.14974807931E+04  0.25500000920E-02 0. -1.
    10030    2    1    2    0    0  0.00000000000E+00  0.00000000000E+00 -0.12123247884E+04  0.17826367978E+04  0.13069286746E+04 0.  0.
        2    1    3    3  502    0  0.18373283648E+03 -0.71377664725E+02  0.24364031647E+03  0.31338974144E+03  0.25500000920E-02 0.  1.
       -2    1    3    3    0  502 -0.18373283648E+03  0.71377664725E+02 -0.14559651048E+04  0.14692470564E+04  0.25500000920E-02 0. -1.
</event>
<event>
 5   0  0.9215829E-04  0.1301772E+04  0.7818609E-02  0.9028161E-01
        1   -1    0    0  501    0  0.00000000000E+00  0.00000000000E+00  0.22237284443E+04  0.22237284443E+04  0.50400001928E-02 0. -1.
       -1   -1    0    0    0  501  0.00000000000E+00  0.00000000000E+00 -0.19051465053E+03  0.19051465060E+03  0.50400001928E-02 0.  1.
    10030    2    1    2    0    0  0.00000000000E+00  0.00000000000E+00  0.20332137937E+04  0.24142430949E+04  0.13017724033E+04 0.  0.
        3    1    3    3  502    0  0.14135628575E+03 -0.52387790593E+03  0.16832849296E+04  0.17685807373E+04  0.10100000352E+00 0. -1.
       -3    1    3    3    0  502 -0.14135628575E+03  0.52387790593E+03  0.34992886411E+03  0.64566235757E+03  0.10100000352E+00 0.  1.
</event>
<event>
 5   0  0.9215829E-04  0.1375791E+04  0.7818609E-02  0.8971531E-01
       -1   -1    0    0    0  501  0.00000000000E+00  0.00000000000E+00  0.41570741513E+03  0.41570741516E+03  0.50400001928E-02 0. -1.
        1   -1    0    0  501    0  0.00000000000E+00  0.00000000000E+00 -0.11383010926E+04  0.11383010926E+04  0.50400001928E-02 0.  1.
    10030    2    1    2    0    0  0.00000000000E+00  0.00000000000E+00 -0.72259367750E+03  0.15540085078E+04  0.13757909796E+04 0.  0.
        3    1    3    3  502    0  0.32641060721E+03  0.45782111234E+03  0.86342652221E+02  0.56885773195E+03  0.10100000352E+00 0. -1.
       -3    1    3    3    0  502 -0.32641060721E+03 -0.45782111234E+03 -0.80893632972E+03  0.98515077584E+03  0.10100000352E+00 0.  1.
</event>
<event>
 5   0  0.1700511E-03  0.1308965E+04  0.7818609E-02  0.9022486E-01
       -2   -1    0    0    0  501  0.00000000000E+00  0.00000000000E+00  0.26104002687E+03  0.26104002688E+03  0.25500000920E-02 0.  1.
        2   -1    0    0  501    0  0.00000000000E+00  0.00000000000E+00 -0.16409251918E+04  0.16409251918E+04  0.25500000920E-02 0. -1.
    10030    2    1    2    0    0  0.00000000000E+00  0.00000000000E+00 -0.13798851649E+04  0.19019652186E+04  0.13089647148E+04 0.  0.
        2    1    3    3  502    0 -0.15542073895E+03  0.35269976534E+03 -0.14585315742E+04  0.15085977209E+04  0.25500000920E-02 0. -1.
       -2    1    3    3    0  502  0.15542073895E+03 -0.35269976534E+03  0.78646409311E+02  0.39336749773E+03  0.25500000920E-02 0.  1.
</event>
<event>
 5   0  0.9027076E-04  0.1209458E+04  0.7818609E-02  0.9104618E-01
        1   -1    0    0  501    0  0.00000000000E+00  0.00000000000E+00  0.68056142028E+03  0.68056142030E+03  0.50400001928E-02 0. -1.
       -1   -1    0    0    0  501  0.00000000000E+00  0.00000000000E+00 -0.53734671133E+03  0.53734671136E+03  0.50400001928E-02 0.  1.
    10030    2    1    2    0    0  0.00000000000E+00  0.00000000000E+00  0.14321470895E+03  0.12179081317E+04  0.12094584591E+04 0.  0.
        5    1    3    3  502    0 -0.25456247888E+03 -0.46183423977E+03 -0.22640349134E+03  0.57391075227E+03  0.46999998093E+01 0.  1.
       -5    1    3    3    0  502  0.25456247888E+03  0.46183423977E+03  0.36961820029E+03  0.64399737939E+03  0.46999998093E+01 0. -1.
</event>
<event>
 5   0  0.1623890E-03  0.1311169E+04  0.7818609E-02  0.9020755E-01
       -2   -1    0    0    0  501  0.00000000000E+00  0.00000000000E+00  0.10475229929E+04  0.10475229929E+04  0.25500000920E-02 0.  1.
        2   -1    0    0  501    0  0.00000000000E+00  0.00000000000E+00 -0.41029241633E+03  0.41029241634E+03  0.25500000920E-02 0. -1.
    10030    2    1    2    0    0  0.00000000000E+00  0.00000000000E+00  0.63723057655E+03  0.14578154092E+04  0.13111685474E+04 0.  0.
        3    1    3    3  502    0  0.58800762711E+03  0.28809079253E+03  0.28273430296E+03  0.71322364694E+03  0.10100000352E+00 0. -1.
       -3    1    3    3    0  502 -0.58800762711E+03 -0.28809079253E+03  0.35449627359E+03  0.74459176229E+03  0.10100000352E+00 0.  1.
</event>
<event>
 5   0  0.1623890E-03  0.1308989E+04  0.7818609E-02  0.9022467E-01
       -2   -1    0    0    0  501  0.00000000000E+00  0.00000000000E+00  0.23237384035E+03  0.23237384037E+03  0.25500000920E-02 0.  1.
        2   -1    0    0  501    0  0.00000000000E+00  0.00000000000E+00 -0.18434216231E+04  0.18434216231E+04  0.25500000920E-02 0. -1.
    10030    2    1    2    0    0  0.00000000000E+00  0.00000000000E+00 -0.16110477828E+04  0.20757954635E+04  0.13089888647E+04 0.  0.
        3    1    3    3  502    0 -0.83371412994E+02 -0.56054276162E+03 -0.13247470371E+04  0.14408725491E+04  0.10100000352E+00 0. -1.
       -3    1    3    3    0  502  0.83371412994E+02  0.56054276162E+03 -0.28630074567E+03  0.63492291444E+03  0.10100000352E+00 0.  1.
</event>
<event>
 5   0  0.1700511E-03  0.1310284E+04  0.7818609E-02  0.9021449E-01
       -2   -1    0    0    0  501  0.00000000000E+00  0.00000000000E+00  0.30477572661E+03  0.30477572662E+03  0.25500000920E-02 0.  1.
        2   -1    0    0  501    0  0.00000000000E+00  0.00000000000E+00 -0.14082848641E+04  0.14082848641E+04  0.25500000920E-02 0. -1.
    10030    2    1    2    0    0  0.00000000000E+00  0.00000000000E+00 -0.11035091375E+04  0.17130605907E+04  0.13102840039E+04 0.  0.
        2    1    3    3  502    0  0.10591565787E+03 -0.58936385187E+03 -0.89924461037E+03  0.10803743545E+04  0.25500000920E-02 0.  1.
       -2    1    3    3    0  502 -0.10591565787E+03  0.58936385187E+03 -0.20426452709E+03  0.63268623623E+03  0.25500000920E-02 0. -1.
</event>
<event>
 5   0  0.9081324E-04  0.1307078E+04  0.7818609E-02  0.9023971E-01
        1   -1    0    0  501    0  0.00000000000E+00  0.00000000000E+00  0.47522630911E+03  0.47522630913E+03  0.50400001928E-02 0. -1.
       -1   -1    0    0    0  501  0.00000000000E+00  0.00000000000E+00 -0.89875768148E+03  0.89875768149E+03  0.50400001928E-02 0.  1.
    10030    2    1    2    0    0  0.00000000000E+00  0.00000000000E+00 -0.42353137237E+03  0.13739839906E+04  0.13070781090E+04 0.  0.
        4    1    3    3  502    0  0.39579220643E+03  0.22341005761E+01  0.33490755473E+03  0.51847964761E+03  0.12699999809E+01 0. -1.
       -4    1    3    3    0  502 -0.39579220643E+03 -0.22341005761E+01 -0.75843892710E+03  0.85550434302E+03  0.12699999809E+01 0.  1.
</event>
<event>
 5   0  0.1714861E-03  0.1309583E+04  0.7818609E-02  0.9022000E-01
        2   -1    0    0  501    0  0.00000000000E+00  0.00000000000E+00  0.11514788489E+04  0.11514788489E+04  0.25500000920E-02 0. -1.
       -2   -1    0    0    0  501  0.00000000000E+00  0.00000000000E+00 -0.37234915347E+03  0.37234915348E+03  0.25500000920E-02 0.  1.
    10030    2    1    2    0    0  0.00000000000E+00  0.00000000000E+00  0.77912969542E+03  0.15238280024E+04  0.13095834065E+04 0.  0.
        1    1    3    3  502    0 -0.46357762388E+03 -0.58861840569E+02  0.92327856032E+03  0.10348005748E+04  0.50400001928E-02 0. -1.
       -1    1    3    3    0  502  0.46357762388E+03  0.58861840569E+02 -0.14414886490E+03  0.48902742757E+03  0.50400001928E-02 0.  1.
</event>
<event>
 5   0  0.1700511E-03  0.1302123E+04  0.7818609E-02  0.9027884E-01
        2   -1    0    0  501    0  0.00000000000E+00  0.00000000000E+00  0.11363610491E+04  0.11363610491E+04  0.25500000920E-02 0.  1.
       -2   -1    0    0    0  501  0.00000000000E+00  0.00000000000E+00 -0.37301599276E+03  0.37301599277E+03  0.25500000920E-02 0. -1.
    10030    2    1    2    0    0  0.00000000000E+00  0.00000000000E+00  0.76334505630E+03  0.15093770418E+04  0.13021226438E+04 0.  0.
        2    1    3    3  502    0  0.51233318346E+03  0.30842540531E+03  0.83270262184E+02  0.60377599993E+03  0.25500000920E-02 0. -1.
       -2    1    3    3    0  502 -0.51233318346E+03 -0.30842540531E+03  0.68007479411E+03  0.90560104191E+03  0.25500000920E-02 0.  1.
</event>
<event>
 5   0  0.1714861E-03  0.1299992E+04  0.7818609E-02  0.9029572E-01
       -2   -1    0    0    0  501  0.00000000000E+00  0.00000000000E+00  0.97786896730E+03  0.97786896730E+03  0.25500000920E-02 0.  1.
        2   -1    0    0  501    0  0.00000000000E+00  0.00000000000E+00 -0.43205638365E+03  0.43205638366E+03  0.25500000920E-02 0. -1.
    10030    2    1    2    0    0  0.00000000000E+00  0.00000000000E+00  0.54581258365E+03  0.14099253510E+04  0.12999915841E+04 0.  0.
        1    1    3    3  502    0 -0.63225409187E+03  0.88440055438E+02  0.40541709751E+03  0.75626047303E+03  0.50400001928E-02 0.  1.
       -1    1    3    3    0  502  0.63225409187E+03 -0.88440055438E+02  0.14039548614E+03  0.65366487793E+03  0.50400001928E-02 0. -1.
</event>
<event>
 5   0  0.1623890E-03  0.1275949E+04  0.7818609E-02  0.9048858E-01
        2   -1    0    0  501    0  0.00000000000E+00  0.00000000000E+00  0.14542298083E+04  0.14542298083E+04  0.25500000920E-02 0. -1.
       -2   -1    0    0    0  501  0.00000000000E+00  0.00000000000E+00 -0.27988110224E+03  0.27988110225E+03  0.25500000920E-02 0.  1.
    10030    2    1    2    0    0  0.00000000000E+00  0.00000000000E+00  0.11743487061E+04  0.17341109106E+04  0.12759489671E+04 0.  0.
        3    1    3    3  502    0  0.21025354497E+03  0.31905213935E+02 -0.23029222584E+03  0.31346294092E+03  0.10100000352E+00 0.  1.
       -3    1    3    3    0  502 -0.21025354497E+03 -0.31905213935E+02  0.14046409319E+04  0.14206479696E+04  0.10100000352E+00 0. -1.
</event>
<event>
 5   0  0.9110949E-04  0.1267381E+04  0.7818609E-02  0.9055840E-01
       -1   -1    0    0    0  501  0.00000000000E+00  0.00000000000E+00  0.80150419961E+03  0.80150419963E+03  0.50400001928E-02 0.  1.
        1   -1    0    0  501    0  0.00000000000E+00  0.00000000000E+00 -0.50101217842E+03  0.50101217844E+03  0.50400001928E-02 0. -1.
    10030    2    1    2    0    0  0.00000000000E+00  0.00000000000E+00  0.30049202120E+03  0.13025163781E+04  0.12673805507E+04 0.  0.
        2    1    3    3  502    0  0.34443375212E+03 -0.44945255478E+02  0.69494771457E+03  0.77692149641E+03  0.25500000920E-02 0.  1.
       -2    1    3    3    0  502 -0.34443375212E+03  0.44945255478E+02 -0.39445569337E+03  0.52559488167E+03  0.25500000920E-02 0. -1.
</event>
<event>
 5   0  0.1623890E-03  0.1303786E+04  0.7818609E-02  0.9026568E-01
       -2   -1    0    0    0  501  0.00000000000E+00  0.00000000000E+00  0.46317114550E+03  0.46317114551E+03  0.25500000920E-02 0. -1.
        2   -1    0    0  501    0  0.00000000000E+00  0.00000000000E+00 -0.91751043304E+03  0.91751043305E+03  0.25500000920E-02 0.  1.
    10030    2    1    2    0    0  0.00000000000E+00  0.00000000000E+00 -0.45433928754E+03  0.13806815786E+04  0.13037858080E+04 0.  0.
        3    1    3    3  502    0  0.14610367978E+02  0.19756660229E+03  0.43052213924E+03  0.47391491617E+03  0.10100000352E+00 0. -1.
       -3    1    3    3    0  502 -0.14610367978E+02 -0.19756660229E+03 -0.88486142678E+03  0.90676666238E+03  0.10100000352E+00 0.  1.
</event>
<event>
 5   0  0.1694675E-03  0.1315591E+04  0.7818609E-02  0.9017292E-01
       -2   -1    0    0    0  501  0.00000000000E+00  0.00000000000E+00  0.19865275041E+03  0.19865275043E+03  0.25500000920E-02 0. -1.
        2   -1    0    0  501    0  0.00000000000E+00  0.00000000000E+00 -0.21781478940E+04  0.21781478940E+04  0.25500000920E-02 0.  1.
    10030    2    1    2    0    0  0.00000000000E+00  0.00000000000E+00 -0.19794951435E+04  0.23768006444E+04  0.13155912283E+04 0.  0.
        4    1    3    3  502    0  0.63614891929E+03  0.11247078003E+03 -0.12136422805E+04  0.13748688380E+04  0.12699999809E+01 0. -1.
       -4    1    3    3    0  502 -0.63614891929E+03 -0.11247078003E+03 -0.76585286309E+03  0.10019318064E+04  0.12699999809E+01 0.  1.
</event>
<event>
 5   0  0.9098192E-04  0.1261385E+04  0.7818609E-02  0.9060760E-01
        1   -1    0    0  501    0  0.00000000000E+00  0.00000000000E+00  0.47417643525E+03  0.47417643528E+03  0.50400001928E-02 0. -1.
       -1   -1    0    0    0  501  0.00000000000E+00  0.00000000000E+00 -0.83887168954E+03  0.83887168956E+03  0.50400001928E-02 0.  1.
    10030    2    1    2    0    0  0.00000000000E+00  0.00000000000E+00 -0.36469525430E+03  0.13130481248E+04  0.12613852503E+04 0.  0.
        1    1    3    3  502    0  0.35610841514E+03 -0.49309166864E+03 -0.87211049550E+01  0.60829980661E+03  0.50400001928E-02 0. -1.
       -1    1    3    3    0  502 -0.35610841514E+03  0.49309166864E+03 -0.35597414934E+03  0.70474831823E+03  0.50400001928E-02 0.  1.
</event>
<event>
 5   0  0.9110949E-04  0.1248148E+04  0.7818609E-02  0.9071726E-01
        1   -1    0    0  501    0  0.00000000000E+00  0.00000000000E+00  0.48100384127E+03  0.48100384130E+03  0.50400001928E-02 0. -1.
       -1   -1    0    0    0  501  0.00000000000E+00  0.00000000000E+00 -0.80969905058E+03  0.80969905060E+03  0.50400001928E-02 0.  1.
    10030    2    1    2    0    0  0.00000000000E+00  0.00000000000E+00 -0.32869520931E+03  0.12907028919E+04  0.12481479938E+04 0.  0.
        2    1    3    3  502    0 -0.11101521030E+03 -0.39111673223E+03  0.32526272505E+03  0.52066545446E+03  0.25500000920E-02 0. -1.
       -2    1    3    3    0  502  0.11101521030E+03  0.39111673223E+03 -0.65395793435E+03  0.77003743744E+03  0.25500000920E-02 0.  1.
</event>
<event>
 5   0  0.9027076E-04  0.1299059E+04  0.7818609E-02  0.9030311E-01
       -1   -1    0    0    0  501  0.00000000000E+00  0.00000000000E+00  0.13891065663E+04  0.13891065663E+04  0.50400001928E-02 0. -1.
        1   -1    0    0  501    0  0.00000000000E+00  0.00000000000E+00 -0.30371233325E+03  0.30371233330E+03  0.50400001928E-02 0.  1.
    10030    2    1    2    0    0  0.00000000000E+00  0.00000000000E+00  0.10853942330E+04  0.16928188996E+04  0.12990593465E+04 0.  0.
        5    1    3    3  502    0 -0.28873754463E+03 -0.20092449407E+03 -0.16881439721E+03  0.39020560311E+03  0.46999998093E+01 0.  1.
       -5    1    3    3    0  502  0.28873754463E+03  0.20092449407E+03  0.12542086302E+04  0.13026132965E+04  0.46999998093E+01 0. -1.
</event>
<event>
 5   0  0.6284125E-04  0.1300687E+04  0.7818609E-02  0.9029021E-01
       -3   -1    0    0    0  501  0.00000000000E+00  0.00000000000E+00  0.36178419402E+03  0.36178420812E+03  0.10100000352E+00 0.  1.
        3   -1    0    0  501    0  0.00000000000E+00  0.00000000000E+00 -0.11690579135E+04  0.11690579179E+04  0.10100000352E+00 0. -1.
    10030    2    1    2    0    0  0.00000000000E+00  0.00000000000E+00 -0.80727371948E+03  0.15308421260E+04  0.13006870325E+04 0.  0.
        4    1    3    3  502    0  0.75932432765E+02  0.12075832701E+03  0.34314324027E+03  0.37161432176E+03  0.12699999809E+01 0.  1.
       -4    1    3    3    0  502 -0.75932432765E+02 -0.12075832701E+03 -0.11504169598E+04  0.11592278042E+04  0.12699999809E+01 0. -1.
</event>
<event>
 5   0  0.9215829E-04  0.1301466E+04  0.7818609E-02  0.9028403E-01
        1   -1    0    0  501    0  0.00000000000E+00  0.00000000000E+00  0.73843412809E+03  0.73843412811E+03  0.50400001928E-02 0.  1.
       -1   -1    0    0    0  501  0.00000000000E+00  0.00000000000E+00 -0.57344817736E+03  0.57344817738E+03  0.50400001928E-02 0. -1.
    10030    2    1    2    0    0  0.00000000000E+00  0.00000000000E+00  0.16498595074E+03  0.13118823055E+04  0.13014664112E+04 0.  0.
        3    1    3    3  502    0 -0.62887826987E+03  0.12970760254E+03  0.18889225731E+03  0.66932222101E+03  0.10100000352E+00 0.  1.
       -3    1    3    3    0  502  0.62887826987E+03 -0.12970760254E+03 -0.23906306574E+02  0.64256008448E+03  0.10100000352E+00 0. -1.
</event>
<event>
 5   0  0.1694675E-03  0.1304943E+04  0.7818609E-02  0.9025655E-01
       -2   -1    0    0    0  501  0.00000000000E+00  0.00000000000E+00  0.71955790133E+03  0.71955790134E+03  0.25500000920E-02 0. -1.
        2   -1    0    0  501    0  0.00000000000E+00  0.00000000000E+00 -0.59163955849E+03  0.59163955850E+03  0.25500000920E-02 0.  1.
    10030    2    1    2    0    0  0.00000000000E+00  0.00000000000E+00  0.12791834284E+03  0.13111974598E+04  0.13049427866E+04 0.  0.
        4    1    3    3  502    0  0.38070044290E+03 -0.50949572387E+03 -0.82336028869E+02  0.64132640240E+03  0.12699999809E+01 0. -1.
       -4    1    3    3    0  502 -0.38070044290E+03  0.50949572387E+03  0.21025437171E+03  0.66987105744E+03  0.12699999809E+01 0.  1.
</event>
<event>
 5   0  0.9098192E-04  0.1294737E+04  0.7818609E-02  0.9033749E-01
       -1   -1    0    0    0  501  0.00000000000E+00  0.00000000000E+00  0.30245710214E+03  0.30245710218E+03  0.50400001928E-02 0. -1.
        1   -1    0    0  501    0  0.00000000000E+00  0.00000000000E+00 -0.13856056481E+04  0.13856056481E+04  0.50400001928E-02 0.  1.
    10030    2    1    2    0    0  0.00000000000E+00  0.00000000000E+00 -0.10831485459E+04  0.16880627502E+04  0.12947374546E+04 0.  0.
        1    1    3    3  502    0  0.39426567326E+03 -0.43651046783E+03 -0.18907034753E+03  0.61784658773E+03  0.50400001928E-02 0. -1.
       -1    1    3    3    0  502 -0.39426567326E+03  0.43651046783E+03 -0.89407819839E+03  0.10702161625E+04  0.50400001928E-02 0.  1.
</event>
<event>
 5   0  0.1667342E-03  0.1284640E+04  0.7818609E-02  0.9041835E-01
        2   -1    0    0  501    0  0.00000000000E+00  0.00000000000E+00  0.11023030693E+04  0.11023030693E+04  0.25500000920E-02 0. -1.
       -2   -1    0    0    0  501  0.00000000000E+00  0.00000000000E+00 -0.37428463826E+03  0.37428463827E+03  0.25500000920E-02 0.  1.
    10030    2    1    2    0    0  0.00000000000E+00  0.00000000000E+00  0.72801843103E+03  0.14765877076E+04  0.12846401917E+04 0.  0.
        5    1    3    3  502    0 -0.39251694303E+02  0.63702742554E+03  0.28105679958E+03  0.69739490318E+03  0.46999998093E+01 0. -1.
       -5    1    3    3    0  502  0.39251694303E+02 -0.63702742554E+03  0.44696163145E+03  0.77919280437E+03  0.46999998093E+01 0.  1.
</event>
<event>
 5   0  0.1667342E-03  0.1277519E+04  0.7818609E-02  0.9047585E-01
       -2   -1    0    0    0  501  0.00000000000E+00  0.00000000000E+00  0.45375748425E+03  0.45375748426E+03  0.25500000920E-02 0.  1.
        2   -1    0    0  501    0  0.00000000000E+00  0.00000000000E+00 -0.89918848490E+03  0.89918848490E+03  0.25500000920E-02 0. -1.
    10030    2    1    2    0    0  0.00000000000E+00  0.00000000000E+00 -0.44543100065E+03  0.13529459692E+04  0.12775186962E+04 0.  0.
        5    1    3    3  502    0  0.48427201887E+03 -0.41520198256E+03 -0.25750853948E+03  0.68792791227E+03  0.46999998093E+01 0.  1.
       -5    1    3    3    0  502 -0.48427201887E+03  0.41520198256E+03 -0.18792246117E+03  0.66501805689E+03  0.46999998093E+01 0. -1.
</event>
<event>
 5   0  0.1667342E-03  0.1300897E+04  0.7818609E-02  0.9028854E-01
        2   -1    0    0  501    0  0.00000000000E+00  0.00000000000E+00  0.84328582896E+03  0.84328582897E+03  0.25500000920E-02 0. -1.
       -2   -1    0    0    0  501  0.00000000000E+00  0.00000000000E+00 -0.50170773743E+03  0.50170773743E+03  0.25500000920E-02 0.  1.
    10030    2    1    2    0    0  0.00000000000E+00  0.00000000000E+00  0.34157809154E+03  0.13449935664E+04  0.13008966527E+04 0.  0.
        5    1    3    3  502    0  0.43472041529E+03  0.29357350348E+03  0.56839441350E+03  0.77347368457E+03  0.46999998093E+01 0.  1.
       -5    1    3    3    0  502 -0.43472041529E+03 -0.29357350348E+03 -0.22681632197E+03  0.57151988183E+03  0.46999998093E+01 0. -1.
</event>
<event>
 5   0  0.1700511E-03  0.1299352E+04  0.7818609E-02  0.9030079E-01
       -2   -1    0    0    0  501  0.00000000000E+00  0.00000000000E+00  0.80208958397E+03  0.80208958398E+03  0.25500000920E-02 0. -1.
        2   -1    0    0  501    0  0.00000000000E+00  0.00000000000E+00 -0.52622420112E+03  0.52622420113E+03  0.25500000920E-02 0.  1.
    10030    2    1    2    0    0  0.00000000000E+00  0.00000000000E+00  0.27586538285E+03  0.13283137851E+04  0.12993520702E+04 0.  0.
        2    1    3    3  502    0 -0.64015621189E+03 -0.10120964051E+03  0.91809610618E+02  0.65457801030E+03  0.25500000920E-02 0.  1.
       -2    1    3    3    0  502  0.64015621189E+03  0.10120964051E+03  0.18405577223E+03  0.67373577481E+03  0.25500000920E-02 0. -1.
</event>
<event>
 5   0  0.9081324E-04  0.1311711E+04  0.7818609E-02  0.9020329E-01
       -1   -1    0    0    0  501  0.00000000000E+00  0.00000000000E+00  0.15835953152E+04  0.15835953152E+04  0.50400001928E-02 0. -1.
        1   -1    0    0  501    0  0.00000000000E+00  0.00000000000E+00 -0.27162662902E+03  0.27162662907E+03  0.50400001928E-02 0.  1.
    10030    2    1    2    0    0  0.00000000000E+00  0.00000000000E+00  0.13119686862E+04  0.18552219443E+04  0.13117113360E+04 0.  0.
        4    1    3    3  502    0 -0.34584618609E+03  0.38674792290E+03  0.12234225985E+04  0.13288897651E+04  0.12699999809E+01 0. -1.
       -4    1    3    3    0  502  0.34584618609E+03 -0.38674792290E+03  0.88546087650E+02  0.52633217918E+03  0.12699999809E+01 0.  1.
</event>
<event>
 5   0  0.1714861E-03  0.1307988E+04  0.7818609E-02  0.9023255E-01
       -2   -1    0    0    0  501  0.00000000000E+00  0.00000000000E+00  0.77558149675E+03  0.77558149676E+03  0.25500000920E-02 0. -1.
        2   -1    0    0  501    0  0.00000000000E+00  0.00000000000E+00 -0.55146739370E+03  0.55146739371E+03  0.25500000920E-02 0.  1.
    10030    2    1    2    0    0  0.00000000000E+00  0.00000000000E+00  0.22411410305E+03  0.13270488905E+04  0.13079876247E+04 0.  0.
        1    1    3    3  502    0  0.27560156849E+03 -0.41196865877E+03  0.54492851394E+03  0.73662845838E+03  0.50400001928E-02 0. -1.
       -1    1    3    3    0  502 -0.27560156849E+03  0.41196865877E+03 -0.32081441089E+03  0.59042043208E+03  0.50400001928E-02 0.  1.
</event>
<event>
 5   0  0.1667342E-03  0.1308133E+04  0.7818609E-02  0.9023141E-01
        2   -1    0    0  501    0  0.00000000000E+00  0.00000000000E+00  0.48574446004E+03  0.48574446005E+03  0.25500000920E-02 0.  1.
       -2   -1    0    0    0  501  0.00000000000E+00  0.00000000000E+00 -0.88071549271E+03  0.88071549271E+03  0.25500000920E-02 0. -1.
    10030    2    1    2    0    0  0.00000000000E+00  0.00000000000E+00 -0.39497103266E+03  0.13664599528E+04  0.13081325185E+04 0.  0.
        5    1    3    3  502    0 -0.60326034323E+03 -0.23800343607E+03 -0.28619501813E+03  0.70887118413E+03  0.46999998093E+01 0. -1.
       -5    1    3    3    0  502  0.60326034323E+03  0.23800343607E+03 -0.10877601454E+03  0.65758876863E+03  0.46999998093E+01 0.  1.
</event>
<event>
 5   0  0.1694675E-03  0.1303980E+04  0.7818609E-02  0.9026415E-01
        2   -1    0    0  501    0  0.00000000000E+00  0.00000000000E+00  0.13287597492E+04  0.13287597492E+04  0.25500000920E-02 0. -1.
       -2   -1    0    0    0  501  0.00000000000E+00  0.00000000000E+00 -0.31991569565E+03  0.31991569566E+03  0.25500000920E-02 0.  1.
    10030    2    1    2    0    0  0.00000000000E+00  0.00000000000E+00  0.10088440535E+04  0.16486754448E+04  0.13039802138E+04 0.  0.
        4    1    3    3  502    0 -0.54198557163E+03  0.20352621588E+03  0.88355188225E+03  0.10563317764E+04  0.12699999809E+01 0. -1.
       -4    1    3    3    0  502  0.54198557163E+03 -0.20352621588E+03  0.12529217128E+03  0.59234366839E+03  0.12699999809E+01 0.  1.
</event>
<event>
 5   0  0.1667342E-03  0.1296276E+04  0.7818609E-02  0.9032524E-01
        2   -1    0    0  501    0  0.00000000000E+00  0.00000000000E+00  0.47559180823E+03  0.47559180824E+03  0.25500000920E-02 0.  1.
       -2   -1    0    0    0  501  0.00000000000E+00  0.00000000000E+00 -0.88328382546E+03  0.88328382546E+03  0.25500000920E-02 0. -1.
    10030    2    1    2    0    0  0.00000000000E+00  0.00000000000E+00 -0.40769201722E+03  0.13588756337E+04  0.12962755135E+04 0.  0.
        5    1    3    3  502    0 -0.57872809443E+03  0.28249101584E+03 -0.12729137883E+03  0.65646977572E+03  0.46999998093E+01 0.  1.
       -5    1    3    3    0  502  0.57872809443E+03 -0.28249101584E+03 -0.28040063839E+03  0.70240585798E+03  0.46999998093E+01 0. -1.
</event>
<event>
 5   0  0.1667342E-03  0.1312701E+04  0.7818609E-02  0.9019553E-01
       -2   -1    0    0    0  501  0.00000000000E+00  0.00000000000E+00  0.47031643741E+03  0.47031643742E+03  0.25500000920E-02 0. -1.
        2   -1    0    0  501    0  0.00000000000E+00  0.00000000000E+00 -0.91597049955E+03  0.91597049956E+03  0.25500000920E-02 0.  1.
    10030    2    1    2    0    0  0.00000000000E+00  0.00000000000E+00 -0.44565406214E+03  0.13862869370E+04  0.13127010050E+04 0.  0.
        5    1    3    3  502    0  0.68362156817E+02 -0.47706311327E+03  0.24769495650E+03  0.54188327156E+03  0.46999998093E+01 0. -1.
       -5    1    3    3    0  502 -0.68362156817E+02  0.47706311327E+03 -0.69334901864E+03  0.84440366542E+03  0.46999998093E+01 0.  1.
</event>
<event>
 5   0  0.9081324E-04  0.1298851E+04  0.7818609E-02  0.9030477E-01
       -1   -1    0    0    0  501  0.00000000000E+00  0.00000000000E+00  0.27203117979E+03  0.27203117984E+03  0.50400001928E-02 0.  1.
        1   -1    0    0  501    0  0.00000000000E+00  0.00000000000E+00 -0.15503865345E+04  0.15503865345E+04  0.50400001928E-02 0. -1.
    10030    2    1    2    0    0  0.00000000000E+00  0.00000000000E+00 -0.12783553547E+04  0.18224177143E+04  0.12988509971E+04 0.  0.
        4    1    3    3  502    0  0.22685962227E+03 -0.57276199454E+03 -0.35084056213E+03  0.70895155233E+03  0.12699999809E+01 0. -1.
       -4    1    3    3    0  502 -0.22685962227E+03  0.57276199454E+03 -0.92751479255E+03  0.11134661620E+04  0.12699999809E+01 0.  1.
</event>
<event>
 5   0  0.9215829E-04  0.1278680E+04  0.7818609E-02  0.9046645E-01
       -1   -1    0    0    0  501  0.00000000000E+00  0.00000000000E+00  0.42690880824E+03  0.42690880827E+03  0.50400001928E-02 0.  1.
        1   -1    0    0  501    0  0.00000000000E+00  0.00000000000E+00 -0.95747777146E+03  0.95747777148E+03  0.50400001928E-02 0. -1.
    10030    2    1    2    0    0  0.00000000000E+00  0.00000000000E+00 -0.53056896322E+03  0.13843865798E+04  0.12786800919E+04 0.  0.
        3    1    3    3  502    0 -0.42137071193E+03 -0.47764613062E+03 -0.20542768847E+03  0.66925305256E+03  0.10100000352E+00 0.  1.
       -3    1    3    3    0  502  0.42137071193E+03  0.47764613062E+03 -0.32514127475E+03  0.71513352719E+03  0.10100000352E+00 0. -1.
</event>
<event>
 5   0  0.9027076E-04  0.1318681E+04  0.7818609E-02  0.9014881E-01
        1   -1    0    0  501    0  0.00000000000E+00  0.00000000000E+00  0.17338218113E+04  0.17338218113E+04  0.50400001928E-02 0. -1.
       -1   -1    0    0    0  501  0.00000000000E+00  0.00000000000E+00 -0.25073500626E+03  0.25073500631E+03  0.50400001928E-02 0.  1.
    10030    2    1    2    0    0  0.00000000000E+00  0.00000000000E+00  0.14830868051E+04  0.19845568177E+04  0.13186808906E+04 0.  0.
        5    1    3    3  502    0 -0.20788106789E+03 -0.12772995369E+02  0.16829894163E+04  0.16958340583E+04  0.46999998093E+01 0. -1.
       -5    1    3    3    0  502  0.20788106789E+03  0.12772995369E+02 -0.19990261125E+03  0.28872275937E+03  0.46999998093E+01 0.  1.
</event>
<event>
 5   0  0.1714861E-03  0.1298152E+04  0.7818609E-02  0.9031032E-01
        2   -1    0    0  501    0  0.00000000000E+00  0.00000000000E+00  0.88890498126E+03  0.88890498127E+03  0.25500000920E-02 0.  1.
       -2   -1    0    0    0  501  0.00000000000E+00  0.00000000000E+00 -0.47395344931E+03  0.47395344932E+03  0.25500000920E-02 0. -1.
    10030    2    1    2    0    0  0.00000000000E+00  0.00000000000E+00  0.41495153195E+03  0.13628584306E+04  0.12981518894E+04 0.  0.
        1    1    3    3  502    0 -0.54295267326E+03 -0.13299513062E+03  0.55378826420E+03  0.78687149635E+03  0.50400001928E-02 0.  1.
       -1    1    3    3    0  502  0.54295267326E+03  0.13299513062E+03 -0.13883673225E+03  0.57598693424E+03  0.50400001928E-02 0. -1.
</event>
<event>
 5   0  0.1667342E-03  0.1308346E+04  0.7818609E-02  0.9022973E-01
       -2   -1    0    0    0  501  0.00000000000E+00  0.00000000000E+00  0.37624634219E+03  0.37624634219E+03  0.25500000920E-02 0. -1.
        2   -1    0    0  501    0  0.00000000000E+00  0.00000000000E+00 -0.11373991880E+04  0.11373991880E+04  0.25500000920E-02 0.  1.
    10030    2    1    2    0    0  0.00000000000E+00  0.00000000000E+00 -0.76115284582E+03  0.15136455302E+04  0.13083459544E+04 0.  0.
        5    1    3    3  502    0  0.34590349470E+03 -0.39448968744E+02  0.26014451225E+03  0.43462938928E+03  0.46999998093E+01 0. -1.
       -5    1    3    3    0  502 -0.34590349470E+03  0.39448968744E+02 -0.10212973581E+04  0.10790161409E+04  0.46999998093E+01 0.  1.
</event>
<event>
 5   0  0.9027076E-04  0.1300697E+04  0.7818609E-02  0.9029013E-01
       -1   -1    0    0    0  501  0.00000000000E+00  0.00000000000E+00  0.43209865074E+03  0.43209865077E+03  0.50400001928E-02 0. -1.
        1   -1    0    0  501    0  0.00000000000E+00  0.00000000000E+00 -0.97883447715E+03  0.97883447717E+03  0.50400001928E-02 0.  1.
    10030    2    1    2    0    0  0.00000000000E+00  0.00000000000E+00 -0.54673582642E+03  0.14109331279E+04  0.13006968239E+04 0.  0.
        5    1    3    3  502    0  0.91702857557E+02 -0.43980357167E+03  0.23668965247E+03  0.50781953224E+03  0.46999998093E+01 0. -1.
       -5    1    3    3    0  502 -0.91702857557E+02  0.43980357167E+03 -0.78342547889E+03  0.90311359569E+03  0.46999998093E+01 0.  1.
</event>
<event>
 5   0  0.9098192E-04  0.1298604E+04  0.7818609E-02  0.9030673E-01
       -1   -1    0    0    0  501  0.00000000000E+00  0.00000000000E+00  0.47632367413E+03  0.47632367416E+03  0.50400001928E-02 0. -1.
        1   -1    0    0  501    0  0.00000000000E+00  0.00000000000E+00 -0.88509813791E+03  0.88509813792E+03  0.50400001928E-02 0.  1.
    10030    2    1    2    0    0  0.00000000000E+00  0.00000000000E+00 -0.40877446377E+03  0.13614218121E+04  0.12986041692E+04 0.  0.
        1    1    3    3  502    0 -0.32471097654E+03  0.50587074498E+03  0.52946788699E+02  0.60344493649E+03  0.50400001928E-02 0. -1.
       -1    1    3    3    0  502  0.32471097654E+03 -0.50587074498E+03 -0.46172125247E+03  0.75797687559E+03  0.50400001928E-02 0.  1.
</event>
<event>
 5   0  0.1694675E-03  0.1319217E+04  0.7818609E-02  0.9014463E-01
       -2   -1    0    0    0  501  0.00000000000E+00  0.00000000000E+00  0.23715169138E+03  0.23715169140E+03  0.25500000920E-02 0. -1.
        2   -1    0    0  501    0  0.00000000000E+00  0.00000000000E+00 -0.18346199631E+04  0.18346199631E+04  0.25500000920E-02 0.  1.
    10030    2    1    2    0    0  0.00000000000E+00  0.00000000000E+00 -0.15974682717E+04  0.20717716545E+04  0.13192167787E+04 0.  0.
        4    1    3    3  502    0 -0.53950970663E+03  0.21839062012E+03 -0.31134493271E+03  0.66007762159E+03  0.12699999809E+01 0. -1.
       -4    1    3    3    0  502  0.53950970663E+03 -0.21839062012E+03 -0.12861233390E+04  0.14116940329E+04  0.12699999809E+01 0.  1.
</event>
<event>
 5   0  0.9098192E-04  0.1282469E+04  0.7818609E-02  0.9043584E-01
       -1   -1    0    0    0  501  0.00000000000E+00  0.00000000000E+00  0.47763198990E+03  0.47763198993E+03  0.50400001928E-02 0.  1.
        1   -1    0    0  501    0  0.00000000000E+00  0.00000000000E+00 -0.86087608141E+03  0.86087608143E+03  0.50400001928E-02 0. -1.
    10030    2    1    2    0    0  0.00000000000E+00  0.00000000000E+00 -0.38324409151E+03  0.13385080714E+04  0.12824694240E+04 0.  0.
        1    1    3    3  502    0  0.37348689530E+03  0.50111657299E+03 -0.41926525657E+02  0.62639293919E+03  0.50400001928E-02 0.  1.
       -1    1    3    3    0  502 -0.37348689530E+03 -0.50111657299E+03 -0.34131756585E+03  0.71211513217E+03  0.50400001928E-02 0. -1.
</event>
<event>
 5   0  0.1694675E-03  0.1282984E+04  0.7818609E-02  0.9043169E-01
       -2   -1    0    0    0  501  0.00000000000E+00  0.00000000000E+00  0.40427713185E+03  0.40427713186E+03  0.25500000920E-02 0.  1.
        2   -1    0    0  501    0  0.00000000000E+00  0.00000000000E+00 -0.10178951602E+04  0.10178951602E+04  0.25500000920E-02 0. -1.
    10030    2    1    2    0    0  0.00000000000E+00  0.00000000000E+00 -0.61361802832E+03  0.14221722920E+04  0.12829836100E+04 0.  0.
        4    1    3    3  502    0 -0.31791754074E+03  0.19340921835E+03 -0.88602085319E+03  0.96099596963E+03  0.12699999809E+01 0. -1.
       -4    1    3    3    0  502  0.31791754074E+03 -0.19340921835E+03  0.27240282487E+03  0.46117632241E+03  0.12699999809E+01 0.  1.
</event>
<event>
 5   0  0.1714861E-03  0.1291093E+04  0.7818609E-02  0.9036658E-01
       -2   -1    0    0    0  501  0.00000000000E+00  0.00000000000E+00  0.89523071345E+03  0.89523071345E+03  0.25500000920E-02 0. -1.
        2   -1    0    0  501    0  0.00000000000E+00  0.00000000000E+00 -0.46550058178E+03  0.46550058179E+03  0.25500000920E-02 0.  1.
    10030    2    1    2    0    0  0.00000000000E+00  0.00000000000E+00  0.42973013167E+03  0.13607312952E+04  0.12910932080E+04 0.  0.
        1    1    3    3  502    0  0.14565061808E+03 -0.35843823610E+03  0.75949510547E+03  0.85236429236E+03  0.50400001928E-02 0. -1.
       -1    1    3    3    0  502 -0.14565061808E+03  0.35843823610E+03 -0.32976497380E+03  0.50836700287E+03  0.50400001928E-02 0.  1.
</event>
<event>
 5   0  0.6284125E-04  0.1321529E+04  0.7818609E-02  0.9012664E-01
       -4   -1    0    0    0  501  0.00000000000E+00  0.00000000000E+00  0.20991723031E+04  0.20991726873E+04  0.12699999809E+01 0. -1.
        4   -1    0    0  501    0  0.00000000000E+00  0.00000000000E+00 -0.20798911331E+03  0.20799299064E+03  0.12699999809E+01 0.  1.
    10030    2    1    2    0    0  0.00000000000E+00  0.00000000000E+00  0.18911831898E+04  0.23071656779E+04  0.13215292687E+04 0.  0.
        3    1    3    3  502    0 -0.43443437063E+03 -0.48757538041E+03  0.76973078533E+03  0.10094297727E+04  0.10100000352E+00 0. -1.
       -3    1    3    3    0  502  0.43443437063E+03  0.48757538041E+03  0.11214524045E+04  0.12977359052E+04  0.10100000352E+00 0.  1.
</event>
<event>
 5   0  0.9098192E-04  0.1319907E+04  0.7818609E-02  0.9013926E-01
       -1   -1    0    0    0  501  0.00000000000E+00  0.00000000000E+00  0.53815259424E+03  0.53815259426E+03  0.50400001928E-02 0.  1.
        1   -1    0    0  501    0  0.00000000000E+00  0.00000000000E+00 -0.80932233037E+03  0.80932233039E+03  0.50400001928E-02 0. -1.
    10030    2    1    2    0    0  0.00000000000E+00  0.00000000000E+00 -0.27116973614E+03  0.13474749247E+04  0.13199074387E+04 0.  0.
        1    1    3    3  502    0 -0.61275671223E+03 -0.64544585224E+01 -0.38570496793E+03  0.72407235186E+03  0.50400001928E-02 0. -1.
       -1    1    3    3    0  502  0.61275671223E+03  0.64544585224E+01  0.11453523180E+03  0.62340257279E+03  0.50400001928E-02 0.  1.
</event>
<event>
 5   0  0.6284125E-04  0.1300706E+04  0.7818609E-02  0.9029005E-01
       -3   -1    0    0    0  501  0.00000000000E+00  0.00000000000E+00  0.47183056269E+03  0.47183057350E+03  0.10100000352E+00 0. -1.
        3   -1    0    0  501    0  0.00000000000E+00  0.00000000000E+00 -0.89642206664E+03  0.89642207233E+03  0.10100000352E+00 0.  1.
    10030    2    1    2    0    0  0.00000000000E+00  0.00000000000E+00 -0.42459150395E+03  0.13682526458E+04  0.13007064840E+04 0.  0.
        2    1    3    3  502    0 -0.82951050026E+02 -0.46070274347E+03  0.26262657046E+03  0.53675004430E+03  0.25500000920E-02 0. -1.
       -2    1    3    3    0  502  0.82951050026E+02  0.46070274347E+03 -0.68721807441E+03  0.83150260153E+03  0.25500000920E-02 0.  1.
</event>
<event>
 5   0  0.1694675E-03  0.1327384E+04  0.7818609E-02  0.9008127E-01
       -2   -1    0    0    0  501  0.00000000000E+00  0.00000000000E+00  0.57132008730E+03  0.57132008731E+03  0.25500000920E-02 0.  1.
        2   -1    0    0  501    0  0.00000000000E+00  0.00000000000E+00 -0.77099829066E+03  0.77099829067E+03  0.25500000920E-02 0. -1.
    10030    2    1    2    0    0  0.00000000000E+00  0.00000000000E+00 -0.19967820336E+03  0.13423183780E+04  0.13273836081E+04 0.  0.
        4    1    3    3  502    0  0.72550098998E+02 -0.59676354913E+03  0.18456342919E+03  0.62885254451E+03  0.12699999809E+01 0.  1.
       -4    1    3    3    0  502 -0.72550098998E+02  0.59676354913E+03 -0.38424163255E+03  0.71346583347E+03  0.12699999809E+01 0. -1.
</event>
<event>
 5   0  0.9081324E-04  0.1302509E+04  0.7818609E-02  0.9027578E-01
        1   -1    0    0  501    0  0.00000000000E+00  0.00000000000E+00  0.17876450107E+04  0.17876450107E+04  0.50400001928E-02 0.  1.
       -1   -1    0    0    0  501  0.00000000000E+00  0.00000000000E+00 -0.23725756012E+03  0.23725756017E+03  0.50400001928E-02 0. -1.
    10030    2    1    2    0    0  0.00000000000E+00  0.00000000000E+00  0.15503874506E+04  0.20249025709E+04  0.13025088002E+04 0.  0.
        4    1    3    3  502    0 -0.42657447744E+03 -0.48758034663E+03  0.67171761168E+03  0.93322373628E+03  0.12699999809E+01 0. -1.
       -4    1    3    3    0  502  0.42657447744E+03  0.48758034663E+03  0.87866983893E+03  0.10916788346E+04  0.12699999809E+01 0.  1.
</event>
<event>
 5   0  0.1694675E-03  0.1300224E+04  0.7818609E-02  0.9029388E-01
        2   -1    0    0  501    0  0.00000000000E+00  0.00000000000E+00  0.11112401301E+04  0.11112401301E+04  0.25500000920E-02 0.  1.
       -2   -1    0    0    0  501  0.00000000000E+00  0.00000000000E+00 -0.38033661056E+03  0.38033661057E+03  0.25500000920E-02 0. -1.
    10030    2    1    2    0    0  0.00000000000E+00  0.00000000000E+00  0.73090351952E+03  0.14915767407E+04  0.13002235263E+04 0.  0.
        4    1    3    3  502    0 -0.10286976800E+03  0.54774549735E+03  0.74943043177E+03  0.93394587851E+03  0.12699999809E+01 0.  1.
       -4    1    3    3    0  502  0.10286976800E+03 -0.54774549735E+03 -0.18526912246E+02  0.55763086214E+03  0.12699999809E+01 0. -1.
</event>
<event>
 5   0  0.9110949E-04  0.1305429E+04  0.7818609E-02  0.9025271E-01
        1   -1    0    0  501    0  0.00000000000E+00  0.00000000000E+00  0.37185866815E+03  0.37185866819E+03  0.50400001928E-02 0. -1.
       -1   -1    0    0    0  501  0.00000000000E+00  0.00000000000E+00 -0.11456941037E+04  0.11456941037E+04  0.50400001928E-02 0.  1.
    10030    2    1    2    0    0  0.00000000000E+00  0.00000000000E+00 -0.77383543557E+03  0.15175527719E+04  0.13054290997E+04 0.  0.
        2    1    3    3  502    0  0.58426972060E+03 -0.27398300284E+03 -0.50080939816E+03  0.81685240132E+03  0.25500000920E-02 0. -1.
       -2    1    3    3    0  502 -0.58426972060E+03  0.27398300284E+03 -0.27302603742E+03  0.70070037060E+03  0.25500000920E-02 0.  1.
</event>
<event>
 5   0  0.1714861E-03  0.1309633E+04  0.7818609E-02  0.9021961E-01
        2   -1    0    0  501    0  0.00000000000E+00  0.00000000000E+00  0.96003883621E+03  0.96003883622E+03  0.25500000920E-02 0.  1.
       -2   -1    0    0    0  501  0.00000000000E+00  0.00000000000E+00 -0.44663227962E+03  0.44663227962E+03  0.25500000920E-02 0. -1.
    10030    2    1    2    0    0  0.00000000000E+00  0.00000000000E+00  0.51340655660E+03  0.14066711158E+04  0.13096325194E+04 0.  0.
        1    1    3    3  502    0 -0.81757085688E+02 -0.64689331735E+03  0.32140942064E+03  0.72695199346E+03  0.50400001928E-02 0.  1.
       -1    1    3    3    0  502  0.81757085688E+02  0.64689331735E+03  0.19199713596E+03  0.67971912238E+03  0.50400001928E-02 0. -1.
</event>
<event>
 5   0  0.9215829E-04  0.1301995E+04  0.7818609E-02  0.9027984E-01
        1   -1    0    0  501    0  0.00000000000E+00  0.00000000000E+00  0.23184791393E+04  0.23184791393E+04  0.50400001928E-02 0. -1.
       -1   -1    0    0    0  501  0.00000000000E+00  0.00000000000E+00 -0.18279139687E+03  0.18279139693E+03  0.50400001928E-02 0.  1.
    10030    2    1    2    0    0  0.00000000000E+00  0.00000000000E+00  0.21356877424E+04  0.25012705362E+04  0.13019954540E+04 0.  0.
        3    1    3    3  502    0 -0.37777656939E+02  0.48162078287E+03  0.22954535099E+03  0.53486148508E+03  0.10100000352E+00 0. -1.
       -3    1    3    3    0  502  0.37777656939E+02 -0.48162078287E+03  0.19061423914E+04  0.19664090511E+04  0.10100000352E+00 0.  1.
</event>
<event>
 5   0  0.9098192E-04  0.1309262E+04  0.7818609E-02  0.9022252E-01
        1   -1    0    0  501    0  0.00000000000E+00  0.00000000000E+00  0.95649781088E+03  0.95649781089E+03  0.50400001928E-02 0.  1.
       -1   -1    0    0    0  501  0.00000000000E+00  0.00000000000E+00 -0.44803229382E+03  0.44803229385E+03  0.50400001928E-02 0. -1.
    10030    2    1    2    0    0  0.00000000000E+00  0.00000000000E+00  0.50846551706E+03  0.14045301047E+04  0.13092622476E+04 0.  0.
        1    1    3    3  502    0  0.54154356952E+03  0.36712175398E+03  0.27807827318E+03  0.71089756362E+03  0.50400001928E-02 0. -1.
       -1    1    3    3    0  502 -0.54154356952E+03 -0.36712175398E+03  0.23038724388E+03  0.69363254112E+03  0.50400001928E-02 0.  1.
</event>
<event>
 5   0  0.9215829E-04  0.1320036E+04  0.7818609E-02  0.9013825E-01
        1   -1    0    0  501    0  0.00000000000E+00  0.00000000000E+00  0.12023028695E+04  0.12023028695E+04  0.50400001928E-02 0. -1.
       -1   -1    0    0    0  501  0.00000000000E+00  0.00000000000E+00 -0.36232466850E+03  0.36232466853E+03  0.50400001928E-02 0.  1.
    10030    2    1    2    0    0  0.00000000000E+00  0.00000000000E+00  0.83997820103E+03  0.15646275381E+04  0.13200363460E+04 0.  0.
        3    1    3    3  502    0  0.94703894633E+02 -0.59458850416E+03  0.74049953042E+03  0.95438141311E+03  0.10100000352E+00 0. -1.
       -3    1    3    3    0  502 -0.94703894633E+02  0.59458850416E+03  0.99478670617E+02  0.61024612497E+03  0.10100000352E+00 0.  1.
</event>
<event>
 5   0  0.1623890E-03  0.1297646E+04  0.7818609E-02  0.9031434E-01
        2   -1    0    0  501    0  0.00000000000E+00  0.00000000000E+00  0.57064793734E+03  0.57064793734E+03  0.25500000920E-02 0.  1.
       -2   -1    0    0    0  501  0.00000000000E+00  0.00000000000E+00 -0.73770736660E+03  0.73770736660E+03  0.25500000920E-02 0. -1.
    10030    2    1    2    0    0  0.00000000000E+00  0.00000000000E+00 -0.16705942926E+03  0.13083553039E+04  0.12976458486E+04 0.  0.
        3    1    3    3  502    0 -0.62627089258E+03 -0.12097480889E+03 -0.20334242269E+03  0.66947612829E+03  0.10100000352E+00 0. -1.
       -3    1    3    3    0  502  0.62627089258E+03  0.12097480889E+03  0.36282993427E+02  0.63887917566E+03  0.10100000352E+00 0.  1.
</event>
<event>
 5   0  0.1700511E-03  0.1327705E+04  0.7818609E-02  0.9007879E-01
       -2   -1    0    0    0  501  0.00000000000E+00  0.00000000000E+00  0.38981439832E+03  0.38981439832E+03  0.25500000920E-02 0. -1.
        2   -1    0    0  501    0  0.00000000000E+00  0.00000000000E+00 -0.11305375681E+04  0.11305375681E+04  0.25500000920E-02 0.  1.
    10030    2    1    2    0    0  0.00000000000E+00  0.00000000000E+00 -0.74072316982E+03  0.15203519665E+04  0.13277045182E+04 0.  0.
        2    1    3    3  502    0  0.27370601098E+00 -0.66171343510E+03 -0.43133283788E+03  0.78988148615E+03  0.25500000920E-02 0. -1.
       -2    1    3    3    0  502 -0.27370601098E+00  0.66171343510E+03 -0.30939033194E+03  0.73047048032E+03  0.25500000920E-02 0.  1.
</event>
<event>
 5   0  0.9081324E-04  0.1297060E+04  0.7818609E-02  0.9031900E-01
        1   -1    0    0  501    0  0.00000000000E+00  0.00000000000E+00  0.10784734886E+04  0.10784734887E+04  0.50400001928E-02 0. -1.
       -1   -1    0    0    0  501  0.00000000000E+00  0.00000000000E+00 -0.38998735417E+03  0.38998735420E+03  0.50400001928E-02 0.  1.
    10030    2    1    2    0    0  0.00000000000E+00  0.00000000000E+00  0.68848613447E+03  0.14684608429E+04  0.12970597865E+04 0.  0.
        4    1    3    3  502    0  0.23107591892E+03  0.33304213075E+03 -0.22889145860E+03  0.46551697486E+03  0.12699999809E+01 0.  1.
       -4    1    3    3    0  502 -0.23107591892E+03 -0.33304213075E+03  0.91737759308E+03  0.10029438680E+04  0.12699999809E+01 0. -1.
</event>
<event>
 5   0  0.1714861E-03  0.1289010E+04  0.7818609E-02  0.9038326E-01
        2   -1    0    0  501    0  0.00000000000E+00  0.00000000000E+00  0.56154156300E+03  0.56154156300E+03  0.25500000920E-02 0.  1.
       -2   -1    0    0    0  501  0.00000000000E+00  0.00000000000E+00 -0.73972554193E+03  0.73972554193E+03  0.25500000920E-02 0. -1.
    10030    2    1    2    0    0  0.00000000000E+00  0.00000000000E+00 -0.17818397893E+03  0.13012671049E+04  0.12890099100E+04 0.  0.
        1    1    3    3  502    0 -0.40972906990E+03  0.16698181729E+03  0.38400683859E+03  0.58585159395E+03  0.50400001928E-02 0.  1.
       -1    1    3    3    0  502  0.40972906990E+03 -0.16698181729E+03 -0.56219081752E+03  0.71541551098E+03  0.50400001928E-02 0. -1.
</event>
<event>
 5   0  0.6284125E-04  0.1311201E+04  0.7818609E-02  0.9020729E-01
        4   -1    0    0  501    0  0.00000000000E+00  0.00000000000E+00  0.11043264068E+04  0.11043271371E+04  0.12699999809E+01 0.  1.
       -4   -1    0    0    0  501  0.00000000000E+00  0.00000000000E+00 -0.38920574193E+03  0.38920781396E+03  0.12699999809E+01 0. -1.
    10030    2    1    2    0    0  0.00000000000E+00  0.00000000000E+00  0.71512066488E+03  0.14935349510E+04  0.13112013898E+04 0.  0.
        2    1    3    3  502    0  0.48388571902E+03 -0.27833726489E+03  0.74916332267E+03  0.93427121659E+03  0.25500000920E-02 0.  1.
       -2    1    3    3    0  502 -0.48388571902E+03  0.27833726489E+03 -0.34042657792E+02  0.55926373444E+03  0.25500000920E-02 0. -1.
</event>
<event>
 5   0  0.9081324E-04  0.1295902E+04  0.7818609E-02  0.9032821E-01
       -1   -1    0    0    0  501  0.00000000000E+00  0.00000000000E+00  0.33682344408E+03  0.33682344412E+03  0.50400001928E-02 0.  1.
        1   -1    0    0  501    0  0.00000000000E+00  0.00000000000E+00 -0.12464714259E+04  0.12464714259E+04  0.50400001928E-02 0. -1.
    10030    2    1    2    0    0  0.00000000000E+00  0.00000000000E+00 -0.90964798186E+03  0.15832948701E+04  0.12959024634E+04 0.  0.
        4    1    3    3  502    0 -0.10766396953E+02  0.37580801466E+03  0.18993223502E+03  0.42121662596E+03  0.12699999809E+01 0.  1.
       -4    1    3    3    0  502  0.10766396953E+02 -0.37580801466E+03 -0.10995802169E+04  0.11620782441E+04  0.12699999809E+01 0. -1.
</event>
<event>
 5   0  0.1714861E-03  0.1293425E+04  0.7818609E-02  0.9034796E-01
        2   -1    0    0  501    0  0.00000000000E+00  0.00000000000E+00  0.36090369574E+03  0.36090369575E+03  0.25500000920E-02 0. -1.
       -2   -1    0    0    0  501  0.00000000000E+00  0.00000000000E+00 -0.11588603552E+04  0.11588603552E+04  0.25500000920E-02 0.  1.
    10030    2    1    2    0    0  0.00000000000E+00  0.00000000000E+00 -0.79795665946E+03  0.15197640510E+04  0.12934248877E+04 0.  0.
        1    1    3    3  502    0  0.64805996860E+02  0.55386225485E+03 -0.14136982104E+02  0.55781992513E+03  0.50400001928E-02 0. -1.
       -1    1    3    3    0  502 -0.64805996860E+02 -0.55386225485E+03 -0.78381967736E+03  0.96194412583E+03  0.50400001928E-02 0.  1.
</event>
<event>
 5   0  0.9098192E-04  0.1272835E+04  0.7818609E-02  0.9051389E-01
        1   -1    0    0  501    0  0.00000000000E+00  0.00000000000E+00  0.13451552503E+04  0.13451552503E+04  0.50400001928E-02 0. -1.
       -1   -1    0    0    0  501  0.00000000000E+00  0.00000000000E+00 -0.30110073254E+03  0.30110073258E+03  0.50400001928E-02 0.  1.
    10030    2    1    2    0    0  0.00000000000E+00  0.00000000000E+00  0.10440545177E+04  0.16462559828E+04  0.12728349952E+04 0.  0.
        1    1    3    3  502    0  0.63785495097E+02  0.61944354716E+03  0.69189027550E+03  0.93085501065E+03  0.50400001928E-02 0.  1.
       -1    1    3    3    0  502 -0.63785495097E+02 -0.61944354716E+03  0.35216424221E+03  0.71540097219E+03  0.50400001928E-02 0. -1.
</event>
<event>
 5   0  0.1714861E-03  0.1297021E+04  0.7818609E-02  0.9031931E-01
       -2   -1    0    0    0  501  0.00000000000E+00  0.00000000000E+00  0.17879340428E+03  0.17879340430E+03  0.25500000920E-02 0. -1.
        2   -1    0    0  501    0  0.00000000000E+00  0.00000000000E+00 -0.23522435581E+04  0.23522435581E+04  0.25500000920E-02 0.  1.
    10030    2    1    2    0    0  0.00000000000E+00  0.00000000000E+00 -0.21734501538E+04  0.25310369624E+04  0.12970206374E+04 0.  0.
        1    1    3    3  502    0  0.13248108705E+03  0.49420600296E+03 -0.18643003077E+04  0.19332372977E+04  0.50400001928E-02 0. -1.
       -1    1    3    3    0  502 -0.13248108705E+03 -0.49420600296E+03 -0.30914984614E+03  0.59779966475E+03  0.50400001928E-02 0.  1.
</event>
<event>
 5   0  0.9081324E-04  0.1282380E+04  0.7818609E-02  0.9043656E-01
       -1   -1    0    0    0  501  0.00000000000E+00  0.00000000000E+00  0.51418002713E+03  0.51418002715E+03  0.50400001928E-02 0.  1.
        1   -1    0    0  501    0  0.00000000000E+00  0.00000000000E+00 -0.79957380537E+03  0.79957380538E+03  0.50400001928E-02 0. -1.
    10030    2    1    2    0    0  0.00000000000E+00  0.00000000000E+00 -0.28539377824E+03  0.13137538325E+04  0.12823804131E+04 0.  0.
        4    1    3    3  502    0  0.59901268014E+03 -0.43048052460E+02 -0.37281175344E+03  0.70686600017E+03  0.12699999809E+01 0. -1.
       -4    1    3    3    0  502 -0.59901268014E+03  0.43048052460E+02  0.87417975198E+02  0.60688783237E+03  0.12699999809E+01 0.  1.
</event>
<event>
 5   0  0.1700511E-03  0.1299915E+04  0.7818609E-02  0.9029633E-01
        2   -1    0    0  501    0  0.00000000000E+00  0.00000000000E+00  0.44421213082E+03  0.44421213082E+03  0.25500000920E-02 0.  1.
       -2   -1    0    0    0  501  0.00000000000E+00  0.00000000000E+00 -0.95099788169E+03  0.95099788169E+03  0.25500000920E-02 0. -1.
    10030    2    1    2    0    0  0.00000000000E+00  0.00000000000E+00 -0.50678575087E+03  0.13952100125E+04  0.12999150671E+04 0.  0.
        2    1    3    3  502    0  0.51731304375E+03  0.20607578141E+03 -0.61317510965E+03  0.82828964017E+03  0.25500000920E-02 0. -1.
       -2    1    3    3    0  502 -0.51731304375E+03 -0.20607578141E+03  0.10638935878E+03  0.56692037235E+03  0.25500000920E-02 0.  1.
</event>
<event>
 5   0  0.1700511E-03  0.1341791E+04  0.7818609E-02  0.8997065E-01
        2   -1    0    0  501    0  0.00000000000E+00  0.00000000000E+00  0.64741823961E+03  0.64741823962E+03  0.25500000920E-02 0. -1.
       -2   -1    0    0    0  501  0.00000000000E+00  0.00000000000E+00 -0.69522450336E+03  0.69522450336E+03  0.25500000920E-02 0.  1.
    10030    2    1    2    0    0  0.00000000000E+00  0.00000000000E+00 -0.47806263742E+02  0.13426427430E+04  0.13417913759E+04 0.  0.
        2    1    3    3  502    0  0.10077321018E+03  0.11571966312E+03 -0.67742911740E+03  0.69459087917E+03  0.25500000920E-02 0.  1.
       -2    1    3    3    0  502 -0.10077321018E+03 -0.11571966312E+03  0.62962285366E+03  0.64805186380E+03  0.25500000920E-02 0. -1.
</event>
<event>
 5   0  0.9081324E-04  0.1299766E+04  0.7818609E-02  0.9029750E-01
        1   -1    0    0  501    0  0.00000000000E+00  0.00000000000E+00  0.10537653124E+04  0.10537653124E+04  0.50400001928E-02 0.  1.
       -1   -1    0    0    0  501  0.00000000000E+00  0.00000000000E+00 -0.40079906771E+03  0.40079906774E+03  0.50400001928E-02 0. -1.
    10030    2    1    2    0    0  0.00000000000E+00  0.00000000000E+00  0.65296624469E+03  0.14545643802E+04  0.12997663711E+04 0.  0.
        4    1    3    3  502    0 -0.21996623518E+03 -0.60688870455E+03  0.24238318362E+03  0.68952901675E+03  0.12699999809E+01 0. -1.
       -4    1    3    3    0  502  0.21996623518E+03  0.60688870455E+03  0.41058306107E+03  0.76503536341E+03  0.12699999809E+01 0.  1.
</event>
<event>
 5   0  0.9027076E-04  0.1298752E+04  0.7818609E-02  0.9030555E-01
        1   -1    0    0  501    0  0.00000000000E+00  0.00000000000E+00  0.10906637083E+04  0.10906637083E+04  0.50400001928E-02 0.  1.
       -1   -1    0    0    0  501  0.00000000000E+00  0.00000000000E+00 -0.38663559992E+03  0.38663559995E+03  0.50400001928E-02 0. -1.
    10030    2    1    2    0    0  0.00000000000E+00  0.00000000000E+00  0.70402810833E+03  0.14772993082E+04  0.12987523508E+04 0.  0.
        5    1    3    3  502    0  0.58805373583E+03 -0.23865417620E+03  0.19561914143E+03  0.66411742225E+03  0.46999998093E+01 0. -1.
       -5    1    3    3    0  502 -0.58805373583E+03  0.23865417620E+03  0.50840896690E+03  0.81318188597E+03  0.46999998093E+01 0.  1.
</event>
<event>
 5   0  0.9110949E-04  0.1301139E+04  0.7818609E-02  0.9028662E-01
        1   -1    0    0  501    0  0.00000000000E+00  0.00000000000E+00  0.43144909331E+03  0.43144909334E+03  0.50400001928E-02 0.  1.
       -1   -1    0    0    0  501  0.00000000000E+00  0.00000000000E+00 -0.98097469961E+03  0.98097469962E+03  0.50400001928E-02 0. -1.
    10030    2    1    2    0    0  0.00000000000E+00  0.00000000000E+00 -0.54952560629E+03  0.14124237930E+04  0.13011389545E+04 0.  0.
        2    1    3    3  502    0 -0.45941364261E+03 -0.11316984769E+03 -0.75946366672E+03  0.89479236168E+03  0.25500000920E-02 0. -1.
       -2    1    3    3    0  502  0.45941364261E+03  0.11316984769E+03  0.20993806042E+03  0.51763143129E+03  0.25500000920E-02 0.  1.
</event>
<event>
 5   0  0.1623890E-03  0.1289842E+04  0.7818609E-02  0.9037660E-01
        2   -1    0    0  501    0  0.00000000000E+00  0.00000000000E+00  0.78955290178E+03  0.78955290178E+03  0.25500000920E-02 0. -1.
       -2   -1    0    0    0  501  0.00000000000E+00  0.00000000000E+00 -0.52678287419E+03  0.52678287420E+03  0.25500000920E-02 0.  1.
    10030    2    1    2    0    0  0.00000000000E+00  0.00000000000E+00  0.26277002758E+03  0.13163357760E+04  0.12898417685E+04 0.  0.
        3    1    3    3  502    0 -0.58982235320E+03  0.13197527990E+02 -0.13446207439E+03  0.60509887021E+03  0.10100000352E+00 0.  1.
       -3    1    3    3    0  502  0.58982235320E+03 -0.13197527990E+02  0.39723210197E+03  0.71123690577E+03  0.10100000352E+00 0. -1.
</event>
<event>
 5   0  0.9110949E-04  0.1267388E+04  0.7818609E-02  0.9055834E-01
        1   -1    0    0  501    0  0.00000000000E+00  0.00000000000E+00  0.14313187172E+04  0.14313187172E+04  0.50400001928E-02 0.  1.
       -1   -1    0    0    0  501  0.00000000000E+00  0.00000000000E+00 -0.28055828438E+03  0.28055828442E+03  0.50400001928E-02 0. -1.
    10030    2    1    2    0    0  0.00000000000E+00  0.00000000000E+00  0.11507604328E+04  0.17118770016E+04  0.12673883757E+04 0.  0.
        2    1    3    3  502    0 -0.54075167160E+03 -0.89719587400E+02  0.10048692231E+04  0.11446502218E+04  0.25500000920E-02 0.  1.
       -2    1    3    3    0  502  0.54075167160E+03  0.89719587400E+02  0.14589120974E+03  0.56722677986E+03  0.25500000920E-02 0. -1.
</event>
<event>
 5   0  0.9098192E-04  0.1293394E+04  0.7818609E-02  0.9034820E-01
        1   -1    0    0  501    0  0.00000000000E+00  0.00000000000E+00  0.29775160631E+03  0.29775160635E+03  0.50400001928E-02 0. -1.
       -1   -1    0    0    0  501  0.00000000000E+00  0.00000000000E+00 -0.14045838569E+04  0.14045838569E+04  0.50400001928E-02 0.  1.
    10030    2    1    2    0    0  0.00000000000E+00  0.00000000000E+00 -0.11068322505E+04  0.17023354632E+04  0.12933941389E+04 0.  0.
        1    1    3    3  502    0 -0.53296739065E+03  0.19764624533E+03 -0.14753222395E+03  0.58726828190E+03  0.50400001928E-02 0. -1.
       -1    1    3    3    0  502  0.53296739065E+03 -0.19764624533E+03 -0.95930002660E+03  0.11150671813E+04  0.50400001928E-02 0.  1.
</event>
<event>
 5   0  0.1714861E-03  0.1285525E+04  0.7818609E-02  0.9041124E-01
       -2   -1    0    0    0  501  0.00000000000E+00  0.00000000000E+00  0.11686839316E+04  0.11686839316E+04  0.25500000920E-02 0. -1.
        2   -1    0    0  501    0  0.00000000000E+00  0.00000000000E+00 -0.35351159062E+03  0.35351159063E+03  0.25500000920E-02 0.  1.
    10030    2    1    2    0    0  0.00000000000E+00  0.00000000000E+00  0.81517234098E+03  0.15221955222E+04  0.12855245087E+04 0.  0.
        1    1    3    3  502    0 -0.11296869958E+03  0.30151042447E+03 -0.25113460064E+03  0.40833693295E+03  0.50400001928E-02 0.  1.
       -1    1    3    3    0  502  0.11296869958E+03 -0.30151042447E+03  0.10663069416E+04  0.11138585893E+04  0.50400001928E-02 0. -1.
</event>
<event>
 5   0  0.9027076E-04  0.1287825E+04  0.7818609E-02  0.9039276E-01
        1   -1    0    0  501    0  0.00000000000E+00  0.00000000000E+00  0.70193112633E+03  0.70193112635E+03  0.50400001928E-02 0.  1.
       -1   -1    0    0    0  501  0.00000000000E+00  0.00000000000E+00 -0.59068910263E+03  0.59068910265E+03  0.50400001928E-02 0. -1.
    10030    2    1    2    0    0  0.00000000000E+00  0.00000000000E+00  0.11124202370E+03  0.12926202290E+04  0.12878246265E+04 0.  0.
        5    1    3    3  502    0 -0.14979965618E+03  0.56105077180E+03  0.33483502111E+03  0.67033908352E+03  0.46999998093E+01 0.  1.
       -5    1    3    3    0  502  0.14979965618E+03 -0.56105077180E+03 -0.22359299742E+03  0.62228114548E+03  0.46999998093E+01 0. -1.
</event>
<event>
 5   0  0.9027076E-04  0.1276477E+04  0.7818609E-02  0.9048430E-01
        1   -1    0    0  501    0  0.00000000000E+00  0.00000000000E+00  0.77958265587E+03  0.77958265589E+03  0.50400001928E-02 0.  1.
       -1   -1    0    0    0  501  0.00000000000E+00  0.00000000000E+00 -0.52252112674E+03  0.52252112676E+03  0.50400001928E-02 0. -1.
    10030    2    1    2    0    0  0.00000000000E+00  0.00000000000E+00  0.25706152913E+03  0.13021037827E+04  0.12764770390E+04 0.  0.
        5    1    3    3  502    0 -0.61468085975E+03 -0.13284830352E+03  0.23955089027E+03  0.67296950162E+03  0.46999998093E+01 0. -1.
       -5    1    3    3    0  502  0.61468085975E+03  0.13284830352E+03  0.17510638866E+02  0.62913428103E+03  0.46999998093E+01 0.  1.
</event>
<event>
 5   0  0.1700511E-03  0.1296276E+04  0.7818609E-02  0.9032524E-01
       -2   -1    0    0    0  501  0.00000000000E+00  0.00000000000E+00  0.74872816951E+03  0.74872816951E+03  0.25500000920E-02 0. -1.
        2   -1    0    0  501    0  0.00000000000E+00  0.00000000000E+00 -0.56106156923E+03  0.56106156924E+03  0.25500000920E-02 0.  1.
    10030    2    1    2    0    0  0.00000000000E+00  0.00000000000E+00  0.18766660028E+03  0.13097897388E+04  0.12962755906E+04 0.  0.
        2    1    3    3  502    0  0.13556399100E+03 -0.30195696516E+03 -0.46922572288E+03  0.57421980415E+03  0.25500000920E-02 0.  1.
       -2    1    3    3    0  502 -0.13556399100E+03  0.30195696516E+03  0.65689232315E+03  0.73556993460E+03  0.25500000920E-02 0. -1.
</event>
<event>
 5   0  0.1700511E-03  0.1292307E+04  0.7818609E-02  0.9035688E-01
       -2   -1    0    0    0  501  0.00000000000E+00  0.00000000000E+00  0.42742595818E+03  0.42742595818E+03  0.25500000920E-02 0. -1.
        2   -1    0    0  501    0  0.00000000000E+00  0.00000000000E+00 -0.97681084560E+03  0.97681084560E+03  0.25500000920E-02 0.  1.
    10030    2    1    2    0    0  0.00000000000E+00  0.00000000000E+00 -0.54938488742E+03  0.14042368038E+04  0.12923069475E+04 0.  0.
        2    1    3    3  502    0  0.90037669544E+02  0.51578936479E+03  0.13674336718E+03  0.54115081008E+03  0.25500000920E-02 0. -1.
       -2    1    3    3    0  502 -0.90037669544E+02 -0.51578936479E+03 -0.68612825460E+03  0.86308599371E+03  0.25500000920E-02 0.  1.
</event>
<event>
 5   0  0.9215829E-04  0.1275406E+04  0.7818609E-02  0.9049299E-01
        1   -1    0    0  501    0  0.00000000000E+00  0.00000000000E+00  0.69739534526E+03  0.69739534528E+03  0.50400001928E-02 0.  1.
       -1   -1    0    0    0  501  0.00000000000E+00  0.00000000000E+00 -0.58311952837E+03  0.58311952839E+03  0.50400001928E-02 0. -1.
    10030    2    1    2    0    0  0.00000000000E+00  0.00000000000E+00  0.11427581689E+03  0.12805148737E+04  0.12754055745E+04 0.  0.
        3    1    3    3  502    0 -0.27586640654E+02 -0.60599555804E+03 -0.14030491188E+03  0.62263722793E+03  0.10100000352E+00 0.  1.
       -3    1    3    3    0  502  0.27586640654E+02  0.60599555804E+03  0.25458072877E+03  0.65787764574E+03  0.10100000352E+00 0. -1.
</event>
<event>
 5   0  0.1667342E-03  0.1301850E+04  0.7818609E-02  0.9028099E-01
       -2   -1    0    0    0  501  0.00000000000E+00  0.00000000000E+00  0.37846547970E+03  0.37846547970E+03  0.25500000920E-02 0. -1.
        2   -1    0    0  501    0  0.00000000000E+00  0.00000000000E+00 -0.11195297281E+04  0.11195297281E+04  0.25500000920E-02 0.  1.
    10030    2    1    2    0    0  0.00000000000E+00  0.00000000000E+00 -0.74106424841E+03  0.14979952078E+04  0.13018499999E+04 0.  0.
        5    1    3    3  502    0 -0.40173326351E+02  0.37700476202E+03  0.23827244847E+03  0.44781953557E+03  0.46999998093E+01 0. -1.
       -5    1    3    3    0  502  0.40173326351E+02 -0.37700476202E+03 -0.97933669688E+03  0.10501756723E+04  0.46999998093E+01 0.  1.
</event>
<event>
 5   0  0.9081324E-04  0.1293163E+04  0.7818609E-02  0.9035005E-01
       -1   -1    0    0    0  501  0.00000000000E+00  0.00000000000E+00  0.16900313923E+04  0.16900313923E+04  0.50400001928E-02 0.  1.
        1   -1    0    0  501    0  0.00000000000E+00  0.00000000000E+00 -0.24737261241E+03  0.24737261246E+03  0.50400001928E-02 0. -1.
    10030    2    1    2    0    0  0.00000000000E+00  0.00000000000E+00  0.14426587799E+04  0.19374040047E+04  0.12931627595E+04 0.  0.
        4    1    3    3  502    0  0.54466870917E+01  0.36154670170E+02 -0.24582072375E+03  0.24852820303E+03  0.12699999809E+01 0. -1.
       -4    1    3    3    0  502 -0.54466870917E+01 -0.36154670170E+02  0.16884795036E+04  0.16888758017E+04  0.12699999809E+01 0.  1.
</event>
<event>
 5   0  0.1700511E-03  0.1304148E+04  0.7818609E-02  0.9026282E-01
        2   -1    0    0  501    0  0.00000000000E+00  0.00000000000E+00  0.92204022047E+03  0.92204022047E+03  0.25500000920E-02 0. -1.
       -2   -1    0    0    0  501  0.00000000000E+00  0.00000000000E+00 -0.46115197453E+03  0.46115197453E+03  0.25500000920E-02 0.  1.
    10030    2    1    2    0    0  0.00000000000E+00  0.00000000000E+00  0.46088824594E+03  0.13831921950E+04  0.13041482558E+04 0.  0.
        2    1    3    3  502    0 -0.25350103780E+03  0.58760717310E+03  0.97737731231E+02  0.64737750204E+03  0.25500000920E-02 0.  1.
       -2    1    3    3    0  502  0.25350103780E+03 -0.58760717310E+03  0.36315051471E+03  0.73581469296E+03  0.25500000920E-02 0. -1.
</event>
<event>
 5   0  0.9215829E-04  0.1301320E+04  0.7818609E-02  0.9028519E-01
       -1   -1    0    0    0  501  0.00000000000E+00  0.00000000000E+00  0.86304928649E+03  0.86304928650E+03  0.50400001928E-02 0.  1.
        1   -1    0    0  501    0  0.00000000000E+00  0.00000000000E+00 -0.49053791836E+03  0.49053791838E+03  0.50400001928E-02 0. -1.
    10030    2    1    2    0    0  0.00000000000E+00  0.00000000000E+00  0.37251136813E+03  0.13535872049E+04  0.13013199460E+04 0.  0.
        3    1    3    3  502    0  0.37728959363E+03  0.11324354483E+03 -0.35241196714E+03  0.52855060561E+03  0.10100000352E+00 0. -1.
       -3    1    3    3    0  502 -0.37728959363E+03 -0.11324354483E+03  0.72492333527E+03  0.82503659927E+03  0.10100000352E+00 0.  1.
</event>
<event>
 5   0  0.9027076E-04  0.1293006E+04  0.7818609E-02  0.9035130E-01
        1   -1    0    0  501    0  0.00000000000E+00  0.00000000000E+00  0.37541580959E+03  0.37541580963E+03  0.50400001928E-02 0. -1.
       -1   -1    0    0    0  501  0.00000000000E+00  0.00000000000E+00 -0.11133419859E+04  0.11133419859E+04  0.50400001928E-02 0.  1.
    10030    2    1    2    0    0  0.00000000000E+00  0.00000000000E+00 -0.73792617634E+03  0.14887577956E+04  0.12930060836E+04 0.  0.
        5    1    3    3  502    0  0.21337888449E+03 -0.33896922661E+03 -0.95324629426E+03  0.10339880427E+04  0.46999998093E+01 0.  1.
       -5    1    3    3    0  502 -0.21337888449E+03  0.33896922661E+03  0.21532011793E+03  0.45476975286E+03  0.46999998093E+01 0. -1.
</event>
<event>
 5   0  0.9110949E-04  0.1286493E+04  0.7818609E-02  0.9040346E-01
       -1   -1    0    0    0  501  0.00000000000E+00  0.00000000000E+00  0.62432322644E+03  0.62432322646E+03  0.50400001928E-02 0.  1.
        1   -1    0    0  501    0  0.00000000000E+00  0.00000000000E+00 -0.66274300366E+03  0.66274300368E+03  0.50400001928E-02 0. -1.
    10030    2    1    2    0    0  0.00000000000E+00  0.00000000000E+00 -0.38419777216E+02  0.12870662301E+04  0.12864926745E+04 0.  0.
        2    1    3    3  502    0 -0.37070211743E+03 -0.47689086285E+02  0.50454193628E+03  0.62789877710E+03  0.25500000920E-02 0.  1.
       -2    1    3    3    0  502  0.37070211743E+03  0.47689086285E+02 -0.54296171350E+03  0.65916745304E+03  0.25500000920E-02 0. -1.
</event>
<event>
 5   0  0.9027076E-04  0.1272717E+04  0.7818609E-02  0.9051485E-01
        1   -1    0    0  501    0  0.00000000000E+00  0.00000000000E+00  0.69129190131E+03  0.69129190133E+03  0.50400001928E-02 0.  1.
       -1   -1    0    0    0  501  0.00000000000E+00  0.00000000000E+00 -0.58579024651E+03  0.58579024653E+03  0.50400001928E-02 0. -1.
    10030    2    1    2    0    0  0.00000000000E+00  0.00000000000E+00  0.10550165480E+03  0.12770821479E+04  0.12727168629E+04 0.  0.
        5    1    3    3  502    0 -0.13123710920E+03  0.62248309518E+03  0.67687470028E+02  0.63977501218E+03  0.46999998093E+01 0. -1.
       -5    1    3    3    0  502  0.13123710920E+03 -0.62248309518E+03  0.37814184774E+02  0.63730713568E+03  0.46999998093E+01 0.  1.
</event>
<event>
 5   0  0.1700511E-03  0.1309888E+04  0.7818609E-02  0.9021760E-01
        2   -1    0    0  501    0  0.00000000000E+00  0.00000000000E+00  0.50592849231E+03  0.50592849231E+03  0.25500000920E-02 0. -1.
       -2   -1    0    0    0  501  0.00000000000E+00  0.00000000000E+00 -0.84785055289E+03  0.84785055289E+03  0.25500000920E-02 0.  1.
    10030    2    1    2    0    0  0.00000000000E+00  0.00000000000E+00 -0.34192206058E+03  0.13537790452E+04  0.13098881661E+04 0.  0.
        2    1    3    3  502    0  0.10513273817E+03  0.42123147067E+02  0.49573092071E+03  0.50850407856E+03  0.25500000920E-02 0. -1.
       -2    1    3    3    0  502 -0.10513273817E+03 -0.42123147067E+02 -0.83765298130E+03  0.84527496664E+03  0.25500000920E-02 0.  1.
</event>
<event>
 5   0  0.1700511E-03  0.1286322E+04  0.7818609E-02  0.9040482E-01
        2   -1    0    0  501    0  0.00000000000E+00  0.00000000000E+00  0.43915968807E+03  0.43915968807E+03  0.25500000920E-02 0.  1.
       -2   -1    0    0    0  501  0.00000000000E+00  0.00000000000E+00 -0.94192691935E+03  0.94192691936E+03  0.25500000920E-02 0. -1.
    10030    2    1    2    0    0  0.00000000000E+00  0.00000000000E+00 -0.50276723128E+03  0.13810866074E+04  0.12863224045E+04 0.  0.
        2    1    3    3  502    0 -0.52264503954E+03  0.37115690759E+02 -0.65185113785E+03  0.83632847481E+03  0.25500000920E-02 0. -1.
       -2    1    3    3    0  502  0.52264503954E+03 -0.37115690759E+02  0.14908390657E+03  0.54475813262E+03  0.25500000920E-02 0.  1.
</event>
<event>
 5   0  0.9081324E-04  0.1296437E+04  0.7818609E-02  0.9032396E-01
        1   -1    0    0  501    0  0.00000000000E+00  0.00000000000E+00  0.39662003332E+03  0.39662003336E+03  0.50400001928E-02 0.  1.
       -1   -1    0    0    0  501  0.00000000000E+00  0.00000000000E+00 -0.10594195881E+04  0.10594195882E+04  0.50400001928E-02 0. -1.
    10030    2    1    2    0    0  0.00000000000E+00  0.00000000000E+00 -0.66279955481E+03  0.14560396215E+04  0.12964367048E+04 0.  0.
        4    1    3    3  502    0  0.25571032837E+03  0.58876782931E+02  0.33430276707E+03  0.42498729460E+03  0.12699999809E+01 0.  1.
       -4    1    3    3    0  502 -0.25571032837E+03 -0.58876782931E+02 -0.99710232188E+03  0.10310523269E+04  0.12699999809E+01 0. -1.
</event>
<event>
 5   0  0.1694675E-03  0.1296633E+04  0.7818609E-02  0.9032239E-01
        2   -1    0    0  501    0  0.00000000000E+00  0.00000000000E+00  0.11047930855E+04  0.11047930855E+04  0.25500000920E-02 0.  1.
       -2   -1    0    0    0  501  0.00000000000E+00  0.00000000000E+00 -0.38044633656E+03  0.38044633657E+03  0.25500000920E-02 0. -1.
    10030    2    1    2    0    0  0.00000000000E+00  0.00000000000E+00  0.72434674897E+03  0.14852394221E+04  0.12966333052E+04 0.  0.
        4    1    3    3  502    0 -0.16336617261E+03  0.96773699382E+02 -0.34788072690E+03  0.39632848535E+03  0.12699999809E+01 0. -1.
       -4    1    3    3    0  502  0.16336617261E+03 -0.96773699382E+02  0.10722274759E+04  0.10889109368E+04  0.12699999809E+01 0.  1.
</event>
<event>
 5   0  0.6284125E-04  0.1290778E+04  0.7818609E-02  0.9036911E-01
       -3   -1    0    0    0  501  0.00000000000E+00  0.00000000000E+00  0.91341313542E+03  0.91341314100E+03  0.10100000352E+00 0. -1.
        3   -1    0    0  501    0  0.00000000000E+00  0.00000000000E+00 -0.45601134302E+03  0.45601135420E+03  0.10100000352E+00 0.  1.
    10030    2    1    2    0    0  0.00000000000E+00  0.00000000000E+00  0.45740179240E+03  0.13694244952E+04  0.12907776913E+04 0.  0.
        2    1    3    3  502    0  0.51906800806E+03  0.12277422366E+03 -0.15678565195E+03  0.55595579649E+03  0.25500000920E-02 0.  1.
       -2    1    3    3    0  502 -0.51906800806E+03 -0.12277422366E+03  0.61418744435E+03  0.81346869871E+03  0.25500000920E-02 0. -1.
</event>
<event>
 5   0  0.9027076E-04  0.1301683E+04  0.7818609E-02  0.9028232E-01
        1   -1    0    0  501    0  0.00000000000E+00  0.00000000000E+00  0.83134163283E+03  0.83134163284E+03  0.50400001928E-02 0.  1.
       -1   -1    0    0    0  501  0.00000000000E+00  0.00000000000E+00 -0.50953122029E+03  0.50953122031E+03  0.50400001928E-02 0. -1.
    10030    2    1    2    0    0  0.00000000000E+00  0.00000000000E+00  0.32181041254E+03  0.13408728532E+04  0.13016827827E+04 0.  0.
        5    1    3    3  502    0  0.14818241696E+03 -0.34757271100E+03  0.70677224792E+03  0.80144489427E+03  0.46999998093E+01 0.  1.
       -5    1    3    3    0  502 -0.14818241696E+03  0.34757271100E+03 -0.38496183538E+03  0.53942795888E+03  0.46999998093E+01 0. -1.
</event>
<event>
 5   0  0.9215829E-04  0.1309788E+04  0.7818609E-02  0.9021839E-01
       -1   -1    0    0    0  501  0.00000000000E+00  0.00000000000E+00  0.34145745313E+03  0.34145745317E+03  0.50400001928E-02 0.  1.
        1   -1    0    0  501    0  0.00000000000E+00  0.00000000000E+00 -0.12560454918E+04  0.12560454918E+04  0.50400001928E-02 0. -1.
    10030    2    1    2    0    0  0.00000000000E+00  0.00000000000E+00 -0.91458803867E+03  0.15975029450E+04  0.13097879137E+04 0.  0.
        3    1    3    3  502    0  0.36342531676E+03 -0.19463170684E+03 -0.10779186993E+04  0.11540659404E+04  0.10100000352E+00 0. -1.
       -3    1    3    3    0  502 -0.36342531676E+03  0.19463170684E+03  0.16333066064E+03  0.44343700463E+03  0.10100000352E+00 0.  1.
</event>
<event>
 5   0  0.1700511E-03  0.1298370E+04  0.7818609E-02  0.9030859E-01
        2   -1    0    0  501    0  0.00000000000E+00  0.00000000000E+00  0.87849698937E+03  0.87849698937E+03  0.25500000920E-02 0.  1.
       -2   -1    0    0    0  501  0.00000000000E+00  0.00000000000E+00 -0.47972993689E+03  0.47972993689E+03  0.25500000920E-02 0. -1.
    10030    2    1    2    0    0  0.00000000000E+00  0.00000000000E+00  0.39876705248E+03  0.13582269263E+04  0.12983702173E+04 0.  0.
        2    1    3    3  502    0  0.64699546346E+03 -0.46763114440E+02  0.22608241701E+03  0.68695209287E+03  0.25500000920E-02 0. -1.
       -2    1    3    3    0  502 -0.64699546346E+03  0.46763114440E+02  0.17268463547E+03  0.67127483339E+03  0.25500000920E-02 0.  1.
</event>
<event>
 5   0  0.9098192E-04  0.1296212E+04  0.7818609E-02  0.9032575E-01
       -1   -1    0    0    0  501  0.00000000000E+00  0.00000000000E+00  0.49856146568E+03  0.49856146570E+03  0.50400001928E-02 0. -1.
        1   -1    0    0  501    0  0.00000000000E+00  0.00000000000E+00 -0.84250627251E+03  0.84250627252E+03  0.50400001928E-02 0.  1.
    10030    2    1    2    0    0  0.00000000000E+00  0.00000000000E+00 -0.34394480683E+03  0.13410677382E+04  0.12962116526E+04 0.  0.
        1    1    3    3  502    0 -0.27156108983E+03 -0.58832463045E+03 -0.15848812456E+03  0.66707554441E+03  0.50400001928E-02 0.  1.
       -1    1    3    3    0  502  0.27156108983E+03  0.58832463045E+03 -0.18545668227E+03  0.67399219381E+03  0.50400001928E-02 0. -1.
</event>
<event>
 5   0  0.1700511E-03  0.1296458E+04  0.7818609E-02  0.9032379E-01
        2   -1    0    0  501    0  0.00000000000E+00  0.00000000000E+00  0.76823532141E+03  0.76823532141E+03  0.25500000920E-02 0.  1.
       -2   -1    0    0    0  501  0.00000000000E+00  0.00000000000E+00 -0.54696851875E+03  0.54696851876E+03  0.25500000920E-02 0. -1.
    10030    2    1    2    0    0  0.00000000000E+00  0.00000000000E+00  0.22126680265E+03  0.13152038402E+04  0.12964575362E+04 0.  0.
        2    1    3    3  502    0  0.13109791238E+03 -0.49208044071E+03 -0.29625308400E+03  0.58914829419E+03  0.25500000920E-02 0. -1.
       -2    1    3    3    0  502 -0.13109791238E+03  0.49208044071E+03  0.51751988665E+03  0.72605554598E+03  0.25500000920E-02 0.  1.
</event>
<event>
 5   0  0.1700511E-03  0.1291062E+04  0.7818609E-02  0.9036683E-01
        2   -1    0    0  501    0  0.00000000000E+00  0.00000000000E+00  0.56589475783E+03  0.56589475784E+03  0.25500000920E-02 0.  1.
       -2   -1    0    0    0  501  0.00000000000E+00  0.00000000000E+00 -0.73637395637E+03  0.73637395638E+03  0.25500000920E-02 0. -1.
    10030    2    1    2    0    0  0.00000000000E+00  0.00000000000E+00 -0.17047919854E+03  0.13022687142E+04  0.12910618292E+04 0.  0.
        2    1    3    3  502    0  0.44618633033E+03  0.42013203993E+03  0.11929379225E+03  0.62435901629E+03  0.25500000920E-02 0. -1.
       -2    1    3    3    0  502 -0.44618633033E+03 -0.42013203993E+03 -0.28977299079E+03  0.67790969793E+03  0.25500000920E-02 0.  1.
</event>
<event>
 5   0  0.9215829E-04  0.1314324E+04  0.7818609E-02  0.9018282E-01
       -1   -1    0    0    0  501  0.00000000000E+00  0.00000000000E+00  0.32209197441E+03  0.32209197445E+03  0.50400001928E-02 0. -1.
        1   -1    0    0  501    0  0.00000000000E+00  0.00000000000E+00 -0.13408039379E+04  0.13408039379E+04  0.50400001928E-02 0.  1.
    10030    2    1    2    0    0  0.00000000000E+00  0.00000000000E+00 -0.10187119635E+04  0.16628959124E+04  0.13143244466E+04 0.  0.
        3    1    3    3  502    0  0.85087557794E+02 -0.59821312668E+03 -0.18244349611E+03  0.63117705669E+03  0.10100000352E+00 0. -1.
       -3    1    3    3    0  502 -0.85087557794E+02  0.59821312668E+03 -0.83626846741E+03  0.10317188557E+04  0.10100000352E+00 0.  1.
</event>
<event>
 5   0  0.9098192E-04  0.1313373E+04  0.7818609E-02  0.9019027E-01
       -1   -1    0    0    0  501  0.00000000000E+00  0.00000000000E+00  0.80248733983E+03  0.80248733985E+03  0.50400001928E-02 0. -1.
        1   -1    0    0  501    0  0.00000000000E+00  0.00000000000E+00 -0.53737564668E+03  0.53737564671E+03  0.50400001928E-02 0.  1.
    10030    2    1    2    0    0  0.00000000000E+00  0.00000000000E+00  0.26511169315E+03  0.13398629866E+04  0.13133729908E+04 0.  0.
        1    1    3    3  502    0 -0.51945725340E+02 -0.67342564832E+02  0.79684501347E+03  0.80137092219E+03  0.50400001928E-02 0. -1.
       -1    1    3    3    0  502  0.51945725340E+02  0.67342564832E+02 -0.53173332032E+03  0.53849206436E+03  0.50400001928E-02 0.  1.
</event>
<event>
 5   0  0.9215829E-04  0.1302899E+04  0.7818609E-02  0.9027270E-01
        1   -1    0    0  501    0  0.00000000000E+00  0.00000000000E+00  0.78945670481E+03  0.78945670482E+03  0.50400001928E-02 0.  1.
       -1   -1    0    0    0  501  0.00000000000E+00  0.00000000000E+00 -0.53756749811E+03  0.53756749814E+03  0.50400001928E-02 0. -1.
    10030    2    1    2    0    0  0.00000000000E+00  0.00000000000E+00  0.25188920669E+03  0.13270242030E+04  0.13028987155E+04 0.  0.
        3    1    3    3  502    0  0.51202042543E+03 -0.12370756194E+03  0.51634060803E+03  0.73761515077E+03  0.10100000352E+00 0.  1.
       -3    1    3    3    0  502 -0.51202042543E+03  0.12370756194E+03 -0.26445140134E+03  0.58940905219E+03  0.10100000352E+00 0. -1.
</event>
<event>
 5   0  0.6284125E-04  0.1311709E+04  0.7818609E-02  0.9020331E-01
        3   -1    0    0  501    0  0.00000000000E+00  0.00000000000E+00  0.14517826691E+04  0.14517826726E+04  0.10100000352E+00 0.  1.
       -3   -1    0    0    0  501  0.00000000000E+00  0.00000000000E+00 -0.29628756417E+03  0.29628758138E+03  0.10100000352E+00 0. -1.
    10030    2    1    2    0    0  0.00000000000E+00  0.00000000000E+00  0.11554951049E+04  0.17480702540E+04  0.13117090666E+04 0.  0.
        2    1    3    3  502    0  0.16864601780E+03 -0.51224790612E+03  0.10751477098E+04  0.12028225116E+04  0.25500000920E-02 0.  1.
       -2    1    3    3    0  502 -0.16864601780E+03  0.51224790612E+03  0.80347395168E+02  0.54524774237E+03  0.25500000920E-02 0. -1.
</event>
<event>
 5   0  0.9081324E-04  0.1269137E+04  0.7818609E-02  0.9054404E-01
       -1   -1    0    0    0  501  0.00000000000E+00  0.00000000000E+00  0.39888509493E+03  0.39888509496E+03  0.50400001928E-02 0. -1.
        1   -1    0    0  501    0  0.00000000000E+00  0.00000000000E+00 -0.10095071550E+04  0.10095071550E+04  0.50400001928E-02 0.  1.
    10030    2    1    2    0    0  0.00000000000E+00  0.00000000000E+00 -0.61062206003E+03  0.14083922499E+04  0.12691372776E+04 0.  0.
        4    1    3    3  502    0  0.14577836276E+02 -0.12682336378E+03  0.38448679380E+03  0.40512761745E+03  0.12699999809E+01 0. -1.
       -4    1    3    3    0  502 -0.14577836276E+02  0.12682336378E+03 -0.99510885383E+03  0.10032646325E+04  0.12699999809E+01 0.  1.
</event>
<event>
 5   0  0.9081324E-04  0.1305779E+04  0.7818609E-02  0.9024995E-01
       -1   -1    0    0    0  501  0.00000000000E+00  0.00000000000E+00  0.33730218410E+03  0.33730218414E+03  0.50400001928E-02 0. -1.
        1   -1    0    0  501    0  0.00000000000E+00  0.00000000000E+00 -0.12637472438E+04  0.12637472438E+04  0.50400001928E-02 0.  1.
    10030    2    1    2    0    0  0.00000000000E+00  0.00000000000E+00 -0.92644505968E+03  0.16010494279E+04  0.13057790097E+04 0.  0.
        4    1    3    3  502    0  0.21085770451E+03 -0.61030539419E+03 -0.58165287772E+03  0.86905427264E+03  0.12699999809E+01 0.  1.
       -4    1    3    3    0  502 -0.21085770451E+03  0.61030539419E+03 -0.34479218196E+03  0.73199515529E+03  0.12699999809E+01 0. -1.
</event>
<event>
 5   0  0.1714861E-03  0.1304651E+04  0.7818609E-02  0.9025885E-01
       -2   -1    0    0    0  501  0.00000000000E+00  0.00000000000E+00  0.20423434829E+03  0.20423434831E+03  0.25500000920E-02 0. -1.
        2   -1    0    0  501    0  0.00000000000E+00  0.00000000000E+00 -0.20835302613E+04  0.20835302613E+04  0.25500000920E-02 0.  1.
    10030    2    1    2    0    0  0.00000000000E+00  0.00000000000E+00 -0.18792959130E+04  0.22877646096E+04  0.13046508270E+04 0.  0.
        1    1    3    3  502    0  0.37623486291E+03  0.93295962736E+02 -0.19626881708E+02  0.38812629806E+03  0.50400001928E-02 0. -1.
       -1    1    3    3    0  502 -0.37623486291E+03 -0.93295962736E+02 -0.18596690313E+04  0.18996383116E+04  0.50400001928E-02 0.  1.
</event>
<event>
 5   0  0.1623890E-03  0.1298871E+04  0.7818609E-02  0.9030461E-01
        2   -1    0    0  501    0  0.00000000000E+00  0.00000000000E+00  0.12643437766E+04  0.12643437766E+04  0.25500000920E-02 0.  1.
       -2   -1    0    0    0  501  0.00000000000E+00  0.00000000000E+00 -0.33358513313E+03  0.33358513314E+03  0.25500000920E-02 0. -1.
    10030    2    1    2    0    0  0.00000000000E+00  0.00000000000E+00  0.93075864351E+03  0.15979289098E+04  0.12988707204E+04 0.  0.
        3    1    3    3  502    0 -0.17135188216E+03  0.16346547921E+03 -0.27857182137E+03  0.36562918411E+03  0.10100000352E+00 0. -1.
       -3    1    3    3    0  502  0.17135188216E+03 -0.16346547921E+03  0.12093304649E+04  0.12322997257E+04  0.10100000352E+00 0.  1.
</event>
<event>
 5   0  0.9027076E-04  0.1295693E+04  0.7818609E-02  0.9032988E-01
        1   -1    0    0  501    0  0.00000000000E+00  0.00000000000E+00  0.37036760102E+03  0.37036760106E+03  0.50400001928E-02 0. -1.
       -1   -1    0    0    0  501  0.00000000000E+00  0.00000000000E+00 -0.11332123104E+04  0.11332123104E+04  0.50400001928E-02 0.  1.
    10030    2    1    2    0    0  0.00000000000E+00  0.00000000000E+00 -0.76284470935E+03  0.15035799114E+04  0.12956930576E+04 0.  0.
        5    1    3    3  502    0  0.14207051192E+03 -0.27447933677E+03 -0.10421221321E+04  0.10869975000E+04  0.46999998093E+01 0.  1.
       -5    1    3    3    0  502 -0.14207051192E+03  0.27447933677E+03  0.27927742278E+03  0.41658241147E+03  0.46999998093E+01 0. -1.
</event>
<event>
 5   0  0.1700511E-03  0.1265829E+04  0.7818609E-02  0.9057111E-01
       -2   -1    0    0    0  501  0.00000000000E+00  0.00000000000E+00  0.82189127693E+03  0.82189127693E+03  0.25500000920E-02 0. -1.
        2   -1    0    0  501    0  0.00000000000E+00  0.00000000000E+00 -0.48738895738E+03  0.48738895738E+03  0.25500000920E-02 0.  1.
    10030    2    1    2    0    0  0.00000000000E+00  0.00000000000E+00  0.33450231955E+03  0.13092802343E+04  0.12658289498E+04 0.  0.
        2    1    3    3  502    0  0.27689945353E+03  0.49369014164E+03 -0.12562482342E+03  0.57981450447E+03  0.25500000920E-02 0.  1.
       -2    1    3    3    0  502 -0.27689945353E+03 -0.49369014164E+03  0.46012714297E+03  0.72946572985E+03  0.25500000920E-02 0. -1.
</event>
<event>
 5   0  0.1694675E-03  0.1295904E+04  0.7818609E-02  0.9032820E-01
       -2   -1    0    0    0  501  0.00000000000E+00  0.00000000000E+00  0.50734031645E+03  0.50734031645E+03  0.25500000920E-02 0. -1.
        2   -1    0    0  501    0  0.00000000000E+00  0.00000000000E+00 -0.82753477271E+03  0.82753477272E+03  0.25500000920E-02 0.  1.
    10030    2    1    2    0    0  0.00000000000E+00  0.00000000000E+00 -0.32019445627E+03  0.13348750892E+04  0.12959039370E+04 0.  0.
        4    1    3    3  502    0  0.46217211551E+03  0.28143852196E+02  0.30679388449E+03  0.55544508390E+03  0.12699999809E+01 0. -1.
       -4    1    3    3    0  502 -0.46217211551E+03 -0.28143852196E+02 -0.62698834075E+03  0.77943000527E+03  0.12699999809E+01 0.  1.
</event>
<event>
 5   0  0.9081324E-04  0.1343763E+04  0.7818609E-02  0.8995563E-01
       -1   -1    0    0    0  501  0.00000000000E+00  0.00000000000E+00  0.79107859163E+03  0.79107859165E+03  0.50400001928E-02 0. -1.
        1   -1    0    0  501    0  0.00000000000E+00  0.00000000000E+00 -0.57064443297E+03  0.57064443299E+03  0.50400001928E-02 0.  1.
    10030    2    1    2    0    0  0.00000000000E+00  0.00000000000E+00  0.22043415866E+03  0.13617230246E+04  0.13437627683E+04 0.  0.
        4    1    3    3  502    0 -0.19337617057E+03  0.60871869565E+03  0.32154740287E+03  0.71507142228E+03  0.12699999809E+01 0. -1.
       -4    1    3    3    0  502  0.19337617057E+03 -0.60871869565E+03 -0.10111324421E+03  0.64665160236E+03  0.12699999809E+01 0.  1.
</event>
<event>
 5   0  0.1667342E-03  0.1048807E+04  0.7818609E-02  0.9256577E-01
        2   -1    0    0  501    0  0.00000000000E+00  0.00000000000E+00  0.12795147615E+04  0.12795147615E+04  0.25500000920E-02 0. -1.
       -2   -1    0    0    0  501  0.00000000000E+00  0.00000000000E+00 -0.21492432705E+03  0.21492432707E+03  0.25500000920E-02 0.  1.
    10030    2    1    2    0    0  0.00000000000E+00  0.00000000000E+00  0.10645904345E+04  0.14944390886E+04  0.10488066535E+04 0.  0.
        5    1    3    3  502    0  0.22107200815E+03  0.24148586321E+03  0.11159605326E+04  0.11630039790E+04  0.46999998093E+01 0. -1.
       -5    1    3    3    0  502 -0.22107200815E+03 -0.24148586321E+03 -0.51370098073E+02  0.33143510962E+03  0.46999998093E+01 0.  1.
</event>
<event>
 5   0  0.1623890E-03  0.1290553E+04  0.7818609E-02  0.9037090E-01
       -2   -1    0    0    0  501  0.00000000000E+00  0.00000000000E+00  0.63118062039E+03  0.63118062039E+03  0.25500000920E-02 0.  1.
        2   -1    0    0  501    0  0.00000000000E+00  0.00000000000E+00 -0.65968753493E+03  0.65968753494E+03  0.25500000920E-02 0. -1.
    10030    2    1    2    0    0  0.00000000000E+00  0.00000000000E+00 -0.28506914546E+02  0.12908681553E+04  0.12905533504E+04 0.  0.
        3    1    3    3  502    0 -0.20349910884E+03  0.13792609905E+03 -0.61101149419E+03  0.65861259655E+03  0.10100000352E+00 0. -1.
       -3    1    3    3    0  502  0.20349910884E+03 -0.13792609905E+03  0.58250457965E+03  0.63225555878E+03  0.10100000352E+00 0.  1.
</event>
<event>
 5   0  0.9081324E-04  0.1062874E+04  0.7818609E-02  0.9242153E-01
        1   -1    0    0  501    0  0.00000000000E+00  0.00000000000E+00  0.31367543820E+03  0.31367543824E+03  0.50400001928E-02 0.  1.
       -1   -1    0    0    0  501  0.00000000000E+00  0.00000000000E+00 -0.90037405296E+03  0.90037405297E+03  0.50400001928E-02 0. -1.
    10030    2    1    2    0    0  0.00000000000E+00  0.00000000000E+00 -0.58669861475E+03  0.12140494912E+04  0.10628738884E+04 0.  0.
        4    1    3    3  502    0  0.32411459593E+03 -0.92975218279E+02  0.17584145794E+03  0.38028475349E+03  0.12699999809E+01 0.  1.
       -4    1    3    3    0  502 -0.32411459593E+03  0.92975218279E+02 -0.76254007269E+03  0.83376473772E+03  0.12699999809E+01 0. -1.
</event>
<event>
 5   0  0.9215829E-04  0.1274794E+04  0.7818609E-02  0.9049796E-01
       -1   -1    0    0    0  501  0.00000000000E+00  0.00000000000E+00  0.26551460470E+03  0.26551460475E+03  0.50400001928E-02 0.  1.
        1   -1    0    0  501    0  0.00000000000E+00  0.00000000000E+00 -0.15301424785E+04  0.15301424785E+04  0.50400001928E-02 0. -1.
    10030    2    1    2    0    0  0.00000000000E+00  0.00000000000E+00 -0.12646278738E+04  0.17956570833E+04  0.12747943762E+04 0.  0.
        3    1    3    3  502    0 -0.58910220947E+03  0.15161324754E+03 -0.36413766615E+03  0.70895997076E+03  0.10100000352E+00 0. -1.
       -3    1    3    3    0  502  0.58910220947E+03 -0.15161324754E+03 -0.90049020767E+03  0.10866971125E+04  0.10100000352E+00 0.  1.
</event>
<event>
 5   0  0.1694675E-03  0.1194095E+04  0.7818609E-02  0.9118041E-01
        2   -1    0    0  501    0  0.00000000000E+00  0.00000000000E+00  0.10231081451E+04  0.10231081451E+04  0.25500000920E-02 0. -1.
       -2   -1    0    0    0  501  0.00000000000E+00  0.00000000000E+00 -0.34841446350E+03  0.34841446351E+03  0.25500000920E-02 0.  1.
    10030    2    1    2    0    0  0.00000000000E+00  0.00000000000E+00  0.67469368164E+03  0.13715226087E+04  0.11940949301E+04 0.  0.
        4    1    3    3  502    0 -0.25799948123E+03  0.36039272158E+03  0.79680687852E+03  0.91178366987E+03  0.12699999809E+01 0. -1.
       -4    1    3    3    0  502  0.25799948123E+03 -0.36039272158E+03 -0.12211319688E+03  0.45973893879E+03  0.12699999809E+01 0.  1.
</event>
<event>
 5   0  0.1623890E-03  0.1288634E+04  0.7818609E-02  0.9038628E-01
        2   -1    0    0  501    0  0.00000000000E+00  0.00000000000E+00  0.20142529545E+03  0.20142529547E+03  0.25500000920E-02 0.  1.
       -2   -1    0    0    0  501  0.00000000000E+00  0.00000000000E+00 -0.20610330889E+04  0.20610330889E+04  0.25500000920E-02 0. -1.
    10030    2    1    2    0    0  0.00000000000E+00  0.00000000000E+00 -0.18596077934E+04  0.22624583844E+04  0.12886336933E+04 0.  0.
        3    1    3    3  502    0  0.33936198402E+03  0.21727786504E+03 -0.18125018720E+04  0.18567550385E+04  0.10100000352E+00 0. -1.
       -3    1    3    3    0  502 -0.33936198402E+03 -0.21727786504E+03 -0.47105921490E+02  0.40570334590E+03  0.10100000352E+00 0.  1.
</event>
<event>
 5   0  0.1700511E-03  0.1301141E+04  0.7818609E-02  0.9028661E-01
        2   -1    0    0  501    0  0.00000000000E+00  0.00000000000E+00  0.13967216315E+04  0.13967216315E+04  0.25500000920E-02 0. -1.
       -2   -1    0    0    0  501  0.00000000000E+00  0.00000000000E+00 -0.30302510308E+03  0.30302510309E+03  0.25500000920E-02 0.  1.
    10030    2    1    2    0    0  0.00000000000E+00  0.00000000000E+00  0.10936965284E+04  0.16997467346E+04  0.13011406017E+04 0.  0.
        2    1    3    3  502    0  0.44311612735E+03  0.45848719200E+03  0.37813508426E+03  0.74131541836E+03  0.25500000920E-02 0. -1.
       -2    1    3    3    0  502 -0.44311612735E+03 -0.45848719200E+03  0.71556144414E+03  0.95843131621E+03  0.25500000920E-02 0.  1.
</event>
<event>
 5   0  0.1700511E-03  0.1299550E+04  0.7818609E-02  0.9029922E-01
       -2   -1    0    0    0  501  0.00000000000E+00  0.00000000000E+00  0.62450282102E+03  0.62450282102E+03  0.25500000920E-02 0.  1.
        2   -1    0    0  501    0  0.00000000000E+00  0.00000000000E+00 -0.67606973266E+03  0.67606973266E+03  0.25500000920E-02 0. -1.
    10030    2    1    2    0    0  0.00000000000E+00  0.00000000000E+00 -0.51566911644E+02  0.13005725537E+04  0.12995498532E+04 0.  0.
        2    1    3    3  502    0 -0.21642462597E+03 -0.19026484702E+03 -0.60862233577E+03  0.67339548435E+03  0.25500000920E-02 0. -1.
       -2    1    3    3    0  502  0.21642462597E+03  0.19026484702E+03  0.55705542413E+03  0.62717706933E+03  0.25500000920E-02 0.  1.
</event>
<event>
 5   0  0.1694675E-03  0.1302903E+04  0.7818609E-02  0.9027267E-01
       -2   -1    0    0    0  501  0.00000000000E+00  0.00000000000E+00  0.26862930191E+03  0.26862930192E+03  0.25500000920E-02 0.  1.
        2   -1    0    0  501    0  0.00000000000E+00  0.00000000000E+00 -0.15798303825E+04  0.15798303825E+04  0.25500000920E-02 0. -1.
    10030    2    1    2    0    0  0.00000000000E+00  0.00000000000E+00 -0.13112010806E+04  0.18484596845E+04  0.13029025026E+04 0.  0.
        4    1    3    3  502    0 -0.16384982451E+03  0.61708652690E+03 -0.83918465780E+03  0.10544548589E+04  0.12699999809E+01 0. -1.
       -4    1    3    3    0  502  0.16384982451E+03 -0.61708652690E+03 -0.47201642283E+03  0.79400482555E+03  0.12699999809E+01 0.  1.
</event>
<event>
 5   0  0.1667342E-03  0.1248084E+04  0.7818609E-02  0.9071779E-01
       -2   -1    0    0    0  501  0.00000000000E+00  0.00000000000E+00  0.52135894606E+03  0.52135894606E+03  0.25500000920E-02 0. -1.
        2   -1    0    0  501    0  0.00000000000E+00  0.00000000000E+00 -0.74694892495E+03  0.74694892495E+03  0.25500000920E-02 0.  1.
    10030    2    1    2    0    0  0.00000000000E+00  0.00000000000E+00 -0.22558997889E+03  0.12683078710E+04  0.12480841386E+04 0.  0.
        5    1    3    3  502    0 -0.35544778902E+03 -0.50147818604E+03 -0.22216284867E+03  0.65360685669E+03  0.46999998093E+01 0.  1.
       -5    1    3    3    0  502  0.35544778902E+03  0.50147818604E+03 -0.34271302135E+01  0.61470101432E+03  0.46999998093E+01 0. -1.
</event>
<event>
 5   0  0.1667342E-03  0.1286097E+04  0.7818609E-02  0.9040663E-01
        2   -1    0    0  501    0  0.00000000000E+00  0.00000000000E+00  0.89975009733E+03  0.89975009733E+03  0.25500000920E-02 0. -1.
       -2   -1    0    0    0  501  0.00000000000E+00  0.00000000000E+00 -0.45958496345E+03  0.45958496346E+03  0.25500000920E-02 0.  1.
    10030    2    1    2    0    0  0.00000000000E+00  0.00000000000E+00  0.44016513387E+03  0.13593350608E+04  0.12860973767E+04 0.  0.
        5    1    3    3  502    0  0.15982261143E+03 -0.30046185982E+02 -0.43747313352E+03  0.46674497637E+03  0.46999998093E+01 0.  1.
       -5    1    3    3    0  502 -0.15982261143E+03  0.30046185982E+02  0.87763826739E+03  0.89259008442E+03  0.46999998093E+01 0. -1.
</event>
<event>
 5   0  0.1623890E-03  0.1305490E+04  0.7818609E-02  0.9025223E-01
        2   -1    0    0  501    0  0.00000000000E+00  0.00000000000E+00  0.12496934411E+04  0.12496934411E+04  0.25500000920E-02 0. -1.
       -2   -1    0    0    0  501  0.00000000000E+00  0.00000000000E+00 -0.34094444009E+03  0.34094444010E+03  0.25500000920E-02 0.  1.
    10030    2    1    2    0    0  0.00000000000E+00  0.00000000000E+00  0.90874900098E+03  0.15906378812E+04  0.13054899932E+04 0.  0.
        3    1    3    3  502    0 -0.64759356284E+03  0.65076994348E+02  0.51485026010E+03  0.82986941042E+03  0.10100000352E+00 0.  1.
       -3    1    3    3    0  502  0.64759356284E+03 -0.65076994348E+02  0.39389874088E+03  0.76076847075E+03  0.10100000352E+00 0. -1.
</event>
<event>
 5   0  0.9098192E-04  0.1254672E+04  0.7818609E-02  0.9066304E-01
       -1   -1    0    0    0  501  0.00000000000E+00  0.00000000000E+00  0.46632036874E+03  0.46632036877E+03  0.50400001928E-02 0. -1.
        1   -1    0    0  501    0  0.00000000000E+00  0.00000000000E+00 -0.84394850183E+03  0.84394850184E+03  0.50400001928E-02 0.  1.
    10030    2    1    2    0    0  0.00000000000E+00  0.00000000000E+00 -0.37762813309E+03  0.13102688706E+04  0.12546718720E+04 0.  0.
        1    1    3    3  502    0  0.14028874050E+03  0.44386537247E+03  0.25035975915E+03  0.52856164127E+03  0.50400001928E-02 0. -1.
       -1    1    3    3    0  502 -0.14028874050E+03 -0.44386537247E+03 -0.62798789224E+03  0.78170722935E+03  0.50400001928E-02 0.  1.
</event>
<event>
 5   0  0.9098192E-04  0.1269641E+04  0.7818609E-02  0.9053993E-01
        1   -1    0    0  501    0  0.00000000000E+00  0.00000000000E+00  0.45860267678E+03  0.45860267681E+03  0.50400001928E-02 0. -1.
       -1   -1    0    0    0  501  0.00000000000E+00  0.00000000000E+00 -0.87874947401E+03  0.87874947403E+03  0.50400001928E-02 0.  1.
    10030    2    1    2    0    0  0.00000000000E+00  0.00000000000E+00 -0.42014679723E+03  0.13373521508E+04  0.12696406752E+04 0.  0.
        1    1    3    3  502    0  0.65342973509E+02 -0.59494968089E+03  0.12780306851E+02  0.59866364784E+03  0.50400001928E-02 0. -1.
       -1    1    3    3    0  502 -0.65342973509E+02  0.59494968089E+03 -0.43292710408E+03  0.73868850299E+03  0.50400001928E-02 0.  1.
</event>
<event>
 5   0  0.1700511E-03  0.1305639E+04  0.7818609E-02  0.9025105E-01
       -2   -1    0    0    0  501  0.00000000000E+00  0.00000000000E+00  0.23636255140E+03  0.23636255141E+03  0.25500000920E-02 0.  1.
        2   -1    0    0  501    0  0.00000000000E+00  0.00000000000E+00 -0.18030485879E+04  0.18030485879E+04  0.25500000920E-02 0. -1.
    10030    2    1    2    0    0  0.00000000000E+00  0.00000000000E+00 -0.15666860365E+04  0.20394111393E+04  0.13056387932E+04 0.  0.
        2    1    3    3  502    0 -0.14307938162E+03 -0.42235679551E+03 -0.15280697246E+04  0.15918084229E+04  0.25500000920E-02 0. -1.
       -2    1    3    3    0  502  0.14307938162E+03  0.42235679551E+03 -0.38616311918E+02  0.44760271637E+03  0.25500000920E-02 0.  1.
</event>
<event>
 5   0  0.1694675E-03  0.1296687E+04  0.7818609E-02  0.9032196E-01
        2   -1    0    0  501    0  0.00000000000E+00  0.00000000000E+00  0.11348474670E+04  0.11348474670E+04  0.25500000920E-02 0.  1.
       -2   -1    0    0    0  501  0.00000000000E+00  0.00000000000E+00 -0.37040160976E+03  0.37040160977E+03  0.25500000920E-02 0. -1.
    10030    2    1    2    0    0  0.00000000000E+00  0.00000000000E+00  0.76444585727E+03  0.15052490768E+04  0.12966870534E+04 0.  0.
        4    1    3    3  502    0 -0.54092754616E+03 -0.10898340748E+03  0.77736605345E+03  0.95329931672E+03  0.12699999809E+01 0.  1.
       -4    1    3    3    0  502  0.54092754616E+03  0.10898340748E+03 -0.12920196174E+02  0.55194976009E+03  0.12699999809E+01 0. -1.
</event>
<event>
 5   0  0.9027076E-04  0.1286914E+04  0.7818609E-02  0.9040008E-01
        1   -1    0    0  501    0  0.00000000000E+00  0.00000000000E+00  0.73532848533E+03  0.73532848534E+03  0.50400001928E-02 0.  1.
       -1   -1    0    0    0  501  0.00000000000E+00  0.00000000000E+00 -0.56306345214E+03  0.56306345216E+03  0.50400001928E-02 0. -1.
    10030    2    1    2    0    0  0.00000000000E+00  0.00000000000E+00  0.17226503318E+03  0.12983919375E+04  0.12869135098E+04 0.  0.
        5    1    3    3  502    0  0.57131911489E+03  0.16163690366E+03  0.33630074838E+03  0.68238720901E+03  0.46999998093E+01 0.  1.
       -5    1    3    3    0  502 -0.57131911489E+03 -0.16163690366E+03 -0.16403571520E+03  0.61600472849E+03  0.46999998093E+01 0. -1.
</event>
<event>
 5   0  0.6284125E-04  0.1291113E+04  0.7818609E-02  0.9036642E-01
        3   -1    0    0  501    0  0.00000000000E+00  0.00000000000E+00  0.35519668278E+03  0.35519669714E+03  0.10100000352E+00 0. -1.
       -3   -1    0    0    0  501  0.00000000000E+00  0.00000000000E+00 -0.11732744222E+04  0.11732744265E+04  0.10100000352E+00 0.  1.
    10030    2    1    2    0    0  0.00000000000E+00  0.00000000000E+00 -0.81807773939E+03  0.15284711237E+04  0.12911130036E+04 0.  0.
        1    1    3    3  502    0 -0.19415038873E+02  0.18646025175E+03  0.32226268901E+03  0.37282383236E+03  0.50400001928E-02 0. -1.
       -1    1    3    3    0  502  0.19415038873E+02 -0.18646025175E+03 -0.11403404284E+04  0.11556472913E+04  0.50400001928E-02 0.  1.
</event>
<event>
 5   0  0.1714861E-03  0.1301969E+04  0.7818609E-02  0.9028005E-01
        2   -1    0    0  501    0  0.00000000000E+00  0.00000000000E+00  0.57476510695E+03  0.57476510695E+03  0.25500000920E-02 0. -1.
       -2   -1    0    0    0  501  0.00000000000E+00  0.00000000000E+00 -0.73731187709E+03  0.73731187710E+03  0.25500000920E-02 0.  1.
    10030    2    1    2    0    0  0.00000000000E+00  0.00000000000E+00 -0.16254677015E+03  0.13120769840E+04  0.13019694926E+04 0.  0.
        1    1    3    3  502    0  0.62153334886E+03  0.17262056561E+03 -0.16958689453E+03  0.66697921875E+03  0.50400001928E-02 0.  1.
       -1    1    3    3    0  502 -0.62153334886E+03 -0.17262056561E+03  0.70401243819E+01  0.64509776530E+03  0.50400001928E-02 0. -1.
</event>
<event>
 5   0  0.9027076E-04  0.1295076E+04  0.7818609E-02  0.9033479E-01
       -1   -1    0    0    0  501  0.00000000000E+00  0.00000000000E+00  0.92722066395E+03  0.92722066397E+03  0.50400001928E-02 0.  1.
        1   -1    0    0  501    0  0.00000000000E+00  0.00000000000E+00 -0.45221753800E+03  0.45221753803E+03  0.50400001928E-02 0. -1.
    10030    2    1    2    0    0  0.00000000000E+00  0.00000000000E+00  0.47500312595E+03  0.13794382020E+04  0.12950759759E+04 0.  0.
        5    1    3    3  502    0 -0.23618054504E+03 -0.43984563135E+03 -0.20171620668E+03  0.53847650581E+03  0.46999998093E+01 0. -1.
       -5    1    3    3    0  502  0.23618054504E+03  0.43984563135E+03  0.67671933264E+03  0.84096169618E+03  0.46999998093E+01 0.  1.
</event>
<event>
 5   0  0.9081324E-04  0.1293559E+04  0.7818609E-02  0.9034689E-01
        1   -1    0    0  501    0  0.00000000000E+00  0.00000000000E+00  0.16917339730E+04  0.16917339730E+04  0.50400001928E-02 0. -1.
       -1   -1    0    0    0  501  0.00000000000E+00  0.00000000000E+00 -0.24727515529E+03  0.24727515534E+03  0.50400001928E-02 0.  1.
    10030    2    1    2    0    0  0.00000000000E+00  0.00000000000E+00  0.14444588177E+04  0.19390091283E+04  0.12935590917E+04 0.  0.
        4    1    3    3  502    0 -0.43791057461E+03  0.25140993050E+03  0.13280618755E+04  0.14208175754E+04  0.12699999809E+01 0. -1.
       -4    1    3    3    0  502  0.43791057461E+03 -0.25140993050E+03  0.11639694224E+03  0.51819155297E+03  0.12699999809E+01 0.  1.
</event>
<event>
 5   0  0.9098192E-04  0.1322560E+04  0.7818609E-02  0.9011863E-01
        1   -1    0    0  501    0  0.00000000000E+00  0.00000000000E+00  0.25967874461E+04  0.25967874461E+04  0.50400001928E-02 0. -1.
       -1   -1    0    0    0  501  0.00000000000E+00  0.00000000000E+00 -0.16839710098E+03  0.16839710106E+03  0.50400001928E-02 0.  1.
    10030    2    1    2    0    0  0.00000000000E+00  0.00000000000E+00  0.24283903451E+04  0.27651845471E+04  0.13225603622E+04 0.  0.
        1    1    3    3  502    0 -0.20090446808E+03 -0.57969093259E+03  0.69828753200E+03  0.92952119932E+03  0.50400001928E-02 0.  1.
       -1    1    3    3    0  502  0.20090446808E+03  0.57969093259E+03  0.17301028131E+04  0.18356633478E+04  0.50400001928E-02 0. -1.
</event>
<event>
 5   0  0.9098192E-04  0.1280168E+04  0.7818609E-02  0.9045441E-01
       -1   -1    0    0    0  501  0.00000000000E+00  0.00000000000E+00  0.21696578432E+03  0.21696578438E+03  0.50400001928E-02 0.  1.
        1   -1    0    0  501    0  0.00000000000E+00  0.00000000000E+00 -0.18883515737E+04  0.18883515737E+04  0.50400001928E-02 0. -1.
    10030    2    1    2    0    0  0.00000000000E+00  0.00000000000E+00 -0.16713857893E+04  0.21053173580E+04  0.12801682394E+04 0.  0.
        1    1    3    3  502    0  0.18499032522E+03 -0.30787374279E+03  0.35615189275E+02  0.36093781134E+03  0.50400001928E-02 0.  1.
       -1    1    3    3    0  502 -0.18499032522E+03  0.30787374279E+03 -0.17070009786E+04  0.17443795467E+04  0.50400001928E-02 0. -1.
</event>
<event>
 5   0  0.9098192E-04  0.1303423E+04  0.7818609E-02  0.9026855E-01
        1   -1    0    0  501    0  0.00000000000E+00  0.00000000000E+00  0.55699614780E+03  0.55699614782E+03  0.50400001928E-02 0. -1.
       -1   -1    0    0    0  501  0.00000000000E+00  0.00000000000E+00 -0.76253284376E+03  0.76253284377E+03  0.50400001928E-02 0.  1.
    10030    2    1    2    0    0  0.00000000000E+00  0.00000000000E+00 -0.20553669596E+03  0.13195289916E+04  0.13034229652E+04 0.  0.
        1    1    3    3  502    0  0.55740334268E+03  0.24109379156E+03  0.13659173275E+03  0.62248052519E+03  0.50400001928E-02 0. -1.
       -1    1    3    3    0  502 -0.55740334268E+03 -0.24109379156E+03 -0.34212842871E+03  0.69704846640E+03  0.50400001928E-02 0.  1.
</event>
<event>
 5   0  0.9110949E-04  0.1298165E+04  0.7818609E-02  0.9031022E-01
        1   -1    0    0  501    0  0.00000000000E+00  0.00000000000E+00  0.29647328014E+03  0.29647328018E+03  0.50400001928E-02 0. -1.
       -1   -1    0    0    0  501  0.00000000000E+00  0.00000000000E+00 -0.14210656293E+04  0.14210656293E+04  0.50400001928E-02 0.  1.
    10030    2    1    2    0    0  0.00000000000E+00  0.00000000000E+00 -0.11245923491E+04  0.17175389094E+04  0.12981648408E+04 0.  0.
        2    1    3    3  502    0  0.16291444901E+02  0.34494348874E+03 -0.12894409412E+04  0.13348817784E+04  0.25500000920E-02 0.  1.
       -2    1    3    3    0  502 -0.16291444901E+02 -0.34494348874E+03  0.16484859206E+03  0.38265713101E+03  0.25500000920E-02 0. -1.
</event>
<event>
 5   0  0.9027076E-04  0.1306297E+04  0.7818609E-02  0.9024587E-01
        1   -1    0    0  501    0  0.00000000000E+00  0.00000000000E+00  0.55466021319E+03  0.55466021322E+03  0.50400001928E-02 0. -1.
       -1   -1    0    0    0  501  0.00000000000E+00  0.00000000000E+00 -0.76912448041E+03  0.76912448043E+03  0.50400001928E-02 0.  1.
    10030    2    1    2    0    0  0.00000000000E+00  0.00000000000E+00 -0.21446426722E+03  0.13237846936E+04  0.13062966712E+04 0.  0.
        5    1    3    3  502    0 -0.34908220686E+03  0.31614394908E+03  0.35134700435E+03  0.58759866503E+03  0.46999998093E+01 0. -1.
       -5    1    3    3    0  502  0.34908220686E+03 -0.31614394908E+03 -0.56581127157E+03  0.73618602861E+03  0.46999998093E+01 0.  1.
</event>
<event>
 5   0  0.1623890E-03  0.1298026E+04  0.7818609E-02  0.9031132E-01
       -2   -1    0    0    0  501  0.00000000000E+00  0.00000000000E+00  0.24500855756E+03  0.24500855757E+03  0.25500000920E-02 0.  1.
        2   -1    0    0  501    0  0.00000000000E+00  0.00000000000E+00 -0.17191973464E+04  0.17191973464E+04  0.25500000920E-02 0. -1.
    10030    2    1    2    0    0  0.00000000000E+00  0.00000000000E+00 -0.14741887889E+04  0.19642059040E+04  0.12980262895E+04 0.  0.
        3    1    3    3  502    0 -0.24678690163E+03 -0.37291939729E+03 -0.25322805554E+02  0.44789943779E+03  0.10100000352E+00 0.  1.
       -3    1    3    3    0  502  0.24678690163E+03  0.37291939729E+03 -0.14488659833E+04  0.15163064662E+04  0.10100000352E+00 0. -1.
</event>
<event>
 5   0  0.9215829E-04  0.1289853E+04  0.7818609E-02  0.9037651E-01
       -1   -1    0    0    0  501  0.00000000000E+00  0.00000000000E+00  0.39095698272E+03  0.39095698275E+03  0.50400001928E-02 0.  1.
        1   -1    0    0  501    0  0.00000000000E+00  0.00000000000E+00 -0.10638763666E+04  0.10638763666E+04  0.50400001928E-02 0. -1.
    10030    2    1    2    0    0  0.00000000000E+00  0.00000000000E+00 -0.67291938384E+03  0.14548333493E+04  0.12898525408E+04 0.  0.
        3    1    3    3  502    0  0.16387324677E+03  0.11691358439E+03 -0.10275330794E+04  0.10470661234E+04  0.10100000352E+00 0. -1.
       -3    1    3    3    0  502 -0.16387324677E+03 -0.11691358439E+03  0.35461369560E+03  0.40776722591E+03  0.10100000352E+00 0.  1.
</event>
<event>
 5   0  0.9110949E-04  0.1297947E+04  0.7818609E-02  0.9031194E-01
       -1   -1    0    0    0  501  0.00000000000E+00  0.00000000000E+00  0.44955650370E+03  0.44955650373E+03  0.50400001928E-02 0.  1.
        1   -1    0    0  501    0  0.00000000000E+00  0.00000000000E+00 -0.93684977497E+03  0.93684977498E+03  0.50400001928E-02 0. -1.
    10030    2    1    2    0    0  0.00000000000E+00  0.00000000000E+00 -0.48729327126E+03  0.13864062787E+04  0.12979474710E+04 0.  0.
        2    1    3    3  502    0  0.33913904549E+03  0.32647950261E+03  0.23352337553E+03  0.52548770178E+03  0.25500000920E-02 0.  1.
       -2    1    3    3    0  502 -0.33913904549E+03 -0.32647950261E+03 -0.72081664679E+03  0.86091857693E+03  0.25500000920E-02 0. -1.
</event>
<event>
 5   0  0.1667342E-03  0.1278382E+04  0.7818609E-02  0.9046886E-01
       -2   -1    0    0    0  501  0.00000000000E+00  0.00000000000E+00  0.69429751158E+03  0.69429751159E+03  0.25500000920E-02 0.  1.
        2   -1    0    0  501    0  0.00000000000E+00  0.00000000000E+00 -0.58845875765E+03  0.58845875765E+03  0.25500000920E-02 0. -1.
    10030    2    1    2    0    0  0.00000000000E+00  0.00000000000E+00  0.10583875393E+03  0.12827562692E+04  0.12783824954E+04 0.  0.
        5    1    3    3  502    0 -0.54540843178E+03 -0.21176124563E+03  0.31115211100E+03  0.66268462241E+03  0.46999998093E+01 0.  1.
       -5    1    3    3    0  502  0.54540843178E+03  0.21176124563E+03 -0.20531335706E+03  0.62007164682E+03  0.46999998093E+01 0. -1.
</event>
<event>
 5   0  0.1623890E-03  0.1305985E+04  0.7818609E-02  0.9024833E-01
        2   -1    0    0  501    0  0.00000000000E+00  0.00000000000E+00  0.12508184526E+04  0.12508184526E+04  0.25500000920E-02 0.  1.
       -2   -1    0    0    0  501  0.00000000000E+00  0.00000000000E+00 -0.34089600083E+03  0.34089600084E+03  0.25500000920E-02 0. -1.
    10030    2    1    2    0    0  0.00000000000E+00  0.00000000000E+00  0.90992245178E+03  0.15917144535E+04  0.13059846986E+04 0.  0.
        3    1    3    3  502    0 -0.43868534606E+03  0.47705000779E+03  0.55229213563E+03  0.85149759604E+03  0.10100000352E+00 0. -1.
       -3    1    3    3    0  502  0.43868534606E+03 -0.47705000779E+03  0.35763031616E+03  0.74021685742E+03  0.10100000352E+00 0.  1.
</event>
<event>
 5   0  0.9098192E-04  0.1337480E+04  0.7818609E-02  0.9000360E-01
        1   -1    0    0  501    0  0.00000000000E+00  0.00000000000E+00  0.30194230558E+03  0.30194230562E+03  0.50400001928E-02 0. -1.
       -1   -1    0    0    0  501  0.00000000000E+00  0.00000000000E+00 -0.14811204595E+04  0.14811204595E+04  0.50400001928E-02 0.  1.
    10030    2    1    2    0    0  0.00000000000E+00  0.00000000000E+00 -0.11791781539E+04  0.17830627651E+04  0.13374796095E+04 0.  0.
        1    1    3    3  502    0  0.35390078335E+03 -0.13386814148E+03 -0.13246942062E+04  0.13776723789E+04  0.50400001928E-02 0.  1.
       -1    1    3    3    0  502 -0.35390078335E+03  0.13386814148E+03  0.14551605223E+03  0.40539038622E+03  0.50400001928E-02 0. -1.
</event>
<event>
 5   0  0.1694675E-03  0.1288101E+04  0.7818609E-02  0.9039055E-01
        2   -1    0    0  501    0  0.00000000000E+00  0.00000000000E+00  0.84154312909E+03  0.84154312909E+03  0.25500000920E-02 0.  1.
       -2   -1    0    0    0  501  0.00000000000E+00  0.00000000000E+00 -0.49290508619E+03  0.49290508619E+03  0.25500000920E-02 0. -1.
    10030    2    1    2    0    0  0.00000000000E+00  0.00000000000E+00  0.34863804291E+03  0.13344482153E+04  0.12881007547E+04 0.  0.
        4    1    3    3  502    0  0.10022691629E+03  0.51633505219E+03  0.55938079580E+03  0.76782537629E+03  0.12699999809E+01 0.  1.
       -4    1    3    3    0  502 -0.10022691629E+03 -0.51633505219E+03 -0.21074275290E+03  0.56662283899E+03  0.12699999809E+01 0. -1.
</event>
<event>
 5   0  0.1714861E-03  0.1268069E+04  0.7818609E-02  0.9055277E-01
       -2   -1    0    0    0  501  0.00000000000E+00  0.00000000000E+00  0.55648679553E+03  0.55648679554E+03  0.25500000920E-02 0. -1.
        2   -1    0    0  501    0  0.00000000000E+00  0.00000000000E+00 -0.72238913407E+03  0.72238913408E+03  0.25500000920E-02 0.  1.
    10030    2    1    2    0    0  0.00000000000E+00  0.00000000000E+00 -0.16590233854E+03  0.12788759296E+04  0.12680694214E+04 0.  0.
        1    1    3    3  502    0 -0.10338439973E+02  0.59004794551E+03  0.15083579176E+03  0.60910992230E+03  0.50400001928E-02 0. -1.
       -1    1    3    3    0  502  0.10338439973E+02 -0.59004794551E+03 -0.31673813030E+03  0.66976600732E+03  0.50400001928E-02 0.  1.
</event>
<event>
 5   0  0.1623890E-03  0.1319470E+04  0.7818609E-02  0.9014266E-01
       -2   -1    0    0    0  501  0.00000000000E+00  0.00000000000E+00  0.22375242240E+03  0.22375242242E+03  0.25500000920E-02 0.  1.
        2   -1    0    0  501    0  0.00000000000E+00  0.00000000000E+00 -0.19452308043E+04  0.19452308043E+04  0.25500000920E-02 0. -1.
    10030    2    1    2    0    0  0.00000000000E+00  0.00000000000E+00 -0.17214783819E+04  0.21689832267E+04  0.13194697490E+04 0.  0.
        3    1    3    3  502    0  0.10645060155E+03 -0.40819872662E+03 -0.26923554521E+02  0.42270890572E+03  0.10100000352E+00 0.  1.
       -3    1    3    3    0  502 -0.10645060155E+03  0.40819872662E+03 -0.16945548274E+04  0.17462743210E+04  0.10100000352E+00 0. -1.
</event>
<event>
 5   0  0.9027076E-04  0.1151852E+04  0.7818609E-02  0.9156076E-01
       -1   -1    0    0    0  501  0.00000000000E+00  0.00000000000E+00  0.39684963985E+03  0.39684963988E+03  0.50400001928E-02 0.  1.
        1   -1    0    0  501    0  0.00000000000E+00  0.00000000000E+00 -0.83581015670E+03  0.83581015672E+03  0.50400001928E-02 0. -1.
    10030    2    1    2    0    0  0.00000000000E+00  0.00000000000E+00 -0.43896051685E+03  0.12326597966E+04  0.11518523511E+04 0.  0.
        5    1    3    3  502    0  0.50402809952E+03 -0.27793032427E+03 -0.24032161924E+03  0.62375168211E+03  0.46999998093E+01 0.  1.
       -5    1    3    3    0  502 -0.50402809952E+03  0.27793032427E+03 -0.19863889761E+03  0.60890811450E+03  0.46999998093E+01 0. -1.
</event>
<event>
 5   0  0.9110949E-04  0.1319835E+04  0.7818609E-02  0.9013982E-01
        1   -1    0    0  501    0  0.00000000000E+00  0.00000000000E+00  0.14702721385E+04  0.14702721385E+04  0.50400001928E-02 0. -1.
       -1   -1    0    0    0  501  0.00000000000E+00  0.00000000000E+00 -0.29619779968E+03  0.29619779972E+03  0.50400001928E-02 0.  1.
    10030    2    1    2    0    0  0.00000000000E+00  0.00000000000E+00  0.11740743388E+04  0.17664699382E+04  0.13198354024E+04 0.  0.
        2    1    3    3  502    0 -0.40021058557E+03  0.15901446005E+03  0.12562878847E+04  0.13280487042E+04  0.25500000920E-02 0. -1.
       -2    1    3    3    0  502  0.40021058557E+03 -0.15901446005E+03 -0.82213545944E+02  0.43842123403E+03  0.25500000920E-02 0.  1.
</event>
<event>
 5   0  0.9098192E-04  0.1285957E+04  0.7818609E-02  0.9040776E-01
        1   -1    0    0  501    0  0.00000000000E+00  0.00000000000E+00  0.39896530027E+03  0.39896530031E+03  0.50400001928E-02 0. -1.
       -1   -1    0    0    0  501  0.00000000000E+00  0.00000000000E+00 -0.10362345985E+04  0.10362345985E+04  0.50400001928E-02 0.  1.
    10030    2    1    2    0    0  0.00000000000E+00  0.00000000000E+00 -0.63726929826E+03  0.14351998989E+04  0.12859574609E+04 0.  0.
        1    1    3    3  502    0  0.42138570490E+03  0.14781912306E+03  0.19766044533E+03  0.48835034259E+03  0.50400001928E-02 0. -1.
       -1    1    3    3    0  502 -0.42138570490E+03 -0.14781912306E+03 -0.83492974359E+03  0.94684955626E+03  0.50400001928E-02 0.  1.
</event>
<event>
 5   0  0.1700511E-03  0.1196036E+04  0.7818609E-02  0.9116333E-01
       -2   -1    0    0    0  501  0.00000000000E+00  0.00000000000E+00  0.36393025853E+03  0.36393025854E+03  0.25500000920E-02 0.  1.
        2   -1    0    0  501    0  0.00000000000E+00  0.00000000000E+00 -0.98267674327E+03  0.98267674327E+03  0.25500000920E-02 0. -1.
    10030    2    1    2    0    0  0.00000000000E+00  0.00000000000E+00 -0.61874648474E+03  0.13466070018E+04  0.11960364564E+04 0.  0.
        2    1    3    3  502    0  0.49987505864E+03 -0.63226360106E+02 -0.67203111144E+03  0.83993955831E+03  0.25500000920E-02 0. -1.
       -2    1    3    3    0  502 -0.49987505864E+03  0.63226360106E+02  0.53284626701E+02  0.50666744351E+03  0.25500000920E-02 0.  1.
</event>
<event>
 5   0  0.1694675E-03  0.1295864E+04  0.7818609E-02  0.9032852E-01
        2   -1    0    0  501    0  0.00000000000E+00  0.00000000000E+00  0.37149928762E+03  0.37149928763E+03  0.25500000920E-02 0.  1.
       -2   -1    0    0    0  501  0.00000000000E+00  0.00000000000E+00 -0.11300580491E+04  0.11300580491E+04  0.25500000920E-02 0. -1.
    10030    2    1    2    0    0  0.00000000000E+00  0.00000000000E+00 -0.75855876144E+03  0.15015573367E+04  0.12958638203E+04 0.  0.
        4    1    3    3  502    0  0.50919049963E+03 -0.36339099510E+03 -0.57484817757E+03  0.84957637702E+03  0.12699999809E+01 0. -1.
       -4    1    3    3    0  502 -0.50919049963E+03  0.36339099510E+03 -0.18371058386E+03  0.65198095966E+03  0.12699999809E+01 0.  1.
</event>
<event>
 5   0  0.9110949E-04  0.1290226E+04  0.7818609E-02  0.9037352E-01
       -1   -1    0    0    0  501  0.00000000000E+00  0.00000000000E+00  0.27831259475E+03  0.27831259479E+03  0.50400001928E-02 0.  1.
        1   -1    0    0  501    0  0.00000000000E+00  0.00000000000E+00 -0.14953359021E+04  0.14953359021E+04  0.50400001928E-02 0. -1.
    10030    2    1    2    0    0  0.00000000000E+00  0.00000000000E+00 -0.12170233073E+04  0.17736484969E+04  0.12902260499E+04 0.  0.
        2    1    3    3  502    0 -0.94823413432E+02 -0.66784426236E+02 -0.14808860356E+04  0.14854208460E+04  0.25500000920E-02 0. -1.
       -2    1    3    3    0  502  0.94823413432E+02  0.66784426236E+02  0.26386272829E+03  0.28822765084E+03  0.25500000920E-02 0.  1.
</event>
<event>
 5   0  0.9027076E-04  0.1301846E+04  0.7818609E-02  0.9028103E-01
        1   -1    0    0  501    0  0.00000000000E+00  0.00000000000E+00  0.96717585912E+03  0.96717585913E+03  0.50400001928E-02 0. -1.
       -1   -1    0    0    0  501  0.00000000000E+00  0.00000000000E+00 -0.43808023972E+03  0.43808023975E+03  0.50400001928E-02 0.  1.
    10030    2    1    2    0    0  0.00000000000E+00  0.00000000000E+00  0.52909561940E+03  0.14052560989E+04  0.13018458161E+04 0.  0.
        5    1    3    3  502    0 -0.28999555065E+03  0.51555741743E+03 -0.28656381519E+02  0.59223318741E+03  0.46999998093E+01 0.  1.
       -5    1    3    3    0  502  0.28999555065E+03 -0.51555741743E+03  0.55775200091E+03  0.81302291148E+03  0.46999998093E+01 0. -1.
</event>
<event>
 5   0  0.9110949E-04  0.1311924E+04  0.7818609E-02  0.9020163E-01
       -1   -1    0    0    0  501  0.00000000000E+00  0.00000000000E+00  0.88690289982E+03  0.88690289983E+03  0.50400001928E-02 0.  1.
        1   -1    0    0  501    0  0.00000000000E+00  0.00000000000E+00 -0.48515574931E+03  0.48515574934E+03  0.50400001928E-02 0. -1.
    10030    2    1    2    0    0  0.00000000000E+00  0.00000000000E+00  0.40174715051E+03  0.13720586492E+04  0.13119238407E+04 0.  0.
        2    1    3    3  502    0  0.37669399185E+03 -0.53536715690E+03  0.24486945518E+03  0.69891158687E+03  0.25500000920E-02 0.  1.
       -2    1    3    3    0  502 -0.37669399185E+03  0.53536715690E+03  0.15687769533E+03  0.67314706230E+03  0.25500000920E-02 0. -1.
</event>
<event>
 5   0  0.6284125E-04  0.1307563E+04  0.7818609E-02  0.9023589E-01
       -3   -1    0    0    0  501  0.00000000000E+00  0.00000000000E+00  0.20746963916E+03  0.20746966375E+03  0.10100000352E+00 0. -1.
        3   -1    0    0  501    0  0.00000000000E+00  0.00000000000E+00 -0.20602072438E+04  0.20602072463E+04  0.10100000352E+00 0.  1.
    10030    2    1    2    0    0  0.00000000000E+00  0.00000000000E+00 -0.18527376047E+04  0.22676769100E+04  0.13075633586E+04 0.  0.
        1    1    3    3  502    0  0.50605679253E+03  0.34125175480E+03 -0.52007304248E+03  0.80188665468E+03  0.50400001928E-02 0.  1.
       -1    1    3    3    0  502 -0.50605679253E+03 -0.34125175480E+03 -0.13326645622E+04  0.14657902554E+04  0.50400001928E-02 0. -1.
</event>
<event>
 5   0  0.1700511E-03  0.1293838E+04  0.7818609E-02  0.9034466E-01
        2   -1    0    0  501    0  0.00000000000E+00  0.00000000000E+00  0.23445202762E+04  0.23445202762E+04  0.25500000920E-02 0.  1.
       -2   -1    0    0    0  501  0.00000000000E+00  0.00000000000E+00 -0.17850308447E+03  0.17850308448E+03  0.25500000920E-02 0. -1.
    10030    2    1    2    0    0  0.00000000000E+00  0.00000000000E+00  0.21660171917E+04  0.25230233607E+04  0.12938378583E+04 0.  0.
        2    1    3    3  502    0  0.20252294804E+01  0.32737324040E+03 -0.50433840074E+01  0.32741834984E+03  0.25500000920E-02 0. -1.
       -2    1    3    3    0  502 -0.20252294804E+01 -0.32737324040E+03  0.21710605758E+04  0.21956050109E+04  0.25500000920E-02 0.  1.
</event>
<event>
 5   0  0.1623890E-03  0.1315368E+04  0.7818609E-02  0.9017466E-01
       -2   -1    0    0    0  501  0.00000000000E+00  0.00000000000E+00  0.41858633567E+03  0.41858633567E+03  0.25500000920E-02 0. -1.
        2   -1    0    0  501    0  0.00000000000E+00  0.00000000000E+00 -0.10333546008E+04  0.10333546008E+04  0.25500000920E-02 0.  1.
    10030    2    1    2    0    0  0.00000000000E+00  0.00000000000E+00 -0.61476826518E+03  0.14519409365E+04  0.13153678053E+04 0.  0.
        3    1    3    3  502    0 -0.38839396069E+03 -0.45653606363E+02  0.27630443453E+03  0.47883010684E+03  0.10100000352E+00 0. -1.
       -3    1    3    3    0  502  0.38839396069E+03  0.45653606363E+02 -0.89107269971E+03  0.97311082968E+03  0.10100000352E+00 0.  1.
</event>
<event>
 5   0  0.1700511E-03  0.1307292E+04  0.7818609E-02  0.9023802E-01
        2   -1    0    0  501    0  0.00000000000E+00  0.00000000000E+00  0.69704052900E+03  0.69704052900E+03  0.25500000920E-02 0.  1.
       -2   -1    0    0    0  501  0.00000000000E+00  0.00000000000E+00 -0.61295342997E+03  0.61295342998E+03  0.25500000920E-02 0. -1.
    10030    2    1    2    0    0  0.00000000000E+00  0.00000000000E+00  0.84087099028E+02  0.13099939590E+04  0.13072924433E+04 0.  0.
        2    1    3    3  502    0 -0.41475685659E+03  0.26044468298E+03 -0.39174674314E+03  0.62715244857E+03  0.25500000920E-02 0. -1.
       -2    1    3    3    0  502  0.41475685659E+03 -0.26044468298E+03  0.47583384217E+03  0.68284151041E+03  0.25500000920E-02 0.  1.
</event>
<event>
 5   0  0.9215829E-04  0.1301703E+04  0.7818609E-02  0.9028216E-01
        1   -1    0    0  501    0  0.00000000000E+00  0.00000000000E+00  0.43459744129E+03  0.43459744132E+03  0.50400001928E-02 0. -1.
       -1   -1    0    0    0  501  0.00000000000E+00  0.00000000000E+00 -0.97471225215E+03  0.97471225217E+03  0.50400001928E-02 0.  1.
    10030    2    1    2    0    0  0.00000000000E+00  0.00000000000E+00 -0.54011481086E+03  0.14093096935E+04  0.13017026555E+04 0.  0.
        3    1    3    3  502    0  0.44509177406E+03 -0.26835767767E+03 -0.69421523724E+03  0.86721239400E+03  0.10100000352E+00 0.  1.
       -3    1    3    3    0  502 -0.44509177406E+03  0.26835767767E+03  0.15410042638E+03  0.54209729949E+03  0.10100000352E+00 0. -1.
</event>
<event>
 5   0  0.9027076E-04  0.1301288E+04  0.7818609E-02  0.9028544E-01
       -1   -1    0    0    0  501  0.00000000000E+00  0.00000000000E+00  0.53864804429E+03  0.53864804431E+03  0.50400001928E-02 0. -1.
        1   -1    0    0  501    0  0.00000000000E+00  0.00000000000E+00 -0.78592644097E+03  0.78592644098E+03  0.50400001928E-02 0.  1.
    10030    2    1    2    0    0  0.00000000000E+00  0.00000000000E+00 -0.24727839668E+03  0.13245744853E+04  0.13012881932E+04 0.  0.
        5    1    3    3  502    0  0.55833849801E+02  0.21024561538E+03  0.50051793463E+03  0.54576636985E+03  0.46999998093E+01 0. -1.
       -5    1    3    3    0  502 -0.55833849801E+02 -0.21024561538E+03 -0.74779633131E+03  0.77880811545E+03  0.46999998093E+01 0.  1.
</event>
<event>
 5   0  0.1667342E-03  0.1259097E+04  0.7818609E-02  0.9062646E-01
       -2   -1    0    0    0  501  0.00000000000E+00  0.00000000000E+00  0.80186412413E+03  0.80186412414E+03  0.25500000920E-02 0. -1.
        2   -1    0    0  501    0  0.00000000000E+00  0.00000000000E+00 -0.49426206855E+03  0.49426206856E+03  0.25500000920E-02 0.  1.
    10030    2    1    2    0    0  0.00000000000E+00  0.00000000000E+00  0.30760205558E+03  0.12961261927E+04  0.12590965343E+04 0.  0.
        5    1    3    3  502    0  0.34798209560E+03  0.31800404076E+03  0.58331391240E+03  0.74999687945E+03  0.46999998093E+01 0. -1.
       -5    1    3    3    0  502 -0.34798209560E+03 -0.31800404076E+03 -0.27571185681E+03  0.54612931324E+03  0.46999998093E+01 0.  1.
</event>
<event>
 5   0  0.9027076E-04  0.1303255E+04  0.7818609E-02  0.9026988E-01
        1   -1    0    0  501    0  0.00000000000E+00  0.00000000000E+00  0.14764504399E+04  0.14764504399E+04  0.50400001928E-02 0. -1.
       -1   -1    0    0    0  501  0.00000000000E+00  0.00000000000E+00 -0.28759426685E+03  0.28759426690E+03  0.50400001928E-02 0.  1.
    10030    2    1    2    0    0  0.00000000000E+00  0.00000000000E+00  0.11888561730E+04  0.17640447068E+04  0.13032554344E+04 0.  0.
        5    1    3    3  502    0  0.31177756202E+03  0.31480186828E+03  0.12411603979E+04  0.13178796180E+04  0.46999998093E+01 0. -1.
       -5    1    3    3    0  502 -0.31177756202E+03 -0.31480186828E+03 -0.52304224847E+02  0.44616508872E+03  0.46999998093E+01 0.  1.
</event>
<event>
 5   0  0.9110949E-04  0.1285272E+04  0.7818609E-02  0.9041327E-01
        1   -1    0    0  501    0  0.00000000000E+00  0.00000000000E+00  0.98240866219E+03  0.98240866221E+03  0.50400001928E-02 0.  1.
       -1   -1    0    0    0  501  0.00000000000E+00  0.00000000000E+00 -0.42037586377E+03  0.42037586380E+03  0.50400001928E-02 0. -1.
    10030    2    1    2    0    0  0.00000000000E+00  0.00000000000E+00  0.56203279842E+03  0.14027845260E+04  0.12852717845E+04 0.  0.
        2    1    3    3  502    0  0.14495901733E+03 -0.19608433467E+02  0.96399652204E+03  0.97503174404E+03  0.25500000920E-02 0.  1.
       -2    1    3    3    0  502 -0.14495901733E+03  0.19608433467E+02 -0.40196372362E+03  0.42775278197E+03  0.25500000920E-02 0. -1.
</event>
<event>
 5   0  0.1667342E-03  0.1298954E+04  0.7818609E-02  0.9030395E-01
        2   -1    0    0  501    0  0.00000000000E+00  0.00000000000E+00  0.16156040026E+04  0.16156040026E+04  0.25500000920E-02 0. -1.
       -2   -1    0    0    0  501  0.00000000000E+00  0.00000000000E+00 -0.26109129837E+03  0.26109129838E+03  0.25500000920E-02 0.  1.
    10030    2    1    2    0    0  0.00000000000E+00  0.00000000000E+00  0.13545127042E+04  0.18766953010E+04  0.12989536508E+04 0.  0.
        5    1    3    3  502    0  0.53305653318E+03 -0.28272667192E+02  0.12117242594E+04  0.13241021041E+04  0.46999998093E+01 0. -1.
       -5    1    3    3    0  502 -0.53305653318E+03  0.28272667192E+02  0.14278844486E+03  0.55259319690E+03  0.46999998093E+01 0.  1.
</event>
<event>
 5   0  0.9098192E-04  0.1272318E+04  0.7818609E-02  0.9051810E-01
        1   -1    0    0  501    0  0.00000000000E+00  0.00000000000E+00  0.63818674127E+03  0.63818674129E+03  0.50400001928E-02 0. -1.
       -1   -1    0    0    0  501  0.00000000000E+00  0.00000000000E+00 -0.63413784568E+03  0.63413784570E+03  0.50400001928E-02 0.  1.
    10030    2    1    2    0    0  0.00000000000E+00  0.00000000000E+00  0.40488955928E+01  0.12723245870E+04  0.12723181446E+04 0.  0.
        1    1    3    3  502    0 -0.24691882479E+03  0.29940097539E+03 -0.50205003907E+03  0.63455818635E+03  0.50400001928E-02 0.  1.
       -1    1    3    3    0  502  0.24691882479E+03 -0.29940097539E+03  0.50609893466E+03  0.63776640065E+03  0.50400001928E-02 0. -1.
</event>
<event>
 5   0  0.1623890E-03  0.1254837E+04  0.7818609E-02  0.9066167E-01
        2   -1    0    0  501    0  0.00000000000E+00  0.00000000000E+00  0.16648563667E+04  0.16648563667E+04  0.25500000920E-02 0.  1.
       -2   -1    0    0    0  501  0.00000000000E+00  0.00000000000E+00 -0.23644903350E+03  0.23644903351E+03  0.25500000920E-02 0. -1.
    10030    2    1    2    0    0  0.00000000000E+00  0.00000000000E+00  0.14284073332E+04  0.19013054002E+04  0.12548365293E+04 0.  0.
        3    1    3    3  502    0 -0.93379084364E+02 -0.33125353913E+02 -0.22452048600E+03  0.24541067887E+03  0.10100000352E+00 0. -1.
       -3    1    3    3    0  502  0.93379084364E+02  0.33125353913E+02  0.16529278192E+04  0.16558947213E+04  0.10100000352E+00 0.  1.
</event>
<event>
 5   0  0.1714861E-03  0.1324160E+04  0.7818609E-02  0.9010623E-01
       -2   -1    0    0    0  501  0.00000000000E+00  0.00000000000E+00  0.70192686440E+03  0.70192686440E+03  0.25500000920E-02 0. -1.
        2   -1    0    0  501    0  0.00000000000E+00  0.00000000000E+00 -0.62449480839E+03  0.62449480839E+03  0.25500000920E-02 0.  1.
    10030    2    1    2    0    0  0.00000000000E+00  0.00000000000E+00  0.77432056013E+02  0.13264216728E+04  0.13241596319E+04 0.  0.
        1    1    3    3  502    0  0.60156704489E+03  0.27623324430E+03  0.51464429998E+02  0.66395504542E+03  0.50400001928E-02 0. -1.
       -1    1    3    3    0  502 -0.60156704489E+03 -0.27623324430E+03  0.25967626015E+02  0.66246662737E+03  0.50400001928E-02 0.  1.
</event>
<event>
 5   0  0.1623890E-03  0.1284768E+04  0.7818609E-02  0.9041732E-01
        2   -1    0    0  501    0  0.00000000000E+00  0.00000000000E+00  0.12224966791E+04  0.12224966791E+04  0.25500000920E-02 0. -1.
       -2   -1    0    0    0  501  0.00000000000E+00  0.00000000000E+00 -0.33755306318E+03  0.33755306319E+03  0.25500000920E-02 0.  1.
    10030    2    1    2    0    0  0.00000000000E+00  0.00000000000E+00  0.88494361593E+03  0.15600497423E+04  0.12847684597E+04 0.  0.
        3    1    3    3  502    0 -0.57622110602E+03 -0.89448983703E+02  0.76970583799E+03  0.96564950729E+03  0.10100000352E+00 0. -1.
       -3    1    3    3    0  502  0.57622110602E+03  0.89448983703E+02  0.11523777794E+03  0.59440023500E+03  0.10100000352E+00 0.  1.
</event>
<event>
 5   0  0.9110949E-04  0.1305735E+04  0.7818609E-02  0.9025030E-01
       -1   -1    0    0    0  501  0.00000000000E+00  0.00000000000E+00  0.63221423003E+03  0.63221423005E+03  0.50400001928E-02 0. -1.
        1   -1    0    0  501    0  0.00000000000E+00  0.00000000000E+00 -0.67419500030E+03  0.67419500032E+03  0.50400001928E-02 0.  1.
    10030    2    1    2    0    0  0.00000000000E+00  0.00000000000E+00 -0.41980770273E+02  0.13064092304E+04  0.13057345412E+04 0.  0.
        2    1    3    3  502    0  0.61470408919E+03  0.20820111755E+03 -0.91927305191E+02  0.65548413563E+03  0.25500000920E-02 0. -1.
       -2    1    3    3    0  502 -0.61470408919E+03 -0.20820111755E+03  0.49946534918E+02  0.65092509474E+03  0.25500000920E-02 0.  1.
</event>
<event>
 5   0  0.1694675E-03  0.1294219E+04  0.7818609E-02  0.9034162E-01
        2   -1    0    0  501    0  0.00000000000E+00  0.00000000000E+00  0.13258256907E+04  0.13258256907E+04  0.25500000920E-02 0.  1.
       -2   -1    0    0    0  501  0.00000000000E+00  0.00000000000E+00 -0.31584151848E+03  0.31584151849E+03  0.25500000920E-02 0. -1.
    10030    2    1    2    0    0  0.00000000000E+00  0.00000000000E+00  0.10099841722E+04  0.16416672092E+04  0.12942191459E+04 0.  0.
        4    1    3    3  502    0 -0.48429954449E+03  0.39961219266E+03  0.30639283723E+03  0.69865165635E+03  0.12699999809E+01 0. -1.
       -4    1    3    3    0  502  0.48429954449E+03 -0.39961219266E+03  0.70359133499E+03  0.94301555283E+03  0.12699999809E+01 0.  1.
</event>
<event>
 5   0  0.9027076E-04  0.1312087E+04  0.7818609E-02  0.9020035E-01
       -1   -1    0    0    0  501  0.00000000000E+00  0.00000000000E+00  0.39377595348E+03  0.39377595351E+03  0.50400001928E-02 0.  1.
        1   -1    0    0  501    0  0.00000000000E+00  0.00000000000E+00 -0.10929899226E+04  0.10929899226E+04  0.50400001928E-02 0. -1.
    10030    2    1    2    0    0  0.00000000000E+00  0.00000000000E+00 -0.69921396912E+03  0.14867658761E+04  0.13120871144E+04 0.  0.
        5    1    3    3  502    0 -0.49988974699E+03  0.33547283090E+03 -0.54254667156E+02  0.60448113149E+03  0.46999998093E+01 0.  1.
       -5    1    3    3    0  502  0.49988974699E+03 -0.33547283090E+03 -0.64495930196E+03  0.88228474463E+03  0.46999998093E+01 0. -1.
</event>
<event>
 5   0  0.6284125E-04  0.1306374E+04  0.7818609E-02  0.9024526E-01
       -4   -1    0    0    0  501  0.00000000000E+00  0.00000000000E+00  0.34845952449E+03  0.34846183882E+03  0.12699999809E+01 0. -1.
        4   -1    0    0  501    0  0.00000000000E+00  0.00000000000E+00 -0.12243920966E+04  0.12243927552E+04  0.12699999809E+01 0.  1.
    10030    2    1    2    0    0  0.00000000000E+00  0.00000000000E+00 -0.87593257208E+03  0.15728545940E+04  0.13063742585E+04 0.  0.
        5    1    3    3  502    0 -0.52893865304E+02 -0.15247405817E+03 -0.11999899016E+04  0.12108030201E+04  0.46999998093E+01 0.  1.
       -5    1    3    3    0  502  0.52893865304E+02  0.15247405817E+03  0.32405732954E+03  0.36205157399E+03  0.46999998093E+01 0. -1.
</event>
<event>
 5   0  0.6284125E-04  0.1293350E+04  0.7818609E-02  0.9034856E-01
       -3   -1    0    0    0  501  0.00000000000E+00  0.00000000000E+00  0.49717644997E+03  0.49717646022E+03  0.10100000352E+00 0.  1.
        3   -1    0    0  501    0  0.00000000000E+00  0.00000000000E+00 -0.84112646329E+03  0.84112646936E+03  0.10100000352E+00 0. -1.
    10030    2    1    2    0    0  0.00000000000E+00  0.00000000000E+00 -0.34395001333E+03  0.13383029296E+04  0.12933495736E+04 0.  0.
        4    1    3    3  502    0 -0.57584061703E+03 -0.24009080072E+03 -0.34803785573E+03  0.71440042745E+03  0.12699999809E+01 0.  1.
       -4    1    3    3    0  502  0.57584061703E+03  0.24009080072E+03  0.40878424037E+01  0.62390250213E+03  0.12699999809E+01 0. -1.
</event>
<event>
 5   0  0.9110949E-04  0.1301645E+04  0.7818609E-02  0.9028262E-01
       -1   -1    0    0    0  501  0.00000000000E+00  0.00000000000E+00  0.46532213571E+03  0.46532213574E+03  0.50400001928E-02 0.  1.
        1   -1    0    0  501    0  0.00000000000E+00  0.00000000000E+00 -0.91027242000E+03  0.91027242001E+03  0.50400001928E-02 0. -1.
    10030    2    1    2    0    0  0.00000000000E+00  0.00000000000E+00 -0.44495028429E+03  0.13755945558E+04  0.13016449694E+04 0.  0.
        2    1    3    3  502    0 -0.11085389518E+03 -0.16142306372E+03  0.43345037201E+03  0.47563138730E+03  0.25500000920E-02 0.  1.
       -2    1    3    3    0  502  0.11085389518E+03  0.16142306372E+03 -0.87840065630E+03  0.89996316845E+03  0.25500000920E-02 0. -1.
</event>
<event>
 5   0  0.9215829E-04  0.1298502E+04  0.7818609E-02  0.9030754E-01
        1   -1    0    0  501    0  0.00000000000E+00  0.00000000000E+00  0.11743508785E+04  0.11743508785E+04  0.50400001928E-02 0. -1.
       -1   -1    0    0    0  501  0.00000000000E+00  0.00000000000E+00 -0.35894446045E+03  0.35894446049E+03  0.50400001928E-02 0.  1.
    10030    2    1    2    0    0  0.00000000000E+00  0.00000000000E+00  0.81540641808E+03  0.15332953390E+04  0.12985018175E+04 0.  0.
        3    1    3    3  502    0 -0.66551305000E+02 -0.64223391183E+03  0.48807923404E+03  0.80939163735E+03  0.10100000352E+00 0.  1.
       -3    1    3    3    0  502  0.66551305000E+02  0.64223391183E+03  0.32732718404E+03  0.72390370169E+03  0.10100000352E+00 0. -1.
</event>
<event>
 5   0  0.9027076E-04  0.1292412E+04  0.7818609E-02  0.9035604E-01
       -1   -1    0    0    0  501  0.00000000000E+00  0.00000000000E+00  0.61408690068E+03  0.61408690070E+03  0.50400001928E-02 0. -1.
        1   -1    0    0  501    0  0.00000000000E+00  0.00000000000E+00 -0.68000513307E+03  0.68000513309E+03  0.50400001928E-02 0.  1.
    10030    2    1    2    0    0  0.00000000000E+00  0.00000000000E+00 -0.65918232394E+02  0.12940920338E+04  0.12924120777E+04 0.  0.
        5    1    3    3  502    0 -0.44364462870E+03  0.46974148774E+03 -0.42055679681E+02  0.64750937605E+03  0.46999998093E+01 0. -1.
       -5    1    3    3    0  502  0.44364462870E+03 -0.46974148774E+03 -0.23862552713E+02  0.64658265775E+03  0.46999998093E+01 0.  1.
</event>
<event>
 5   0  0.1667342E-03  0.1302082E+04  0.7818609E-02  0.9027916E-01
       -2   -1    0    0    0  501  0.00000000000E+00  0.00000000000E+00  0.37749069570E+03  0.37749069571E+03  0.25500000920E-02 0. -1.
        2   -1    0    0  501    0  0.00000000000E+00  0.00000000000E+00 -0.11228204662E+04  0.11228204662E+04  0.25500000920E-02 0.  1.
    10030    2    1    2    0    0  0.00000000000E+00  0.00000000000E+00 -0.74532977051E+03  0.15003111619E+04  0.13020818391E+04 0.  0.
        5    1    3    3  502    0  0.57923351906E+03 -0.26380176107E+03 -0.21497479061E+03  0.67181775009E+03  0.46999998093E+01 0. -1.
       -5    1    3    3    0  502 -0.57923351906E+03  0.26380176107E+03 -0.53035497990E+03  0.82849341183E+03  0.46999998093E+01 0.  1.
</event>
<event>
 5   0  0.9098192E-04  0.1293274E+04  0.7818609E-02  0.9034916E-01
       -1   -1    0    0    0  501  0.00000000000E+00  0.00000000000E+00  0.77234477402E+03  0.77234477404E+03  0.50400001928E-02 0. -1.
        1   -1    0    0  501    0  0.00000000000E+00  0.00000000000E+00 -0.54138989892E+03  0.54138989894E+03  0.50400001928E-02 0.  1.
    10030    2    1    2    0    0  0.00000000000E+00  0.00000000000E+00  0.23095487510E+03  0.13137346730E+04  0.12932743857E+04 0.  0.
        1    1    3    3  502    0  0.51374654972E+03 -0.19065479786E+01 -0.28341875112E+03  0.58674128949E+03  0.50400001928E-02 0.  1.
       -1    1    3    3    0  502 -0.51374654972E+03  0.19065479786E+01  0.51437362622E+03  0.72699338350E+03  0.50400001928E-02 0. -1.
</event>
<event>
 5   0  0.9027076E-04  0.1300894E+04  0.7818609E-02  0.9028856E-01
        1   -1    0    0  501    0  0.00000000000E+00  0.00000000000E+00  0.78472181486E+03  0.78472181488E+03  0.50400001928E-02 0.  1.
       -1   -1    0    0    0  501  0.00000000000E+00  0.00000000000E+00 -0.53914835672E+03  0.53914835675E+03  0.50400001928E-02 0. -1.
    10030    2    1    2    0    0  0.00000000000E+00  0.00000000000E+00  0.24557345814E+03  0.13238701716E+04  0.13008942724E+04 0.  0.
        5    1    3    3  502    0 -0.99222923449E+02  0.41832652308E+03  0.61948183306E+03  0.75407035477E+03  0.46999998093E+01 0.  1.
       -5    1    3    3    0  502  0.99222923449E+02 -0.41832652308E+03 -0.37390837492E+03  0.56979981686E+03  0.46999998093E+01 0. -1.
</event>
<event>
 5   0  0.9081324E-04  0.1314713E+04  0.7818609E-02  0.9017979E-01
        1   -1    0    0  501    0  0.00000000000E+00  0.00000000000E+00  0.13319206296E+04  0.13319206296E+04  0.50400001928E-02 0.  1.
       -1   -1    0    0    0  501  0.00000000000E+00  0.00000000000E+00 -0.32443172777E+03  0.32443172781E+03  0.50400001928E-02 0. -1.
    10030    2    1    2    0    0  0.00000000000E+00  0.00000000000E+00  0.10074889018E+04  0.16563523574E+04  0.13147126091E+04 0.  0.
        4    1    3    3  502    0 -0.19960658451E+03  0.45613588903E+03 -0.36987451357E+02  0.49927189216E+03  0.12699999809E+01 0. -1.
       -4    1    3    3    0  502  0.19960658451E+03 -0.45613588903E+03  0.10444763532E+04  0.11570804652E+04  0.12699999809E+01 0.  1.
</event>
<event>
 5   0  0.9110949E-04  0.1297144E+04  0.7818609E-02  0.9031833E-01
        1   -1    0    0  501    0  0.00000000000E+00  0.00000000000E+00  0.77128949021E+03  0.77128949023E+03  0.50400001928E-02 0.  1.
       -1   -1    0    0    0  501  0.00000000000E+00  0.00000000000E+00 -0.54537967864E+03  0.54537967867E+03  0.50400001928E-02 0. -1.
    10030    2    1    2    0    0  0.00000000000E+00  0.00000000000E+00  0.22590981157E+03  0.13166691689E+04  0.12971439617E+04 0.  0.
        2    1    3    3  502    0 -0.40153536303E+03  0.17595225812E+03 -0.37221019464E+03  0.57509153524E+03  0.25500000920E-02 0. -1.
       -2    1    3    3    0  502  0.40153536303E+03 -0.17595225812E+03  0.59812000621E+03  0.74157763365E+03  0.25500000920E-02 0.  1.
</event>
<event>
 5   0  0.1700511E-03  0.1292341E+04  0.7818609E-02  0.9035661E-01
        2   -1    0    0  501    0  0.00000000000E+00  0.00000000000E+00  0.90024607643E+03  0.90024607644E+03  0.25500000920E-02 0.  1.
       -2   -1    0    0    0  501  0.00000000000E+00  0.00000000000E+00 -0.46380253152E+03  0.46380253153E+03  0.25500000920E-02 0. -1.
    10030    2    1    2    0    0  0.00000000000E+00  0.00000000000E+00  0.43644354491E+03  0.13640486080E+04  0.12923411457E+04 0.  0.
        2    1    3    3  502    0 -0.33697651903E+03  0.22225156472E+03 -0.31434147659E+03  0.51162437032E+03  0.25500000920E-02 0. -1.
       -2    1    3    3    0  502  0.33697651903E+03 -0.22225156472E+03  0.75078502150E+03  0.85242423764E+03  0.25500000920E-02 0.  1.
</event>
<event>
 5   0  0.1623890E-03  0.1310726E+04  0.7818609E-02  0.9021102E-01
        2   -1    0    0  501    0  0.00000000000E+00  0.00000000000E+00  0.74768784475E+03  0.74768784476E+03  0.25500000920E-02 0. -1.
       -2   -1    0    0    0  501  0.00000000000E+00  0.00000000000E+00 -0.57443867441E+03  0.57443867442E+03  0.25500000920E-02 0.  1.
    10030    2    1    2    0    0  0.00000000000E+00  0.00000000000E+00  0.17324917034E+03  0.13221265192E+04  0.13107262329E+04 0.  0.
        3    1    3    3  502    0 -0.20330952643E+03 -0.18378899979E+03 -0.51385785341E+03  0.58237708033E+03  0.10100000352E+00 0.  1.
       -3    1    3    3    0  502  0.20330952643E+03  0.18378899979E+03  0.68710702375E+03  0.73974943885E+03  0.10100000352E+00 0. -1.
</event>
<event>
 5   0  0.1694675E-03  0.1300457E+04  0.7818609E-02  0.9029203E-01
        2   -1    0    0  501    0  0.00000000000E+00  0.00000000000E+00  0.82509593514E+03  0.82509593514E+03  0.25500000920E-02 0. -1.
       -2   -1    0    0    0  501  0.00000000000E+00  0.00000000000E+00 -0.51242201105E+03  0.51242201106E+03  0.25500000920E-02 0.  1.
    10030    2    1    2    0    0  0.00000000000E+00  0.00000000000E+00  0.31267392409E+03  0.13375179462E+04  0.13004573325E+04 0.  0.
        4    1    3    3  502    0 -0.20769147012E+03  0.57446222262E+03  0.38551698222E+03  0.72233478973E+03  0.12699999809E+01 0. -1.
       -4    1    3    3    0  502  0.20769147012E+03 -0.57446222262E+03 -0.72843058131E+02  0.61518315647E+03  0.12699999809E+01 0.  1.
</event>
<event>
 5   0  0.9027076E-04  0.1289881E+04  0.7818609E-02  0.9037629E-01
        1   -1    0    0  501    0  0.00000000000E+00  0.00000000000E+00  0.56511460603E+03  0.56511460606E+03  0.50400001928E-02 0. -1.
       -1   -1    0    0    0  501  0.00000000000E+00  0.00000000000E+00 -0.73604177664E+03  0.73604177665E+03  0.50400001928E-02 0.  1.
    10030    2    1    2    0    0  0.00000000000E+00  0.00000000000E+00 -0.17092717060E+03  0.13011563827E+04  0.12898805505E+04 0.  0.
        5    1    3    3  502    0  0.26239251755E+03 -0.15601350251E+03  0.48760102414E+03  0.57529722316E+03  0.46999998093E+01 0. -1.
       -5    1    3    3    0  502 -0.26239251755E+03  0.15601350251E+03 -0.65852819475E+03  0.72585915955E+03  0.46999998093E+01 0.  1.
</event>
<event>
 5   0  0.1714861E-03  0.1351013E+04  0.7818609E-02  0.8990062E-01
        2   -1    0    0  501    0  0.00000000000E+00  0.00000000000E+00  0.90513732768E+03  0.90513732769E+03  0.25500000920E-02 0.  1.
       -2   -1    0    0    0  501  0.00000000000E+00  0.00000000000E+00 -0.50413231724E+03  0.50413231724E+03  0.25500000920E-02 0. -1.
    10030    2    1    2    0    0  0.00000000000E+00  0.00000000000E+00  0.40100501045E+03  0.14092696449E+04  0.13510129214E+04 0.  0.
        1    1    3    3  502    0 -0.32457376682E+03 -0.57822757912E+03  0.66050286496E+02  0.66637669808E+03  0.50400001928E-02 0.  1.
       -1    1    3    3    0  502  0.32457376682E+03  0.57822757912E+03  0.33495472395E+03  0.74289294686E+03  0.50400001928E-02 0. -1.
</event>
<event>
 5   0  0.1667342E-03  0.1285288E+04  0.7818609E-02  0.9041314E-01
        2   -1    0    0  501    0  0.00000000000E+00  0.00000000000E+00  0.11307502127E+04  0.11307502127E+04  0.25500000920E-02 0.  1.
       -2   -1    0    0    0  501  0.00000000000E+00  0.00000000000E+00 -0.36523674050E+03  0.36523674050E+03  0.25500000920E-02 0. -1.
    10030    2    1    2    0    0  0.00000000000E+00  0.00000000000E+00  0.76551347222E+03  0.14959869532E+04  0.12852883288E+04 0.  0.
        5    1    3    3  502    0 -0.36724126108E+03 -0.43329716373E+03  0.73262761649E+03  0.92702636984E+03  0.46999998093E+01 0.  1.
       -5    1    3    3    0  502  0.36724126108E+03  0.43329716373E+03  0.32885855722E+02  0.56896058338E+03  0.46999998093E+01 0. -1.
</event>
<event>
 5   0  0.9081324E-04  0.1303417E+04  0.7818609E-02  0.9026860E-01
       -1   -1    0    0    0  501  0.00000000000E+00  0.00000000000E+00  0.19434332809E+03  0.19434332816E+03  0.50400001928E-02 0. -1.
        1   -1    0    0  501    0  0.00000000000E+00  0.00000000000E+00 -0.21854299150E+04  0.21854299150E+04  0.50400001928E-02 0.  1.
    10030    2    1    2    0    0  0.00000000000E+00  0.00000000000E+00 -0.19910865869E+04  0.23797732432E+04  0.13034166227E+04 0.  0.
        4    1    3    3  502    0 -0.56493111546E+03 -0.28980215998E+03 -0.72727141309E+03  0.96543139494E+03  0.12699999809E+01 0. -1.
       -4    1    3    3    0  502  0.56493111546E+03  0.28980215998E+03 -0.12638151738E+04  0.14143418482E+04  0.12699999809E+01 0.  1.
</event>
<event>
 5   0  0.9110949E-04  0.1292280E+04  0.7818609E-02  0.9035710E-01
        1   -1    0    0  501    0  0.00000000000E+00  0.00000000000E+00  0.58737174183E+03  0.58737174185E+03  0.50400001928E-02 0.  1.
       -1   -1    0    0    0  501  0.00000000000E+00  0.00000000000E+00 -0.71078802639E+03  0.71078802640E+03  0.50400001928E-02 0. -1.
    10030    2    1    2    0    0  0.00000000000E+00  0.00000000000E+00 -0.12341628456E+03  0.12981597683E+04  0.12922798476E+04 0.  0.
        2    1    3    3  502    0  0.46182569465E+03  0.34142833262E+03  0.23568027743E+03  0.62080711314E+03  0.25500000920E-02 0.  1.
       -2    1    3    3    0  502 -0.46182569465E+03 -0.34142833262E+03 -0.35909656199E+03  0.67735265511E+03  0.25500000920E-02 0. -1.
</event>
<event>
 5   0  0.9110949E-04  0.1202503E+04  0.7818609E-02  0.9110669E-01
       -1   -1    0    0    0  501  0.00000000000E+00  0.00000000000E+00  0.67176399681E+03  0.67176399683E+03  0.50400001928E-02 0.  1.
        1   -1    0    0  501    0  0.00000000000E+00  0.00000000000E+00 -0.53814033051E+03  0.53814033054E+03  0.50400001928E-02 0. -1.
    10030    2    1    2    0    0  0.00000000000E+00  0.00000000000E+00  0.13362366629E+03  0.12099043274E+04  0.12025028886E+04 0.  0.
        2    1    3    3  502    0 -0.23327846040E+03 -0.41462013563E+02  0.62281182756E+03  0.66635764512E+03  0.25500000920E-02 0.  1.
       -2    1    3    3    0  502  0.23327846040E+03  0.41462013563E+02 -0.48918816126E+03  0.54354668225E+03  0.25500000920E-02 0. -1.
</event>
<event>
 5   0  0.9215829E-04  0.1298292E+04  0.7818609E-02  0.9030921E-01
       -1   -1    0    0    0  501  0.00000000000E+00  0.00000000000E+00  0.19578410564E+03  0.19578410570E+03  0.50400001928E-02 0. -1.
        1   -1    0    0  501    0  0.00000000000E+00  0.00000000000E+00 -0.21523224263E+04  0.21523224263E+04  0.50400001928E-02 0.  1.
    10030    2    1    2    0    0  0.00000000000E+00  0.00000000000E+00 -0.19565383207E+04  0.23481065320E+04  0.12982919878E+04 0.  0.
        3    1    3    3  502    0  0.15352593528E+03 -0.55599427816E+03 -0.43964681625E+03  0.72525111746E+03  0.10100000352E+00 0. -1.
       -3    1    3    3    0  502 -0.15352593528E+03  0.55599427816E+03 -0.15168915045E+04  0.16228554146E+04  0.10100000352E+00 0.  1.
</event>
<event>
 5   0  0.9110949E-04  0.1302903E+04  0.7818609E-02  0.9027266E-01
        1   -1    0    0  501    0  0.00000000000E+00  0.00000000000E+00  0.79770226087E+03  0.79770226088E+03  0.50400001928E-02 0.  1.
       -1   -1    0    0    0  501  0.00000000000E+00  0.00000000000E+00 -0.53201413800E+03  0.53201413803E+03  0.50400001928E-02 0. -1.
    10030    2    1    2    0    0  0.00000000000E+00  0.00000000000E+00  0.26568812286E+03  0.13297163989E+04  0.13029027296E+04 0.  0.
        2    1    3    3  502    0 -0.55978814416E+03 -0.11032829759E+03  0.45372481852E+03  0.72897277763E+03  0.25500000920E-02 0.  1.
       -2    1    3    3    0  502  0.55978814416E+03  0.11032829759E+03 -0.18803669565E+03  0.60074362128E+03  0.25500000920E-02 0. -1.
</event>
<event>
 5   0  0.1700511E-03  0.1300724E+04  0.7818609E-02  0.9028992E-01
        2   -1    0    0  501    0  0.00000000000E+00  0.00000000000E+00  0.69138368628E+03  0.69138368628E+03  0.25500000920E-02 0.  1.
       -2   -1    0    0    0  501  0.00000000000E+00  0.00000000000E+00 -0.61177384327E+03  0.61177384327E+03  0.25500000920E-02 0. -1.
    10030    2    1    2    0    0  0.00000000000E+00  0.00000000000E+00  0.79609843008E+02  0.13031575296E+04  0.13007235754E+04 0.  0.
        2    1    3    3  502    0 -0.21225552427E+03 -0.33244711416E+03 -0.47826710324E+03  0.61992976485E+03  0.25500000920E-02 0. -1.
       -2    1    3    3    0  502  0.21225552427E+03  0.33244711416E+03  0.55787694625E+03  0.68322776470E+03  0.25500000920E-02 0.  1.
</event>
<event>
 5   0  0.1700511E-03  0.1288213E+04  0.7818609E-02  0.9038965E-01
       -2   -1    0    0    0  501  0.00000000000E+00  0.00000000000E+00  0.66070752608E+03  0.66070752609E+03  0.25500000920E-02 0. -1.
        2   -1    0    0  501    0  0.00000000000E+00  0.00000000000E+00 -0.62792269142E+03  0.62792269142E+03  0.25500000920E-02 0.  1.
    10030    2    1    2    0    0  0.00000000000E+00  0.00000000000E+00  0.32784834668E+02  0.12886302175E+04  0.12882131004E+04 0.  0.
        2    1    3    3  502    0  0.28724336171E+03 -0.18934646549E+03 -0.52831343430E+03  0.63045691185E+03  0.25500000920E-02 0.  1.
       -2    1    3    3    0  502 -0.28724336171E+03  0.18934646549E+03  0.56109826897E+03  0.65817330566E+03  0.25500000920E-02 0. -1.
</event>
<event>
 5   0  0.1623890E-03  0.1309560E+04  0.7818609E-02  0.9022018E-01
       -2   -1    0    0    0  501  0.00000000000E+00  0.00000000000E+00  0.22114661917E+03  0.22114661918E+03  0.25500000920E-02 0.  1.
        2   -1    0    0  501    0  0.00000000000E+00  0.00000000000E+00 -0.19386988681E+04  0.19386988681E+04  0.25500000920E-02 0. -1.
    10030    2    1    2    0    0  0.00000000000E+00  0.00000000000E+00 -0.17175522489E+04  0.21598454872E+04  0.13095597738E+04 0.  0.
        3    1    3    3  502    0  0.12801608955E+03 -0.55527893701E+03 -0.13906920472E+04  0.15029129042E+04  0.10100000352E+00 0. -1.
       -3    1    3    3    0  502 -0.12801608955E+03  0.55527893701E+03 -0.32686020165E+03  0.65693258307E+03  0.10100000352E+00 0.  1.
</event>
<event>
 5   0  0.9098192E-04  0.1301322E+04  0.7818609E-02  0.9028518E-01
       -1   -1    0    0    0  501  0.00000000000E+00  0.00000000000E+00  0.22239061261E+03  0.22239061267E+03  0.50400001928E-02 0.  1.
        1   -1    0    0  501    0  0.00000000000E+00  0.00000000000E+00 -0.19036750206E+04  0.19036750206E+04  0.50400001928E-02 0. -1.
    10030    2    1    2    0    0  0.00000000000E+00  0.00000000000E+00 -0.16812844080E+04  0.21260656333E+04  0.13013215654E+04 0.  0.
        1    1    3    3  502    0 -0.37511745385E+03  0.52879190822E+03 -0.93050673269E+03  0.11340973353E+04  0.50400001928E-02 0. -1.
       -1    1    3    3    0  502  0.37511745385E+03 -0.52879190822E+03 -0.75077767528E+03  0.99196829793E+03  0.50400001928E-02 0.  1.
</event>
<event>
 5   0  0.9110949E-04  0.1306617E+04  0.7818609E-02  0.9024334E-01
       -1   -1    0    0    0  501  0.00000000000E+00  0.00000000000E+00  0.86585634793E+03  0.86585634794E+03  0.50400001928E-02 0. -1.
        1   -1    0    0  501    0  0.00000000000E+00  0.00000000000E+00 -0.49293659780E+03  0.49293659783E+03  0.50400001928E-02 0.  1.
    10030    2    1    2    0    0  0.00000000000E+00  0.00000000000E+00  0.37291975012E+03  0.13587929458E+04  0.13066174381E+04 0.  0.
        2    1    3    3  502    0 -0.19936061789E+03  0.39758791895E+03  0.68409896711E+03  0.81597316504E+03  0.25500000920E-02 0. -1.
       -2    1    3    3    0  502  0.19936061789E+03 -0.39758791895E+03 -0.31117921699E+03  0.54281978073E+03  0.25500000920E-02 0.  1.
</event>
<event>
 5   0  0.9110949E-04  0.1349097E+04  0.7818609E-02  0.8991512E-01
        1   -1    0    0  501    0  0.00000000000E+00  0.00000000000E+00  0.59285472552E+03  0.59285472554E+03  0.50400001928E-02 0.  1.
       -1   -1    0    0    0  501  0.00000000000E+00  0.00000000000E+00 -0.76749956789E+03  0.76749956790E+03  0.50400001928E-02 0. -1.
    10030    2    1    2    0    0  0.00000000000E+00  0.00000000000E+00 -0.17464484237E+03  0.13603542934E+04  0.13490970991E+04 0.  0.
        2    1    3    3  502    0  0.65381114554E+03 -0.15419141845E+03 -0.14924935662E+03  0.68812744315E+03  0.25500000920E-02 0. -1.
       -2    1    3    3    0  502 -0.65381114554E+03  0.15419141845E+03 -0.25395485749E+02  0.67222685029E+03  0.25500000920E-02 0.  1.
</event>
<event>
 5   0  0.1623890E-03  0.1298613E+04  0.7818609E-02  0.9030666E-01
        2   -1    0    0  501    0  0.00000000000E+00  0.00000000000E+00  0.21397589517E+04  0.21397589517E+04  0.25500000920E-02 0. -1.
       -2   -1    0    0    0  501  0.00000000000E+00  0.00000000000E+00 -0.19703109794E+03  0.19703109796E+03  0.25500000920E-02 0.  1.
    10030    2    1    2    0    0  0.00000000000E+00  0.00000000000E+00  0.19427278537E+04  0.23367900496E+04  0.12986131920E+04 0.  0.
        3    1    3    3  502    0 -0.33511133265E+03 -0.46582090457E+03  0.15180840060E+04  0.16229195235E+04  0.10100000352E+00 0. -1.
       -3    1    3    3    0  502  0.33511133265E+03  0.46582090457E+03  0.42464384772E+03  0.71387052608E+03  0.10100000352E+00 0.  1.
</event>
<event>
 5   0  0.1700511E-03  0.1296125E+04  0.7818609E-02  0.9032644E-01
       -2   -1    0    0    0  501  0.00000000000E+00  0.00000000000E+00  0.64025002077E+03  0.64025002078E+03  0.25500000920E-02 0.  1.
        2   -1    0    0  501    0  0.00000000000E+00  0.00000000000E+00 -0.65597044109E+03  0.65597044110E+03  0.25500000920E-02 0. -1.
    10030    2    1    2    0    0  0.00000000000E+00  0.00000000000E+00 -0.15720420320E+02  0.12962204619E+04  0.12961251306E+04 0.  0.
        2    1    3    3  502    0 -0.56262295892E+03  0.10403994320E+02 -0.32933719608E+03  0.65200906874E+03  0.25500000920E-02 0.  1.
       -2    1    3    3    0  502  0.56262295892E+03 -0.10403994320E+02  0.31361677576E+03  0.64421139313E+03  0.25500000920E-02 0. -1.
</event>
<event>
 5   0  0.1700511E-03  0.1332020E+04  0.7818609E-02  0.9004552E-01
        2   -1    0    0  501    0  0.00000000000E+00  0.00000000000E+00  0.14116320357E+04  0.14116320357E+04  0.25500000920E-02 0. -1.
       -2   -1    0    0    0  501  0.00000000000E+00  0.00000000000E+00 -0.31422434945E+03  0.31422434946E+03  0.25500000920E-02 0.  1.
    10030    2    1    2    0    0  0.00000000000E+00  0.00000000000E+00  0.10974076862E+04  0.17258563851E+04  0.13320197567E+04 0.  0.
        2    1    3    3  502    0  0.61180882187E+03  0.26152544006E+03  0.58677904368E+03  0.88713879208E+03  0.25500000920E-02 0.  1.
       -2    1    3    3    0  502 -0.61180882187E+03 -0.26152544006E+03  0.51062864255E+03  0.83871759306E+03  0.25500000920E-02 0. -1.
</event>
<event>
 5   0  0.9081324E-04  0.1303485E+04  0.7818609E-02  0.9026806E-01
        1   -1    0    0  501    0  0.00000000000E+00  0.00000000000E+00  0.10105538214E+04  0.10105538214E+04  0.50400001928E-02 0.  1.
       -1   -1    0    0    0  501  0.00000000000E+00  0.00000000000E+00 -0.42033236187E+03  0.42033236190E+03  0.50400001928E-02 0. -1.
    10030    2    1    2    0    0  0.00000000000E+00  0.00000000000E+00  0.59022145950E+03  0.14308861833E+04  0.13034852888E+04 0.  0.
        4    1    3    3  502    0  0.33287874373E+03  0.47490211159E+03 -0.31319514551E+02  0.58079497115E+03  0.12699999809E+01 0. -1.
       -4    1    3    3    0  502 -0.33287874373E+03 -0.47490211159E+03  0.62154097405E+03  0.85009121213E+03  0.12699999809E+01 0.  1.
</event>
<event>
 5   0  0.6284125E-04  0.1327276E+04  0.7818609E-02  0.9008211E-01
        3   -1    0    0  501    0  0.00000000000E+00  0.00000000000E+00  0.10543195886E+04  0.10543195934E+04  0.10100000352E+00 0. -1.
       -3   -1    0    0    0  501  0.00000000000E+00  0.00000000000E+00 -0.41772462899E+03  0.41772464120E+03  0.10100000352E+00 0.  1.
    10030    2    1    2    0    0  0.00000000000E+00  0.00000000000E+00  0.63659495958E+03  0.14720442346E+04  0.13272758139E+04 0.  0.
        2    1    3    3  502    0 -0.38698725588E+03 -0.44758436194E+03  0.65161808433E+03  0.88016874808E+03  0.25500000920E-02 0. -1.
       -2    1    3    3    0  502  0.38698725588E+03  0.44758436194E+03 -0.15023124752E+02  0.59187548652E+03  0.25500000920E-02 0.  1.
</event>
<event>
 5   0  0.1714861E-03  0.1285115E+04  0.7818609E-02  0.9041453E-01
        2   -1    0    0  501    0  0.00000000000E+00  0.00000000000E+00  0.52574759245E+03  0.52574759246E+03  0.25500000920E-02 0.  1.
       -2   -1    0    0    0  501  0.00000000000E+00  0.00000000000E+00 -0.78532035938E+03  0.78532035938E+03  0.25500000920E-02 0. -1.
    10030    2    1    2    0    0  0.00000000000E+00  0.00000000000E+00 -0.25957276693E+03  0.13110679518E+04  0.12851152295E+04 0.  0.
        1    1    3    3  502    0 -0.52345756423E+03  0.36315602163E+03 -0.44490706641E+02  0.63864664768E+03  0.50400001928E-02 0. -1.
       -1    1    3    3    0  502  0.52345756423E+03 -0.36315602163E+03 -0.21508206029E+03  0.67242130415E+03  0.50400001928E-02 0.  1.
</event>
<event>
 5   0  0.1623890E-03  0.1302265E+04  0.7818609E-02  0.9027771E-01
        2   -1    0    0  501    0  0.00000000000E+00  0.00000000000E+00  0.18587718842E+04  0.18587718842E+04  0.25500000920E-02 0.  1.
       -2   -1    0    0    0  501  0.00000000000E+00  0.00000000000E+00 -0.22809327421E+03  0.22809327423E+03  0.25500000920E-02 0. -1.
    10030    2    1    2    0    0  0.00000000000E+00  0.00000000000E+00  0.16306786100E+04  0.20868651584E+04  0.13022647428E+04 0.  0.
        3    1    3    3  502    0  0.39026714831E+03 -0.22359593445E+03  0.60858253846E+02  0.45388029943E+03  0.10100000352E+00 0. -1.
       -3    1    3    3    0  502 -0.39026714831E+03  0.22359593445E+03  0.15698203562E+04  0.16329848590E+04  0.10100000352E+00 0.  1.
</event>
<event>
 5   0  0.9110949E-04  0.1095859E+04  0.7818609E-02  0.9209238E-01
        1   -1    0    0  501    0  0.00000000000E+00  0.00000000000E+00  0.10254909414E+04  0.10254909414E+04  0.50400001928E-02 0.  1.
       -1   -1    0    0    0  501  0.00000000000E+00  0.00000000000E+00 -0.29276380794E+03  0.29276380798E+03  0.50400001928E-02 0. -1.
    10030    2    1    2    0    0  0.00000000000E+00  0.00000000000E+00  0.73272713343E+03  0.13182547494E+04  0.10958588103E+04 0.  0.
        2    1    3    3  502    0  0.17172720114E+03 -0.29174410761E+03  0.88463730639E+03  0.94720009491E+03  0.25500000920E-02 0.  1.
       -2    1    3    3    0  502 -0.17172720114E+03  0.29174410761E+03 -0.15191017296E+03  0.37105465445E+03  0.25500000920E-02 0. -1.
</event>
<event>
 5   0  0.1623890E-03  0.1307756E+04  0.7818609E-02  0.9023437E-01
        2   -1    0    0  501    0  0.00000000000E+00  0.00000000000E+00  0.66273321139E+03  0.66273321139E+03  0.25500000920E-02 0. -1.
       -2   -1    0    0    0  501  0.00000000000E+00  0.00000000000E+00 -0.64514065486E+03  0.64514065487E+03  0.25500000920E-02 0.  1.
    10030    2    1    2    0    0  0.00000000000E+00  0.00000000000E+00  0.17592556524E+02  0.13078738663E+04  0.13077555398E+04 0.  0.
        3    1    3    3  502    0  0.53185191708E+03 -0.28901740525E+03 -0.23852875765E+03  0.65061009880E+03  0.10100000352E+00 0.  1.
       -3    1    3    3    0  502 -0.53185191708E+03  0.28901740525E+03  0.25612131417E+03  0.65726376746E+03  0.10100000352E+00 0. -1.
</event>
<event>
 5   0  0.1700511E-03  0.1342928E+04  0.7818609E-02  0.8996199E-01
       -2   -1    0    0    0  501  0.00000000000E+00  0.00000000000E+00  0.35549032013E+03  0.35549032014E+03  0.25500000920E-02 0. -1.
        2   -1    0    0  501    0  0.00000000000E+00  0.00000000000E+00 -0.12682866399E+04  0.12682866399E+04  0.25500000920E-02 0.  1.
    10030    2    1    2    0    0  0.00000000000E+00  0.00000000000E+00 -0.91279631976E+03  0.16237769600E+04  0.13429275835E+04 0.  0.
        2    1    3    3  502    0  0.26379589047E+03 -0.61664575831E+03 -0.49507830716E+03  0.83363228902E+03  0.25500000920E-02 0.  1.
       -2    1    3    3    0  502 -0.26379589047E+03  0.61664575831E+03 -0.41771801260E+03  0.79014467101E+03  0.25500000920E-02 0. -1.
</event>
<event>
 5   0  0.1667342E-03  0.1305459E+04  0.7818609E-02  0.9025248E-01
       -2   -1    0    0    0  501  0.00000000000E+00  0.00000000000E+00  0.23381539117E+03  0.23381539119E+03  0.25500000920E-02 0.  1.
        2   -1    0    0  501    0  0.00000000000E+00  0.00000000000E+00 -0.18221876656E+04  0.18221876656E+04  0.25500000920E-02 0. -1.
    10030    2    1    2    0    0  0.00000000000E+00  0.00000000000E+00 -0.15883722745E+04  0.20560030568E+04  0.13054585736E+04 0.  0.
        5    1    3    3  502    0 -0.25011709657E+03  0.55794061447E+03 -0.43443614041E+03  0.75007542378E+03  0.46999998093E+01 0.  1.
       -5    1    3    3    0  502  0.25011709657E+03 -0.55794061447E+03 -0.11539361340E+04  0.13059276330E+04  0.46999998093E+01 0. -1.
</event>
<event>
 5   0  0.9027076E-04  0.1340721E+04  0.7818609E-02  0.8997882E-01
        1   -1    0    0  501    0  0.00000000000E+00  0.00000000000E+00  0.43140655745E+03  0.43140655748E+03  0.50400001928E-02 0. -1.
       -1   -1    0    0    0  501  0.00000000000E+00  0.00000000000E+00 -0.10416690753E+04  0.10416690753E+04  0.50400001928E-02 0.  1.
    10030    2    1    2    0    0  0.00000000000E+00  0.00000000000E+00 -0.61026251783E+03  0.14730756328E+04  0.13407205075E+04 0.  0.
        5    1    3    3  502    0 -0.26973372136E+03  0.13822135509E+03  0.35180680369E+03  0.46438296756E+03  0.46999998093E+01 0. -1.
       -5    1    3    3    0  502  0.26973372136E+03 -0.13822135509E+03 -0.96206932152E+03  0.10086926652E+04  0.46999998093E+01 0.  1.
</event>
<event>
 5   0  0.9027076E-04  0.1305704E+04  0.7818609E-02  0.9025054E-01
       -1   -1    0    0    0  501  0.00000000000E+00  0.00000000000E+00  0.21605479571E+03  0.21605479577E+03  0.50400001928E-02 0.  1.
        1   -1    0    0  501    0  0.00000000000E+00  0.00000000000E+00 -0.19727210259E+04  0.19727210259E+04  0.50400001928E-02 0. -1.
    10030    2    1    2    0    0  0.00000000000E+00  0.00000000000E+00 -0.17566662302E+04  0.21887758216E+04  0.13057041599E+04 0.  0.
        5    1    3    3  502    0  0.28964356198E+03 -0.57818072244E+03 -0.10283369840E+04  0.12147779152E+04  0.46999998093E+01 0. -1.
       -5    1    3    3    0  502 -0.28964356198E+03  0.57818072244E+03 -0.72832924621E+03  0.97399790640E+03  0.46999998093E+01 0.  1.
</event>
<event>
 5   0  0.1714861E-03  0.1272932E+04  0.7818609E-02  0.9051310E-01
       -2   -1    0    0    0  501  0.00000000000E+00  0.00000000000E+00  0.98659323004E+03  0.98659323004E+03  0.25500000920E-02 0. -1.
        2   -1    0    0  501    0  0.00000000000E+00  0.00000000000E+00 -0.41059360536E+03  0.41059360537E+03  0.25500000920E-02 0.  1.
    10030    2    1    2    0    0  0.00000000000E+00  0.00000000000E+00  0.57599962468E+03  0.13971868354E+04  0.12729318463E+04 0.  0.
        1    1    3    3  502    0  0.16701920641E+03  0.23984453602E+03  0.90858149430E+03  0.95443236983E+03  0.50400001928E-02 0. -1.
       -1    1    3    3    0  502 -0.16701920641E+03 -0.23984453602E+03 -0.33258186961E+03  0.44275446558E+03  0.50400001928E-02 0.  1.
</event>
<event>
 5   0  0.9110949E-04  0.1265707E+04  0.7818609E-02  0.9057211E-01
        1   -1    0    0  501    0  0.00000000000E+00  0.00000000000E+00  0.45549508428E+03  0.45549508431E+03  0.50400001928E-02 0. -1.
       -1   -1    0    0    0  501  0.00000000000E+00  0.00000000000E+00 -0.87927058656E+03  0.87927058657E+03  0.50400001928E-02 0.  1.
    10030    2    1    2    0    0  0.00000000000E+00  0.00000000000E+00 -0.42377550228E+03  0.13347656709E+04  0.12657068064E+04 0.  0.
        2    1    3    3  502    0 -0.14821344133E+03  0.41935833379E+03 -0.68664519469E+03  0.81811384276E+03  0.25500000920E-02 0.  1.
       -2    1    3    3    0  502  0.14821344133E+03 -0.41935833379E+03  0.26286969241E+03  0.51665182813E+03  0.25500000920E-02 0. -1.
</event>
<event>
 5   0  0.1700511E-03  0.1280135E+04  0.7818609E-02  0.9045468E-01
       -2   -1    0    0    0  501  0.00000000000E+00  0.00000000000E+00  0.42787916406E+03  0.42787916407E+03  0.25500000920E-02 0. -1.
        2   -1    0    0  501    0  0.00000000000E+00  0.00000000000E+00 -0.95748176747E+03  0.95748176747E+03  0.25500000920E-02 0.  1.
    10030    2    1    2    0    0  0.00000000000E+00  0.00000000000E+00 -0.52960260341E+03  0.13853609315E+04  0.12801351464E+04 0.  0.
        2    1    3    3  502    0  0.47360541279E+03  0.41166091459E+03 -0.12825668260E+03  0.64048151594E+03  0.25500000920E-02 0.  1.
       -2    1    3    3    0  502 -0.47360541279E+03 -0.41166091459E+03 -0.40134592081E+03  0.74487941560E+03  0.25500000920E-02 0. -1.
</event>
<event>
 5   0  0.9098192E-04  0.1300294E+04  0.7818609E-02  0.9029332E-01
        1   -1    0    0  501    0  0.00000000000E+00  0.00000000000E+00  0.12661017916E+04  0.12661017916E+04  0.50400001928E-02 0.  1.
       -1   -1    0    0    0  501  0.00000000000E+00  0.00000000000E+00 -0.33385222267E+03  0.33385222270E+03  0.50400001928E-02 0. -1.
    10030    2    1    2    0    0  0.00000000000E+00  0.00000000000E+00  0.93224956897E+03  0.15999540144E+04  0.13002936550E+04 0.  0.
        1    1    3    3  502    0 -0.30553570393E+03 -0.40585799140E+03 -0.33110046739E+02  0.50908648654E+03  0.50400001928E-02 0. -1.
       -1    1    3    3    0  502  0.30553570393E+03  0.40585799140E+03  0.96535961571E+03  0.10908675278E+04  0.50400001928E-02 0.  1.
</event>
<event>
 5   0  0.1694675E-03  0.1289670E+04  0.7818609E-02  0.9037798E-01
        2   -1    0    0  501    0  0.00000000000E+00  0.00000000000E+00  0.95149398236E+03  0.95149398237E+03  0.25500000920E-02 0.  1.
       -2   -1    0    0    0  501  0.00000000000E+00  0.00000000000E+00 -0.43700954396E+03  0.43700954397E+03  0.25500000920E-02 0. -1.
    10030    2    1    2    0    0  0.00000000000E+00  0.00000000000E+00  0.51448443840E+03  0.13885035263E+04  0.12896696497E+04 0.  0.
        4    1    3    3  502    0 -0.54354531577E+03 -0.14149995390E+03  0.59829360571E+03  0.82062208037E+03  0.12699999809E+01 0.  1.
       -4    1    3    3    0  502  0.54354531577E+03  0.14149995390E+03 -0.83809167312E+02  0.56788144597E+03  0.12699999809E+01 0. -1.
</event>
<event>
 5   0  0.9081324E-04  0.1253859E+04  0.7818609E-02  0.9066977E-01
       -1   -1    0    0    0  501  0.00000000000E+00  0.00000000000E+00  0.76625014029E+03  0.76625014030E+03  0.50400001928E-02 0.  1.
        1   -1    0    0  501    0  0.00000000000E+00  0.00000000000E+00 -0.51294049293E+03  0.51294049295E+03  0.50400001928E-02 0. -1.
    10030    2    1    2    0    0  0.00000000000E+00  0.00000000000E+00  0.25330964736E+03  0.12791906333E+04  0.12538592021E+04 0.  0.
        4    1    3    3  502    0  0.37941188241E+03 -0.20679377635E+03  0.59005835776E+03  0.73136004876E+03  0.12699999809E+01 0.  1.
       -4    1    3    3    0  502 -0.37941188241E+03  0.20679377635E+03 -0.33674871040E+03  0.54783058450E+03  0.12699999809E+01 0. -1.
</event>
<event>
 5   0  0.6284125E-04  0.1288405E+04  0.7818609E-02  0.9038811E-01
        4   -1    0    0  501    0  0.00000000000E+00  0.00000000000E+00  0.26439421488E+03  0.26439726504E+03  0.12699999809E+01 0.  1.
       -4   -1    0    0    0  501  0.00000000000E+00  0.00000000000E+00 -0.15696018149E+04  0.15696023287E+04  0.12699999809E+01 0. -1.
    10030    2    1    2    0    0  0.00000000000E+00  0.00000000000E+00 -0.13052076000E+04  0.18339995938E+04  0.12884050724E+04 0.  0.
        2    1    3    3  502    0 -0.18653258608E+03 -0.19075404898E+03  0.18205594557E+03  0.32299517054E+03  0.25500000920E-02 0.  1.
       -2    1    3    3    0  502  0.18653258608E+03  0.19075404898E+03 -0.14872635456E+04  0.15110044232E+04  0.25500000920E-02 0. -1.
</event>
<event>
 5   0  0.9081324E-04  0.1307990E+04  0.7818609E-02  0.9023253E-01
        1   -1    0    0  501    0  0.00000000000E+00  0.00000000000E+00  0.88850212092E+03  0.88850212093E+03  0.50400001928E-02 0. -1.
       -1   -1    0    0    0  501  0.00000000000E+00  0.00000000000E+00 -0.48138268967E+03  0.48138268970E+03  0.50400001928E-02 0.  1.
    10030    2    1    2    0    0  0.00000000000E+00  0.00000000000E+00  0.40711943125E+03  0.13698848106E+04  0.13079901235E+04 0.  0.
        4    1    3    3  502    0 -0.13164294723E+03 -0.63046689763E+03  0.32246427807E+03  0.72027994425E+03  0.12699999809E+01 0. -1.
       -4    1    3    3    0  502  0.13164294723E+03  0.63046689763E+03  0.84655153173E+02  0.64960486638E+03  0.12699999809E+01 0.  1.
</event>
<event>
 5   0  0.9027076E-04  0.1293702E+04  0.7818609E-02  0.9034575E-01
       -1   -1    0    0    0  501  0.00000000000E+00  0.00000000000E+00  0.88069153765E+03  0.88069153766E+03  0.50400001928E-02 0.  1.
        1   -1    0    0  501    0  0.00000000000E+00  0.00000000000E+00 -0.47509925522E+03  0.47509925525E+03  0.50400001928E-02 0. -1.
    10030    2    1    2    0    0  0.00000000000E+00  0.00000000000E+00  0.40559228243E+03  0.13557907929E+04  0.12937015013E+04 0.  0.
        5    1    3    3  502    0 -0.41486649190E+03  0.45038509654E+03  0.42120378013E+03  0.74323324447E+03  0.46999998093E+01 0.  1.
       -5    1    3    3    0  502  0.41486649190E+03 -0.45038509654E+03 -0.15611497701E+02  0.61255754844E+03  0.46999998093E+01 0. -1.
</event>
<event>
 5   0  0.1714861E-03  0.1314265E+04  0.7818609E-02  0.9018329E-01
        2   -1    0    0  501    0  0.00000000000E+00  0.00000000000E+00  0.10079638879E+04  0.10079638879E+04  0.25500000920E-02 0.  1.
       -2   -1    0    0    0  501  0.00000000000E+00  0.00000000000E+00 -0.42841120596E+03  0.42841120597E+03  0.25500000920E-02 0. -1.
    10030    2    1    2    0    0  0.00000000000E+00  0.00000000000E+00  0.57955268197E+03  0.14363750939E+04  0.13142648512E+04 0.  0.
        1    1    3    3  502    0 -0.53794336202E+03 -0.32254354609E+03  0.50395805553E+03  0.80460619039E+03  0.50400001928E-02 0.  1.
       -1    1    3    3    0  502  0.53794336202E+03  0.32254354609E+03  0.75594626443E+02  0.63176890351E+03  0.50400001928E-02 0. -1.
</event>
<event>
 5   0  0.9215829E-04  0.1300052E+04  0.7818609E-02  0.9029524E-01
       -1   -1    0    0    0  501  0.00000000000E+00  0.00000000000E+00  0.28346782592E+03  0.28346782596E+03  0.50400001928E-02 0. -1.
        1   -1    0    0  501    0  0.00000000000E+00  0.00000000000E+00 -0.14905873423E+04  0.14905873423E+04  0.50400001928E-02 0.  1.
    10030    2    1    2    0    0  0.00000000000E+00  0.00000000000E+00 -0.12071195163E+04  0.17740551682E+04  0.13000516194E+04 0.  0.
        3    1    3    3  502    0  0.22519722772E+03  0.43370966065E+03 -0.11884570885E+04  0.12850089971E+04  0.10100000352E+00 0.  1.
       -3    1    3    3    0  502 -0.22519722772E+03 -0.43370966065E+03 -0.18662427835E+02  0.48904617116E+03  0.10100000352E+00 0. -1.
</event>
<event>
 5   0  0.1714861E-03  0.1298790E+04  0.7818609E-02  0.9030525E-01
        2   -1    0    0  501    0  0.00000000000E+00  0.00000000000E+00  0.16932288464E+04  0.16932288464E+04  0.25500000920E-02 0. -1.
       -2   -1    0    0    0  501  0.00000000000E+00  0.00000000000E+00 -0.24905917610E+03  0.24905917611E+03  0.25500000920E-02 0.  1.
    10030    2    1    2    0    0  0.00000000000E+00  0.00000000000E+00  0.14441696703E+04  0.19422880225E+04  0.12987904857E+04 0.  0.
        1    1    3    3  502    0  0.13281329296E+03 -0.62916299138E+03  0.85774152868E+03  0.10720102474E+04  0.50400001928E-02 0. -1.
       -1    1    3    3    0  502 -0.13281329296E+03  0.62916299138E+03  0.58642814159E+03  0.87027777507E+03  0.50400001928E-02 0.  1.
</event>
<event>
 5   0  0.9215829E-04  0.1289142E+04  0.7818609E-02  0.9038220E-01
       -1   -1    0    0    0  501  0.00000000000E+00  0.00000000000E+00  0.30286964199E+03  0.30286964204E+03  0.50400001928E-02 0. -1.
        1   -1    0    0  501    0  0.00000000000E+00  0.00000000000E+00 -0.13717840560E+04  0.13717840560E+04  0.50400001928E-02 0.  1.
    10030    2    1    2    0    0  0.00000000000E+00  0.00000000000E+00 -0.10689144140E+04  0.16746536981E+04  0.12891419565E+04 0.  0.
        3    1    3    3  502    0 -0.24773677221E+03  0.22466217199E+03  0.18134516096E+03  0.38043748164E+03  0.10100000352E+00 0. -1.
       -3    1    3    3    0  502  0.24773677221E+03 -0.22466217199E+03 -0.12502595750E+04  0.12942162164E+04  0.10100000352E+00 0.  1.
</event>
<event>
 5   0  0.9027076E-04  0.1301138E+04  0.7818609E-02  0.9028663E-01
       -1   -1    0    0    0  501  0.00000000000E+00  0.00000000000E+00  0.36721758224E+03  0.36721758227E+03  0.50400001928E-02 0. -1.
        1   -1    0    0  501    0  0.00000000000E+00  0.00000000000E+00 -0.11525591057E+04  0.11525591057E+04  0.50400001928E-02 0.  1.
    10030    2    1    2    0    0  0.00000000000E+00  0.00000000000E+00 -0.78534152342E+03  0.15197766879E+04  0.13011379146E+04 0.  0.
        5    1    3    3  502    0 -0.22723170515E+03  0.34748732768E+03 -0.97766493704E+03  0.10621828985E+04  0.46999998093E+01 0.  1.
       -5    1    3    3    0  502  0.22723170515E+03 -0.34748732768E+03  0.19232341362E+03  0.45759378946E+03  0.46999998093E+01 0. -1.
</event>
<event>
 5   0  0.1694675E-03  0.1301597E+04  0.7818609E-02  0.9028299E-01
        2   -1    0    0  501    0  0.00000000000E+00  0.00000000000E+00  0.11246027092E+04  0.11246027092E+04  0.25500000920E-02 0. -1.
       -2   -1    0    0    0  501  0.00000000000E+00  0.00000000000E+00 -0.37661209584E+03  0.37661209585E+03  0.25500000920E-02 0.  1.
    10030    2    1    2    0    0  0.00000000000E+00  0.00000000000E+00  0.74799061332E+03  0.15012148050E+04  0.13015974543E+04 0.  0.
        4    1    3    3  502    0  0.25014389729E+03 -0.57441242008E+03  0.57711753433E+03  0.85181445105E+03  0.12699999809E+01 0. -1.
       -4    1    3    3    0  502 -0.25014389729E+03  0.57441242008E+03  0.17087307899E+03  0.64940035396E+03  0.12699999809E+01 0.  1.
</event>
<event>
 5   0  0.1700511E-03  0.1310431E+04  0.7818609E-02  0.9021334E-01
        2   -1    0    0  501    0  0.00000000000E+00  0.00000000000E+00  0.76796145000E+03  0.76796145000E+03  0.25500000920E-02 0. -1.
       -2   -1    0    0    0  501  0.00000000000E+00  0.00000000000E+00 -0.55902234129E+03  0.55902234130E+03  0.25500000920E-02 0.  1.
    10030    2    1    2    0    0  0.00000000000E+00  0.00000000000E+00  0.20893910870E+03  0.13269837913E+04  0.13104313913E+04 0.  0.
        2    1    3    3  502    0  0.38970378961E+02  0.65945153967E+02  0.76341179689E+03  0.76724508822E+03  0.25500000920E-02 0. -1.
       -2    1    3    3    0  502 -0.38970378961E+02 -0.65945153967E+02 -0.55447268819E+03  0.55973870307E+03  0.25500000920E-02 0.  1.
</event>
<event>
 5   0  0.9081324E-04  0.1272334E+04  0.7818609E-02  0.9051797E-01
        1   -1    0    0  501    0  0.00000000000E+00  0.00000000000E+00  0.85031936229E+03  0.85031936230E+03  0.50400001928E-02 0.  1.
       -1   -1    0    0    0  501  0.00000000000E+00  0.00000000000E+00 -0.47594869816E+03  0.47594869819E+03  0.50400001928E-02 0. -1.
    10030    2    1    2    0    0  0.00000000000E+00  0.00000000000E+00  0.37437066413E+03  0.13262680605E+04  0.12723339083E+04 0.  0.
        4    1    3    3  502    0  0.82280054524E+02  0.52975506169E+03  0.54418881619E+03  0.76390674387E+03  0.12699999809E+01 0. -1.
       -4    1    3    3    0  502 -0.82280054524E+02 -0.52975506169E+03 -0.16981815206E+03  0.56236131662E+03  0.12699999809E+01 0.  1.
</event>
<event>
 5   0  0.6284125E-04  0.1304528E+04  0.7818609E-02  0.9025982E-01
       -3   -1    0    0    0  501  0.00000000000E+00  0.00000000000E+00  0.41541773969E+03  0.41541775197E+03  0.10100000352E+00 0. -1.
        3   -1    0    0  501    0  0.00000000000E+00  0.00000000000E+00 -0.10241459826E+04  0.10241459876E+04  0.10100000352E+00 0.  1.
    10030    2    1    2    0    0  0.00000000000E+00  0.00000000000E+00 -0.60872824295E+03  0.14395637396E+04  0.13045281471E+04 0.  0.
        5    1    3    3  502    0 -0.34891598597E+03 -0.54676201767E+03 -0.38030042819E+03  0.75189199684E+03  0.46999998093E+01 0.  1.
       -5    1    3    3    0  502  0.34891598597E+03  0.54676201767E+03 -0.22842781477E+03  0.68767174276E+03  0.46999998093E+01 0. -1.
</event>
<event>
 5   0  0.1667342E-03  0.1298973E+04  0.7818609E-02  0.9030380E-01
       -2   -1    0    0    0  501  0.00000000000E+00  0.00000000000E+00  0.86820207735E+03  0.86820207736E+03  0.25500000920E-02 0.  1.
        2   -1    0    0  501    0  0.00000000000E+00  0.00000000000E+00 -0.48586948644E+03  0.48586948645E+03  0.25500000920E-02 0. -1.
    10030    2    1    2    0    0  0.00000000000E+00  0.00000000000E+00  0.38233259091E+03  0.13540715638E+04  0.12989732830E+04 0.  0.
        5    1    3    3  502    0  0.18749554603E+03 -0.45997895722E+03 -0.24500210056E+03  0.55388025794E+03  0.46999998093E+01 0.  1.
       -5    1    3    3    0  502 -0.18749554603E+03  0.45997895722E+03  0.62733469147E+03  0.80019130587E+03  0.46999998093E+01 0. -1.
</event>
<event>
 5   0  0.9098192E-04  0.1320920E+04  0.7818609E-02  0.9013138E-01
        1   -1    0    0  501    0  0.00000000000E+00  0.00000000000E+00  0.11031078934E+04  0.11031078934E+04  0.50400001928E-02 0. -1.
       -1   -1    0    0    0  501  0.00000000000E+00  0.00000000000E+00 -0.39543521819E+03  0.39543521822E+03  0.50400001928E-02 0.  1.
    10030    2    1    2    0    0  0.00000000000E+00  0.00000000000E+00  0.70767267522E+03  0.14985431116E+04  0.13209204526E+04 0.  0.
        1    1    3    3  502    0  0.34097965792E+03 -0.19154691751E+03  0.95761507327E+03  0.10344002984E+04  0.50400001928E-02 0. -1.
       -1    1    3    3    0  502 -0.34097965792E+03  0.19154691751E+03 -0.24994239805E+03  0.46414281325E+03  0.50400001928E-02 0.  1.
</event>
<event>
 5   0  0.1694675E-03  0.1310553E+04  0.7818609E-02  0.9021238E-01
       -2   -1    0    0    0  501  0.00000000000E+00  0.00000000000E+00  0.99398858970E+03  0.99398858970E+03  0.25500000920E-02 0. -1.
        2   -1    0    0  501    0  0.00000000000E+00  0.00000000000E+00 -0.43198411262E+03  0.43198411263E+03  0.25500000920E-02 0.  1.
    10030    2    1    2    0    0  0.00000000000E+00  0.00000000000E+00  0.56200447708E+03  0.14259727023E+04  0.13105529808E+04 0.  0.
        4    1    3    3  502    0  0.99825792257E+01  0.43869545536E+03  0.81051582290E+03  0.92167828797E+03  0.12699999809E+01 0. -1.
       -4    1    3    3    0  502 -0.99825792257E+01 -0.43869545536E+03 -0.24851134582E+03  0.50429441435E+03  0.12699999809E+01 0.  1.
</event>
<event>
 5   0  0.9110949E-04  0.1273710E+04  0.7818609E-02  0.9050677E-01
        1   -1    0    0  501    0  0.00000000000E+00  0.00000000000E+00  0.15405597227E+04  0.15405597227E+04  0.50400001928E-02 0. -1.
       -1   -1    0    0    0  501  0.00000000000E+00  0.00000000000E+00 -0.26327086086E+03  0.26327086091E+03  0.50400001928E-02 0.  1.
    10030    2    1    2    0    0  0.00000000000E+00  0.00000000000E+00  0.12772888619E+04  0.18038305836E+04  0.12737103037E+04 0.  0.
        2    1    3    3  502    0  0.21415185058E+02  0.20263203248E+03 -0.21586178221E+03  0.29684113556E+03  0.25500000920E-02 0.  1.
       -2    1    3    3    0  502 -0.21415185058E+02 -0.20263203248E+03  0.14931506441E+04  0.15069894481E+04  0.25500000920E-02 0. -1.
</event>
<event>
 5   0  0.9110949E-04  0.1296025E+04  0.7818609E-02  0.9032724E-01
       -1   -1    0    0    0  501  0.00000000000E+00  0.00000000000E+00  0.67516178373E+03  0.67516178375E+03  0.50400001928E-02 0. -1.
        1   -1    0    0  501    0  0.00000000000E+00  0.00000000000E+00 -0.62195464664E+03  0.62195464666E+03  0.50400001928E-02 0.  1.
    10030    2    1    2    0    0  0.00000000000E+00  0.00000000000E+00  0.53207137091E+02  0.12971164304E+04  0.12960247045E+04 0.  0.
        2    1    3    3  502    0  0.49022143622E+03 -0.18958720150E+03  0.40594744263E+03  0.66411873162E+03  0.25500000920E-02 0.  1.
       -2    1    3    3    0  502 -0.49022143622E+03  0.18958720150E+03 -0.35274030554E+03  0.63299769878E+03  0.25500000920E-02 0. -1.
</event>
<event>
 5   0  0.1700511E-03  0.1301805E+04  0.7818609E-02  0.9028135E-01
       -2   -1    0    0    0  501  0.00000000000E+00  0.00000000000E+00  0.37408516841E+03  0.37408516842E+03  0.25500000920E-02 0. -1.
        2   -1    0    0  501    0  0.00000000000E+00  0.00000000000E+00 -0.11325600104E+04  0.11325600104E+04  0.25500000920E-02 0.  1.
    10030    2    1    2    0    0  0.00000000000E+00  0.00000000000E+00 -0.75847484199E+03  0.15066451788E+04  0.13018047507E+04 0.  0.
        2    1    3    3  502    0 -0.53881960154E+03  0.36342607863E+03 -0.33801192133E+03  0.73256886134E+03  0.25500000920E-02 0.  1.
       -2    1    3    3    0  502  0.53881960154E+03 -0.36342607863E+03 -0.42046292066E+03  0.77407631748E+03  0.25500000920E-02 0. -1.
</event>
<event>
 5   0  0.9027076E-04  0.1291140E+04  0.7818609E-02  0.9036621E-01
       -1   -1    0    0    0  501  0.00000000000E+00  0.00000000000E+00  0.38269745947E+03  0.38269745950E+03  0.50400001928E-02 0. -1.
        1   -1    0    0  501    0  0.00000000000E+00  0.00000000000E+00 -0.10890075426E+04  0.10890075426E+04  0.50400001928E-02 0.  1.
    10030    2    1    2    0    0  0.00000000000E+00  0.00000000000E+00 -0.70631008316E+03  0.14717050021E+04  0.12911396825E+04 0.  0.
        5    1    3    3  502    0 -0.58739043638E+03 -0.26101500234E+03 -0.42137457363E+03  0.76859285548E+03  0.46999998093E+01 0.  1.
       -5    1    3    3    0  502  0.58739043638E+03  0.26101500234E+03 -0.28493550952E+03  0.70311214666E+03  0.46999998093E+01 0. -1.
</event>
<event>
 5   0  0.9081324E-04  0.1269537E+04  0.7818609E-02  0.9054078E-01
        1   -1    0    0  501    0  0.00000000000E+00  0.00000000000E+00  0.40901083415E+03  0.40901083418E+03  0.50400001928E-02 0.  1.
       -1   -1    0    0    0  501  0.00000000000E+00  0.00000000000E+00 -0.98513478026E+03  0.98513478027E+03  0.50400001928E-02 0. -1.
    10030    2    1    2    0    0  0.00000000000E+00  0.00000000000E+00 -0.57612394611E+03  0.13941456145E+04  0.12695366056E+04 0.  0.
        4    1    3    3  502    0 -0.43648267423E+03  0.19702746570E+03  0.16947696572E+03  0.50799704916E+03  0.12699999809E+01 0.  1.
       -4    1    3    3    0  502  0.43648267423E+03 -0.19702746570E+03 -0.74560091183E+03  0.88614856529E+03  0.12699999809E+01 0. -1.
</event>
<event>
 5   0  0.9027076E-04  0.1286047E+04  0.7818609E-02  0.9040704E-01
        1   -1    0    0  501    0  0.00000000000E+00  0.00000000000E+00  0.28814385085E+04  0.28814385085E+04  0.50400001928E-02 0. -1.
       -1   -1    0    0    0  501  0.00000000000E+00  0.00000000000E+00 -0.14349745912E+03  0.14349745921E+03  0.50400001928E-02 0.  1.
    10030    2    1    2    0    0  0.00000000000E+00  0.00000000000E+00  0.27379410494E+04  0.30249359677E+04  0.12860468183E+04 0.  0.
        5    1    3    3  502    0 -0.61779104551E+03 -0.13842795900E+03  0.11046427261E+04  0.12732186450E+04  0.46999998093E+01 0.  1.
       -5    1    3    3    0  502  0.61779104551E+03  0.13842795900E+03  0.16332983233E+04  0.17517173227E+04  0.46999998093E+01 0. -1.
</event>
<event>
 5   0  0.1700511E-03  0.1271094E+04  0.7818609E-02  0.9052807E-01
       -2   -1    0    0    0  501  0.00000000000E+00  0.00000000000E+00  0.36768105533E+03  0.36768105534E+03  0.25500000920E-02 0. -1.
        2   -1    0    0  501    0  0.00000000000E+00  0.00000000000E+00 -0.10985606184E+04  0.10985606184E+04  0.25500000920E-02 0.  1.
    10030    2    1    2    0    0  0.00000000000E+00  0.00000000000E+00 -0.73087956308E+03  0.14662416738E+04  0.12710939030E+04 0.  0.
        2    1    3    3  502    0  0.12190105932E+03 -0.18191270209E+03 -0.10536693032E+04  0.10761835810E+04  0.25500000920E-02 0.  1.
       -2    1    3    3    0  502 -0.12190105932E+03  0.18191270209E+03  0.32278974009E+03  0.39005809280E+03  0.25500000920E-02 0. -1.
</event>
<event>
 5   0  0.1700511E-03  0.1303514E+04  0.7818609E-02  0.9026783E-01
        2   -1    0    0  501    0  0.00000000000E+00  0.00000000000E+00  0.25865795616E+03  0.25865795618E+03  0.25500000920E-02 0. -1.
       -2   -1    0    0    0  501  0.00000000000E+00  0.00000000000E+00 -0.16422739089E+04  0.16422739089E+04  0.25500000920E-02 0.  1.
    10030    2    1    2    0    0  0.00000000000E+00  0.00000000000E+00 -0.13836159527E+04  0.19009318651E+04  0.13035140394E+04 0.  0.
        2    1    3    3  502    0 -0.36836084067E+03  0.30379498304E+03 -0.44858853116E+02  0.47957628942E+03  0.25500000920E-02 0. -1.
       -2    1    3    3    0  502  0.36836084067E+03 -0.30379498304E+03 -0.13387570996E+04  0.14213555757E+04  0.25500000920E-02 0.  1.
</event>
<event>
 5   0  0.9098192E-04  0.1289531E+04  0.7818609E-02  0.9037908E-01
        1   -1    0    0  501    0  0.00000000000E+00  0.00000000000E+00  0.11840133454E+04  0.11840133454E+04  0.50400001928E-02 0. -1.
       -1   -1    0    0    0  501  0.00000000000E+00  0.00000000000E+00 -0.35111313366E+03  0.35111313370E+03  0.50400001928E-02 0.  1.
    10030    2    1    2    0    0  0.00000000000E+00  0.00000000000E+00  0.83290021173E+03  0.15351264791E+04  0.12895311334E+04 0.  0.
        1    1    3    3  502    0 -0.35472280594E+03 -0.52640943131E+03  0.28183159762E+03  0.69452444728E+03  0.50400001928E-02 0.  1.
       -1    1    3    3    0  502  0.35472280594E+03  0.52640943131E+03  0.55106861411E+03  0.84060203182E+03  0.50400001928E-02 0. -1.
</event>
<event>
 5   0  0.1623890E-03  0.1311197E+04  0.7818609E-02  0.9020733E-01
       -2   -1    0    0    0  501  0.00000000000E+00  0.00000000000E+00  0.74438810274E+03  0.74438810275E+03  0.25500000920E-02 0. -1.
        2   -1    0    0  501    0  0.00000000000E+00  0.00000000000E+00 -0.57739965747E+03  0.57739965748E+03  0.25500000920E-02 0.  1.
    10030    2    1    2    0    0  0.00000000000E+00  0.00000000000E+00  0.16698844527E+03  0.13217877602E+04  0.13111970646E+04 0.  0.
        3    1    3    3  502    0 -0.35829043626E+03  0.23638156813E+02  0.63644876038E+03  0.73075155420E+03  0.10100000352E+00 0. -1.
       -3    1    3    3    0  502  0.35829043626E+03 -0.23638156813E+02 -0.46946031511E+03  0.59103620603E+03  0.10100000352E+00 0.  1.
</event>
<event>
 5   0  0.1623890E-03  0.1307121E+04  0.7818609E-02  0.9023937E-01
       -2   -1    0    0    0  501  0.00000000000E+00  0.00000000000E+00  0.59410469205E+03  0.59410469206E+03  0.25500000920E-02 0.  1.
        2   -1    0    0  501    0  0.00000000000E+00  0.00000000000E+00 -0.71896623503E+03  0.71896623504E+03  0.25500000920E-02 0. -1.
    10030    2    1    2    0    0  0.00000000000E+00  0.00000000000E+00 -0.12486154298E+03  0.13130709271E+04  0.13071208263E+04 0.  0.
        3    1    3    3  502    0 -0.22208168167E+03  0.26731136183E+03  0.49359180632E+03  0.60366258702E+03  0.10100000352E+00 0.  1.
       -3    1    3    3    0  502  0.22208168167E+03 -0.26731136183E+03 -0.61845334930E+03  0.70940834007E+03  0.10100000352E+00 0. -1.
</event>
<event>
 5   0  0.1694675E-03  0.1400608E+04  0.7818609E-02  0.8953379E-01
       -2   -1    0    0    0  501  0.00000000000E+00  0.00000000000E+00  0.60921335151E+03  0.60921335152E+03  0.25500000920E-02 0.  1.
        2   -1    0    0  501    0  0.00000000000E+00  0.00000000000E+00 -0.80501420934E+03  0.80501420935E+03  0.25500000920E-02 0. -1.
    10030    2    1    2    0    0  0.00000000000E+00  0.00000000000E+00 -0.19580085783E+03  0.14142275609E+04  0.14006075889E+04 0.  0.
        4    1    3    3  502    0  0.18573850462E+03 -0.27838853505E+03  0.52324405064E+03  0.62111586517E+03  0.12699999809E+01 0.  1.
       -4    1    3    3    0  502 -0.18573850462E+03  0.27838853505E+03 -0.71904490847E+03  0.79311169569E+03  0.12699999809E+01 0. -1.
</event>
<event>
 5   0  0.9081324E-04  0.1297177E+04  0.7818609E-02  0.9031807E-01
       -1   -1    0    0    0  501  0.00000000000E+00  0.00000000000E+00  0.49676075038E+03  0.49676075041E+03  0.50400001928E-02 0.  1.
        1   -1    0    0  501    0  0.00000000000E+00  0.00000000000E+00 -0.84682020191E+03  0.84682020193E+03  0.50400001928E-02 0. -1.
    10030    2    1    2    0    0  0.00000000000E+00  0.00000000000E+00 -0.35005945153E+03  0.13435809523E+04  0.12971769948E+04 0.  0.
        4    1    3    3  502    0 -0.29699219444E+02 -0.21339653171E+03 -0.80867000895E+03  0.83688046915E+03  0.12699999809E+01 0. -1.
       -4    1    3    3    0  502  0.29699219444E+02  0.21339653171E+03  0.45861055742E+03  0.50670048318E+03  0.12699999809E+01 0.  1.
</event>
<event>
 5   0  0.9081324E-04  0.1305414E+04  0.7818609E-02  0.9025283E-01
        1   -1    0    0  501    0  0.00000000000E+00  0.00000000000E+00  0.15966407486E+04  0.15966407486E+04  0.50400001928E-02 0.  1.
       -1   -1    0    0    0  501  0.00000000000E+00  0.00000000000E+00 -0.26682664595E+03  0.26682664600E+03  0.50400001928E-02 0. -1.
    10030    2    1    2    0    0  0.00000000000E+00  0.00000000000E+00  0.13298141026E+04  0.18634673946E+04  0.13054137977E+04 0.  0.
        4    1    3    3  502    0 -0.15338706025E+03 -0.50772285183E+03  0.12186961373E+03  0.54420942676E+03  0.12699999809E+01 0. -1.
       -4    1    3    3    0  502  0.15338706025E+03  0.50772285183E+03  0.12079444889E+04  0.13192579678E+04  0.12699999809E+01 0.  1.
</event>
<event>
 5   0  0.1667342E-03  0.1294983E+04  0.7818609E-02  0.9033553E-01
        2   -1    0    0  501    0  0.00000000000E+00  0.00000000000E+00  0.57994628744E+03  0.57994628744E+03  0.25500000920E-02 0.  1.
       -2   -1    0    0    0  501  0.00000000000E+00  0.00000000000E+00 -0.72290400407E+03  0.72290400407E+03  0.25500000920E-02 0. -1.
    10030    2    1    2    0    0  0.00000000000E+00  0.00000000000E+00 -0.14295771663E+03  0.13028502915E+04  0.12949833873E+04 0.  0.
        5    1    3    3  502    0  0.16095296201E+02 -0.46866694761E+03 -0.52063878611E+03  0.70071006982E+03  0.46999998093E+01 0. -1.
       -5    1    3    3    0  502 -0.16095296201E+02  0.46866694761E+03  0.37768106948E+03  0.60214022170E+03  0.46999998093E+01 0.  1.
</event>
<event>
 5   0  0.9081324E-04  0.1308569E+04  0.7818609E-02  0.9022797E-01
        1   -1    0    0  501    0  0.00000000000E+00  0.00000000000E+00  0.50107420720E+03  0.50107420723E+03  0.50400001928E-02 0. -1.
       -1   -1    0    0    0  501  0.00000000000E+00  0.00000000000E+00 -0.85434140279E+03  0.85434140280E+03  0.50400001928E-02 0.  1.
    10030    2    1    2    0    0  0.00000000000E+00  0.00000000000E+00 -0.35326719558E+03  0.13554156100E+04  0.13085693579E+04 0.  0.
        4    1    3    3  502    0  0.87352277797E+02 -0.60579574628E+03  0.62875705651E+02  0.61528357195E+03  0.12699999809E+01 0. -1.
       -4    1    3    3    0  502 -0.87352277797E+02  0.60579574628E+03 -0.41614290123E+03  0.74013203808E+03  0.12699999809E+01 0.  1.
</event>
<event>
 5   0  0.1623890E-03  0.1295339E+04  0.7818609E-02  0.9033269E-01
       -2   -1    0    0    0  501  0.00000000000E+00  0.00000000000E+00  0.58009064453E+03  0.58009064454E+03  0.25500000920E-02 0. -1.
        2   -1    0    0  501    0  0.00000000000E+00  0.00000000000E+00 -0.72312154879E+03  0.72312154879E+03  0.25500000920E-02 0.  1.
    10030    2    1    2    0    0  0.00000000000E+00  0.00000000000E+00 -0.14303090426E+03  0.13032121933E+04  0.12953394077E+04 0.  0.
        3    1    3    3  502    0  0.26450268870E+03  0.24901073580E+03 -0.61097208292E+03  0.71081285524E+03  0.10100000352E+00 0.  1.
       -3    1    3    3    0  502 -0.26450268870E+03 -0.24901073580E+03  0.46794117867E+03  0.59239933808E+03  0.10100000352E+00 0. -1.
</event>
<event>
 5   0  0.1667342E-03  0.1312418E+04  0.7818609E-02  0.9019775E-01
        2   -1    0    0  501    0  0.00000000000E+00  0.00000000000E+00  0.11993408447E+04  0.11993408447E+04  0.25500000920E-02 0. -1.
       -2   -1    0    0    0  501  0.00000000000E+00  0.00000000000E+00 -0.35903907259E+03  0.35903907260E+03  0.25500000920E-02 0.  1.
    10030    2    1    2    0    0  0.00000000000E+00  0.00000000000E+00  0.84030177207E+03  0.15583799173E+04  0.13124179587E+04 0.  0.
        5    1    3    3  502    0 -0.70542598717E+02 -0.54338676684E+03 -0.85402773366E+01  0.54803326810E+03  0.46999998093E+01 0.  1.
       -5    1    3    3    0  502  0.70542598717E+02  0.54338676684E+03  0.84884204941E+03  0.10103466492E+04  0.46999998093E+01 0. -1.
</event>
<event>
 5   0  0.9081324E-04  0.1297609E+04  0.7818609E-02  0.9031463E-01
        1   -1    0    0  501    0  0.00000000000E+00  0.00000000000E+00  0.11171664048E+04  0.11171664048E+04  0.50400001928E-02 0.  1.
       -1   -1    0    0    0  501  0.00000000000E+00  0.00000000000E+00 -0.37679935436E+03  0.37679935439E+03  0.50400001928E-02 0. -1.
    10030    2    1    2    0    0  0.00000000000E+00  0.00000000000E+00  0.74036705042E+03  0.14939657592E+04  0.12976094637E+04 0.  0.
        4    1    3    3  502    0  0.14984464734E+03  0.42074260133E+03  0.91200016619E+03  0.10154918370E+04  0.12699999809E+01 0.  1.
       -4    1    3    3    0  502 -0.14984464734E+03 -0.42074260133E+03 -0.17163311577E+03  0.47847392221E+03  0.12699999809E+01 0. -1.
</event>
<event>
 5   0  0.9215829E-04  0.1307142E+04  0.7818609E-02  0.9023920E-01
       -1   -1    0    0    0  501  0.00000000000E+00  0.00000000000E+00  0.28571781905E+03  0.28571781910E+03  0.50400001928E-02 0.  1.
        1   -1    0    0  501    0  0.00000000000E+00  0.00000000000E+00 -0.14950251868E+04  0.14950251868E+04  0.50400001928E-02 0. -1.
    10030    2    1    2    0    0  0.00000000000E+00  0.00000000000E+00 -0.12093073678E+04  0.17807430059E+04  0.13071424342E+04 0.  0.
        3    1    3    3  502    0 -0.41047475597E+03  0.19569808393E+03  0.34864147527E+02  0.45607322254E+03  0.10100000352E+00 0.  1.
       -3    1    3    3    0  502  0.41047475597E+03 -0.19569808393E+03 -0.12441715153E+04  0.13246697834E+04  0.10100000352E+00 0. -1.
</event>
<event>
 5   0  0.9081324E-04  0.1336820E+04  0.7818609E-02  0.9000865E-01
       -1   -1    0    0    0  501  0.00000000000E+00  0.00000000000E+00  0.25970061688E+03  0.25970061693E+03  0.50400001928E-02 0. -1.
        1   -1    0    0  501    0  0.00000000000E+00  0.00000000000E+00 -0.17203352103E+04  0.17203352103E+04  0.50400001928E-02 0.  1.
    10030    2    1    2    0    0  0.00000000000E+00  0.00000000000E+00 -0.14606345934E+04  0.19800358272E+04  0.13368202802E+04 0.  0.
        4    1    3    3  502    0 -0.20096377960E+03  0.17710740405E+03 -0.16373553713E+04  0.16591225687E+04  0.12699999809E+01 0.  1.
       -4    1    3    3    0  502  0.20096377960E+03 -0.17710740405E+03  0.17672077784E+03  0.32091325853E+03  0.12699999809E+01 0. -1.
</event>
<event>
 5   0  0.1667342E-03  0.1286945E+04  0.7818609E-02  0.9039983E-01
        2   -1    0    0  501    0  0.00000000000E+00  0.00000000000E+00  0.63075517960E+03  0.63075517960E+03  0.25500000920E-02 0. -1.
       -2   -1    0    0    0  501  0.00000000000E+00  0.00000000000E+00 -0.65644595384E+03  0.65644595385E+03  0.25500000920E-02 0.  1.
    10030    2    1    2    0    0  0.00000000000E+00  0.00000000000E+00 -0.25690774248E+02  0.12872011334E+04  0.12869447316E+04 0.  0.
        5    1    3    3  502    0 -0.50820470398E+02  0.17686475463E+03 -0.62954809841E+03  0.65590910944E+03  0.46999998093E+01 0.  1.
       -5    1    3    3    0  502  0.50820470398E+02 -0.17686475463E+03  0.60385732416E+03  0.63129202401E+03  0.46999998093E+01 0. -1.
</event>
<event>
 5   0  0.9081324E-04  0.1301828E+04  0.7818609E-02  0.9028117E-01
       -1   -1    0    0    0  501  0.00000000000E+00  0.00000000000E+00  0.41345594747E+03  0.41345594750E+03  0.50400001928E-02 0. -1.
        1   -1    0    0  501    0  0.00000000000E+00  0.00000000000E+00 -0.10247494580E+04  0.10247494580E+04  0.50400001928E-02 0.  1.
    10030    2    1    2    0    0  0.00000000000E+00  0.00000000000E+00 -0.61129351056E+03  0.14382054055E+04  0.13018275740E+04 0.  0.
        4    1    3    3  502    0 -0.41677811959E+03 -0.47831891265E+03 -0.46647990826E+03  0.78746307906E+03  0.12699999809E+01 0.  1.
       -4    1    3    3    0  502  0.41677811959E+03  0.47831891265E+03 -0.14481360230E+03  0.65074232648E+03  0.12699999809E+01 0. -1.
</event>
<event>
 5   0  0.6284125E-04  0.1305641E+04  0.7818609E-02  0.9025104E-01
       -3   -1    0    0    0  501  0.00000000000E+00  0.00000000000E+00  0.49865131030E+03  0.49865132053E+03  0.10100000352E+00 0. -1.
        3   -1    0    0  501    0  0.00000000000E+00  0.00000000000E+00 -0.85465430883E+03  0.85465431479E+03  0.10100000352E+00 0.  1.
    10030    2    1    2    0    0  0.00000000000E+00  0.00000000000E+00 -0.35600299852E+03  0.13533056353E+04  0.13056408417E+04 0.  0.
        1    1    3    3  502    0  0.12612103475E+02  0.41774690706E+03  0.34180740238E+03  0.53991095920E+03  0.50400001928E-02 0. -1.
       -1    1    3    3    0  502 -0.12612103475E+02 -0.41774690706E+03 -0.69781040090E+03  0.81339467613E+03  0.50400001928E-02 0.  1.
</event>
<event>
 5   0  0.9110949E-04  0.1297077E+04  0.7818609E-02  0.9031886E-01
        1   -1    0    0  501    0  0.00000000000E+00  0.00000000000E+00  0.86177209739E+03  0.86177209741E+03  0.50400001928E-02 0.  1.
       -1   -1    0    0    0  501  0.00000000000E+00  0.00000000000E+00 -0.48806674689E+03  0.48806674692E+03  0.50400001928E-02 0. -1.
    10030    2    1    2    0    0  0.00000000000E+00  0.00000000000E+00  0.37370535050E+03  0.13498388443E+04  0.12970771822E+04 0.  0.
        2    1    3    3  502    0 -0.63515377802E+03  0.51702378550E+00  0.50441685765E+02  0.63715379047E+03  0.25500000920E-02 0.  1.
       -2    1    3    3    0  502  0.63515377802E+03 -0.51702378550E+00  0.32326366474E+03  0.71268505385E+03  0.25500000920E-02 0. -1.
</event>
<event>
 5   0  0.9027076E-04  0.1281064E+04  0.7818609E-02  0.9044718E-01
       -1   -1    0    0    0  501  0.00000000000E+00  0.00000000000E+00  0.41654550993E+03  0.41654550996E+03  0.50400001928E-02 0.  1.
        1   -1    0    0  501    0  0.00000000000E+00  0.00000000000E+00 -0.98496175966E+03  0.98496175967E+03  0.50400001928E-02 0. -1.
    10030    2    1    2    0    0  0.00000000000E+00  0.00000000000E+00 -0.56841624973E+03  0.14015072696E+04  0.12810642427E+04 0.  0.
        5    1    3    3  502    0  0.68649862972E+02  0.37868469964E+03  0.27592949335E+03  0.47357584475E+03  0.46999998093E+01 0.  1.
       -5    1    3    3    0  502 -0.68649862972E+02 -0.37868469964E+03 -0.84434574308E+03  0.92793142488E+03  0.46999998093E+01 0. -1.
</event>
<event>
 5   0  0.1700511E-03  0.1294998E+04  0.7818609E-02  0.9033541E-01
       -2   -1    0    0    0  501  0.00000000000E+00  0.00000000000E+00  0.22420603241E+03  0.22420603242E+03  0.25500000920E-02 0.  1.
        2   -1    0    0  501    0  0.00000000000E+00  0.00000000000E+00 -0.18699547337E+04  0.18699547337E+04  0.25500000920E-02 0. -1.
    10030    2    1    2    0    0  0.00000000000E+00  0.00000000000E+00 -0.16457487013E+04  0.20941607661E+04  0.12949982728E+04 0.  0.
        2    1    3    3  502    0  0.37012034744E+03  0.17453490825E+03 -0.11405563662E+02  0.40936730777E+03  0.25500000920E-02 0.  1.
       -2    1    3    3    0  502 -0.37012034744E+03 -0.17453490825E+03 -0.16343431376E+04  0.16847934584E+04  0.25500000920E-02 0. -1.
</event>
<event>
 5   0  0.1694675E-03  0.1312520E+04  0.7818609E-02  0.9019695E-01
       -2   -1    0    0    0  501  0.00000000000E+00  0.00000000000E+00  0.23853735606E+03  0.23853735607E+03  0.25500000920E-02 0.  1.
        2   -1    0    0  501    0  0.00000000000E+00  0.00000000000E+00 -0.18054920780E+04  0.18054920780E+04  0.25500000920E-02 0. -1.
    10030    2    1    2    0    0  0.00000000000E+00  0.00000000000E+00 -0.15669547220E+04  0.20440294341E+04  0.13125201815E+04 0.  0.
        4    1    3    3  502    0 -0.42109063325E+02 -0.48543674552E+03 -0.14680902154E+04  0.15468395200E+04  0.12699999809E+01 0. -1.
       -4    1    3    3    0  502  0.42109063325E+02  0.48543674552E+03 -0.98864506530E+02  0.49718991408E+03  0.12699999809E+01 0.  1.
</event>
<event>
 5   0  0.1623890E-03  0.1299092E+04  0.7818609E-02  0.9030286E-01
       -2   -1    0    0    0  501  0.00000000000E+00  0.00000000000E+00  0.31664114519E+03  0.31664114520E+03  0.25500000920E-02 0. -1.
        2   -1    0    0  501    0  0.00000000000E+00  0.00000000000E+00 -0.13324545540E+04  0.13324545541E+04  0.25500000920E-02 0.  1.
    10030    2    1    2    0    0  0.00000000000E+00  0.00000000000E+00 -0.10158134089E+04  0.16490956993E+04  0.12990918919E+04 0.  0.
        3    1    3    3  502    0  0.57257685974E+03 -0.30539180286E+03 -0.54384529519E+03  0.84668537773E+03  0.10100000352E+00 0. -1.
       -3    1    3    3    0  502 -0.57257685974E+03  0.30539180286E+03 -0.47196811366E+03  0.80241032152E+03  0.10100000352E+00 0.  1.
</event>
<event>
 5   0  0.9081324E-04  0.1310394E+04  0.7818609E-02  0.9021363E-01
       -1   -1    0    0    0  501  0.00000000000E+00  0.00000000000E+00  0.36706821176E+03  0.36706821179E+03  0.50400001928E-02 0.  1.
        1   -1    0    0  501    0  0.00000000000E+00  0.00000000000E+00 -0.11694908959E+04  0.11694908959E+04  0.50400001928E-02 0. -1.
    10030    2    1    2    0    0  0.00000000000E+00  0.00000000000E+00 -0.80242268415E+03  0.15365591077E+04  0.13103937299E+04 0.  0.
        4    1    3    3  502    0  0.23205593709E+03 -0.61271950701E+03 -0.40412323783E+03  0.76980020555E+03  0.12699999809E+01 0. -1.
       -4    1    3    3    0  502 -0.23205593709E+03  0.61271950701E+03 -0.39829944632E+03  0.76675890216E+03  0.12699999809E+01 0.  1.
</event>
<event>
 5   0  0.9215829E-04  0.1295175E+04  0.7818609E-02  0.9033401E-01
       -1   -1    0    0    0  501  0.00000000000E+00  0.00000000000E+00  0.67066729345E+03  0.67066729347E+03  0.50400001928E-02 0.  1.
        1   -1    0    0  501    0  0.00000000000E+00  0.00000000000E+00 -0.62530148473E+03  0.62530148475E+03  0.50400001928E-02 0. -1.
    10030    2    1    2    0    0  0.00000000000E+00  0.00000000000E+00  0.45365808727E+02  0.12959687782E+04  0.12951745124E+04 0.  0.
        3    1    3    3  502    0  0.29747505138E+03  0.50780586707E+03 -0.24768834941E+03  0.63851995541E+03  0.10100000352E+00 0. -1.
       -3    1    3    3    0  502 -0.29747505138E+03 -0.50780586707E+03  0.29305415813E+03  0.65744882281E+03  0.10100000352E+00 0.  1.
</event>
<event>
 5   0  0.9027076E-04  0.1316216E+04  0.7818609E-02  0.9016804E-01
        1   -1    0    0  501    0  0.00000000000E+00  0.00000000000E+00  0.53718327927E+03  0.53718327929E+03  0.50400001928E-02 0.  1.
       -1   -1    0    0    0  501  0.00000000000E+00  0.00000000000E+00 -0.80625355148E+03  0.80625355150E+03  0.50400001928E-02 0. -1.
    10030    2    1    2    0    0  0.00000000000E+00  0.00000000000E+00 -0.26907027221E+03  0.13434368308E+04  0.13162156765E+04 0.  0.
        5    1    3    3  502    0 -0.52443065198E+03 -0.29410401590E+03 -0.40757294854E+03  0.72640379905E+03  0.46999998093E+01 0. -1.
       -5    1    3    3    0  502  0.52443065198E+03  0.29410401590E+03  0.13850267633E+03  0.61703303174E+03  0.46999998093E+01 0.  1.
</event>
<event>
 5   0  0.9027076E-04  0.1299495E+04  0.7818609E-02  0.9029966E-01
        1   -1    0    0  501    0  0.00000000000E+00  0.00000000000E+00  0.12235265210E+04  0.12235265210E+04  0.50400001928E-02 0. -1.
       -1   -1    0    0    0  501  0.00000000000E+00  0.00000000000E+00 -0.34504502962E+03  0.34504502965E+03  0.50400001928E-02 0.  1.
    10030    2    1    2    0    0  0.00000000000E+00  0.00000000000E+00  0.87848149141E+03  0.15685715507E+04  0.12994948938E+04 0.  0.
        5    1    3    3  502    0  0.10092335415E+03 -0.53033409695E+03  0.87563995946E+03  0.10286919881E+04  0.46999998093E+01 0. -1.
       -5    1    3    3    0  502 -0.10092335415E+03  0.53033409695E+03  0.28415319546E+01  0.53987956259E+03  0.46999998093E+01 0.  1.
</event>
<event>
 5   0  0.1700511E-03  0.1231993E+04  0.7818609E-02  0.9085305E-01
        2   -1    0    0  501    0  0.00000000000E+00  0.00000000000E+00  0.61817708477E+03  0.61817708478E+03  0.25500000920E-02 0.  1.
       -2   -1    0    0    0  501  0.00000000000E+00  0.00000000000E+00 -0.61382350050E+03  0.61382350050E+03  0.25500000920E-02 0. -1.
    10030    2    1    2    0    0  0.00000000000E+00  0.00000000000E+00  0.43535842757E+01  0.12320005853E+04  0.12319928930E+04 0.  0.
        2    1    3    3  502    0  0.38131642891E+03 -0.24352777336E+03  0.42020287848E+03  0.61747749307E+03  0.25500000920E-02 0.  1.
       -2    1    3    3    0  502 -0.38131642891E+03  0.24352777336E+03 -0.41584929421E+03  0.61452309221E+03  0.25500000920E-02 0. -1.
</event>
<event>
 5   0  0.1700511E-03  0.1087063E+04  0.7818609E-02  0.9217893E-01
       -2   -1    0    0    0  501  0.00000000000E+00  0.00000000000E+00  0.50262124112E+03  0.50262124113E+03  0.25500000920E-02 0. -1.
        2   -1    0    0  501    0  0.00000000000E+00  0.00000000000E+00 -0.58777189976E+03  0.58777189976E+03  0.25500000920E-02 0.  1.
    10030    2    1    2    0    0  0.00000000000E+00  0.00000000000E+00 -0.85150658635E+02  0.10903931409E+04  0.10870632765E+04 0.  0.
        2    1    3    3  502    0 -0.33440946064E+03 -0.20263718731E+03  0.33611937888E+03  0.51562365531E+03  0.25500000920E-02 0. -1.
       -2    1    3    3    0  502  0.33440946064E+03  0.20263718731E+03 -0.42127003751E+03  0.57476948559E+03  0.25500000920E-02 0.  1.
</event>
<event>
 5   0  0.9215829E-04  0.1289398E+04  0.7818609E-02  0.9038015E-01
        1   -1    0    0  501    0  0.00000000000E+00  0.00000000000E+00  0.45155575271E+03  0.45155575274E+03  0.50400001928E-02 0.  1.
       -1   -1    0    0    0  501  0.00000000000E+00  0.00000000000E+00 -0.92045497484E+03  0.92045497486E+03  0.50400001928E-02 0. -1.
    10030    2    1    2    0    0  0.00000000000E+00  0.00000000000E+00 -0.46889922213E+03  0.13720107276E+04  0.12893979045E+04 0.  0.
        3    1    3    3  502    0 -0.13671115227E+03 -0.62577394554E+03 -0.15659220220E+03  0.65939676831E+03  0.10100000352E+00 0.  1.
       -3    1    3    3    0  502  0.13671115227E+03  0.62577394554E+03 -0.31230701993E+03  0.71261395928E+03  0.10100000352E+00 0. -1.
</event>
<event>
 5   0  0.9098192E-04  0.1311625E+04  0.7818609E-02  0.9020397E-01
       -1   -1    0    0    0  501  0.00000000000E+00  0.00000000000E+00  0.18147169766E+03  0.18147169773E+03  0.50400001928E-02 0. -1.
        1   -1    0    0  501    0  0.00000000000E+00  0.00000000000E+00 -0.23700104507E+04  0.23700104507E+04  0.50400001928E-02 0.  1.
    10030    2    1    2    0    0  0.00000000000E+00  0.00000000000E+00 -0.21885387531E+04  0.25514821484E+04  0.13116246720E+04 0.  0.
        1    1    3    3  502    0 -0.41886888392E+03  0.50414198744E+03 -0.10516710112E+04  0.12392022439E+04  0.50400001928E-02 0. -1.
       -1    1    3    3    0  502  0.41886888392E+03 -0.50414198744E+03 -0.11368677418E+04  0.13122799045E+04  0.50400001928E-02 0.  1.
</event>
<event>
 5   0  0.1623890E-03  0.1288731E+04  0.7818609E-02  0.9038549E-01
       -2   -1    0    0    0  501  0.00000000000E+00  0.00000000000E+00  0.42078767568E+03  0.42078767569E+03  0.25500000920E-02 0.  1.
        2   -1    0    0  501    0  0.00000000000E+00  0.00000000000E+00 -0.98673806304E+03  0.98673806305E+03  0.25500000920E-02 0. -1.
    10030    2    1    2    0    0  0.00000000000E+00  0.00000000000E+00 -0.56595038736E+03  0.14075257387E+04  0.12887314942E+04 0.  0.
        3    1    3    3  502    0 -0.23864284776E+03  0.31000198705E+03 -0.84218328158E+03  0.92861419908E+03  0.10100000352E+00 0. -1.
       -3    1    3    3    0  502  0.23864284776E+03 -0.31000198705E+03  0.27623289422E+03  0.47891153966E+03  0.10100000352E+00 0.  1.
</event>
<event>
 5   0  0.1667342E-03  0.1294725E+04  0.7818609E-02  0.9033758E-01
       -2   -1    0    0    0  501  0.00000000000E+00  0.00000000000E+00  0.24034424061E+03  0.24034424062E+03  0.25500000920E-02 0.  1.
        2   -1    0    0  501    0  0.00000000000E+00  0.00000000000E+00 -0.17436591648E+04  0.17436591648E+04  0.25500000920E-02 0. -1.
    10030    2    1    2    0    0  0.00000000000E+00  0.00000000000E+00 -0.15033149242E+04  0.19840034054E+04  0.12947253575E+04 0.  0.
        5    1    3    3  502    0 -0.45146504677E+03 -0.38959762245E+03 -0.36566541658E+03  0.69952861468E+03  0.46999998093E+01 0.  1.
       -5    1    3    3    0  502  0.45146504677E+03  0.38959762245E+03 -0.11376495076E+04  0.12844747907E+04  0.46999998093E+01 0. -1.
</event>
<event>
 5   0  0.9110949E-04  0.1301259E+04  0.7818609E-02  0.9028567E-01
       -1   -1    0    0    0  501  0.00000000000E+00  0.00000000000E+00  0.93302467084E+03  0.93302467085E+03  0.50400001928E-02 0. -1.
        1   -1    0    0  501    0  0.00000000000E+00  0.00000000000E+00 -0.45370616992E+03  0.45370616995E+03  0.50400001928E-02 0.  1.
    10030    2    1    2    0    0  0.00000000000E+00  0.00000000000E+00  0.47931850092E+03  0.13867308408E+04  0.13012594666E+04 0.  0.
        2    1    3    3  502    0 -0.28518075392E+03 -0.46791366501E+03  0.61348152920E+03  0.82257573936E+03  0.25500000920E-02 0. -1.
       -2    1    3    3    0  502  0.28518075392E+03  0.46791366501E+03 -0.13416302829E+03  0.56415510144E+03  0.25500000920E-02 0.  1.
</event>
<event>
 5   0  0.9110949E-04  0.1298702E+04  0.7818609E-02  0.9030595E-01
        1   -1    0    0  501    0  0.00000000000E+00  0.00000000000E+00  0.57711860553E+03  0.57711860555E+03  0.50400001928E-02 0. -1.
       -1   -1    0    0    0  501  0.00000000000E+00  0.00000000000E+00 -0.73062451952E+03  0.73062451953E+03  0.50400001928E-02 0.  1.
    10030    2    1    2    0    0  0.00000000000E+00  0.00000000000E+00 -0.15350591399E+03  0.13077431251E+04  0.12987024354E+04 0.  0.
        2    1    3    3  502    0 -0.23701157995E+03 -0.42352296953E+03 -0.51116173193E+03  0.70486346972E+03  0.25500000920E-02 0.  1.
       -2    1    3    3    0  502  0.23701157995E+03  0.42352296953E+03  0.35765581794E+03  0.60287965537E+03  0.25500000920E-02 0. -1.
</event>
<event>
 5   0  0.9215829E-04  0.1302642E+04  0.7818609E-02  0.9027472E-01
       -1   -1    0    0    0  501  0.00000000000E+00  0.00000000000E+00  0.11516065749E+04  0.11516065749E+04  0.50400001928E-02 0.  1.
        1   -1    0    0  501    0  0.00000000000E+00  0.00000000000E+00 -0.36837167632E+03  0.36837167635E+03  0.50400001928E-02 0. -1.
    10030    2    1    2    0    0  0.00000000000E+00  0.00000000000E+00  0.78323489858E+03  0.15199782513E+04  0.13026423062E+04 0.  0.
        3    1    3    3  502    0 -0.51580899166E+03  0.28977803444E+03  0.70943800346E+03  0.92375998835E+03  0.10100000352E+00 0.  1.
       -3    1    3    3    0  502  0.51580899166E+03 -0.28977803444E+03  0.73796895125E+02  0.59621826293E+03  0.10100000352E+00 0. -1.
</event>
<event>
 5   0  0.1623890E-03  0.1262541E+04  0.7818609E-02  0.9059810E-01
        2   -1    0    0  501    0  0.00000000000E+00  0.00000000000E+00  0.13097717819E+04  0.13097717819E+04  0.25500000920E-02 0. -1.
       -2   -1    0    0    0  501  0.00000000000E+00  0.00000000000E+00 -0.30425324133E+03  0.30425324134E+03  0.25500000920E-02 0.  1.
    10030    2    1    2    0    0  0.00000000000E+00  0.00000000000E+00  0.10055185405E+04  0.16140250232E+04  0.12625407875E+04 0.  0.
        3    1    3    3  502    0 -0.34670248836E+03  0.20310771956E+03 -0.11965855495E+03  0.41925355234E+03  0.10100000352E+00 0.  1.
       -3    1    3    3    0  502  0.34670248836E+03 -0.20310771956E+03  0.11251770955E+04  0.11947714709E+04  0.10100000352E+00 0. -1.
</event>
<event>
 5   0  0.9027076E-04  0.1295270E+04  0.7818609E-02  0.9033325E-01
        1   -1    0    0  501    0  0.00000000000E+00  0.00000000000E+00  0.53296812975E+03  0.53296812977E+03  0.50400001928E-02 0. -1.
       -1   -1    0    0    0  501  0.00000000000E+00  0.00000000000E+00 -0.78697190760E+03  0.78697190762E+03  0.50400001928E-02 0.  1.
    10030    2    1    2    0    0  0.00000000000E+00  0.00000000000E+00 -0.25400377785E+03  0.13199400374E+04  0.12952697723E+04 0.  0.
        5    1    3    3  502    0 -0.45743249498E+01  0.21194940629E+03  0.49658906781E+03  0.53996876534E+03  0.46999998093E+01 0. -1.
       -5    1    3    3    0  502  0.45743249498E+01 -0.21194940629E+03 -0.75059284566E+03  0.77997127206E+03  0.46999998093E+01 0.  1.
</event>
<event>
 5   0  0.9110949E-04  0.1299231E+04  0.7818609E-02  0.9030175E-01
       -1   -1    0    0    0  501  0.00000000000E+00  0.00000000000E+00  0.11614867315E+04  0.11614867316E+04  0.50400001928E-02 0. -1.
        1   -1    0    0  501    0  0.00000000000E+00  0.00000000000E+00 -0.36332761231E+03  0.36332761234E+03  0.50400001928E-02 0.  1.
    10030    2    1    2    0    0  0.00000000000E+00  0.00000000000E+00  0.79815911923E+03  0.15248143439E+04  0.12992308508E+04 0.  0.
        2    1    3    3  502    0  0.51649925524E+02 -0.10895969762E+03 -0.35007819397E+03  0.37026297737E+03  0.25500000920E-02 0.  1.
       -2    1    3    3    0  502 -0.51649925524E+02  0.10895969762E+03  0.11482373132E+04  0.11545513665E+04  0.25500000920E-02 0. -1.
</event>
<event>
 5   0  0.1623890E-03  0.1285290E+04  0.7818609E-02  0.9041312E-01
       -2   -1    0    0    0  501  0.00000000000E+00  0.00000000000E+00  0.58745718057E+03  0.58745718058E+03  0.25500000920E-02 0.  1.
        2   -1    0    0  501    0  0.00000000000E+00  0.00000000000E+00 -0.70301723345E+03  0.70301723346E+03  0.25500000920E-02 0. -1.
    10030    2    1    2    0    0  0.00000000000E+00  0.00000000000E+00 -0.11556005288E+03  0.12904744140E+04  0.12852898846E+04 0.  0.
        3    1    3    3  502    0 -0.36022223271E+03  0.45776790191E+03  0.21475735096E+03  0.62083189266E+03  0.10100000352E+00 0.  1.
       -3    1    3    3    0  502  0.36022223271E+03 -0.45776790191E+03 -0.33031740385E+03  0.66964252138E+03  0.10100000352E+00 0. -1.
</event>
<event>
 5   0  0.1667342E-03  0.1299318E+04  0.7818609E-02  0.9030106E-01
       -2   -1    0    0    0  501  0.00000000000E+00  0.00000000000E+00  0.38136872614E+03  0.38136872615E+03  0.25500000920E-02 0.  1.
        2   -1    0    0  501    0  0.00000000000E+00  0.00000000000E+00 -0.11066898609E+04  0.11066898609E+04  0.25500000920E-02 0. -1.
    10030    2    1    2    0    0  0.00000000000E+00  0.00000000000E+00 -0.72532113476E+03  0.14880585871E+04  0.12993181327E+04 0.  0.
        5    1    3    3  502    0 -0.54938172847E+02 -0.51854122082E+03  0.81091720188E+02  0.52773208886E+03  0.46999998093E+01 0.  1.
       -5    1    3    3    0  502  0.54938172847E+02  0.51854122082E+03 -0.80641285494E+03  0.96032649820E+03  0.46999998093E+01 0. -1.
</event>
<event>
 5   0  0.1667342E-03  0.1287080E+04  0.7818609E-02  0.9039874E-01
        2   -1    0    0  501    0  0.00000000000E+00  0.00000000000E+00  0.40621310509E+03  0.40621310510E+03  0.25500000920E-02 0. -1.
       -2   -1    0    0    0  501  0.00000000000E+00  0.00000000000E+00 -0.10195236597E+04  0.10195236597E+04  0.25500000920E-02 0.  1.
    10030    2    1    2    0    0  0.00000000000E+00  0.00000000000E+00 -0.61331055457E+03  0.14257367648E+04  0.12870802174E+04 0.  0.
        5    1    3    3  502    0  0.51376543957E+03  0.28442434342E+03 -0.59820002526E+03  0.83828246686E+03  0.46999998093E+01 0.  1.
       -5    1    3    3    0  502 -0.51376543957E+03 -0.28442434342E+03 -0.15110529311E+02  0.58745429790E+03  0.46999998093E+01 0. -1.
</event>
<event>
 5   0  0.1667342E-03  0.1149348E+04  0.7818609E-02  0.9158385E-01
       -2   -1    0    0    0  501  0.00000000000E+00  0.00000000000E+00  0.25849236919E+03  0.25849236920E+03  0.25500000920E-02 0.  1.
        2   -1    0    0  501    0  0.00000000000E+00  0.00000000000E+00 -0.12776021792E+04  0.12776021792E+04  0.25500000920E-02 0. -1.
    10030    2    1    2    0    0  0.00000000000E+00  0.00000000000E+00 -0.10191098100E+04  0.15360945484E+04  0.11493483618E+04 0.  0.
        5    1    3    3  502    0 -0.25552041732E+03 -0.28793247848E+03 -0.10797727013E+04  0.11463537728E+04  0.46999998093E+01 0. -1.
       -5    1    3    3    0  502  0.25552041732E+03  0.28793247848E+03  0.60662891290E+02  0.38974077565E+03  0.46999998093E+01 0.  1.
</event>
<event>
 5   0  0.1700511E-03  0.1282746E+04  0.7818609E-02  0.9043361E-01
       -2   -1    0    0    0  501  0.00000000000E+00  0.00000000000E+00  0.38885638444E+03  0.38885638445E+03  0.25500000920E-02 0. -1.
        2   -1    0    0  501    0  0.00000000000E+00  0.00000000000E+00 -0.10578690902E+04  0.10578690902E+04  0.25500000920E-02 0.  1.
    10030    2    1    2    0    0  0.00000000000E+00  0.00000000000E+00 -0.66901270580E+03  0.14467254747E+04  0.12827457264E+04 0.  0.
        2    1    3    3  502    0  0.45673036226E+03  0.25366061367E+03 -0.75410464244E+03  0.91739857341E+03  0.25500000920E-02 0.  1.
       -2    1    3    3    0  502 -0.45673036226E+03 -0.25366061367E+03  0.85091936639E+02  0.52932690128E+03  0.25500000920E-02 0. -1.
</event>
<event>
 5   0  0.1694675E-03  0.1288435E+04  0.7818609E-02  0.9038787E-01
        2   -1    0    0  501    0  0.00000000000E+00  0.00000000000E+00  0.33413026258E+03  0.33413026259E+03  0.25500000920E-02 0. -1.
       -2   -1    0    0    0  501  0.00000000000E+00  0.00000000000E+00 -0.12420786743E+04  0.12420786743E+04  0.25500000920E-02 0.  1.
    10030    2    1    2    0    0  0.00000000000E+00  0.00000000000E+00 -0.90794841174E+03  0.15762089369E+04  0.12884348235E+04 0.  0.
        4    1    3    3  502    0 -0.35043349550E+03 -0.53884246091E+03 -0.40121911216E+03  0.75771579192E+03  0.12699999809E+01 0. -1.
       -4    1    3    3    0  502  0.35043349550E+03  0.53884246091E+03 -0.50672929958E+03  0.81849314500E+03  0.12699999809E+01 0.  1.
</event>
<event>
 5   0  0.1667342E-03  0.1293846E+04  0.7818609E-02  0.9034460E-01
       -2   -1    0    0    0  501  0.00000000000E+00  0.00000000000E+00  0.69747189535E+03  0.69747189536E+03  0.25500000920E-02 0.  1.
        2   -1    0    0  501    0  0.00000000000E+00  0.00000000000E+00 -0.60003738775E+03  0.60003738775E+03  0.25500000920E-02 0. -1.
    10030    2    1    2    0    0  0.00000000000E+00  0.00000000000E+00  0.97434507606E+02  0.12975092831E+04  0.12938457622E+04 0.  0.
        5    1    3    3  502    0 -0.40051138904E+03 -0.15421347701E+03 -0.43669458173E+03  0.61230337003E+03  0.46999998093E+01 0. -1.
       -5    1    3    3    0  502  0.40051138904E+03  0.15421347701E+03  0.53412908934E+03  0.68520591308E+03  0.46999998093E+01 0.  1.
</event>
<event>
 5   0  0.1667342E-03  0.1306752E+04  0.7818609E-02  0.9024228E-01
        2   -1    0    0  501    0  0.00000000000E+00  0.00000000000E+00  0.40205148128E+03  0.40205148129E+03  0.25500000920E-02 0. -1.
       -2   -1    0    0    0  501  0.00000000000E+00  0.00000000000E+00 -0.10618041008E+04  0.10618041008E+04  0.25500000920E-02 0.  1.
    10030    2    1    2    0    0  0.00000000000E+00  0.00000000000E+00 -0.65975261956E+03  0.14638555821E+04  0.13067515626E+04 0.  0.
        5    1    3    3  502    0  0.37724621345E+03 -0.46885587528E+03 -0.44851645128E+02  0.60346855545E+03  0.46999998093E+01 0. -1.
       -5    1    3    3    0  502 -0.37724621345E+03  0.46885587528E+03 -0.61490097443E+03  0.86038702669E+03  0.46999998093E+01 0.  1.
</event>
<event>
 5   0  0.1714861E-03  0.1306962E+04  0.7818609E-02  0.9024062E-01
       -2   -1    0    0    0  501  0.00000000000E+00  0.00000000000E+00  0.22614284168E+03  0.22614284170E+03  0.25500000920E-02 0.  1.
        2   -1    0    0  501    0  0.00000000000E+00  0.00000000000E+00 -0.18883521770E+04  0.18883521770E+04  0.25500000920E-02 0. -1.
    10030    2    1    2    0    0  0.00000000000E+00  0.00000000000E+00 -0.16622093353E+04  0.21144950187E+04  0.13069618624E+04 0.  0.
        1    1    3    3  502    0 -0.64023933156E+03  0.13058378807E+03 -0.84546640283E+03  0.10685373020E+04  0.50400001928E-02 0.  1.
       -1    1    3    3    0  502  0.64023933156E+03 -0.13058378807E+03 -0.81674293249E+03  0.10459577167E+04  0.50400001928E-02 0. -1.
</event>
<event>
 5   0  0.6284125E-04  0.1322301E+04  0.7818609E-02  0.9012065E-01
       -3   -1    0    0    0  501  0.00000000000E+00  0.00000000000E+00  0.71820842269E+03  0.71820842979E+03  0.10100000352E+00 0.  1.
        3   -1    0    0  501    0  0.00000000000E+00  0.00000000000E+00 -0.60862555062E+03  0.60862555900E+03  0.10100000352E+00 0. -1.
    10030    2    1    2    0    0  0.00000000000E+00  0.00000000000E+00  0.10958287207E+03  0.13268339888E+04  0.13223010353E+04 0.  0.
        4    1    3    3  502    0 -0.25225016462E+03  0.18308402598E+03  0.63985840776E+03  0.71173752255E+03  0.12699999809E+01 0.  1.
       -4    1    3    3    0  502  0.25225016462E+03 -0.18308402598E+03 -0.53027553570E+03  0.61509646624E+03  0.12699999809E+01 0. -1.
</event>
<event>
 5   0  0.1714861E-03  0.1224222E+04  0.7818609E-02  0.9091915E-01
        2   -1    0    0  501    0  0.00000000000E+00  0.00000000000E+00  0.58981588132E+03  0.58981588132E+03  0.25500000920E-02 0.  1.
       -2   -1    0    0    0  501  0.00000000000E+00  0.00000000000E+00 -0.63524878160E+03  0.63524878160E+03  0.25500000920E-02 0. -1.
    10030    2    1    2    0    0  0.00000000000E+00  0.00000000000E+00 -0.45432900281E+02  0.12250646629E+04  0.12242219080E+04 0.  0.
        1    1    3    3  502    0 -0.10226078781E+03  0.34968094463E+03 -0.51493491185E+03  0.63078680648E+03  0.50400001928E-02 0. -1.
       -1    1    3    3    0  502  0.10226078781E+03 -0.34968094463E+03  0.46950201157E+03  0.59427785644E+03  0.50400001928E-02 0.  1.
</event>
<event>
 5   0  0.9110949E-04  0.1299468E+04  0.7818609E-02  0.9029987E-01
       -1   -1    0    0    0  501  0.00000000000E+00  0.00000000000E+00  0.38589224496E+03  0.38589224499E+03  0.50400001928E-02 0. -1.
        1   -1    0    0  501    0  0.00000000000E+00  0.00000000000E+00 -0.10939686523E+04  0.10939686523E+04  0.50400001928E-02 0.  1.
    10030    2    1    2    0    0  0.00000000000E+00  0.00000000000E+00 -0.70807640733E+03  0.14798608973E+04  0.12994676128E+04 0.  0.
        2    1    3    3  502    0 -0.20613653020E+02  0.20166009393E+03  0.34895872711E+03  0.40356400906E+03  0.25500000920E-02 0. -1.
       -2    1    3    3    0  502  0.20613653020E+02 -0.20166009393E+03 -0.10570351344E+04  0.10762968882E+04  0.25500000920E-02 0.  1.
</event>
<event>
 5   0  0.1623890E-03  0.1286047E+04  0.7818609E-02  0.9040704E-01
       -2   -1    0    0    0  501  0.00000000000E+00  0.00000000000E+00  0.53391332205E+03  0.53391332205E+03  0.25500000920E-02 0.  1.
        2   -1    0    0  501    0  0.00000000000E+00  0.00000000000E+00 -0.77443158698E+03  0.77443158699E+03  0.25500000920E-02 0. -1.
    10030    2    1    2    0    0  0.00000000000E+00  0.00000000000E+00 -0.24051826494E+03  0.13083449090E+04  0.12860471862E+04 0.  0.
        3    1    3    3  502    0  0.83612191982E+02 -0.60794394600E+03  0.75145265967E+02  0.61825048429E+03  0.10100000352E+00 0.  1.
       -3    1    3    3    0  502 -0.83612191982E+02  0.60794394600E+03 -0.31566353090E+03  0.69009442475E+03  0.10100000352E+00 0. -1.
</event>
<event>
 5   0  0.9081324E-04  0.1305527E+04  0.7818609E-02  0.9025193E-01
       -1   -1    0    0    0  501  0.00000000000E+00  0.00000000000E+00  0.43410005238E+03  0.43410005241E+03  0.50400001928E-02 0.  1.
        1   -1    0    0  501    0  0.00000000000E+00  0.00000000000E+00 -0.98157184990E+03  0.98157184991E+03  0.50400001928E-02 0. -1.
    10030    2    1    2    0    0  0.00000000000E+00  0.00000000000E+00 -0.54747179752E+03  0.14156719023E+04  0.13055273134E+04 0.  0.
        4    1    3    3  502    0 -0.15320041264E+03  0.12784237451E+02  0.41418847330E+03  0.44180030271E+03  0.12699999809E+01 0.  1.
       -4    1    3    3    0  502  0.15320041264E+03 -0.12784237451E+02 -0.96166027082E+03  0.97387159961E+03  0.12699999809E+01 0. -1.
</event>
<event>
 5   0  0.9098192E-04  0.1291760E+04  0.7818609E-02  0.9036125E-01
       -1   -1    0    0    0  501  0.00000000000E+00  0.00000000000E+00  0.41209560079E+03  0.41209560082E+03  0.50400001928E-02 0.  1.
        1   -1    0    0  501    0  0.00000000000E+00  0.00000000000E+00 -0.10122921628E+04  0.10122921628E+04  0.50400001928E-02 0. -1.
    10030    2    1    2    0    0  0.00000000000E+00  0.00000000000E+00 -0.60019656204E+03  0.14243877637E+04  0.12917602673E+04 0.  0.
        1    1    3    3  502    0 -0.15391590816E+03 -0.14314184920E+03  0.37332779557E+03  0.42843125323E+03  0.50400001928E-02 0.  1.
       -1    1    3    3    0  502  0.15391590816E+03  0.14314184920E+03 -0.97352435761E+03  0.99595651043E+03  0.50400001928E-02 0. -1.
</event>
<event>
 5   0  0.9027076E-04  0.1298791E+04  0.7818609E-02  0.9030524E-01
        1   -1    0    0  501    0  0.00000000000E+00  0.00000000000E+00  0.13337156243E+04  0.13337156243E+04  0.50400001928E-02 0. -1.
       -1   -1    0    0    0  501  0.00000000000E+00  0.00000000000E+00 -0.31619539677E+03  0.31619539681E+03  0.50400001928E-02 0.  1.
    10030    2    1    2    0    0  0.00000000000E+00  0.00000000000E+00  0.10175202275E+04  0.16499110211E+04  0.12987913474E+04 0.  0.
        5    1    3    3  502    0  0.42665116536E+02  0.12221886803E+03  0.13171367153E+04  0.13234912091E+04  0.46999998093E+01 0. -1.
       -5    1    3    3    0  502 -0.42665116536E+02 -0.12221886803E+03 -0.29961648781E+03  0.32641981195E+03  0.46999998093E+01 0.  1.
</event>
<event>
 5   0  0.1694675E-03  0.1162976E+04  0.7818609E-02  0.9145896E-01
        2   -1    0    0  501    0  0.00000000000E+00  0.00000000000E+00  0.70704373812E+03  0.70704373813E+03  0.25500000920E-02 0. -1.
       -2   -1    0    0    0  501  0.00000000000E+00  0.00000000000E+00 -0.47822815539E+03  0.47822815540E+03  0.25500000920E-02 0.  1.
    10030    2    1    2    0    0  0.00000000000E+00  0.00000000000E+00  0.22881558273E+03  0.11852718935E+04  0.11629758771E+04 0.  0.
        4    1    3    3  502    0  0.29208291794E+03  0.33504338581E+03 -0.26769333800E+03  0.51887169651E+03  0.12699999809E+01 0.  1.
       -4    1    3    3    0  502 -0.29208291794E+03 -0.33504338581E+03  0.49650892073E+03  0.66640019702E+03  0.12699999809E+01 0. -1.
</event>
<event>
 5   0  0.9110949E-04  0.1315934E+04  0.7818609E-02  0.9017024E-01
        1   -1    0    0  501    0  0.00000000000E+00  0.00000000000E+00  0.11790107142E+04  0.11790107142E+04  0.50400001928E-02 0.  1.
       -1   -1    0    0    0  501  0.00000000000E+00  0.00000000000E+00 -0.36718964249E+03  0.36718964252E+03  0.50400001928E-02 0. -1.
    10030    2    1    2    0    0  0.00000000000E+00  0.00000000000E+00  0.81182107166E+03  0.15462003567E+04  0.13159339233E+04 0.  0.
        2    1    3    3  502    0 -0.27165514523E+03  0.18940189060E+03  0.10739491662E+04  0.11238489248E+04  0.25500000920E-02 0.  1.
       -2    1    3    3    0  502  0.27165514523E+03 -0.18940189060E+03 -0.26212809454E+03  0.42235143192E+03  0.25500000920E-02 0. -1.
</event>
<event>
 5   0  0.1700511E-03  0.1291220E+04  0.7818609E-02  0.9036557E-01
       -2   -1    0    0    0  501  0.00000000000E+00  0.00000000000E+00  0.30949302481E+03  0.30949302482E+03  0.25500000920E-02 0.  1.
        2   -1    0    0  501    0  0.00000000000E+00  0.00000000000E+00 -0.13467573971E+04  0.13467573971E+04  0.25500000920E-02 0. -1.
    10030    2    1    2    0    0  0.00000000000E+00  0.00000000000E+00 -0.10372643723E+04  0.16562504219E+04  0.12912196103E+04 0.  0.
        2    1    3    3  502    0  0.33841321715E+03  0.34006108237E+03  0.35529335035E+02  0.48106899603E+03  0.25500000920E-02 0. -1.
       -2    1    3    3    0  502 -0.33841321715E+03 -0.34006108237E+03 -0.10727937073E+04  0.11751814259E+04  0.25500000920E-02 0.  1.
</event>
<event>
 5   0  0.1623890E-03  0.1292713E+04  0.7818609E-02  0.9035364E-01
        2   -1    0    0  501    0  0.00000000000E+00  0.00000000000E+00  0.11585062034E+04  0.11585062034E+04  0.25500000920E-02 0.  1.
       -2   -1    0    0    0  501  0.00000000000E+00  0.00000000000E+00 -0.36061673002E+03  0.36061673003E+03  0.25500000920E-02 0. -1.
    10030    2    1    2    0    0  0.00000000000E+00  0.00000000000E+00  0.79788947336E+03  0.15191229334E+04  0.12927129902E+04 0.  0.
        3    1    3    3  502    0 -0.31414334578E+03 -0.11468597969E+03  0.10489357793E+04  0.11009564910E+04  0.10100000352E+00 0.  1.
       -3    1    3    3    0  502  0.31414334578E+03  0.11468597969E+03 -0.25104630598E+03  0.41816644244E+03  0.10100000352E+00 0. -1.
</event>
<event>
 5   0  0.1667342E-03  0.1293399E+04  0.7818609E-02  0.9034817E-01
        2   -1    0    0  501    0  0.00000000000E+00  0.00000000000E+00  0.21024885326E+04  0.21024885326E+04  0.25500000920E-02 0.  1.
       -2   -1    0    0    0  501  0.00000000000E+00  0.00000000000E+00 -0.19891664499E+03  0.19891664501E+03  0.25500000920E-02 0. -1.
    10030    2    1    2    0    0  0.00000000000E+00  0.00000000000E+00  0.19035718876E+04  0.23014051776E+04  0.12933985698E+04 0.  0.
        5    1    3    3  502    0  0.36920970128E+03 -0.88253366423E+01  0.72153335506E+01  0.36941553990E+03  0.46999998093E+01 0. -1.
       -5    1    3    3    0  502 -0.36920970128E+03  0.88253366423E+01  0.18963565541E+04  0.19319896377E+04  0.46999998093E+01 0.  1.
</event>
<event>
 5   0  0.9110949E-04  0.1301863E+04  0.7818609E-02  0.9028089E-01
        1   -1    0    0  501    0  0.00000000000E+00  0.00000000000E+00  0.11241437050E+04  0.11241437050E+04  0.50400001928E-02 0.  1.
       -1   -1    0    0    0  501  0.00000000000E+00  0.00000000000E+00 -0.37691950650E+03  0.37691950653E+03  0.50400001928E-02 0. -1.
    10030    2    1    2    0    0  0.00000000000E+00  0.00000000000E+00  0.74722419854E+03  0.15010632116E+04  0.13018628047E+04 0.  0.
        2    1    3    3  502    0 -0.59954434918E+03  0.20566924319E+02  0.82296261048E+02  0.60551556512E+03  0.25500000920E-02 0. -1.
       -2    1    3    3    0  502  0.59954434918E+03 -0.20566924319E+02  0.66492793749E+03  0.89554764646E+03  0.25500000920E-02 0.  1.
</event>
<event>
 5   0  0.9081324E-04  0.1241710E+04  0.7818609E-02  0.9077112E-01
        1   -1    0    0  501    0  0.00000000000E+00  0.00000000000E+00  0.39769067745E+03  0.39769067748E+03  0.50400001928E-02 0. -1.
       -1   -1    0    0    0  501  0.00000000000E+00  0.00000000000E+00 -0.96924751693E+03  0.96924751694E+03  0.50400001928E-02 0.  1.
    10030    2    1    2    0    0  0.00000000000E+00  0.00000000000E+00 -0.57155683948E+03  0.13669381944E+04  0.12417096306E+04 0.  0.
        4    1    3    3  502    0  0.15504385369E+03  0.77421585701E+02 -0.94208032422E+03  0.95788811908E+03  0.12699999809E+01 0.  1.
       -4    1    3    3    0  502 -0.15504385369E+03 -0.77421585701E+02  0.37052348473E+03  0.40905007534E+03  0.12699999809E+01 0. -1.
</event>
<event>
 5   0  0.1694675E-03  0.1295383E+04  0.7818609E-02  0.9033234E-01
       -2   -1    0    0    0  501  0.00000000000E+00  0.00000000000E+00  0.36862488340E+03  0.36862488341E+03  0.25500000920E-02 0. -1.
        2   -1    0    0  501    0  0.00000000000E+00  0.00000000000E+00 -0.11380251050E+04  0.11380251050E+04  0.25500000920E-02 0.  1.
    10030    2    1    2    0    0  0.00000000000E+00  0.00000000000E+00 -0.76940022158E+03  0.15066499884E+04  0.12953831428E+04 0.  0.
        4    1    3    3  502    0 -0.37159295071E+03 -0.45660218390E+03 -0.70587946552E+02  0.59291748706E+03  0.12699999809E+01 0. -1.
       -4    1    3    3    0  502  0.37159295071E+03  0.45660218390E+03 -0.69881227503E+03  0.91373250133E+03  0.12699999809E+01 0.  1.
</event>
<event>
 5   0  0.1623890E-03  0.1300490E+04  0.7818609E-02  0.9029177E-01
       -2   -1    0    0    0  501  0.00000000000E+00  0.00000000000E+00  0.35565067279E+03  0.35565067280E+03  0.25500000920E-02 0. -1.
        2   -1    0    0  501    0  0.00000000000E+00  0.00000000000E+00 -0.11888583618E+04  0.11888583618E+04  0.25500000920E-02 0.  1.
    10030    2    1    2    0    0  0.00000000000E+00  0.00000000000E+00 -0.83320768902E+03  0.15445090346E+04  0.13004895636E+04 0.  0.
        3    1    3    3  502    0 -0.56483689021E+03 -0.22276180749E+03 -0.69298077026E+03  0.92135003857E+03  0.10100000352E+00 0.  1.
       -3    1    3    3    0  502  0.56483689021E+03  0.22276180749E+03 -0.14022691876E+03  0.62315899605E+03  0.10100000352E+00 0. -1.
</event>
<event>
 5   0  0.9098192E-04  0.1298612E+04  0.7818609E-02  0.9030667E-01
        1   -1    0    0  501    0  0.00000000000E+00  0.00000000000E+00  0.10816961959E+04  0.10816961960E+04  0.50400001928E-02 0.  1.
       -1   -1    0    0    0  501  0.00000000000E+00  0.00000000000E+00 -0.38975670228E+03  0.38975670231E+03  0.50400001928E-02 0. -1.
    10030    2    1    2    0    0  0.00000000000E+00  0.00000000000E+00  0.69193949366E+03  0.14714528983E+04  0.12986120933E+04 0.  0.
        1    1    3    3  502    0 -0.26085012351E+03  0.53076125511E+03  0.64969045270E+03  0.87854879274E+03  0.50400001928E-02 0.  1.
       -1    1    3    3    0  502  0.26085012351E+03 -0.53076125511E+03  0.42249040968E+02  0.59290410553E+03  0.50400001928E-02 0. -1.
</event>
<event>
 5   0  0.9098192E-04  0.1299399E+04  0.7818609E-02  0.9030042E-01
       -1   -1    0    0    0  501  0.00000000000E+00  0.00000000000E+00  0.51000856944E+03  0.51000856946E+03  0.50400001928E-02 0.  1.
        1   -1    0    0  501    0  0.00000000000E+00  0.00000000000E+00 -0.82765186063E+03  0.82765186065E+03  0.50400001928E-02 0. -1.
    10030    2    1    2    0    0  0.00000000000E+00  0.00000000000E+00 -0.31764329119E+03  0.13376604301E+04  0.12993991557E+04 0.  0.
        1    1    3    3  502    0 -0.43146456712E+03 -0.46383241371E+03 -0.10326656636E+02  0.63356832351E+03  0.50400001928E-02 0.  1.
       -1    1    3    3    0  502  0.43146456712E+03  0.46383241371E+03 -0.30731663456E+03  0.70409210661E+03  0.50400001928E-02 0. -1.
</event>
<event>
 5   0  0.9110949E-04  0.1306308E+04  0.7818609E-02  0.9024578E-01
        1   -1    0    0  501    0  0.00000000000E+00  0.00000000000E+00  0.39812409515E+03  0.39812409518E+03  0.50400001928E-02 0.  1.
       -1   -1    0    0    0  501  0.00000000000E+00  0.00000000000E+00 -0.10715500917E+04  0.10715500917E+04  0.50400001928E-02 0. -1.
    10030    2    1    2    0    0  0.00000000000E+00  0.00000000000E+00 -0.67342599655E+03  0.14696741869E+04  0.13063076371E+04 0.  0.
        2    1    3    3  502    0  0.14134858487E+03 -0.31036691660E+03  0.28999969866E+03  0.44766825953E+03  0.25500000920E-02 0.  1.
       -2    1    3    3    0  502 -0.14134858487E+03  0.31036691660E+03 -0.96342569521E+03  0.10220059274E+04  0.25500000920E-02 0. -1.
</event>
<event>
 5   0  0.9110949E-04  0.1298038E+04  0.7818609E-02  0.9031123E-01
        1   -1    0    0  501    0  0.00000000000E+00  0.00000000000E+00  0.19751516269E+04  0.19751516269E+04  0.50400001928E-02 0.  1.
       -1   -1    0    0    0  501  0.00000000000E+00  0.00000000000E+00 -0.21326240455E+03  0.21326240461E+03  0.50400001928E-02 0. -1.
    10030    2    1    2    0    0  0.00000000000E+00  0.00000000000E+00  0.17618892223E+04  0.21884140315E+04  0.12980378814E+04 0.  0.
        2    1    3    3  502    0 -0.22408028730E+02 -0.25335071919E+03  0.18876313620E+04  0.19046891782E+04  0.25500000920E-02 0.  1.
       -2    1    3    3    0  502  0.22408028730E+02  0.25335071919E+03 -0.12574213970E+03  0.28372485328E+03  0.25500000920E-02 0. -1.
</event>
<event>
 5   0  0.1667342E-03  0.1303133E+04  0.7818609E-02  0.9027084E-01
        2   -1    0    0  501    0  0.00000000000E+00  0.00000000000E+00  0.14995087056E+04  0.14995087056E+04  0.25500000920E-02 0.  1.
       -2   -1    0    0    0  501  0.00000000000E+00  0.00000000000E+00 -0.28311866143E+03  0.28311866144E+03  0.25500000920E-02 0. -1.
    10030    2    1    2    0    0  0.00000000000E+00  0.00000000000E+00  0.12163900441E+04  0.17826273670E+04  0.13031329902E+04 0.  0.
        5    1    3    3  502    0  0.51470075664E+03 -0.39061439103E+03  0.49357756091E+03  0.81310354199E+03  0.46999998093E+01 0.  1.
       -5    1    3    3    0  502 -0.51470075664E+03  0.39061439103E+03  0.72281248322E+03  0.96952382501E+03  0.46999998093E+01 0. -1.
</event>
<event>
 5   0  0.9027076E-04  0.1295660E+04  0.7818609E-02  0.9033014E-01
        1   -1    0    0  501    0  0.00000000000E+00  0.00000000000E+00  0.10543712935E+04  0.10543712935E+04  0.50400001928E-02 0. -1.
       -1   -1    0    0    0  501  0.00000000000E+00  0.00000000000E+00 -0.39804168619E+03  0.39804168623E+03  0.50400001928E-02 0.  1.
    10030    2    1    2    0    0  0.00000000000E+00  0.00000000000E+00  0.65632960729E+03  0.14524129797E+04  0.12956600288E+04 0.  0.
        5    1    3    3  502    0 -0.63741367700E+03  0.13540691748E+02  0.19946104706E+03  0.66804666398E+03  0.46999998093E+01 0.  1.
       -5    1    3    3    0  502  0.63741367700E+03 -0.13540691748E+02  0.45686856023E+03  0.78436631575E+03  0.46999998093E+01 0. -1.
</event>
<event>
 5   0  0.9215829E-04  0.1298317E+04  0.7818609E-02  0.9030901E-01
        1   -1    0    0  501    0  0.00000000000E+00  0.00000000000E+00  0.20420432257E+04  0.20420432257E+04  0.50400001928E-02 0. -1.
       -1   -1    0    0    0  501  0.00000000000E+00  0.00000000000E+00 -0.20636516503E+03  0.20636516509E+03  0.50400001928E-02 0.  1.
    10030    2    1    2    0    0  0.00000000000E+00  0.00000000000E+00  0.18356780607E+04  0.22484083908E+04  0.12983167369E+04 0.  0.
        3    1    3    3  502    0 -0.13403041063E+03 -0.51360596657E+03  0.27067094674E+03  0.59583387910E+03  0.10100000352E+00 0.  1.
       -3    1    3    3    0  502  0.13403041063E+03  0.51360596657E+03  0.15650071139E+04  0.16525745117E+04  0.10100000352E+00 0. -1.
</event>
<event>
 5   0  0.9027076E-04  0.1295673E+04  0.7818609E-02  0.9033003E-01
       -1   -1    0    0    0  501  0.00000000000E+00  0.00000000000E+00  0.50367883934E+03  0.50367883936E+03  0.50400001928E-02 0.  1.
        1   -1    0    0  501    0  0.00000000000E+00  0.00000000000E+00 -0.83325373332E+03  0.83325373333E+03  0.50400001928E-02 0. -1.
    10030    2    1    2    0    0  0.00000000000E+00  0.00000000000E+00 -0.32957489398E+03  0.13369325727E+04  0.12956732201E+04 0.  0.
        5    1    3    3  502    0  0.36656984878E+03  0.45706470572E+03  0.12039858586E+03  0.59816344650E+03  0.46999998093E+01 0.  1.
       -5    1    3    3    0  502 -0.36656984878E+03 -0.45706470572E+03 -0.44997347984E+03  0.73876912619E+03  0.46999998093E+01 0. -1.
</event>
<event>
 5   0  0.9081324E-04  0.1301279E+04  0.7818609E-02  0.9028552E-01
       -1   -1    0    0    0  501  0.00000000000E+00  0.00000000000E+00  0.78517309411E+03  0.78517309413E+03  0.50400001928E-02 0.  1.
        1   -1    0    0  501    0  0.00000000000E+00  0.00000000000E+00 -0.53915706791E+03  0.53915706794E+03  0.50400001928E-02 0. -1.
    10030    2    1    2    0    0  0.00000000000E+00  0.00000000000E+00  0.24601602620E+03  0.13243301621E+04  0.13012787914E+04 0.  0.
        4    1    3    3  502    0  0.40984532909E+03  0.16249535619E+03 -0.36395750662E+03  0.57170325702E+03  0.12699999809E+01 0. -1.
       -4    1    3    3    0  502 -0.40984532909E+03 -0.16249535619E+03  0.60997353282E+03  0.75262690505E+03  0.12699999809E+01 0.  1.
</event>
<event>
 5   0  0.1700511E-03  0.1285855E+04  0.7818609E-02  0.9040858E-01
        2   -1    0    0  501    0  0.00000000000E+00  0.00000000000E+00  0.80881124349E+03  0.80881124350E+03  0.25500000920E-02 0. -1.
       -2   -1    0    0    0  501  0.00000000000E+00  0.00000000000E+00 -0.51106579011E+03  0.51106579012E+03  0.25500000920E-02 0.  1.
    10030    2    1    2    0    0  0.00000000000E+00  0.00000000000E+00  0.29774545338E+03  0.13198770336E+04  0.12858549797E+04 0.  0.
        2    1    3    3  502    0  0.33619794088E+03 -0.52252573058E+03  0.31845154123E+03  0.69819308123E+03  0.25500000920E-02 0.  1.
       -2    1    3    3    0  502 -0.33619794088E+03  0.52252573058E+03 -0.20706087846E+02  0.62168395238E+03  0.25500000920E-02 0. -1.
</event>
<event>
 5   0  0.1714861E-03  0.1324501E+04  0.7818609E-02  0.9010359E-01
       -2   -1    0    0    0  501  0.00000000000E+00  0.00000000000E+00  0.29479632949E+03  0.29479632951E+03  0.25500000920E-02 0. -1.
        2   -1    0    0  501    0  0.00000000000E+00  0.00000000000E+00 -0.14877234549E+04  0.14877234549E+04  0.25500000920E-02 0.  1.
    10030    2    1    2    0    0  0.00000000000E+00  0.00000000000E+00 -0.11929271254E+04  0.17825197844E+04  0.13245005305E+04 0.  0.
        1    1    3    3  502    0  0.22970919490E+03  0.27160287315E+03  0.15531171209E+03  0.38814451286E+03  0.50400001928E-02 0. -1.
       -1    1    3    3    0  502 -0.22970919490E+03 -0.27160287315E+03 -0.13482388375E+04  0.13943752715E+04  0.50400001928E-02 0.  1.
</event>
<event>
 5   0  0.9027076E-04  0.1306361E+04  0.7818609E-02  0.9024536E-01
       -1   -1    0    0    0  501  0.00000000000E+00  0.00000000000E+00  0.51111907513E+03  0.51111907516E+03  0.50400001928E-02 0.  1.
        1   -1    0    0  501    0  0.00000000000E+00  0.00000000000E+00 -0.83472723415E+03  0.83472723417E+03  0.50400001928E-02 0. -1.
    10030    2    1    2    0    0  0.00000000000E+00  0.00000000000E+00 -0.32360815902E+03  0.13458463093E+04  0.13063613772E+04 0.  0.
        5    1    3    3  502    0 -0.81984877156E+02  0.59816341754E+03  0.94930682825E+02  0.61119139286E+03  0.46999998093E+01 0. -1.
       -5    1    3    3    0  502  0.81984877156E+02 -0.59816341754E+03 -0.41853884185E+03  0.73465491647E+03  0.46999998093E+01 0.  1.
</event>
<event>
 5   0  0.9110949E-04  0.1299570E+04  0.7818609E-02  0.9029906E-01
        1   -1    0    0  501    0  0.00000000000E+00  0.00000000000E+00  0.11119836349E+04  0.11119836349E+04  0.50400001928E-02 0. -1.
       -1   -1    0    0    0  501  0.00000000000E+00  0.00000000000E+00 -0.37970027621E+03  0.37970027624E+03  0.50400001928E-02 0.  1.
    10030    2    1    2    0    0  0.00000000000E+00  0.00000000000E+00  0.73228335868E+03  0.14916839111E+04  0.12995699186E+04 0.  0.
        2    1    3    3  502    0  0.16086766940E+03 -0.14420907769E+03 -0.33726846366E+03  0.40053050038E+03  0.25500000920E-02 0.  1.
       -2    1    3    3    0  502 -0.16086766940E+03  0.14420907769E+03  0.10695518223E+04  0.10911534108E+04  0.25500000920E-02 0. -1.
</event>
<event>
 5   0  0.9215829E-04  0.1297587E+04  0.7818609E-02  0.9031481E-01
       -1   -1    0    0    0  501  0.00000000000E+00  0.00000000000E+00  0.53271047439E+03  0.53271047441E+03  0.50400001928E-02 0.  1.
        1   -1    0    0  501    0  0.00000000000E+00  0.00000000000E+00 -0.79017260643E+03  0.79017260644E+03  0.50400001928E-02 0. -1.
    10030    2    1    2    0    0  0.00000000000E+00  0.00000000000E+00 -0.25746213203E+03  0.13228830809E+04  0.12975873366E+04 0.  0.
        3    1    3    3  502    0 -0.59326704069E+03  0.26137172665E+03 -0.10269395267E+03  0.65637414573E+03  0.10100000352E+00 0. -1.
       -3    1    3    3    0  502  0.59326704069E+03 -0.26137172665E+03 -0.15476817936E+03  0.66650893513E+03  0.10100000352E+00 0.  1.
</event>
<event>
 5   0  0.1700511E-03  0.1330147E+04  0.7818609E-02  0.9005994E-01
        2   -1    0    0  501    0  0.00000000000E+00  0.00000000000E+00  0.10893340754E+04  0.10893340754E+04  0.25500000920E-02 0.  1.
       -2   -1    0    0    0  501  0.00000000000E+00  0.00000000000E+00 -0.40604872885E+03  0.40604872886E+03  0.25500000920E-02 0. -1.
    10030    2    1    2    0    0  0.00000000000E+00  0.00000000000E+00  0.68328534659E+03  0.14953828043E+04  0.13301469342E+04 0.  0.
        2    1    3    3  502    0  0.38354578330E+03  0.38102263496E+03  0.77710651105E+03  0.94666791736E+03  0.25500000920E-02 0.  1.
       -2    1    3    3    0  502 -0.38354578330E+03 -0.38102263496E+03 -0.93821164459E+02  0.54871488694E+03  0.25500000920E-02 0. -1.
</event>
<event>
 5   0  0.1623890E-03  0.1299783E+04  0.7818609E-02  0.9029738E-01
        2   -1    0    0  501    0  0.00000000000E+00  0.00000000000E+00  0.45444505903E+03  0.45444505903E+03  0.25500000920E-02 0.  1.
       -2   -1    0    0    0  501  0.00000000000E+00  0.00000000000E+00 -0.92939448532E+03  0.92939448533E+03  0.25500000920E-02 0. -1.
    10030    2    1    2    0    0  0.00000000000E+00  0.00000000000E+00 -0.47494942630E+03  0.13838395444E+04  0.12997826461E+04 0.  0.
        3    1    3    3  502    0 -0.14981937517E+03 -0.49916776862E+03 -0.65084153719E+03  0.83379195435E+03  0.10100000352E+00 0. -1.
       -3    1    3    3    0  502  0.14981937517E+03  0.49916776862E+03  0.17589211089E+03  0.55004759001E+03  0.10100000352E+00 0.  1.
</event>
<event>
 5   0  0.9098192E-04  0.1335681E+04  0.7818609E-02  0.9001739E-01
        1   -1    0    0  501    0  0.00000000000E+00  0.00000000000E+00  0.73240245784E+03  0.73240245785E+03  0.50400001928E-02 0.  1.
       -1   -1    0    0    0  501  0.00000000000E+00  0.00000000000E+00 -0.60896991093E+03  0.60896991095E+03  0.50400001928E-02 0. -1.
    10030    2    1    2    0    0  0.00000000000E+00  0.00000000000E+00  0.12343254691E+03  0.13413723688E+04  0.13356811888E+04 0.  0.
        1    1    3    3  502    0 -0.14475847235E+03  0.53108566498E+03  0.44148634043E+03  0.70563247351E+03  0.50400001928E-02 0.  1.
       -1    1    3    3    0  502  0.14475847235E+03 -0.53108566498E+03 -0.31805379352E+03  0.63573989529E+03  0.50400001928E-02 0. -1.
</event>
<event>
 5   0  0.1700511E-03  0.1298943E+04  0.7818609E-02  0.9030403E-01
       -2   -1    0    0    0  501  0.00000000000E+00  0.00000000000E+00  0.26311059558E+03  0.26311059560E+03  0.25500000920E-02 0. -1.
        2   -1    0    0  501    0  0.00000000000E+00  0.00000000000E+00 -0.16031793596E+04  0.16031793596E+04  0.25500000920E-02 0.  1.
    10030    2    1    2    0    0  0.00000000000E+00  0.00000000000E+00 -0.13400687640E+04  0.18662899552E+04  0.12989433801E+04 0.  0.
        2    1    3    3  502    0 -0.43992011584E+03 -0.41001649077E+03 -0.10224699961E+04  0.11862074540E+04  0.25500000920E-02 0. -1.
       -2    1    3    3    0  502  0.43992011584E+03  0.41001649077E+03 -0.31759876790E+03  0.68008250117E+03  0.25500000920E-02 0.  1.
</event>
<event>
 5   0  0.9081324E-04  0.1296065E+04  0.7818609E-02  0.9032692E-01
       -1   -1    0    0    0  501  0.00000000000E+00  0.00000000000E+00  0.68409317332E+03  0.68409317334E+03  0.50400001928E-02 0.  1.
        1   -1    0    0  501    0  0.00000000000E+00  0.00000000000E+00 -0.61387259117E+03  0.61387259119E+03  0.50400001928E-02 0. -1.
    10030    2    1    2    0    0  0.00000000000E+00  0.00000000000E+00  0.70220582150E+02  0.12979657645E+04  0.12960648887E+04 0.  0.
        4    1    3    3  502    0 -0.53616687970E+03  0.10657840097E+03  0.38363012140E+03  0.66783797540E+03  0.12699999809E+01 0.  1.
       -4    1    3    3    0  502  0.53616687970E+03 -0.10657840097E+03 -0.31340953925E+03  0.63012778913E+03  0.12699999809E+01 0. -1.
</event>
<event>
 5   0  0.6284125E-04  0.1317640E+04  0.7818609E-02  0.9015692E-01
        3   -1    0    0  501    0  0.00000000000E+00  0.00000000000E+00  0.78847791755E+03  0.78847792402E+03  0.10100000352E+00 0.  1.
       -3   -1    0    0    0  501  0.00000000000E+00  0.00000000000E+00 -0.55048315704E+03  0.55048316630E+03  0.10100000352E+00 0. -1.
    10030    2    1    2    0    0  0.00000000000E+00  0.00000000000E+00  0.23799476051E+03  0.13389610903E+04  0.13176400477E+04 0.  0.
        3    1    3    3  502    0  0.30465305102E+03  0.58232940311E+03  0.72178012104E+02  0.66115859735E+03  0.10100000352E+00 0.  1.
       -3    1    3    3    0  502 -0.30465305102E+03 -0.58232940311E+03  0.16581674841E+03  0.67780249297E+03  0.10100000352E+00 0. -1.
</event>
<event>
 5   0  0.9215829E-04  0.1312399E+04  0.7818609E-02  0.9019790E-01
       -1   -1    0    0    0  501  0.00000000000E+00  0.00000000000E+00  0.40175741899E+03  0.40175741902E+03  0.50400001928E-02 0.  1.
        1   -1    0    0  501    0  0.00000000000E+00  0.00000000000E+00 -0.10717862558E+04  0.10717862559E+04  0.50400001928E-02 0. -1.
    10030    2    1    2    0    0  0.00000000000E+00  0.00000000000E+00 -0.67002883685E+03  0.14735436749E+04  0.13123994512E+04 0.  0.
        3    1    3    3  502    0  0.43019132757E+03 -0.17945066976E+02  0.22097606657E+03  0.48395974620E+03  0.10100000352E+00 0.  1.
       -3    1    3    3    0  502 -0.43019132757E+03  0.17945066976E+02 -0.89100490342E+03  0.98958392866E+03  0.10100000352E+00 0. -1.
</event>
<event>
 5   0  0.1667342E-03  0.1300610E+04  0.7818609E-02  0.9029081E-01
       -2   -1    0    0    0  501  0.00000000000E+00  0.00000000000E+00  0.30209181028E+03  0.30209181029E+03  0.25500000920E-02 0.  1.
        2   -1    0    0  501    0  0.00000000000E+00  0.00000000000E+00 -0.13998946804E+04  0.13998946804E+04  0.25500000920E-02 0. -1.
    10030    2    1    2    0    0  0.00000000000E+00  0.00000000000E+00 -0.10978028702E+04  0.17019864907E+04  0.13006101925E+04 0.  0.
        5    1    3    3  502    0 -0.43171158035E+03  0.25033076941E+03 -0.10945042772E+04  0.12029139976E+04  0.46999998093E+01 0. -1.
       -5    1    3    3    0  502  0.43171158035E+03 -0.25033076941E+03 -0.32985929503E+01  0.49907249316E+03  0.46999998093E+01 0.  1.
</event>
<event>
 5   0  0.1700511E-03  0.1299282E+04  0.7818609E-02  0.9030135E-01
        2   -1    0    0  501    0  0.00000000000E+00  0.00000000000E+00  0.13176710648E+04  0.13176710648E+04  0.25500000920E-02 0. -1.
       -2   -1    0    0    0  501  0.00000000000E+00  0.00000000000E+00 -0.32028741118E+03  0.32028741119E+03  0.25500000920E-02 0.  1.
    10030    2    1    2    0    0  0.00000000000E+00  0.00000000000E+00  0.99738365367E+03  0.16379584760E+04  0.12992820389E+04 0.  0.
        2    1    3    3  502    0  0.36738166983E+03  0.28320544118E+03  0.10720638473E+04  0.11681162211E+04  0.25500000920E-02 0. -1.
       -2    1    3    3    0  502 -0.36738166983E+03 -0.28320544118E+03 -0.74680193615E+02  0.46984225499E+03  0.25500000920E-02 0.  1.
</event>
<event>
 5   0  0.6284125E-04  0.1326645E+04  0.7818609E-02  0.9008698E-01
       -3   -1    0    0    0  501  0.00000000000E+00  0.00000000000E+00  0.67233838446E+03  0.67233839205E+03  0.10100000352E+00 0.  1.
        3   -1    0    0  501    0  0.00000000000E+00  0.00000000000E+00 -0.65442753240E+03  0.65442754019E+03  0.10100000352E+00 0. -1.
    10030    2    1    2    0    0  0.00000000000E+00  0.00000000000E+00  0.17910852066E+02  0.13267659322E+04  0.13266450318E+04 0.  0.
        2    1    3    3  502    0  0.61930982865E+03  0.23365961010E+03 -0.34121493386E+02  0.66280144355E+03  0.25500000920E-02 0. -1.
       -2    1    3    3    0  502 -0.61930982865E+03 -0.23365961010E+03  0.52032345452E+02  0.66396448869E+03  0.25500000920E-02 0.  1.
</event>
<event>
 5   0  0.9027076E-04  0.1315125E+04  0.7818609E-02  0.9017656E-01
       -1   -1    0    0    0  501  0.00000000000E+00  0.00000000000E+00  0.81667628421E+03  0.81667628423E+03  0.50400001928E-02 0.  1.
        1   -1    0    0  501    0  0.00000000000E+00  0.00000000000E+00 -0.52944931586E+03  0.52944931589E+03  0.50400001928E-02 0. -1.
    10030    2    1    2    0    0  0.00000000000E+00  0.00000000000E+00  0.28722696835E+03  0.13461256001E+04  0.13151253932E+04 0.  0.
        5    1    3    3  502    0  0.42582522846E+02  0.65493820931E+03  0.18467493821E+03  0.68182420906E+03  0.46999998093E+01 0.  1.
       -5    1    3    3    0  502 -0.42582522846E+02 -0.65493820931E+03  0.10255203014E+03  0.66430139105E+03  0.46999998093E+01 0. -1.
</event>
<event>
 5   0  0.9110949E-04  0.1297662E+04  0.7818609E-02  0.9031421E-01
       -1   -1    0    0    0  501  0.00000000000E+00  0.00000000000E+00  0.85907383798E+03  0.85907383799E+03  0.50400001928E-02 0. -1.
        1   -1    0    0  501    0  0.00000000000E+00  0.00000000000E+00 -0.49004159483E+03  0.49004159486E+03  0.50400001928E-02 0.  1.
    10030    2    1    2    0    0  0.00000000000E+00  0.00000000000E+00  0.36903224314E+03  0.13491154328E+04  0.12976623808E+04 0.  0.
        2    1    3    3  502    0 -0.23025959232E+03  0.53404348645E+03 -0.11457092637E+03  0.59274650775E+03  0.25500000920E-02 0.  1.
       -2    1    3    3    0  502  0.23025959232E+03 -0.53404348645E+03  0.48360316951E+03  0.75636892509E+03  0.25500000920E-02 0. -1.
</event>
<event>
 5   0  0.9098192E-04  0.1295543E+04  0.7818609E-02  0.9033107E-01
       -1   -1    0    0    0  501  0.00000000000E+00  0.00000000000E+00  0.37668632924E+03  0.37668632927E+03  0.50400001928E-02 0.  1.
        1   -1    0    0  501    0  0.00000000000E+00  0.00000000000E+00 -0.11139451506E+04  0.11139451506E+04  0.50400001928E-02 0. -1.
    10030    2    1    2    0    0  0.00000000000E+00  0.00000000000E+00 -0.73725882134E+03  0.14906314799E+04  0.12955429901E+04 0.  0.
        1    1    3    3  502    0 -0.37457763910E+03  0.52626730841E+03 -0.42431367672E+03  0.77285689742E+03  0.50400001928E-02 0.  1.
       -1    1    3    3    0  502  0.37457763910E+03 -0.52626730841E+03 -0.31294514462E+03  0.71777458243E+03  0.50400001928E-02 0. -1.
</event>
<event>
 5   0  0.1700511E-03  0.1300269E+04  0.7818609E-02  0.9029352E-01
       -2   -1    0    0    0  501  0.00000000000E+00  0.00000000000E+00  0.34261795669E+03  0.34261795670E+03  0.25500000920E-02 0. -1.
        2   -1    0    0  501    0  0.00000000000E+00  0.00000000000E+00 -0.12336626997E+04  0.12336626997E+04  0.25500000920E-02 0.  1.
    10030    2    1    2    0    0  0.00000000000E+00  0.00000000000E+00 -0.89104474296E+03  0.15762806564E+04  0.13002691928E+04 0.  0.
        2    1    3    3  502    0  0.42506549042E+03 -0.13895774978E+03  0.12654321061E+03  0.46476134900E+03  0.25500000920E-02 0. -1.
       -2    1    3    3    0  502 -0.42506549042E+03  0.13895774978E+03 -0.10175879536E+04  0.11115193074E+04  0.25500000920E-02 0.  1.
</event>
<event>
 5   0  0.9098192E-04  0.1300489E+04  0.7818609E-02  0.9029178E-01
       -1   -1    0    0    0  501  0.00000000000E+00  0.00000000000E+00  0.59352410226E+03  0.59352410229E+03  0.50400001928E-02 0. -1.
        1   -1    0    0  501    0  0.00000000000E+00  0.00000000000E+00 -0.71238489386E+03  0.71238489388E+03  0.50400001928E-02 0.  1.
    10030    2    1    2    0    0  0.00000000000E+00  0.00000000000E+00 -0.11886079160E+03  0.13059089962E+04  0.13004885307E+04 0.  0.
        1    1    3    3  502    0 -0.38767604829E+03 -0.21458680054E+02 -0.58320236796E+03  0.70062700161E+03  0.50400001928E-02 0.  1.
       -1    1    3    3    0  502  0.38767604829E+03  0.21458680054E+02  0.46434157636E+03  0.60528199455E+03  0.50400001928E-02 0. -1.
</event>
<event>
 5   0  0.6284125E-04  0.1307772E+04  0.7818609E-02  0.9023425E-01
       -4   -1    0    0    0  501  0.00000000000E+00  0.00000000000E+00  0.43244569646E+03  0.43244756132E+03  0.12699999809E+01 0.  1.
        4   -1    0    0  501    0  0.00000000000E+00  0.00000000000E+00 -0.98871356642E+03  0.98871438208E+03  0.12699999809E+01 0. -1.
    10030    2    1    2    0    0  0.00000000000E+00  0.00000000000E+00 -0.55626786996E+03  0.14211619434E+04  0.13077718938E+04 0.  0.
        2    1    3    3  502    0  0.64248722969E+03 -0.89566560427E+02 -0.18882014066E+03  0.67562197610E+03  0.25500000920E-02 0. -1.
       -2    1    3    3    0  502 -0.64248722969E+03  0.89566560427E+02 -0.36744772930E+03  0.74553996730E+03  0.25500000920E-02 0.  1.
</event>
<event>
 5   0  0.9215829E-04  0.1293613E+04  0.7818609E-02  0.9034646E-01
        1   -1    0    0  501    0  0.00000000000E+00  0.00000000000E+00  0.14139859278E+04  0.14139859278E+04  0.50400001928E-02 0.  1.
       -1   -1    0    0    0  501  0.00000000000E+00  0.00000000000E+00 -0.29587163435E+03  0.29587163440E+03  0.50400001928E-02 0. -1.
    10030    2    1    2    0    0  0.00000000000E+00  0.00000000000E+00  0.11181142935E+04  0.17098575622E+04  0.12936125037E+04 0.  0.
        3    1    3    3  502    0  0.23981501375E+03  0.29508418556E+03  0.12506501012E+04  0.13071769594E+04  0.10100000352E+00 0.  1.
       -3    1    3    3    0  502 -0.23981501375E+03 -0.29508418556E+03 -0.13253580769E+03  0.40268060285E+03  0.10100000352E+00 0. -1.
</event>
<event>
 5   0  0.6284125E-04  0.1302820E+04  0.7818609E-02  0.9027332E-01
       -3   -1    0    0    0  501  0.00000000000E+00  0.00000000000E+00  0.33967014540E+03  0.33967016042E+03  0.10100000352E+00 0.  1.
        3   -1    0    0  501    0  0.00000000000E+00  0.00000000000E+00 -0.12492563872E+04  0.12492563913E+04  0.10100000352E+00 0. -1.
    10030    2    1    2    0    0  0.00000000000E+00  0.00000000000E+00 -0.90958624184E+03  0.15889265518E+04  0.13028201931E+04 0.  0.
        2    1    3    3  502    0  0.75639966263E+02 -0.51010756885E+03  0.30609796689E+02  0.51659277574E+03  0.25500000920E-02 0.  1.
       -2    1    3    3    0  502 -0.75639966263E+02  0.51010756885E+03 -0.94019603853E+03  0.10723337760E+04  0.25500000920E-02 0. -1.
</event>
<event>
 5   0  0.9027076E-04  0.1302362E+04  0.7818609E-02  0.9027694E-01
        1   -1    0    0  501    0  0.00000000000E+00  0.00000000000E+00  0.84901150559E+03  0.84901150561E+03  0.50400001928E-02 0.  1.
       -1   -1    0    0    0  501  0.00000000000E+00  0.00000000000E+00 -0.49944776291E+03  0.49944776294E+03  0.50400001928E-02 0. -1.
    10030    2    1    2    0    0  0.00000000000E+00  0.00000000000E+00  0.34956374268E+03  0.13484592685E+04  0.13023623109E+04 0.  0.
        5    1    3    3  502    0 -0.73635468127E+02  0.48270094843E+03  0.62083452737E+03  0.78986073972E+03  0.46999998093E+01 0.  1.
       -5    1    3    3    0  502  0.73635468127E+02 -0.48270094843E+03 -0.27127078470E+03  0.55859852882E+03  0.46999998093E+01 0. -1.
</event>
<event>
 5   0  0.1700511E-03  0.1310188E+04  0.7818609E-02  0.9021525E-01
       -2   -1    0    0    0  501  0.00000000000E+00  0.00000000000E+00  0.42539385971E+03  0.42539385972E+03  0.25500000920E-02 0.  1.
        2   -1    0    0  501    0  0.00000000000E+00  0.00000000000E+00 -0.10088256236E+04  0.10088256236E+04  0.25500000920E-02 0. -1.
    10030    2    1    2    0    0  0.00000000000E+00  0.00000000000E+00 -0.58343176392E+03  0.14342194834E+04  0.13101881175E+04 0.  0.
        2    1    3    3  502    0  0.32848725275E+03  0.10014124145E+03 -0.90239487006E+03  0.96553024032E+03  0.25500000920E-02 0. -1.
       -2    1    3    3    0  502 -0.32848725275E+03 -0.10014124145E+03  0.31896310614E+03  0.46868924304E+03  0.25500000920E-02 0.  1.
</event>
<event>
 5   0  0.6284125E-04  0.1299159E+04  0.7818609E-02  0.9030232E-01
       -3   -1    0    0    0  501  0.00000000000E+00  0.00000000000E+00  0.91214116460E+03  0.91214117019E+03  0.10100000352E+00 0.  1.
        3   -1    0    0  501    0  0.00000000000E+00  0.00000000000E+00 -0.46259659448E+03  0.46259660551E+03  0.10100000352E+00 0. -1.
    10030    2    1    2    0    0  0.00000000000E+00  0.00000000000E+00  0.44954457012E+03  0.13747377757E+04  0.12991588169E+04 0.  0.
        2    1    3    3  502    0  0.43928031142E+03 -0.10632302957E+03  0.71847840548E+03  0.84881269888E+03  0.25500000920E-02 0.  1.
       -2    1    3    3    0  502 -0.43928031142E+03  0.10632302957E+03 -0.26893383537E+03  0.52592507682E+03  0.25500000920E-02 0. -1.
</event>
<event>
 5   0  0.9098192E-04  0.1238292E+04  0.7818609E-02  0.9079984E-01
       -1   -1    0    0    0  501  0.00000000000E+00  0.00000000000E+00  0.34582181533E+03  0.34582181536E+03  0.50400001928E-02 0.  1.
        1   -1    0    0  501    0  0.00000000000E+00  0.00000000000E+00 -0.11084957311E+04  0.11084957311E+04  0.50400001928E-02 0. -1.
    10030    2    1    2    0    0  0.00000000000E+00  0.00000000000E+00 -0.76267391580E+03  0.14543175465E+04  0.12382923824E+04 0.  0.
        1    1    3    3  502    0  0.41945642202E+03  0.69722435721E+02 -0.90988970481E+03  0.10043426621E+04  0.50400001928E-02 0. -1.
       -1    1    3    3    0  502 -0.41945642202E+03 -0.69722435721E+02  0.14721578901E+03  0.44997488438E+03  0.50400001928E-02 0.  1.
</event>
<event>
 5   0  0.1700511E-03  0.1263976E+04  0.7818609E-02  0.9058630E-01
        2   -1    0    0  501    0  0.00000000000E+00  0.00000000000E+00  0.76573096243E+03  0.76573096244E+03  0.25500000920E-02 0.  1.
       -2   -1    0    0    0  501  0.00000000000E+00  0.00000000000E+00 -0.52160488310E+03  0.52160488311E+03  0.25500000920E-02 0. -1.
    10030    2    1    2    0    0  0.00000000000E+00  0.00000000000E+00  0.24412607933E+03  0.12873358455E+04  0.12639762801E+04 0.  0.
        2    1    3    3  502    0 -0.60011239160E+03 -0.17265972892E+03  0.22113745031E+03  0.66245606381E+03  0.25500000920E-02 0.  1.
       -2    1    3    3    0  502  0.60011239160E+03  0.17265972892E+03  0.22988629023E+02  0.62487978173E+03  0.25500000920E-02 0. -1.
</event>
<event>
 5   0  0.9110949E-04  0.1298015E+04  0.7818609E-02  0.9031141E-01
        1   -1    0    0  501    0  0.00000000000E+00  0.00000000000E+00  0.10452621508E+04  0.10452621509E+04  0.50400001928E-02 0.  1.
       -1   -1    0    0    0  501  0.00000000000E+00  0.00000000000E+00 -0.40297124767E+03  0.40297124770E+03  0.50400001928E-02 0. -1.
    10030    2    1    2    0    0  0.00000000000E+00  0.00000000000E+00  0.64229090317E+03  0.14482333986E+04  0.12980147813E+04 0.  0.
        2    1    3    3  502    0  0.43415526827E+03  0.47373975301E+03  0.21955619601E+03  0.67906190716E+03  0.25500000920E-02 0. -1.
       -2    1    3    3    0  502 -0.43415526827E+03 -0.47373975301E+03  0.42273470716E+03  0.76917149140E+03  0.25500000920E-02 0.  1.
</event>
<event>
 5   0  0.9110949E-04  0.1289830E+04  0.7818609E-02  0.9037669E-01
       -1   -1    0    0    0  501  0.00000000000E+00  0.00000000000E+00  0.58718128875E+03  0.58718128877E+03  0.50400001928E-02 0.  1.
        1   -1    0    0  501    0  0.00000000000E+00  0.00000000000E+00 -0.70832496510E+03  0.70832496512E+03  0.50400001928E-02 0. -1.
    10030    2    1    2    0    0  0.00000000000E+00  0.00000000000E+00 -0.12114367635E+03  0.12955062539E+04  0.12898297033E+04 0.  0.
        2    1    3    3  502    0 -0.61109372006E+03  0.76739792352E+02 -0.25270048131E+03  0.66571920784E+03  0.25500000920E-02 0. -1.
       -2    1    3    3    0  502  0.61109372006E+03 -0.76739792352E+02  0.13155680496E+03  0.62978704604E+03  0.25500000920E-02 0.  1.
</event>
<event>
 5   0  0.9081324E-04  0.1328208E+04  0.7818609E-02  0.9007490E-01
       -1   -1    0    0    0  501  0.00000000000E+00  0.00000000000E+00  0.37149555541E+03  0.37149555544E+03  0.50400001928E-02 0. -1.
        1   -1    0    0  501    0  0.00000000000E+00  0.00000000000E+00 -0.11871861795E+04  0.11871861795E+04  0.50400001928E-02 0.  1.
    10030    2    1    2    0    0  0.00000000000E+00  0.00000000000E+00 -0.81569062404E+03  0.15586817349E+04  0.13282084010E+04 0.  0.
        4    1    3    3  502    0  0.52110645784E+03  0.22345636429E+03 -0.20915616686E+01  0.56700147679E+03  0.12699999809E+01 0. -1.
       -4    1    3    3    0  502 -0.52110645784E+03 -0.22345636429E+03 -0.81359906237E+03  0.99168025812E+03  0.12699999809E+01 0.  1.
</event>
<event>
 5   0  0.9081324E-04  0.1247034E+04  0.7818609E-02  0.9072655E-01
        1   -1    0    0  501    0  0.00000000000E+00  0.00000000000E+00  0.92135443714E+03  0.92135443716E+03  0.50400001928E-02 0.  1.
       -1   -1    0    0    0  501  0.00000000000E+00  0.00000000000E+00 -0.42195878547E+03  0.42195878550E+03  0.50400001928E-02 0. -1.
    10030    2    1    2    0    0  0.00000000000E+00  0.00000000000E+00  0.49939565167E+03  0.13433132227E+04  0.12470342406E+04 0.  0.
        4    1    3    3  502    0 -0.21407767640E+03 -0.13491094206E+03 -0.36416027270E+03  0.44344619846E+03  0.12699999809E+01 0. -1.
       -4    1    3    3    0  502  0.21407767640E+03  0.13491094206E+03  0.86355592437E+03  0.89986702419E+03  0.12699999809E+01 0.  1.
</event>
<event>
 5   0  0.9027076E-04  0.1316403E+04  0.7818609E-02  0.9016658E-01
        1   -1    0    0  501    0  0.00000000000E+00  0.00000000000E+00  0.73855866249E+03  0.73855866250E+03  0.50400001928E-02 0. -1.
       -1   -1    0    0    0  501  0.00000000000E+00  0.00000000000E+00 -0.58658744794E+03  0.58658744796E+03  0.50400001928E-02 0.  1.
    10030    2    1    2    0    0  0.00000000000E+00  0.00000000000E+00  0.15197121455E+03  0.13251461105E+04  0.13164030401E+04 0.  0.
        5    1    3    3  502    0 -0.21362057604E+03  0.59937666803E+03 -0.93420577112E+02  0.64314511186E+03  0.46999998093E+01 0.  1.
       -5    1    3    3    0  502  0.21362057604E+03 -0.59937666803E+03  0.24539179166E+03  0.68200099860E+03  0.46999998093E+01 0. -1.
</event>
<event>
 5   0  0.9215829E-04  0.1336974E+04  0.7818609E-02  0.9000747E-01
       -1   -1    0    0    0  501  0.00000000000E+00  0.00000000000E+00  0.58214001863E+03  0.58214001865E+03  0.50400001928E-02 0. -1.
        1   -1    0    0  501    0  0.00000000000E+00  0.00000000000E+00 -0.76764178408E+03  0.76764178410E+03  0.50400001928E-02 0.  1.
    10030    2    1    2    0    0  0.00000000000E+00  0.00000000000E+00 -0.18550176545E+03  0.13497818028E+04  0.13369741995E+04 0.  0.
        3    1    3    3  502    0 -0.42669734694E+03  0.26746038109E+01  0.42676310735E+03  0.60349361172E+03  0.10100000352E+00 0. -1.
       -3    1    3    3    0  502  0.42669734694E+03 -0.26746038109E+01 -0.61226487281E+03  0.74628819103E+03  0.10100000352E+00 0.  1.
</event>
<event>
 5   0  0.1667342E-03  0.1306729E+04  0.7818609E-02  0.9024246E-01
       -2   -1    0    0    0  501  0.00000000000E+00  0.00000000000E+00  0.45791147210E+03  0.45791147210E+03  0.25500000920E-02 0.  1.
        2   -1    0    0  501    0  0.00000000000E+00  0.00000000000E+00 -0.93224409329E+03  0.93224409329E+03  0.25500000920E-02 0. -1.
    10030    2    1    2    0    0  0.00000000000E+00  0.00000000000E+00 -0.47433262119E+03  0.13901555654E+04  0.13067291458E+04 0.  0.
        5    1    3    3  502    0  0.35490825434E+03 -0.19897625747E+03  0.30665634747E+03  0.50952097648E+03  0.46999998093E+01 0.  1.
       -5    1    3    3    0  502 -0.35490825434E+03  0.19897625747E+03 -0.78098896866E+03  0.88063458891E+03  0.46999998093E+01 0. -1.
</event>
<event>
 5   0  0.9027076E-04  0.1288487E+04  0.7818609E-02  0.9038745E-01
        1   -1    0    0  501    0  0.00000000000E+00  0.00000000000E+00  0.22228167804E+04  0.22228167805E+04  0.50400001928E-02 0. -1.
       -1   -1    0    0    0  501  0.00000000000E+00  0.00000000000E+00 -0.18672230398E+03  0.18672230405E+03  0.50400001928E-02 0.  1.
    10030    2    1    2    0    0  0.00000000000E+00  0.00000000000E+00  0.20360944765E+04  0.24095390845E+04  0.12884866637E+04 0.  0.
        5    1    3    3  502    0  0.20224895605E+03 -0.33381897467E+03  0.59587529962E+02  0.39485758420E+03  0.46999998093E+01 0.  1.
       -5    1    3    3    0  502 -0.20224895605E+03  0.33381897467E+03  0.19765069465E+04  0.20146815003E+04  0.46999998093E+01 0. -1.
</event>
<event>
 5   0  0.1714861E-03  0.1311480E+04  0.7818609E-02  0.9020511E-01
       -2   -1    0    0    0  501  0.00000000000E+00  0.00000000000E+00  0.23048214155E+03  0.23048214157E+03  0.25500000920E-02 0. -1.
        2   -1    0    0  501    0  0.00000000000E+00  0.00000000000E+00 -0.18656317680E+04  0.18656317680E+04  0.25500000920E-02 0.  1.
    10030    2    1    2    0    0  0.00000000000E+00  0.00000000000E+00 -0.16351496265E+04  0.20961139096E+04  0.13114797829E+04 0.  0.
        1    1    3    3  502    0 -0.41715237975E+03 -0.43258615861E+03 -0.12369460774E+04  0.13752027091E+04  0.50400001928E-02 0.  1.
       -1    1    3    3    0  502  0.41715237975E+03  0.43258615861E+03 -0.39820354906E+03  0.72091120054E+03  0.50400001928E-02 0. -1.
</event>
<event>
 5   0  0.9215829E-04  0.1276339E+04  0.7818609E-02  0.9048542E-01
       -1   -1    0    0    0  501  0.00000000000E+00  0.00000000000E+00  0.27282502471E+03  0.27282502476E+03  0.50400001928E-02 0. -1.
        1   -1    0    0  501    0  0.00000000000E+00  0.00000000000E+00 -0.14927535314E+04  0.14927535314E+04  0.50400001928E-02 0.  1.
    10030    2    1    2    0    0  0.00000000000E+00  0.00000000000E+00 -0.12199285067E+04  0.17655785561E+04  0.12763393266E+04 0.  0.
        3    1    3    3  502    0  0.41434464532E+03 -0.48486623427E+03 -0.57953892449E+03  0.86176686258E+03  0.10100000352E+00 0.  1.
       -3    1    3    3    0  502 -0.41434464532E+03  0.48486623427E+03 -0.64038958216E+03  0.90381169354E+03  0.10100000352E+00 0. -1.
</event>
<event>
 5   0  0.9110949E-04  0.1337502E+04  0.7818609E-02  0.9000344E-01
       -1   -1    0    0    0  501  0.00000000000E+00  0.00000000000E+00  0.64143148245E+03  0.64143148247E+03  0.50400001928E-02 0.  1.
        1   -1    0    0  501    0  0.00000000000E+00  0.00000000000E+00 -0.69723359721E+03  0.69723359723E+03  0.50400001928E-02 0. -1.
    10030    2    1    2    0    0  0.00000000000E+00  0.00000000000E+00 -0.55802114755E+02  0.13386650797E+04  0.13375015213E+04 0.  0.
        2    1    3    3  502    0 -0.34023114212E+03  0.45061084046E+03 -0.38657048124E+03  0.68428363752E+03  0.25500000920E-02 0.  1.
       -2    1    3    3    0  502  0.34023114212E+03 -0.45061084046E+03  0.33076836648E+03  0.65438144218E+03  0.25500000920E-02 0. -1.
</event>
<event>
 5   0  0.6284125E-04  0.1287754E+04  0.7818609E-02  0.9039333E-01
        3   -1    0    0  501    0  0.00000000000E+00  0.00000000000E+00  0.10021112339E+04  0.10021112390E+04  0.10100000352E+00 0. -1.
       -3   -1    0    0    0  501  0.00000000000E+00  0.00000000000E+00 -0.41370443687E+03  0.41370444920E+03  0.10100000352E+00 0.  1.
    10030    2    1    2    0    0  0.00000000000E+00  0.00000000000E+00  0.58840679706E+03  0.14158156882E+04  0.12877544425E+04 0.  0.
        5    1    3    3  502    0 -0.47687088924E+03 -0.27039054968E+03  0.66548220341E+03  0.86220968877E+03  0.46999998093E+01 0. -1.
       -5    1    3    3    0  502  0.47687088924E+03  0.27039054968E+03 -0.77075406347E+02  0.55360599945E+03  0.46999998093E+01 0.  1.
</event>
<event>
 5   0  0.1714861E-03  0.1298105E+04  0.7818609E-02  0.9031069E-01
       -2   -1    0    0    0  501  0.00000000000E+00  0.00000000000E+00  0.74604023236E+03  0.74604023236E+03  0.25500000920E-02 0.  1.
        2   -1    0    0  501    0  0.00000000000E+00  0.00000000000E+00 -0.56467352653E+03  0.56467352654E+03  0.25500000920E-02 0. -1.
    10030    2    1    2    0    0  0.00000000000E+00  0.00000000000E+00  0.18136670583E+03  0.13107137589E+04  0.12981050326E+04 0.  0.
        1    1    3    3  502    0 -0.44013245639E+03 -0.64064982684E+02  0.56797795282E+03  0.72140131418E+03  0.50400001928E-02 0.  1.
       -1    1    3    3    0  502  0.44013245639E+03  0.64064982684E+02 -0.38661124699E+03  0.58931244472E+03  0.50400001928E-02 0. -1.
</event>
<event>
 5   0  0.1623890E-03  0.1285777E+04  0.7818609E-02  0.9040921E-01
        2   -1    0    0  501    0  0.00000000000E+00  0.00000000000E+00  0.12055816147E+04  0.12055816147E+04  0.25500000920E-02 0.  1.
       -2   -1    0    0    0  501  0.00000000000E+00  0.00000000000E+00 -0.34282651272E+03  0.34282651272E+03  0.25500000920E-02 0. -1.
    10030    2    1    2    0    0  0.00000000000E+00  0.00000000000E+00  0.86275510200E+03  0.15484081274E+04  0.12857765603E+04 0.  0.
        3    1    3    3  502    0  0.52384172800E+03  0.20339427421E+03  0.80745736105E+03  0.98375138470E+03  0.10100000352E+00 0.  1.
       -3    1    3    3    0  502 -0.52384172800E+03 -0.20339427421E+03  0.55297740951E+02  0.56465674275E+03  0.10100000352E+00 0. -1.
</event>
<event>
 5   0  0.1714861E-03  0.1305801E+04  0.7818609E-02  0.9024978E-01
       -2   -1    0    0    0  501  0.00000000000E+00  0.00000000000E+00  0.66918010310E+03  0.66918010310E+03  0.25500000920E-02 0. -1.
        2   -1    0    0  501    0  0.00000000000E+00  0.00000000000E+00 -0.63701664915E+03  0.63701664915E+03  0.25500000920E-02 0.  1.
    10030    2    1    2    0    0  0.00000000000E+00  0.00000000000E+00  0.32163453949E+02  0.13061967523E+04  0.13058006999E+04 0.  0.
        1    1    3    3  502    0  0.50544328813E+03 -0.26651541465E+03 -0.29988665217E+03  0.64531805177E+03  0.50400001928E-02 0.  1.
       -1    1    3    3    0  502 -0.50544328813E+03  0.26651541465E+03  0.33205010611E+03  0.66087870049E+03  0.50400001928E-02 0. -1.
</event>
<event>
 5   0  0.1623890E-03  0.1321308E+04  0.7818609E-02  0.9012836E-01
        2   -1    0    0  501    0  0.00000000000E+00  0.00000000000E+00  0.14199295036E+04  0.14199295036E+04  0.25500000920E-02 0.  1.
       -2   -1    0    0    0  501  0.00000000000E+00  0.00000000000E+00 -0.30738406460E+03  0.30738406461E+03  0.25500000920E-02 0. -1.
    10030    2    1    2    0    0  0.00000000000E+00  0.00000000000E+00  0.11125454390E+04  0.17273135682E+04  0.13213079918E+04 0.  0.
        3    1    3    3  502    0  0.33130967789E+03 -0.16551459031E+03 -0.15891871091E+03  0.40300911794E+03  0.10100000352E+00 0. -1.
       -3    1    3    3    0  502 -0.33130967789E+03  0.16551459031E+03  0.12714641499E+04  0.13243044503E+04  0.10100000352E+00 0.  1.
</event>
<event>
 5   0  0.1700511E-03  0.1289625E+04  0.7818609E-02  0.9037833E-01
        2   -1    0    0  501    0  0.00000000000E+00  0.00000000000E+00  0.51453098997E+03  0.51453098997E+03  0.25500000920E-02 0.  1.
       -2   -1    0    0    0  501  0.00000000000E+00  0.00000000000E+00 -0.80808200183E+03  0.80808200183E+03  0.25500000920E-02 0. -1.
    10030    2    1    2    0    0  0.00000000000E+00  0.00000000000E+00 -0.29355101186E+03  0.13226129918E+04  0.12896251120E+04 0.  0.
        2    1    3    3  502    0  0.44474743984E+03  0.90777776795E+02  0.32291562550E+03  0.55705959394E+03  0.25500000920E-02 0.  1.
       -2    1    3    3    0  502 -0.44474743984E+03 -0.90777776795E+02 -0.61646663736E+03  0.76555339787E+03  0.25500000920E-02 0. -1.
</event>
<event>
 5   0  0.1714861E-03  0.1312520E+04  0.7818609E-02  0.9019696E-01
        2   -1    0    0  501    0  0.00000000000E+00  0.00000000000E+00  0.12689852834E+04  0.12689852834E+04  0.25500000920E-02 0.  1.
       -2   -1    0    0    0  501  0.00000000000E+00  0.00000000000E+00 -0.33938681590E+03  0.33938681591E+03  0.25500000920E-02 0. -1.
    10030    2    1    2    0    0  0.00000000000E+00  0.00000000000E+00  0.92959846753E+03  0.16083720993E+04  0.13125195233E+04 0.  0.
        1    1    3    3  502    0 -0.56670685934E+03  0.16754771427E+03  0.11507888654E+03  0.60205651822E+03  0.50400001928E-02 0. -1.
       -1    1    3    3    0  502  0.56670685934E+03 -0.16754771427E+03  0.81451958099E+03  0.10063155811E+04  0.50400001928E-02 0.  1.
</event>
<event>
 5   0  0.9027076E-04  0.1306639E+04  0.7818609E-02  0.9024317E-01
        1   -1    0    0  501    0  0.00000000000E+00  0.00000000000E+00  0.16229740038E+04  0.16229740038E+04  0.50400001928E-02 0.  1.
       -1   -1    0    0    0  501  0.00000000000E+00  0.00000000000E+00 -0.26299030631E+03  0.26299030635E+03  0.50400001928E-02 0. -1.
    10030    2    1    2    0    0  0.00000000000E+00  0.00000000000E+00  0.13599836975E+04  0.18859643101E+04  0.13066390939E+04 0.  0.
        5    1    3    3  502    0 -0.49225887211E+03 -0.11214032398E+03  0.81540972594E+02  0.51143452137E+03  0.46999998093E+01 0. -1.
       -5    1    3    3    0  502  0.49225887211E+03  0.11214032398E+03  0.12784427249E+04  0.13745297888E+04  0.46999998093E+01 0.  1.
</event>
<event>
 5   0  0.9027076E-04  0.1310850E+04  0.7818609E-02  0.9021005E-01
        1   -1    0    0  501    0  0.00000000000E+00  0.00000000000E+00  0.22898871227E+04  0.22898871227E+04  0.50400001928E-02 0. -1.
       -1   -1    0    0    0  501  0.00000000000E+00  0.00000000000E+00 -0.18759970488E+03  0.18759970495E+03  0.50400001928E-02 0.  1.
    10030    2    1    2    0    0  0.00000000000E+00  0.00000000000E+00  0.21022874178E+04  0.24774868276E+04  0.13108503324E+04 0.  0.
        5    1    3    3  502    0  0.15615398368E+03  0.43767161481E+03  0.17761186198E+03  0.49750233421E+03  0.46999998093E+01 0. -1.
       -5    1    3    3    0  502 -0.15615398368E+03 -0.43767161481E+03  0.19246755558E+04  0.19799844934E+04  0.46999998093E+01 0.  1.
</event>
<event>
 5   0  0.1700511E-03  0.1296707E+04  0.7818609E-02  0.9032181E-01
       -2   -1    0    0    0  501  0.00000000000E+00  0.00000000000E+00  0.37719927412E+03  0.37719927413E+03  0.25500000920E-02 0. -1.
        2   -1    0    0  501    0  0.00000000000E+00  0.00000000000E+00 -0.11144301283E+04  0.11144301283E+04  0.25500000920E-02 0.  1.
    10030    2    1    2    0    0  0.00000000000E+00  0.00000000000E+00 -0.73723085414E+03  0.14916294024E+04  0.12967069607E+04 0.  0.
        2    1    3    3  502    0 -0.19206199526E+03 -0.41117836995E+03  0.16403017315E+03  0.48255710506E+03  0.25500000920E-02 0. -1.
       -2    1    3    3    0  502  0.19206199526E+03  0.41117836995E+03 -0.90126102729E+03  0.10090722973E+04  0.25500000920E-02 0.  1.
</event>
<event>
 5   0  0.9215829E-04  0.1292644E+04  0.7818609E-02  0.9035419E-01
       -1   -1    0    0    0  501  0.00000000000E+00  0.00000000000E+00  0.45991240557E+03  0.45991240560E+03  0.50400001928E-02 0.  1.
        1   -1    0    0  501    0  0.00000000000E+00  0.00000000000E+00 -0.90828603861E+03  0.90828603863E+03  0.50400001928E-02 0. -1.
    10030    2    1    2    0    0  0.00000000000E+00  0.00000000000E+00 -0.44837363304E+03  0.13681984442E+04  0.12926438287E+04 0.  0.
        3    1    3    3  502    0 -0.36824508762E+03 -0.90066565929E+02  0.32987451353E+03  0.50252724874E+03  0.10100000352E+00 0.  1.
       -3    1    3    3    0  502  0.36824508762E+03  0.90066565929E+02 -0.77824814657E+03  0.86567119548E+03  0.10100000352E+00 0. -1.
</event>
<event>
 5   0  0.9027076E-04  0.1236055E+04  0.7818609E-02  0.9081870E-01
        1   -1    0    0  501    0  0.00000000000E+00  0.00000000000E+00  0.10780732841E+04  0.10780732841E+04  0.50400001928E-02 0.  1.
       -1   -1    0    0    0  501  0.00000000000E+00  0.00000000000E+00 -0.35429666554E+03  0.35429666557E+03  0.50400001928E-02 0. -1.
    10030    2    1    2    0    0  0.00000000000E+00  0.00000000000E+00  0.72377661853E+03  0.14323699497E+04  0.12360546425E+04 0.  0.
        5    1    3    3  502    0 -0.59564132997E+03 -0.47148809597E+02  0.17894056427E+03  0.62374146868E+03  0.46999998093E+01 0. -1.
       -5    1    3    3    0  502  0.59564132997E+03  0.47148809597E+02  0.54483605426E+03  0.80862848097E+03  0.46999998093E+01 0.  1.
</event>
<event>
 5   0  0.6284125E-04  0.1318164E+04  0.7818609E-02  0.9015284E-01
       -4   -1    0    0    0  501  0.00000000000E+00  0.00000000000E+00  0.73517926645E+03  0.73518036339E+03  0.12699999809E+01 0.  1.
        4   -1    0    0  501    0  0.00000000000E+00  0.00000000000E+00 -0.59085892521E+03  0.59086029009E+03  0.12699999809E+01 0. -1.
    10030    2    1    2    0    0  0.00000000000E+00  0.00000000000E+00  0.14432034124E+03  0.13260406535E+04  0.13181636673E+04 0.  0.
        4    1    3    3  502    0  0.39588524462E+03 -0.44078614008E+03  0.36262371151E+03  0.69463308102E+03  0.12699999809E+01 0. -1.
       -4    1    3    3    0  502 -0.39588524462E+03  0.44078614008E+03 -0.21830337027E+03  0.63140757246E+03  0.12699999809E+01 0.  1.
</event>
<event>
 5   0  0.1623890E-03  0.1335300E+04  0.7818609E-02  0.9002031E-01
       -2   -1    0    0    0  501  0.00000000000E+00  0.00000000000E+00  0.43491650401E+03  0.43491650402E+03  0.25500000920E-02 0.  1.
        2   -1    0    0  501    0  0.00000000000E+00  0.00000000000E+00 -0.10249247565E+04  0.10249247565E+04  0.25500000920E-02 0. -1.
    10030    2    1    2    0    0  0.00000000000E+00  0.00000000000E+00 -0.59000825251E+03  0.14598412605E+04  0.13353002539E+04 0.  0.
        3    1    3    3  502    0 -0.42049968930E+03  0.49490042524E+03 -0.12559954382E+03  0.66145421249E+03  0.10100000352E+00 0.  1.
       -3    1    3    3    0  502  0.42049968930E+03 -0.49490042524E+03 -0.46440870868E+03  0.79838704806E+03  0.10100000352E+00 0. -1.
</event>
<event>
 5   0  0.9027076E-04  0.1305071E+04  0.7818609E-02  0.9025554E-01
        1   -1    0    0  501    0  0.00000000000E+00  0.00000000000E+00  0.10021305613E+04  0.10021305613E+04  0.50400001928E-02 0. -1.
       -1   -1    0    0    0  501  0.00000000000E+00  0.00000000000E+00 -0.42489725558E+03  0.42489725561E+03  0.50400001928E-02 0.  1.
    10030    2    1    2    0    0  0.00000000000E+00  0.00000000000E+00  0.57723330572E+03  0.14270278169E+04  0.13050709180E+04 0.  0.
        5    1    3    3  502    0 -0.48564821342E+03  0.39751198427E+03  0.93288460854E+02  0.63450357900E+03  0.46999998093E+01 0.  1.
       -5    1    3    3    0  502  0.48564821342E+03 -0.39751198427E+03  0.48394484486E+03  0.79252423793E+03  0.46999998093E+01 0. -1.
</event>
<event>
 5   0  0.1700511E-03  0.1322686E+04  0.7818609E-02  0.9011766E-01
       -2   -1    0    0    0  501  0.00000000000E+00  0.00000000000E+00  0.13585373307E+04  0.13585373307E+04  0.25500000920E-02 0. -1.
        2   -1    0    0  501    0  0.00000000000E+00  0.00000000000E+00 -0.32194542630E+03  0.32194542631E+03  0.25500000920E-02 0.  1.
    10030    2    1    2    0    0  0.00000000000E+00  0.00000000000E+00  0.10365919044E+04  0.16804827570E+04  0.13226864785E+04 0.  0.
        2    1    3    3  502    0 -0.41760004156E+03 -0.42193733676E+03  0.14798293025E+03  0.61181685047E+03  0.25500000920E-02 0.  1.
       -2    1    3    3    0  502  0.41760004156E+03  0.42193733676E+03  0.88860897411E+03  0.10686659065E+04  0.25500000920E-02 0. -1.
</event>
<event>
 5   0  0.9098192E-04  0.1288410E+04  0.7818609E-02  0.9038807E-01
        1   -1    0    0  501    0  0.00000000000E+00  0.00000000000E+00  0.47401027083E+03  0.47401027085E+03  0.50400001928E-02 0. -1.
       -1   -1    0    0    0  501  0.00000000000E+00  0.00000000000E+00 -0.87550818031E+03  0.87550818032E+03  0.50400001928E-02 0.  1.
    10030    2    1    2    0    0  0.00000000000E+00  0.00000000000E+00 -0.40149790948E+03  0.13495184512E+04  0.12884096704E+04 0.  0.
        1    1    3    3  502    0 -0.24644052858E+03  0.52414950562E+03 -0.49614310790E+03  0.76264252564E+03  0.50400001928E-02 0.  1.
       -1    1    3    3    0  502  0.24644052858E+03 -0.52414950562E+03  0.94645198423E+02  0.58687592554E+03  0.50400001928E-02 0. -1.
</event>
<event>
 5   0  0.6284125E-04  0.1307051E+04  0.7818609E-02  0.9023992E-01
       -3   -1    0    0    0  501  0.00000000000E+00  0.00000000000E+00  0.82856867713E+03  0.82856868329E+03  0.10100000352E+00 0.  1.
        3   -1    0    0  501    0  0.00000000000E+00  0.00000000000E+00 -0.51546220371E+03  0.51546221361E+03  0.10100000352E+00 0. -1.
    10030    2    1    2    0    0  0.00000000000E+00  0.00000000000E+00  0.31310647342E+03  0.13440308969E+04  0.13070514099E+04 0.  0.
        1    1    3    3  502    0 -0.13046575476E+03  0.50398002167E+03  0.56279854899E+03  0.76665466944E+03  0.50400001928E-02 0. -1.
       -1    1    3    3    0  502  0.13046575476E+03 -0.50398002167E+03 -0.24969207557E+03  0.57737622746E+03  0.50400001928E-02 0.  1.
</event>
<event>
 5   0  0.1623890E-03  0.1288720E+04  0.7818609E-02  0.9038558E-01
       -2   -1    0    0    0  501  0.00000000000E+00  0.00000000000E+00  0.34654753287E+03  0.34654753288E+03  0.25500000920E-02 0. -1.
        2   -1    0    0  501    0  0.00000000000E+00  0.00000000000E+00 -0.11981042335E+04  0.11981042335E+04  0.25500000920E-02 0.  1.
    10030    2    1    2    0    0  0.00000000000E+00  0.00000000000E+00 -0.85155670059E+03  0.15446517663E+04  0.12887203983E+04 0.  0.
        3    1    3    3  502    0 -0.39835923304E+03 -0.43688298764E+03 -0.11868751021E+03  0.60302865497E+03  0.10100000352E+00 0. -1.
       -3    1    3    3    0  502  0.39835923304E+03  0.43688298764E+03 -0.73286919038E+03  0.94162311136E+03  0.10100000352E+00 0.  1.
</event>
<event>
 5   0  0.9110949E-04  0.1289139E+04  0.7818609E-02  0.9038223E-01
        1   -1    0    0  501    0  0.00000000000E+00  0.00000000000E+00  0.76270887977E+03  0.76270887978E+03  0.50400001928E-02 0. -1.
       -1   -1    0    0    0  501  0.00000000000E+00  0.00000000000E+00 -0.54472900615E+03  0.54472900617E+03  0.50400001928E-02 0.  1.
    10030    2    1    2    0    0  0.00000000000E+00  0.00000000000E+00  0.21797987362E+03  0.13074378860E+04  0.12891387048E+04 0.  0.
        2    1    3    3  502    0  0.41721002001E+03  0.28385759386E+03  0.51571915779E+03  0.72153002994E+03  0.25500000920E-02 0. -1.
       -2    1    3    3    0  502 -0.41721002001E+03 -0.28385759386E+03 -0.29773928417E+03  0.58590785601E+03  0.25500000920E-02 0.  1.
</event>
<event>
 5   0  0.9215829E-04  0.1285635E+04  0.7818609E-02  0.9041035E-01
        1   -1    0    0  501    0  0.00000000000E+00  0.00000000000E+00  0.85758483222E+03  0.85758483223E+03  0.50400001928E-02 0. -1.
       -1   -1    0    0    0  501  0.00000000000E+00  0.00000000000E+00 -0.48183472914E+03  0.48183472917E+03  0.50400001928E-02 0.  1.
    10030    2    1    2    0    0  0.00000000000E+00  0.00000000000E+00  0.37575010307E+03  0.13394195614E+04  0.12856347154E+04 0.  0.
        3    1    3    3  502    0 -0.20677077365E+02  0.31682259493E+03  0.77019483163E+03  0.83306913702E+03  0.10100000352E+00 0. -1.
       -3    1    3    3    0  502  0.20677077365E+02 -0.31682259493E+03 -0.39444472855E+03  0.50635042438E+03  0.10100000352E+00 0.  1.
</event>
<event>
 5   0  0.9027076E-04  0.1262326E+04  0.7818609E-02  0.9059986E-01
       -1   -1    0    0    0  501  0.00000000000E+00  0.00000000000E+00  0.36399411007E+03  0.36399411011E+03  0.50400001928E-02 0.  1.
        1   -1    0    0  501    0  0.00000000000E+00  0.00000000000E+00 -0.10944320694E+04  0.10944320694E+04  0.50400001928E-02 0. -1.
    10030    2    1    2    0    0  0.00000000000E+00  0.00000000000E+00 -0.73043795935E+03  0.14584261795E+04  0.12623261499E+04 0.  0.
        5    1    3    3  502    0  0.25647837173E+03  0.28749883166E+03 -0.94278675630E+03  0.10184820525E+04  0.46999998093E+01 0. -1.
       -5    1    3    3    0  502 -0.25647837173E+03 -0.28749883166E+03  0.21234879695E+03  0.43994412706E+03  0.46999998093E+01 0.  1.
</event>
<event>
 5   0  0.9110949E-04  0.1287136E+04  0.7818609E-02  0.9039829E-01
        1   -1    0    0  501    0  0.00000000000E+00  0.00000000000E+00  0.10657354267E+04  0.10657354267E+04  0.50400001928E-02 0. -1.
       -1   -1    0    0    0  501  0.00000000000E+00  0.00000000000E+00 -0.38863275991E+03  0.38863275995E+03  0.50400001928E-02 0.  1.
    10030    2    1    2    0    0  0.00000000000E+00  0.00000000000E+00  0.67710266674E+03  0.14543681866E+04  0.12871358906E+04 0.  0.
        2    1    3    3  502    0 -0.32559752583E+03  0.40887358376E+03 -0.85717930273E+02  0.52965924886E+03  0.25500000920E-02 0.  1.
       -2    1    3    3    0  502  0.32559752583E+03 -0.40887358376E+03  0.76282059702E+03  0.92470893776E+03  0.25500000920E-02 0. -1.
</event>
<event>
 5   0  0.1694675E-03  0.1274281E+04  0.7818609E-02  0.9050213E-01
       -2   -1    0    0    0  501  0.00000000000E+00  0.00000000000E+00  0.33690772581E+03  0.33690772582E+03  0.25500000920E-02 0.  1.
        2   -1    0    0  501    0  0.00000000000E+00  0.00000000000E+00 -0.12049236904E+04  0.12049236904E+04  0.25500000920E-02 0. -1.
    10030    2    1    2    0    0  0.00000000000E+00  0.00000000000E+00 -0.86801596456E+03  0.15418314162E+04  0.12742811312E+04 0.  0.
        4    1    3    3  502    0  0.26672110722E+02 -0.39585266483E+03 -0.10372145690E+04  0.11105072754E+04  0.12699999809E+01 0. -1.
       -4    1    3    3    0  502 -0.26672110722E+02  0.39585266483E+03  0.16919860445E+03  0.43132414075E+03  0.12699999809E+01 0.  1.
</event>
<event>
 5   0  0.9081324E-04  0.1297882E+04  0.7818609E-02  0.9031247E-01
        1   -1    0    0  501    0  0.00000000000E+00  0.00000000000E+00  0.77146482790E+03  0.77146482792E+03  0.50400001928E-02 0.  1.
       -1   -1    0    0    0  501  0.00000000000E+00  0.00000000000E+00 -0.54587627614E+03  0.54587627617E+03  0.50400001928E-02 0. -1.
    10030    2    1    2    0    0  0.00000000000E+00  0.00000000000E+00  0.22558855176E+03  0.13173411041E+04  0.12978818859E+04 0.  0.
        4    1    3    3  502    0 -0.21988617440E+03  0.50534914347E+03  0.46056094908E+03  0.71822398123E+03  0.12699999809E+01 0.  1.
       -4    1    3    3    0  502  0.21988617440E+03 -0.50534914347E+03 -0.23497239733E+03  0.59911712286E+03  0.12699999809E+01 0. -1.
</event>
<event>
 5   0  0.9027076E-04  0.1273634E+04  0.7818609E-02  0.9050739E-01
        1   -1    0    0  501    0  0.00000000000E+00  0.00000000000E+00  0.11652907426E+04  0.11652907426E+04  0.50400001928E-02 0. -1.
       -1   -1    0    0    0  501  0.00000000000E+00  0.00000000000E+00 -0.34801266957E+03  0.34801266961E+03  0.50400001928E-02 0.  1.
    10030    2    1    2    0    0  0.00000000000E+00  0.00000000000E+00  0.81727807299E+03  0.15133034122E+04  0.12736340796E+04 0.  0.
        5    1    3    3  502    0  0.43845670265E+03 -0.20158828864E+03 -0.85036556358E+02  0.49003614574E+03  0.46999998093E+01 0.  1.
       -5    1    3    3    0  502 -0.43845670265E+03  0.20158828864E+03  0.90231462935E+03  0.10232672664E+04  0.46999998093E+01 0. -1.
</event>
<event>
 5   0  0.6284125E-04  0.1287217E+04  0.7818609E-02  0.9039764E-01
       -4   -1    0    0    0  501  0.00000000000E+00  0.00000000000E+00  0.15234592500E+04  0.15234597794E+04  0.12699999809E+01 0. -1.
        4   -1    0    0  501    0  0.00000000000E+00  0.00000000000E+00 -0.27190004106E+03  0.27190300703E+03  0.12699999809E+01 0.  1.
    10030    2    1    2    0    0  0.00000000000E+00  0.00000000000E+00  0.12515592090E+04  0.17953627864E+04  0.12872167965E+04 0.  0.
        5    1    3    3  502    0 -0.17402393445E+03  0.61834227282E+03  0.68118848404E+03  0.93630728764E+03  0.46999998093E+01 0. -1.
       -5    1    3    3    0  502  0.17402393445E+03 -0.61834227282E+03  0.57037072494E+03  0.85905549878E+03  0.46999998093E+01 0.  1.
</event>
<event>
 5   0  0.1714861E-03  0.1302119E+04  0.7818609E-02  0.9027887E-01
        2   -1    0    0  501    0  0.00000000000E+00  0.00000000000E+00  0.57302708331E+03  0.57302708331E+03  0.25500000920E-02 0. -1.
       -2   -1    0    0    0  501  0.00000000000E+00  0.00000000000E+00 -0.73971761601E+03  0.73971761601E+03  0.25500000920E-02 0.  1.
    10030    2    1    2    0    0  0.00000000000E+00  0.00000000000E+00 -0.16669053270E+03  0.13127446993E+04  0.13021186244E+04 0.  0.
        1    1    3    3  502    0  0.44426227276E+03 -0.13629357399E+03  0.37637300959E+03  0.59799794956E+03  0.50400001928E-02 0. -1.
       -1    1    3    3    0  502 -0.44426227276E+03  0.13629357399E+03 -0.54306354229E+03  0.71474674976E+03  0.50400001928E-02 0.  1.
</event>
<event>
 5   0  0.1623890E-03  0.1298183E+04  0.7818609E-02  0.9031007E-01
       -2   -1    0    0    0  501  0.00000000000E+00  0.00000000000E+00  0.31641945134E+03  0.31641945135E+03  0.25500000920E-02 0. -1.
        2   -1    0    0  501    0  0.00000000000E+00  0.00000000000E+00 -0.13315231320E+04  0.13315231320E+04  0.25500000920E-02 0.  1.
    10030    2    1    2    0    0  0.00000000000E+00  0.00000000000E+00 -0.10151036806E+04  0.16479425833E+04  0.12981830670E+04 0.  0.
        3    1    3    3  502    0 -0.62701963431E+03 -0.49741452158E+02 -0.30407973449E+03  0.69863604903E+03  0.10100000352E+00 0. -1.
       -3    1    3    3    0  502  0.62701963431E+03  0.49741452158E+02 -0.71102394613E+03  0.94930653428E+03  0.10100000352E+00 0.  1.
</event>
<event>
 5   0  0.1623890E-03  0.1321777E+04  0.7818609E-02  0.9012472E-01
        2   -1    0    0  501    0  0.00000000000E+00  0.00000000000E+00  0.14506026089E+04  0.14506026089E+04  0.25500000920E-02 0.  1.
       -2   -1    0    0    0  501  0.00000000000E+00  0.00000000000E+00 -0.30109816371E+03  0.30109816372E+03  0.25500000920E-02 0. -1.
    10030    2    1    2    0    0  0.00000000000E+00  0.00000000000E+00  0.11495044452E+04  0.17517007726E+04  0.13217772609E+04 0.  0.
        3    1    3    3  502    0 -0.48855065412E+03  0.36229603133E+02 -0.13131603340E+02  0.49006813301E+03  0.10100000352E+00 0. -1.
       -3    1    3    3    0  502  0.48855065412E+03 -0.36229603133E+02  0.11626360486E+04  0.12616326396E+04  0.10100000352E+00 0.  1.
</event>
<event>
 5   0  0.9081324E-04  0.1321196E+04  0.7818609E-02  0.9012923E-01
        1   -1    0    0  501    0  0.00000000000E+00  0.00000000000E+00  0.12188703233E+04  0.12188703233E+04  0.50400001928E-02 0. -1.
       -1   -1    0    0    0  501  0.00000000000E+00  0.00000000000E+00 -0.35802819870E+03  0.35802819874E+03  0.50400001928E-02 0.  1.
    10030    2    1    2    0    0  0.00000000000E+00  0.00000000000E+00  0.86084212459E+03  0.15768985220E+04  0.13211963462E+04 0.  0.
        4    1    3    3  502    0  0.57210890748E+03  0.26872796867E+03  0.20125855686E+03  0.66334752790E+03  0.12699999809E+01 0. -1.
       -4    1    3    3    0  502 -0.57210890748E+03 -0.26872796867E+03  0.65958356772E+03  0.91355099413E+03  0.12699999809E+01 0.  1.
</event>
<event>
 5   0  0.1714861E-03  0.1290904E+04  0.7818609E-02  0.9036809E-01
       -2   -1    0    0    0  501  0.00000000000E+00  0.00000000000E+00  0.12079083318E+04  0.12079083318E+04  0.25500000920E-02 0.  1.
        2   -1    0    0  501    0  0.00000000000E+00  0.00000000000E+00 -0.34490075841E+03  0.34490075842E+03  0.25500000920E-02 0. -1.
    10030    2    1    2    0    0  0.00000000000E+00  0.00000000000E+00  0.86300757341E+03  0.15528090902E+04  0.12909043338E+04 0.  0.
        1    1    3    3  502    0 -0.51254879480E+03 -0.19131743375E+03  0.84348060145E+03  0.10053696597E+04  0.50400001928E-02 0.  1.
       -1    1    3    3    0  502  0.51254879480E+03  0.19131743375E+03  0.19526971962E+02  0.54743943059E+03  0.50400001928E-02 0. -1.
</event>
<event>
 5   0  0.9110949E-04  0.1339359E+04  0.7818609E-02  0.8998922E-01
       -1   -1    0    0    0  501  0.00000000000E+00  0.00000000000E+00  0.28087982290E+03  0.28087982295E+03  0.50400001928E-02 0. -1.
        1   -1    0    0  501    0  0.00000000000E+00  0.00000000000E+00 -0.15966648655E+04  0.15966648655E+04  0.50400001928E-02 0.  1.
    10030    2    1    2    0    0  0.00000000000E+00  0.00000000000E+00 -0.13157850426E+04  0.18775446885E+04  0.13393594659E+04 0.  0.
        2    1    3    3  502    0 -0.50493631137E+03 -0.43770815962E+03 -0.71934663689E+03  0.98183944489E+03  0.25500000920E-02 0.  1.
       -2    1    3    3    0  502  0.50493631137E+03  0.43770815962E+03 -0.59643840571E+03  0.89570524356E+03  0.25500000920E-02 0. -1.
</event>
<event>
 5   0  0.9098192E-04  0.1281396E+04  0.7818609E-02  0.9044450E-01
        1   -1    0    0  501    0  0.00000000000E+00  0.00000000000E+00  0.59955511753E+03  0.59955511755E+03  0.50400001928E-02 0. -1.
       -1   -1    0    0    0  501  0.00000000000E+00  0.00000000000E+00 -0.68466404283E+03  0.68466404285E+03  0.50400001928E-02 0.  1.
    10030    2    1    2    0    0  0.00000000000E+00  0.00000000000E+00 -0.85108925306E+02  0.12842191604E+04  0.12813958494E+04 0.  0.
        1    1    3    3  502    0  0.25043146561E+03 -0.87448733594E+01 -0.63351581018E+03  0.68127430125E+03  0.50400001928E-02 0.  1.
       -1    1    3    3    0  502 -0.25043146561E+03  0.87448733594E+01  0.54840688487E+03  0.60294485915E+03  0.50400001928E-02 0. -1.
</event>
<event>
 5   0  0.9027076E-04  0.1301186E+04  0.7818609E-02  0.9028625E-01
        1   -1    0    0  501    0  0.00000000000E+00  0.00000000000E+00  0.80332230275E+03  0.80332230276E+03  0.50400001928E-02 0.  1.
       -1   -1    0    0    0  501  0.00000000000E+00  0.00000000000E+00 -0.52690060516E+03  0.52690060519E+03  0.50400001928E-02 0. -1.
    10030    2    1    2    0    0  0.00000000000E+00  0.00000000000E+00  0.27642169758E+03  0.13302229079E+04  0.13011856247E+04 0.  0.
        5    1    3    3  502    0 -0.25813948104E+03 -0.27500014043E+03  0.68012305777E+03  0.77772137209E+03  0.46999998093E+01 0.  1.
       -5    1    3    3    0  502  0.25813948104E+03  0.27500014043E+03 -0.40370136018E+03  0.55250153585E+03  0.46999998093E+01 0. -1.
</event>
<event>
 5   0  0.1700511E-03  0.1295034E+04  0.7818609E-02  0.9033513E-01
       -2   -1    0    0    0  501  0.00000000000E+00  0.00000000000E+00  0.45192118621E+03  0.45192118621E+03  0.25500000920E-02 0.  1.
        2   -1    0    0  501    0  0.00000000000E+00  0.00000000000E+00 -0.92776822250E+03  0.92776822250E+03  0.25500000920E-02 0. -1.
    10030    2    1    2    0    0  0.00000000000E+00  0.00000000000E+00 -0.47584703629E+03  0.13796894087E+04  0.12950337689E+04 0.  0.
        2    1    3    3  502    0 -0.86056808849E+02  0.56774550939E+03 -0.55671185440E+03  0.79979298986E+03  0.25500000920E-02 0. -1.
       -2    1    3    3    0  502  0.86056808849E+02 -0.56774550939E+03  0.80864818111E+02  0.57989641886E+03  0.25500000920E-02 0.  1.
</event>
<event>
 5   0  0.1714861E-03  0.1283860E+04  0.7818609E-02  0.9042463E-01
        2   -1    0    0  501    0  0.00000000000E+00  0.00000000000E+00  0.12751483284E+04  0.12751483284E+04  0.25500000920E-02 0. -1.
       -2   -1    0    0    0  501  0.00000000000E+00  0.00000000000E+00 -0.32315790976E+03  0.32315790977E+03  0.25500000920E-02 0.  1.
    10030    2    1    2    0    0  0.00000000000E+00  0.00000000000E+00  0.95199041860E+03  0.15983062381E+04  0.12838602236E+04 0.  0.
        1    1    3    3  502    0 -0.57358863637E+03 -0.73934532028E+02  0.82279944014E+03  0.10057182297E+04  0.50400001928E-02 0.  1.
       -1    1    3    3    0  502  0.57358863637E+03  0.73934532028E+02  0.12919097845E+03  0.59258800843E+03  0.50400001928E-02 0. -1.
</event>
<event>
 5   0  0.1667342E-03  0.1287936E+04  0.7818609E-02  0.9039187E-01
       -2   -1    0    0    0  501  0.00000000000E+00  0.00000000000E+00  0.81205379740E+03  0.81205379740E+03  0.25500000920E-02 0. -1.
        2   -1    0    0  501    0  0.00000000000E+00  0.00000000000E+00 -0.51067396874E+03  0.51067396874E+03  0.25500000920E-02 0.  1.
    10030    2    1    2    0    0  0.00000000000E+00  0.00000000000E+00  0.30137982866E+03  0.13227277661E+04  0.12879359232E+04 0.  0.
        5    1    3    3  502    0 -0.12212470240E+02  0.64366675458E+03  0.16580517506E+03  0.66480785303E+03  0.46999998093E+01 0. -1.
       -5    1    3    3    0  502  0.12212470240E+02 -0.64366675458E+03  0.13557465360E+03  0.65791991311E+03  0.46999998093E+01 0.  1.
</event>
<event>
 5   0  0.6284125E-04  0.1298508E+04  0.7818609E-02  0.9030749E-01
       -3   -1    0    0    0  501  0.00000000000E+00  0.00000000000E+00  0.10383448836E+04  0.10383448885E+04  0.10100000352E+00 0.  1.
        3   -1    0    0  501    0  0.00000000000E+00  0.00000000000E+00 -0.40596439161E+03  0.40596440417E+03  0.10100000352E+00 0. -1.
    10030    2    1    2    0    0  0.00000000000E+00  0.00000000000E+00  0.63238049197E+03  0.14443092927E+04  0.12985084698E+04 0.  0.
        4    1    3    3  502    0 -0.31361825471E+03 -0.39294690969E+03 -0.14074808925E+03  0.52208746494E+03  0.12699999809E+01 0. -1.
       -4    1    3    3    0  502  0.31361825471E+03  0.39294690969E+03  0.77312858122E+03  0.92222182772E+03  0.12699999809E+01 0.  1.
</event>
<event>
 5   0  0.6284125E-04  0.1294808E+04  0.7818609E-02  0.9033693E-01
        4   -1    0    0  501    0  0.00000000000E+00  0.00000000000E+00  0.70331039367E+03  0.70331154032E+03  0.12699999809E+01 0.  1.
       -4   -1    0    0    0  501  0.00000000000E+00  0.00000000000E+00 -0.59593943532E+03  0.59594078856E+03  0.12699999809E+01 0. -1.
    10030    2    1    2    0    0  0.00000000000E+00  0.00000000000E+00  0.10737095835E+03  0.12992523289E+04  0.12948081292E+04 0.  0.
        5    1    3    3  502    0  0.13146364353E+03 -0.52765394513E+03  0.40618678042E+03  0.67875707434E+03  0.46999998093E+01 0.  1.
       -5    1    3    3    0  502 -0.13146364353E+03  0.52765394513E+03 -0.29881582208E+03  0.62049525453E+03  0.46999998093E+01 0. -1.
</event>
<event>
 5   0  0.1694675E-03  0.1254972E+04  0.7818609E-02  0.9066055E-01
        2   -1    0    0  501    0  0.00000000000E+00  0.00000000000E+00  0.18371128563E+04  0.18371128563E+04  0.25500000920E-02 0. -1.
       -2   -1    0    0    0  501  0.00000000000E+00  0.00000000000E+00 -0.21432479714E+03  0.21432479715E+03  0.25500000920E-02 0.  1.
    10030    2    1    2    0    0  0.00000000000E+00  0.00000000000E+00  0.16227880592E+04  0.20514376535E+04  0.12549722551E+04 0.  0.
        4    1    3    3  502    0  0.60569705798E+03 -0.38521754636E+02  0.10718338827E+04  0.12317395571E+04  0.12699999809E+01 0. -1.
       -4    1    3    3    0  502 -0.60569705798E+03  0.38521754636E+02  0.55095417648E+03  0.81969809632E+03  0.12699999809E+01 0.  1.
</event>
<event>
 5   0  0.1714861E-03  0.1300369E+04  0.7818609E-02  0.9029273E-01
       -2   -1    0    0    0  501  0.00000000000E+00  0.00000000000E+00  0.51903255299E+03  0.51903255300E+03  0.25500000920E-02 0. -1.
        2   -1    0    0  501    0  0.00000000000E+00  0.00000000000E+00 -0.81447641978E+03  0.81447641978E+03  0.25500000920E-02 0.  1.
    10030    2    1    2    0    0  0.00000000000E+00  0.00000000000E+00 -0.29544386679E+03  0.13335089728E+04  0.13003688331E+04 0.  0.
        1    1    3    3  502    0  0.19747616095E+03 -0.59925511070E+03  0.13237607160E+02  0.63109330223E+03  0.50400001928E-02 0.  1.
       -1    1    3    3    0  502 -0.19747616095E+03  0.59925511070E+03 -0.30868147395E+03  0.70241567055E+03  0.50400001928E-02 0. -1.
</event>
<event>
 5   0  0.9098192E-04  0.1298956E+04  0.7818609E-02  0.9030393E-01
        1   -1    0    0  501    0  0.00000000000E+00  0.00000000000E+00  0.63974643228E+03  0.63974643230E+03  0.50400001928E-02 0.  1.
       -1   -1    0    0    0  501  0.00000000000E+00  0.00000000000E+00 -0.65935761607E+03  0.65935761609E+03  0.50400001928E-02 0. -1.
    10030    2    1    2    0    0  0.00000000000E+00  0.00000000000E+00 -0.19611183785E+02  0.12991040484E+04  0.12989560154E+04 0.  0.
        1    1    3    3  502    0 -0.39143254802E+02  0.82590966892E+02 -0.65289381743E+03  0.65926003904E+03  0.50400001928E-02 0. -1.
       -1    1    3    3    0  502  0.39143254802E+02 -0.82590966892E+02  0.63328263364E+03  0.63984400936E+03  0.50400001928E-02 0.  1.
</event>
<event>
 5   0  0.9027076E-04  0.1269791E+04  0.7818609E-02  0.9053871E-01
        1   -1    0    0  501    0  0.00000000000E+00  0.00000000000E+00  0.48266975692E+03  0.48266975695E+03  0.50400001928E-02 0.  1.
       -1   -1    0    0    0  501  0.00000000000E+00  0.00000000000E+00 -0.83513000209E+03  0.83513000211E+03  0.50400001928E-02 0. -1.
    10030    2    1    2    0    0  0.00000000000E+00  0.00000000000E+00 -0.35246024517E+03  0.13177997591E+04  0.12697905262E+04 0.  0.
        5    1    3    3  502    0  0.54773906284E+01  0.57553415516E+03 -0.45431706074E+03  0.73327733310E+03  0.46999998093E+01 0. -1.
       -5    1    3    3    0  502 -0.54773906284E+01 -0.57553415516E+03  0.10185681557E+03  0.58452242595E+03  0.46999998093E+01 0.  1.
</event>
<event>
 5   0  0.1667342E-03  0.1295327E+04  0.7818609E-02  0.9033279E-01
       -2   -1    0    0    0  501  0.00000000000E+00  0.00000000000E+00  0.18563544363E+03  0.18563544364E+03  0.25500000920E-02 0.  1.
        2   -1    0    0  501    0  0.00000000000E+00  0.00000000000E+00 -0.22596325937E+04  0.22596325937E+04  0.25500000920E-02 0. -1.
    10030    2    1    2    0    0  0.00000000000E+00  0.00000000000E+00 -0.20739971501E+04  0.24452680373E+04  0.12953268298E+04 0.  0.
        5    1    3    3  502    0  0.17309275059E+03 -0.62362560595E+03 -0.10822974668E+04  0.12610550715E+04  0.46999998093E+01 0. -1.
       -5    1    3    3    0  502 -0.17309275059E+03  0.62362560595E+03 -0.99169968329E+03  0.11842129659E+04  0.46999998093E+01 0.  1.
</event>
<event>
 5   0  0.1667342E-03  0.1303072E+04  0.7818609E-02  0.9027132E-01
       -2   -1    0    0    0  501  0.00000000000E+00  0.00000000000E+00  0.41305519962E+03  0.41305519962E+03  0.25500000920E-02 0. -1.
        2   -1    0    0  501    0  0.00000000000E+00  0.00000000000E+00 -0.10277062364E+04  0.10277062364E+04  0.25500000920E-02 0.  1.
    10030    2    1    2    0    0  0.00000000000E+00  0.00000000000E+00 -0.61465103682E+03  0.14407614361E+04  0.13030723766E+04 0.  0.
        5    1    3    3  502    0 -0.80578618727E+02  0.63972266454E+03 -0.20396321188E+03  0.67628476482E+03  0.46999998093E+01 0. -1.
       -5    1    3    3    0  502  0.80578618727E+02 -0.63972266454E+03 -0.41068782495E+03  0.76447667125E+03  0.46999998093E+01 0.  1.
</event>
<event>
 5   0  0.1667342E-03  0.1281612E+04  0.7818609E-02  0.9044275E-01
        2   -1    0    0  501    0  0.00000000000E+00  0.00000000000E+00  0.38516793531E+03  0.38516793532E+03  0.25500000920E-02 0. -1.
       -2   -1    0    0    0  501  0.00000000000E+00  0.00000000000E+00 -0.10661126455E+04  0.10661126455E+04  0.25500000920E-02 0.  1.
    10030    2    1    2    0    0  0.00000000000E+00  0.00000000000E+00 -0.68094471022E+03  0.14512805809E+04  0.12816121199E+04 0.  0.
        5    1    3    3  502    0  0.30279567632E+03  0.27972318008E+03 -0.89601168871E+03  0.98630082398E+03  0.46999998093E+01 0.  1.
       -5    1    3    3    0  502 -0.30279567632E+03 -0.27972318008E+03  0.21506697849E+03  0.46497975688E+03  0.46999998093E+01 0. -1.
</event>
<event>
 5   0  0.1694675E-03  0.1318422E+04  0.7818609E-02  0.9015082E-01
       -2   -1    0    0    0  501  0.00000000000E+00  0.00000000000E+00  0.45109088044E+03  0.45109088044E+03  0.25500000920E-02 0. -1.
        2   -1    0    0  501    0  0.00000000000E+00  0.00000000000E+00 -0.96335236943E+03  0.96335236943E+03  0.25500000920E-02 0.  1.
    10030    2    1    2    0    0  0.00000000000E+00  0.00000000000E+00 -0.51226148899E+03  0.14144432499E+04  0.13184224945E+04 0.  0.
        4    1    3    3  502    0 -0.16326323629E+03 -0.43185579339E+03  0.24867374465E+03  0.52439923225E+03  0.12699999809E+01 0. -1.
       -4    1    3    3    0  502  0.16326323629E+03  0.43185579339E+03 -0.76093523364E+03  0.89004401762E+03  0.12699999809E+01 0.  1.
</event>
<event>
 5   0  0.1694675E-03  0.1251758E+04  0.7818609E-02  0.9068721E-01
        2   -1    0    0  501    0  0.00000000000E+00  0.00000000000E+00  0.41844906807E+03  0.41844906808E+03  0.25500000920E-02 0.  1.
       -2   -1    0    0    0  501  0.00000000000E+00  0.00000000000E+00 -0.93613443340E+03  0.93613443341E+03  0.25500000920E-02 0. -1.
    10030    2    1    2    0    0  0.00000000000E+00  0.00000000000E+00 -0.51768536533E+03  0.13545835015E+04  0.12517580937E+04 0.  0.
        4    1    3    3  502    0 -0.31209497852E+02  0.59161103140E+03 -0.40406661780E+02  0.59381138120E+03  0.12699999809E+01 0.  1.
       -4    1    3    3    0  502  0.31209497852E+02 -0.59161103140E+03 -0.47727870355E+03  0.76077212028E+03  0.12699999809E+01 0. -1.
</event>
<event>
 5   0  0.9027076E-04  0.1361934E+04  0.7818609E-02  0.8981843E-01
        1   -1    0    0  501    0  0.00000000000E+00  0.00000000000E+00  0.61148717266E+03  0.61148717269E+03  0.50400001928E-02 0.  1.
       -1   -1    0    0    0  501  0.00000000000E+00  0.00000000000E+00 -0.75834137572E+03  0.75834137574E+03  0.50400001928E-02 0. -1.
    10030    2    1    2    0    0  0.00000000000E+00  0.00000000000E+00 -0.14685420306E+03  0.13698285484E+04  0.13619339540E+04 0.  0.
        5    1    3    3  502    0 -0.18437818132E+03  0.64800373486E+03 -0.17294395222E+03  0.69558310413E+03  0.46999998093E+01 0. -1.
       -5    1    3    3    0  502  0.18437818132E+03 -0.64800373486E+03  0.26089749158E+02  0.67424544430E+03  0.46999998093E+01 0.  1.
</event>
<event>
 5   0  0.1623890E-03  0.1296063E+04  0.7818609E-02  0.9032693E-01
        2   -1    0    0  501    0  0.00000000000E+00  0.00000000000E+00  0.92683210783E+03  0.92683210783E+03  0.25500000920E-02 0. -1.
       -2   -1    0    0    0  501  0.00000000000E+00  0.00000000000E+00 -0.45309697237E+03  0.45309697238E+03  0.25500000920E-02 0.  1.
    10030    2    1    2    0    0  0.00000000000E+00  0.00000000000E+00  0.47373513546E+03  0.13799290802E+04  0.12960629953E+04 0.  0.
        3    1    3    3  502    0 -0.22409674842E+03  0.60475005339E+03  0.30422946948E+03  0.71309014859E+03  0.10100000352E+00 0. -1.
       -3    1    3    3    0  502  0.22409674842E+03 -0.60475005339E+03  0.16950566598E+03  0.66683893162E+03  0.10100000352E+00 0.  1.
</event>
<event>
 5   0  0.1700511E-03  0.1296977E+04  0.7818609E-02  0.9031966E-01
        2   -1    0    0  501    0  0.00000000000E+00  0.00000000000E+00  0.13184971884E+04  0.13184971884E+04  0.25500000920E-02 0.  1.
       -2   -1    0    0    0  501  0.00000000000E+00  0.00000000000E+00 -0.31895185338E+03  0.31895185339E+03  0.25500000920E-02 0. -1.
    10030    2    1    2    0    0  0.00000000000E+00  0.00000000000E+00  0.99954533500E+03  0.16374490418E+04  0.12969766720E+04 0.  0.
        2    1    3    3  502    0  0.26935802590E+03  0.39979025394E+03  0.10474049513E+04  0.11530147984E+04  0.25500000920E-02 0.  1.
       -2    1    3    3    0  502 -0.26935802590E+03 -0.39979025394E+03 -0.47859616323E+02  0.48443424337E+03  0.25500000920E-02 0. -1.
</event>
<event>
 5   0  0.9215829E-04  0.1316449E+04  0.7818609E-02  0.9016621E-01
        1   -1    0    0  501    0  0.00000000000E+00  0.00000000000E+00  0.16441991451E+04  0.16441991451E+04  0.50400001928E-02 0. -1.
       -1   -1    0    0    0  501  0.00000000000E+00  0.00000000000E+00 -0.26350807786E+03  0.26350807791E+03  0.50400001928E-02 0.  1.
    10030    2    1    2    0    0  0.00000000000E+00  0.00000000000E+00  0.13806910672E+04  0.19077072230E+04  0.13164494011E+04 0.  0.
        3    1    3    3  502    0  0.50235237793E+03 -0.31576935519E+03  0.27742834088E+03  0.65500739829E+03  0.10100000352E+00 0.  1.
       -3    1    3    3    0  502 -0.50235237793E+03  0.31576935519E+03  0.11032627263E+04  0.12526998247E+04  0.10100000352E+00 0. -1.
</event>
<event>
 5   0  0.1667342E-03  0.1307044E+04  0.7818609E-02  0.9023998E-01
        2   -1    0    0  501    0  0.00000000000E+00  0.00000000000E+00  0.15179113510E+04  0.15179113510E+04  0.25500000920E-02 0. -1.
       -2   -1    0    0    0  501  0.00000000000E+00  0.00000000000E+00 -0.28136754743E+03  0.28136754744E+03  0.25500000920E-02 0.  1.
    10030    2    1    2    0    0  0.00000000000E+00  0.00000000000E+00  0.12365438036E+04  0.17992788984E+04  0.13070439840E+04 0.  0.
        5    1    3    3  502    0  0.18569845604E+03 -0.12782517311E+03  0.14626638124E+04  0.14799428061E+04  0.46999998093E+01 0. -1.
       -5    1    3    3    0  502 -0.18569845604E+03  0.12782517311E+03 -0.22612000881E+03  0.31933609229E+03  0.46999998093E+01 0.  1.
</event>
<event>
 5   0  0.1700511E-03  0.1262229E+04  0.7818609E-02  0.9060066E-01
       -2   -1    0    0    0  501  0.00000000000E+00  0.00000000000E+00  0.59408692785E+03  0.59408692786E+03  0.25500000920E-02 0.  1.
        2   -1    0    0  501    0  0.00000000000E+00  0.00000000000E+00 -0.67044956611E+03  0.67044956612E+03  0.25500000920E-02 0. -1.
    10030    2    1    2    0    0  0.00000000000E+00  0.00000000000E+00 -0.76362638259E+02  0.12645364940E+04  0.12622287004E+04 0.  0.
        2    1    3    3  502    0 -0.23948615861E+03  0.35723443994E+03  0.42454546115E+03  0.60432517227E+03  0.25500000920E-02 0.  1.
       -2    1    3    3    0  502  0.23948615861E+03 -0.35723443994E+03 -0.50090809941E+03  0.66021132170E+03  0.25500000920E-02 0. -1.
</event>
<event>
 5   0  0.9098192E-04  0.1297726E+04  0.7818609E-02  0.9031371E-01
        1   -1    0    0  501    0  0.00000000000E+00  0.00000000000E+00  0.10334261719E+04  0.10334261719E+04  0.50400001928E-02 0.  1.
       -1   -1    0    0    0  501  0.00000000000E+00  0.00000000000E+00 -0.40740510223E+03  0.40740510226E+03  0.50400001928E-02 0. -1.
    10030    2    1    2    0    0  0.00000000000E+00  0.00000000000E+00  0.62602106963E+03  0.14408312741E+04  0.12977258497E+04 0.  0.
        1    1    3    3  502    0  0.73130343469E+02  0.42583430822E+03  0.85047970770E+03  0.95393848776E+03  0.50400001928E-02 0.  1.
       -1    1    3    3    0  502 -0.73130343469E+02 -0.42583430822E+03 -0.22445863807E+03  0.48689278637E+03  0.50400001928E-02 0. -1.
</event>
<event>
 5   0  0.1667342E-03  0.1306337E+04  0.7818609E-02  0.9024555E-01
       -2   -1    0    0    0  501  0.00000000000E+00  0.00000000000E+00  0.54381314324E+03  0.54381314324E+03  0.25500000920E-02 0.  1.
        2   -1    0    0  501    0  0.00000000000E+00  0.00000000000E+00 -0.78451404000E+03  0.78451404000E+03  0.25500000920E-02 0. -1.
    10030    2    1    2    0    0  0.00000000000E+00  0.00000000000E+00 -0.24070089676E+03  0.13283271832E+04  0.13063369336E+04 0.  0.
        5    1    3    3  502    0 -0.18539308347E+03  0.62597177169E+03 -0.10012334041E+03  0.66049831767E+03  0.46999998093E+01 0.  1.
       -5    1    3    3    0  502  0.18539308347E+03 -0.62597177169E+03 -0.14057755635E+03  0.66782886558E+03  0.46999998093E+01 0. -1.
</event>
<event>
 5   0  0.6284125E-04  0.1306445E+04  0.7818609E-02  0.9024470E-01
       -4   -1    0    0    0  501  0.00000000000E+00  0.00000000000E+00  0.53347865711E+03  0.53348016879E+03  0.12699999809E+01 0. -1.
        4   -1    0    0  501    0  0.00000000000E+00  0.00000000000E+00 -0.79984064700E+03  0.79984165526E+03  0.12699999809E+01 0.  1.
    10030    2    1    2    0    0  0.00000000000E+00  0.00000000000E+00 -0.26636198989E+03  0.13333218240E+04  0.13064449383E+04 0.  0.
        4    1    3    3  502    0  0.26652797817E+03 -0.16308203277E+02  0.47523335516E+03  0.54511602012E+03  0.12699999809E+01 0. -1.
       -4    1    3    3    0  502 -0.26652797817E+03  0.16308203277E+02 -0.74159534505E+03  0.78820580392E+03  0.12699999809E+01 0.  1.
</event>
<event>
 5   0  0.1623890E-03  0.1327920E+04  0.7818609E-02  0.9007713E-01
        2   -1    0    0  501    0  0.00000000000E+00  0.00000000000E+00  0.11981775844E+04  0.11981775844E+04  0.25500000920E-02 0.  1.
       -2   -1    0    0    0  501  0.00000000000E+00  0.00000000000E+00 -0.36792788277E+03  0.36792788278E+03  0.25500000920E-02 0. -1.
    10030    2    1    2    0    0  0.00000000000E+00  0.00000000000E+00  0.83024970161E+03  0.15661054672E+04  0.13279200907E+04 0.  0.
        3    1    3    3  502    0  0.53925444403E+03 -0.11767392142E+03 -0.20124662868E+02  0.55231107127E+03  0.10100000352E+00 0. -1.
       -3    1    3    3    0  502 -0.53925444403E+03  0.11767392142E+03  0.85037436448E+03  0.10137943959E+04  0.10100000352E+00 0.  1.
</event>
<event>
 5   0  0.9110949E-04  0.1292093E+04  0.7818609E-02  0.9035859E-01
        1   -1    0    0  501    0  0.00000000000E+00  0.00000000000E+00  0.68596707014E+03  0.68596707015E+03  0.50400001928E-02 0.  1.
       -1   -1    0    0    0  501  0.00000000000E+00  0.00000000000E+00 -0.60844926486E+03  0.60844926488E+03  0.50400001928E-02 0. -1.
    10030    2    1    2    0    0  0.00000000000E+00  0.00000000000E+00  0.77517805278E+02  0.12944163350E+04  0.12920931229E+04 0.  0.
        2    1    3    3  502    0 -0.61276732479E+02  0.26776197418E+03 -0.54703588151E+03  0.61212708519E+03  0.25500000920E-02 0. -1.
       -2    1    3    3    0  502  0.61276732479E+02 -0.26776197418E+03  0.62455368679E+03  0.68228924984E+03  0.25500000920E-02 0.  1.
</event>
<event>
 5   0  0.9027076E-04  0.1338707E+04  0.7818609E-02  0.8999421E-01
       -1   -1    0    0    0  501  0.00000000000E+00  0.00000000000E+00  0.58924877699E+03  0.58924877701E+03  0.50400001928E-02 0. -1.
        1   -1    0    0  501    0  0.00000000000E+00  0.00000000000E+00 -0.76034775026E+03  0.76034775028E+03  0.50400001928E-02 0.  1.
    10030    2    1    2    0    0  0.00000000000E+00  0.00000000000E+00 -0.17109897328E+03  0.13495965273E+04  0.13387068117E+04 0.  0.
        5    1    3    3  502    0 -0.30482698127E+03  0.56724938611E+03 -0.26957349132E+03  0.69812843501E+03  0.46999998093E+01 0. -1.
       -5    1    3    3    0  502  0.30482698127E+03 -0.56724938611E+03  0.98474518040E+02  0.65146809228E+03  0.46999998093E+01 0.  1.
</event>
<event>
 5   0  0.1700511E-03  0.1274548E+04  0.7818609E-02  0.9049996E-01
       -2   -1    0    0    0  501  0.00000000000E+00  0.00000000000E+00  0.53036392658E+03  0.53036392658E+03  0.25500000920E-02 0.  1.
        2   -1    0    0  501    0  0.00000000000E+00  0.00000000000E+00 -0.76573522551E+03  0.76573522552E+03  0.25500000920E-02 0. -1.
    10030    2    1    2    0    0  0.00000000000E+00  0.00000000000E+00 -0.23537129894E+03  0.12960991521E+04  0.12745482979E+04 0.  0.
        2    1    3    3  502    0  0.36297166389E+02  0.50028270844E+02  0.52730865763E+03  0.53091876270E+03  0.25500000920E-02 0.  1.
       -2    1    3    3    0  502 -0.36297166389E+02 -0.50028270844E+02 -0.76267995657E+03  0.76518038940E+03  0.25500000920E-02 0. -1.
</event>
<event>
 5   0  0.1714861E-03  0.1305920E+04  0.7818609E-02  0.9024884E-01
       -2   -1    0    0    0  501  0.00000000000E+00  0.00000000000E+00  0.26212168659E+03  0.26212168661E+03  0.25500000920E-02 0. -1.
        2   -1    0    0  501    0  0.00000000000E+00  0.00000000000E+00 -0.16265604025E+04  0.16265604025E+04  0.25500000920E-02 0.  1.
    10030    2    1    2    0    0  0.00000000000E+00  0.00000000000E+00 -0.13644387159E+04  0.18886820891E+04  0.13059199915E+04 0.  0.
        1    1    3    3  502    0  0.55595158678E+03 -0.17056107285E+03 -0.11116924720E+04  0.12546048775E+04  0.50400001928E-02 0.  1.
       -1    1    3    3    0  502 -0.55595158678E+03  0.17056107285E+03 -0.25274624393E+03  0.63407721159E+03  0.50400001928E-02 0. -1.
</event>
<event>
 5   0  0.9110949E-04  0.1322473E+04  0.7818609E-02  0.9011931E-01
        1   -1    0    0  501    0  0.00000000000E+00  0.00000000000E+00  0.35383215341E+03  0.35383215345E+03  0.50400001928E-02 0.  1.
       -1   -1    0    0    0  501  0.00000000000E+00  0.00000000000E+00 -0.12357102570E+04  0.12357102570E+04  0.50400001928E-02 0. -1.
    10030    2    1    2    0    0  0.00000000000E+00  0.00000000000E+00 -0.88187810358E+03  0.15895424105E+04  0.13224734723E+04 0.  0.
        2    1    3    3  502    0 -0.50309742166E+03  0.38163742848E+02  0.72772580810E+02  0.50976399978E+03  0.25500000920E-02 0.  1.
       -2    1    3    3    0  502  0.50309742166E+03 -0.38163742848E+02 -0.95465068439E+03  0.10797784107E+04  0.25500000920E-02 0. -1.
</event>
<event>
 5   0  0.9215829E-04  0.1303824E+04  0.7818609E-02  0.9026538E-01
       -1   -1    0    0    0  501  0.00000000000E+00  0.00000000000E+00  0.37341592879E+03  0.37341592883E+03  0.50400001928E-02 0.  1.
        1   -1    0    0  501    0  0.00000000000E+00  0.00000000000E+00 -0.11381116179E+04  0.11381116179E+04  0.50400001928E-02 0. -1.
    10030    2    1    2    0    0  0.00000000000E+00  0.00000000000E+00 -0.76469568906E+03  0.15115275467E+04  0.13038236183E+04 0.  0.
        3    1    3    3  502    0  0.10508507672E+03 -0.62614750471E+03 -0.55385202934E+03  0.84252931796E+03  0.10100000352E+00 0. -1.
       -3    1    3    3    0  502 -0.10508507672E+03  0.62614750471E+03 -0.21084365971E+03  0.66899822873E+03  0.10100000352E+00 0.  1.
</event>
<event>
 5   0  0.1700511E-03  0.1300847E+04  0.7818609E-02  0.9028893E-01
        2   -1    0    0  501    0  0.00000000000E+00  0.00000000000E+00  0.13585274774E+04  0.13585274774E+04  0.25500000920E-02 0. -1.
       -2   -1    0    0    0  501  0.00000000000E+00  0.00000000000E+00 -0.31140409151E+03  0.31140409152E+03  0.25500000920E-02 0.  1.
    10030    2    1    2    0    0  0.00000000000E+00  0.00000000000E+00  0.10471233859E+04  0.16699315689E+04  0.13008474390E+04 0.  0.
        2    1    3    3  502    0  0.13937267379E+03 -0.13451971251E+03 -0.27351810681E+03  0.33516033478E+03  0.25500000920E-02 0.  1.
       -2    1    3    3    0  502 -0.13937267379E+03  0.13451971251E+03  0.13206414927E+04  0.13347712341E+04  0.25500000920E-02 0. -1.
</event>
<event>
 5   0  0.9098192E-04  0.1303961E+04  0.7818609E-02  0.9026430E-01
        1   -1    0    0  501    0  0.00000000000E+00  0.00000000000E+00  0.63414999061E+03  0.63414999063E+03  0.50400001928E-02 0. -1.
       -1   -1    0    0    0  501  0.00000000000E+00  0.00000000000E+00 -0.67031271747E+03  0.67031271749E+03  0.50400001928E-02 0.  1.
    10030    2    1    2    0    0  0.00000000000E+00  0.00000000000E+00 -0.36162726862E+02  0.13044627081E+04  0.13039613545E+04 0.  0.
        1    1    3    3  502    0 -0.37858759655E+03 -0.28446881304E+03 -0.46639173564E+03  0.66465955568E+03  0.50400001928E-02 0.  1.
       -1    1    3    3    0  502  0.37858759655E+03  0.28446881304E+03  0.43022900878E+03  0.63980315244E+03  0.50400001928E-02 0. -1.
</event>
<event>
 5   0  0.9098192E-04  0.1295766E+04  0.7818609E-02  0.9032929E-01
       -1   -1    0    0    0  501  0.00000000000E+00  0.00000000000E+00  0.12380744097E+04  0.12380744097E+04  0.50400001928E-02 0.  1.
        1   -1    0    0  501    0  0.00000000000E+00  0.00000000000E+00 -0.33903649978E+03  0.33903649981E+03  0.50400001928E-02 0. -1.
    10030    2    1    2    0    0  0.00000000000E+00  0.00000000000E+00  0.89903790995E+03  0.15771109095E+04  0.12957660504E+04 0.  0.
        1    1    3    3  502    0  0.12378874943E+03  0.11887999241E+03 -0.31086485268E+03  0.35509585148E+03  0.50400001928E-02 0. -1.
       -1    1    3    3    0  502 -0.12378874943E+03 -0.11887999241E+03  0.12099027626E+04  0.12220150581E+04  0.50400001928E-02 0.  1.
</event>
<event>
 5   0  0.9110949E-04  0.1227867E+04  0.7818609E-02  0.9088809E-01
        1   -1    0    0  501    0  0.00000000000E+00  0.00000000000E+00  0.16836207606E+04  0.16836207606E+04  0.50400001928E-02 0. -1.
       -1   -1    0    0    0  501  0.00000000000E+00  0.00000000000E+00 -0.22387114258E+03  0.22387114264E+03  0.50400001928E-02 0.  1.
    10030    2    1    2    0    0  0.00000000000E+00  0.00000000000E+00  0.14597496180E+04  0.19074919032E+04  0.12278666107E+04 0.  0.
        2    1    3    3  502    0  0.53363937421E+02  0.55726776944E+03  0.33834626362E+03  0.65412022655E+03  0.25500000920E-02 0.  1.
       -2    1    3    3    0  502 -0.53363937421E+02 -0.55726776944E+03  0.11214033544E+04  0.12533716767E+04  0.25500000920E-02 0. -1.
</event>
<event>
 5   0  0.1694675E-03  0.1274565E+04  0.7818609E-02  0.9049982E-01
        2   -1    0    0  501    0  0.00000000000E+00  0.00000000000E+00  0.56075953812E+03  0.56075953813E+03  0.25500000920E-02 0.  1.
       -2   -1    0    0    0  501  0.00000000000E+00  0.00000000000E+00 -0.72424765697E+03  0.72424765697E+03  0.25500000920E-02 0. -1.
    10030    2    1    2    0    0  0.00000000000E+00  0.00000000000E+00 -0.16348811885E+03  0.12850071951E+04  0.12745646812E+04 0.  0.
        4    1    3    3  502    0 -0.54513605659E+02  0.54340155429E+03  0.24938278777E+03  0.60037519114E+03  0.12699999809E+01 0.  1.
       -4    1    3    3    0  502  0.54513605659E+02 -0.54340155429E+03 -0.41287090662E+03  0.68463200396E+03  0.12699999809E+01 0. -1.
</event>
<event>
 5   0  0.6284125E-04  0.1300264E+04  0.7818609E-02  0.9029355E-01
        4   -1    0    0  501    0  0.00000000000E+00  0.00000000000E+00  0.97476621298E+03  0.97476704030E+03  0.12699999809E+01 0.  1.
       -4   -1    0    0    0  501  0.00000000000E+00  0.00000000000E+00 -0.43361166273E+03  0.43361352257E+03  0.12699999809E+01 0. -1.
    10030    2    1    2    0    0  0.00000000000E+00  0.00000000000E+00  0.54115455024E+03  0.14083805629E+04  0.13002644203E+04 0.  0.
        1    1    3    3  502    0  0.28316612507E+03  0.27073787406E+03  0.83255315481E+03  0.92012325612E+03  0.50400001928E-02 0.  1.
       -1    1    3    3    0  502 -0.28316612507E+03 -0.27073787406E+03 -0.29139860457E+03  0.48825730676E+03  0.50400001928E-02 0. -1.
</event>
<event>
 5   0  0.1694675E-03  0.1351603E+04  0.7818609E-02  0.8989616E-01
        2   -1    0    0  501    0  0.00000000000E+00  0.00000000000E+00  0.47518381618E+03  0.47518381618E+03  0.25500000920E-02 0.  1.
       -2   -1    0    0    0  501  0.00000000000E+00  0.00000000000E+00 -0.96111768663E+03  0.96111768664E+03  0.25500000920E-02 0. -1.
    10030    2    1    2    0    0  0.00000000000E+00  0.00000000000E+00 -0.48593387045E+03  0.14363015028E+04  0.13516028561E+04 0.  0.
        4    1    3    3  502    0  0.63806500060E+03 -0.73426027316E+02 -0.19585605310E+02  0.64257570396E+03  0.12699999809E+01 0.  1.
       -4    1    3    3    0  502 -0.63806500060E+03  0.73426027316E+02 -0.46634826514E+03  0.79372579886E+03  0.12699999809E+01 0. -1.
</event>
<event>
 5   0  0.1714861E-03  0.1297659E+04  0.7818609E-02  0.9031424E-01
       -2   -1    0    0    0  501  0.00000000000E+00  0.00000000000E+00  0.39443162278E+03  0.39443162279E+03  0.25500000920E-02 0. -1.
        2   -1    0    0  501    0  0.00000000000E+00  0.00000000000E+00 -0.10673067849E+04  0.10673067849E+04  0.25500000920E-02 0.  1.
    10030    2    1    2    0    0  0.00000000000E+00  0.00000000000E+00 -0.67287516210E+03  0.14617384077E+04  0.12976587335E+04 0.  0.
        1    1    3    3  502    0 -0.35427301200E+02  0.14423399668E+03  0.37502590840E+03  0.40336456396E+03  0.50400001928E-02 0. -1.
       -1    1    3    3    0  502  0.35427301200E+02 -0.14423399668E+03 -0.10479010705E+04  0.10583738437E+04  0.50400001928E-02 0.  1.
</event>
<event>
 5   0  0.6284125E-04  0.1312809E+04  0.7818609E-02  0.9019469E-01
        4   -1    0    0  501    0  0.00000000000E+00  0.00000000000E+00  0.76627501107E+03  0.76627606350E+03  0.12699999809E+01 0.  1.
       -4   -1    0    0    0  501  0.00000000000E+00  0.00000000000E+00 -0.56228502427E+03  0.56228645850E+03  0.12699999809E+01 0. -1.
    10030    2    1    2    0    0  0.00000000000E+00  0.00000000000E+00  0.20398998680E+03  0.13285625220E+04  0.13128086152E+04 0.  0.
        2    1    3    3  502    0  0.23592866209E+03 -0.30268535512E+03  0.64091320900E+03  0.74702777678E+03  0.25500000920E-02 0.  1.
       -2    1    3    3    0  502 -0.23592866209E+03  0.30268535512E+03 -0.43692322220E+03  0.58153474522E+03  0.25500000920E-02 0. -1.
</event>
<event>
 5   0  0.1623890E-03  0.1302636E+04  0.7818609E-02  0.9027477E-01
       -2   -1    0    0    0  501  0.00000000000E+00  0.00000000000E+00  0.87552113702E+03  0.87552113702E+03  0.25500000920E-02 0. -1.
        2   -1    0    0  501    0  0.00000000000E+00  0.00000000000E+00 -0.48452889952E+03  0.48452889952E+03  0.25500000920E-02 0.  1.
    10030    2    1    2    0    0  0.00000000000E+00  0.00000000000E+00  0.39099223750E+03  0.13600500365E+04  0.13026362394E+04 0.  0.
        3    1    3    3  502    0  0.85507110713E+02 -0.19397349982E+03 -0.44750334791E+03  0.49517314266E+03  0.10100000352E+00 0.  1.
       -3    1    3    3    0  502 -0.85507110713E+02  0.19397349982E+03  0.83849558541E+03  0.86487689389E+03  0.10100000352E+00 0. -1.
</event>
<event>
 5   0  0.1694675E-03  0.1292305E+04  0.7818609E-02  0.9035690E-01
       -2   -1    0    0    0  501  0.00000000000E+00  0.00000000000E+00  0.91134987070E+03  0.91134987070E+03  0.25500000920E-02 0.  1.
        2   -1    0    0  501    0  0.00000000000E+00  0.00000000000E+00 -0.45812603679E+03  0.45812603680E+03  0.25500000920E-02 0. -1.
    10030    2    1    2    0    0  0.00000000000E+00  0.00000000000E+00  0.45322383390E+03  0.13694759075E+04  0.12923050792E+04 0.  0.
        4    1    3    3  502    0 -0.50918395846E+03  0.37040244323E+03  0.72879286095E+02  0.63386061303E+03  0.12699999809E+01 0. -1.
       -4    1    3    3    0  502  0.50918395846E+03 -0.37040244323E+03  0.38034454781E+03  0.73561529447E+03  0.12699999809E+01 0.  1.
</event>
<event>
 5   0  0.9215829E-04  0.1278846E+04  0.7818609E-02  0.9046511E-01
        1   -1    0    0  501    0  0.00000000000E+00  0.00000000000E+00  0.10930397522E+04  0.10930397522E+04  0.50400001928E-02 0.  1.
       -1   -1    0    0    0  501  0.00000000000E+00  0.00000000000E+00 -0.37405918322E+03  0.37405918326E+03  0.50400001928E-02 0. -1.
    10030    2    1    2    0    0  0.00000000000E+00  0.00000000000E+00  0.71898056900E+03  0.14670989355E+04  0.12788456623E+04 0.  0.
        3    1    3    3  502    0 -0.49304181317E+03  0.28877083003E+02  0.82539904932E+03  0.96187718357E+03  0.10100000352E+00 0.  1.
       -3    1    3    3    0  502  0.49304181317E+03 -0.28877083003E+02 -0.10641848032E+03  0.50522175192E+03  0.10100000352E+00 0. -1.
</event>
<event>
 5   0  0.9110949E-04  0.1298643E+04  0.7818609E-02  0.9030642E-01
        1   -1    0    0  501    0  0.00000000000E+00  0.00000000000E+00  0.56736735483E+03  0.56736735485E+03  0.50400001928E-02 0. -1.
       -1   -1    0    0    0  501  0.00000000000E+00  0.00000000000E+00 -0.74311326582E+03  0.74311326584E+03  0.50400001928E-02 0.  1.
    10030    2    1    2    0    0  0.00000000000E+00  0.00000000000E+00 -0.17574591099E+03  0.13104806207E+04  0.12986426883E+04 0.  0.
        2    1    3    3  502    0  0.12463370966E+02 -0.14615276900E+03 -0.72617527117E+03  0.74084174556E+03  0.25500000920E-02 0.  1.
       -2    1    3    3    0  502 -0.12463370966E+02  0.14615276900E+03  0.55042936017E+03  0.56963887512E+03  0.25500000920E-02 0. -1.
</event>
<event>
 5   0  0.9027076E-04  0.1308603E+04  0.7818609E-02  0.9022770E-01
        1   -1    0    0  501    0  0.00000000000E+00  0.00000000000E+00  0.41888482134E+03  0.41888482137E+03  0.50400001928E-02 0.  1.
       -1   -1    0    0    0  501  0.00000000000E+00  0.00000000000E+00 -0.10220244605E+04  0.10220244605E+04  0.50400001928E-02 0. -1.
    10030    2    1    2    0    0  0.00000000000E+00  0.00000000000E+00 -0.60313963919E+03  0.14409092819E+04  0.13086031233E+04 0.  0.
        5    1    3    3  502    0  0.61043627189E+02  0.33217170304E+03  0.31546569538E+03  0.46217427415E+03  0.46999998093E+01 0.  1.
       -5    1    3    3    0  502 -0.61043627189E+02 -0.33217170304E+03 -0.91860533456E+03  0.97873500776E+03  0.46999998093E+01 0. -1.
</event>
<event>
 5   0  0.1694675E-03  0.1293355E+04  0.7818609E-02  0.9034851E-01
       -2   -1    0    0    0  501  0.00000000000E+00  0.00000000000E+00  0.30578394012E+03  0.30578394013E+03  0.25500000920E-02 0.  1.
        2   -1    0    0  501    0  0.00000000000E+00  0.00000000000E+00 -0.13676063640E+04  0.13676063640E+04  0.25500000920E-02 0. -1.
    10030    2    1    2    0    0  0.00000000000E+00  0.00000000000E+00 -0.10618224238E+04  0.16733903041E+04  0.12933554229E+04 0.  0.
        4    1    3    3  502    0 -0.47579306108E+03 -0.37188187887E+03 -0.83021917006E+03  0.10266161172E+04  0.12699999809E+01 0. -1.
       -4    1    3    3    0  502  0.47579306108E+03  0.37188187887E+03 -0.23160325379E+03  0.64677418693E+03  0.12699999809E+01 0.  1.
</event>
<event>
 5   0  0.9098192E-04  0.1274901E+04  0.7818609E-02  0.9049709E-01
        1   -1    0    0  501    0  0.00000000000E+00  0.00000000000E+00  0.32729024676E+03  0.32729024680E+03  0.50400001928E-02 0. -1.
       -1   -1    0    0    0  501  0.00000000000E+00  0.00000000000E+00 -0.12415380075E+04  0.12415380075E+04  0.50400001928E-02 0.  1.
    10030    2    1    2    0    0  0.00000000000E+00  0.00000000000E+00 -0.91424776077E+03  0.15688282543E+04  0.12749012211E+04 0.  0.
        1    1    3    3  502    0 -0.29776801681E+03 -0.50494024078E+03 -0.14896328297E+03  0.60483096670E+03  0.50400001928E-02 0. -1.
       -1    1    3    3    0  502  0.29776801681E+03  0.50494024078E+03 -0.76528447780E+03  0.96399728764E+03  0.50400001928E-02 0.  1.
</event>
<event>
 5   0  0.9027076E-04  0.1276504E+04  0.7818609E-02  0.9048408E-01
        1   -1    0    0  501    0  0.00000000000E+00  0.00000000000E+00  0.56190824434E+03  0.56190824436E+03  0.50400001928E-02 0. -1.
       -1   -1    0    0    0  501  0.00000000000E+00  0.00000000000E+00 -0.72496816771E+03  0.72496816773E+03  0.50400001928E-02 0.  1.
    10030    2    1    2    0    0  0.00000000000E+00  0.00000000000E+00 -0.16305992337E+03  0.12868764121E+04  0.12765039606E+04 0.  0.
        5    1    3    3  502    0 -0.21614687757E+03  0.20270468149E+03  0.48833739802E+03  0.57123039562E+03  0.46999998093E+01 0. -1.
       -5    1    3    3    0  502  0.21614687757E+03 -0.20270468149E+03 -0.65139732139E+03  0.71564601647E+03  0.46999998093E+01 0.  1.
</event>
<event>
 5   0  0.9098192E-04  0.1293959E+04  0.7818609E-02  0.9034370E-01
        1   -1    0    0  501    0  0.00000000000E+00  0.00000000000E+00  0.12549746455E+04  0.12549746456E+04  0.50400001928E-02 0.  1.
       -1   -1    0    0    0  501  0.00000000000E+00  0.00000000000E+00 -0.33353843483E+03  0.33353843487E+03  0.50400001928E-02 0. -1.
    10030    2    1    2    0    0  0.00000000000E+00  0.00000000000E+00  0.92143621072E+03  0.15885130804E+04  0.12939586996E+04 0.  0.
        1    1    3    3  502    0 -0.18420498163E+03  0.88309710414E+02  0.12143441647E+04  0.12314064441E+04  0.50400001928E-02 0.  1.
       -1    1    3    3    0  502  0.18420498163E+03 -0.88309710414E+02 -0.29290795396E+03  0.35710663635E+03  0.50400001928E-02 0. -1.
</event>
<event>
 5   0  0.9110949E-04  0.1295370E+04  0.7818609E-02  0.9033245E-01
       -1   -1    0    0    0  501  0.00000000000E+00  0.00000000000E+00  0.86770607178E+03  0.86770607180E+03  0.50400001928E-02 0.  1.
        1   -1    0    0  501    0  0.00000000000E+00  0.00000000000E+00 -0.48345382578E+03  0.48345382581E+03  0.50400001928E-02 0. -1.
    10030    2    1    2    0    0  0.00000000000E+00  0.00000000000E+00  0.38425224600E+03  0.13511598976E+04  0.12953699396E+04 0.  0.
        2    1    3    3  502    0 -0.57472569190E+03 -0.27925294973E+03  0.81718445776E+02  0.64418144591E+03  0.25500000920E-02 0. -1.
       -2    1    3    3    0  502  0.57472569190E+03  0.27925294973E+03  0.30253380022E+03  0.70697845169E+03  0.25500000920E-02 0.  1.
</event>
<event>
 5   0  0.1667342E-03  0.1315781E+04  0.7818609E-02  0.9017144E-01
        2   -1    0    0  501    0  0.00000000000E+00  0.00000000000E+00  0.83101795694E+03  0.83101795695E+03  0.25500000920E-02 0. -1.
       -2   -1    0    0    0  501  0.00000000000E+00  0.00000000000E+00 -0.52083085447E+03  0.52083085448E+03  0.25500000920E-02 0.  1.
    10030    2    1    2    0    0  0.00000000000E+00  0.00000000000E+00  0.31018710247E+03  0.13518488114E+04  0.13157808216E+04 0.  0.
        5    1    3    3  502    0 -0.24737625417E+03  0.19443336499E+02 -0.47089007519E+03  0.53228996550E+03  0.46999998093E+01 0.  1.
       -5    1    3    3    0  502  0.24737625417E+03 -0.19443336499E+02  0.78107717767E+03  0.81955884592E+03  0.46999998093E+01 0. -1.
</event>
<event>
 5   0  0.1694675E-03  0.1299134E+04  0.7818609E-02  0.9030252E-01
        2   -1    0    0  501    0  0.00000000000E+00  0.00000000000E+00  0.74861063835E+03  0.74861063836E+03  0.25500000920E-02 0.  1.
       -2   -1    0    0    0  501  0.00000000000E+00  0.00000000000E+00 -0.56362717942E+03  0.56362717943E+03  0.25500000920E-02 0. -1.
    10030    2    1    2    0    0  0.00000000000E+00  0.00000000000E+00  0.18498345893E+03  0.13122378178E+04  0.12991340232E+04 0.  0.
        4    1    3    3  502    0 -0.42903922705E+03 -0.18871593918E+03  0.54674701230E+03  0.72015433930E+03  0.12699999809E+01 0.  1.
       -4    1    3    3    0  502  0.42903922705E+03  0.18871593918E+03 -0.36176355337E+03  0.59208347849E+03  0.12699999809E+01 0. -1.
</event>
<event>
 5   0  0.9215829E-04  0.1288328E+04  0.7818609E-02  0.9038873E-01
       -1   -1    0    0    0  501  0.00000000000E+00  0.00000000000E+00  0.48850734368E+03  0.48850734371E+03  0.50400001928E-02 0. -1.
        1   -1    0    0  501    0  0.00000000000E+00  0.00000000000E+00 -0.84941822628E+03  0.84941822630E+03  0.50400001928E-02 0.  1.
    10030    2    1    2    0    0  0.00000000000E+00  0.00000000000E+00 -0.36091088260E+03  0.13379255700E+04  0.12883276624E+04 0.  0.
        3    1    3    3  502    0 -0.56194669137E+03 -0.26389164290E+03 -0.20145805249E+01  0.62082763459E+03  0.10100000352E+00 0.  1.
       -3    1    3    3    0  502  0.56194669137E+03  0.26389164290E+03 -0.35889630207E+03  0.71709793541E+03  0.10100000352E+00 0. -1.
</event>
<event>
 5   0  0.9110949E-04  0.1189452E+04  0.7818609E-02  0.9122140E-01
        1   -1    0    0  501    0  0.00000000000E+00  0.00000000000E+00  0.14081666039E+04  0.14081666039E+04  0.50400001928E-02 0.  1.
       -1   -1    0    0    0  501  0.00000000000E+00  0.00000000000E+00 -0.25117675872E+03  0.25117675877E+03  0.50400001928E-02 0. -1.
    10030    2    1    2    0    0  0.00000000000E+00  0.00000000000E+00  0.11569898452E+04  0.16593433627E+04  0.11894515095E+04 0.  0.
        2    1    3    3  502    0  0.66685378760E+01 -0.59141125032E+03  0.66547024792E+03  0.89031589185E+03  0.25500000920E-02 0.  1.
       -2    1    3    3    0  502 -0.66685378760E+01  0.59141125032E+03  0.49151959725E+03  0.76902747082E+03  0.25500000920E-02 0. -1.
</event>
<event>
 5   0  0.1694675E-03  0.1319087E+04  0.7818609E-02  0.9014565E-01
       -2   -1    0    0    0  501  0.00000000000E+00  0.00000000000E+00  0.27363114750E+03  0.27363114751E+03  0.25500000920E-02 0. -1.
        2   -1    0    0  501    0  0.00000000000E+00  0.00000000000E+00 -0.15897222019E+04  0.15897222019E+04  0.25500000920E-02 0.  1.
    10030    2    1    2    0    0  0.00000000000E+00  0.00000000000E+00 -0.13160910544E+04  0.18633533494E+04  0.13190868210E+04 0.  0.
        4    1    3    3  502    0 -0.13987269631E+03  0.63907984095E+03 -0.53978662211E+03  0.84815011913E+03  0.12699999809E+01 0. -1.
       -4    1    3    3    0  502  0.13987269631E+03 -0.63907984095E+03 -0.77630443227E+03  0.10152032303E+04  0.12699999809E+01 0.  1.
</event>
<event>
 5   0  0.9098192E-04  0.1300764E+04  0.7818609E-02  0.9028959E-01
       -1   -1    0    0    0  501  0.00000000000E+00  0.00000000000E+00  0.36390232483E+03  0.36390232486E+03  0.50400001928E-02 0. -1.
        1   -1    0    0  501    0  0.00000000000E+00  0.00000000000E+00 -0.11623912990E+04  0.11623912990E+04  0.50400001928E-02 0.  1.
    10030    2    1    2    0    0  0.00000000000E+00  0.00000000000E+00 -0.79848897417E+03  0.15262936239E+04  0.13007642309E+04 0.  0.
        1    1    3    3  502    0  0.33627275977E+03 -0.97860569137E+01 -0.10523682159E+04  0.11048321129E+04  0.50400001928E-02 0.  1.
       -1    1    3    3    0  502 -0.33627275977E+03  0.97860569137E+01  0.25387924168E+03  0.42146151100E+03  0.50400001928E-02 0. -1.
</event>
<event>
 5   0  0.1714861E-03  0.1309813E+04  0.7818609E-02  0.9021819E-01
       -2   -1    0    0    0  501  0.00000000000E+00  0.00000000000E+00  0.34299310089E+03  0.34299310090E+03  0.25500000920E-02 0. -1.
        2   -1    0    0  501    0  0.00000000000E+00  0.00000000000E+00 -0.12504695072E+04  0.12504695072E+04  0.25500000920E-02 0.  1.
    10030    2    1    2    0    0  0.00000000000E+00  0.00000000000E+00 -0.90747640627E+03  0.15934626081E+04  0.13098128322E+04 0.  0.
        1    1    3    3  502    0 -0.49954967256E+03  0.35120868321E+03 -0.74164109952E+03  0.96069190432E+03  0.50400001928E-02 0.  1.
       -1    1    3    3    0  502  0.49954967256E+03 -0.35120868321E+03 -0.16583530675E+03  0.63277070373E+03  0.50400001928E-02 0. -1.
</event>
<event>
 5   0  0.9098192E-04  0.1342837E+04  0.7818609E-02  0.8996268E-01
       -1   -1    0    0    0  501  0.00000000000E+00  0.00000000000E+00  0.10791261902E+04  0.10791261902E+04  0.50400001928E-02 0. -1.
        1   -1    0    0  501    0  0.00000000000E+00  0.00000000000E+00 -0.41774787927E+03  0.41774787930E+03  0.50400001928E-02 0.  1.
    10030    2    1    2    0    0  0.00000000000E+00  0.00000000000E+00  0.66137831094E+03  0.14968740695E+04  0.13428368143E+04 0.  0.
        1    1    3    3  502    0  0.61481119673E+03  0.19862531451E+03  0.53428132926E+03  0.83839212903E+03  0.50400001928E-02 0. -1.
       -1    1    3    3    0  502 -0.61481119673E+03 -0.19862531451E+03  0.12709698168E+03  0.65848194050E+03  0.50400001928E-02 0.  1.
</event>
<event>
 5   0  0.9098192E-04  0.1309170E+04  0.7818609E-02  0.9022325E-01
        1   -1    0    0  501    0  0.00000000000E+00  0.00000000000E+00  0.13510008683E+04  0.13510008683E+04  0.50400001928E-02 0.  1.
       -1   -1    0    0    0  501  0.00000000000E+00  0.00000000000E+00 -0.31715842780E+03  0.31715842784E+03  0.50400001928E-02 0. -1.
    10030    2    1    2    0    0  0.00000000000E+00  0.00000000000E+00  0.10338424405E+04  0.16681592962E+04  0.13091696779E+04 0.  0.
        1    1    3    3  502    0 -0.11441001317E+03 -0.63301350161E+03  0.36250712470E+03  0.73838144601E+03  0.50400001928E-02 0. -1.
       -1    1    3    3    0  502  0.11441001317E+03  0.63301350161E+03  0.67133531581E+03  0.92977785014E+03  0.50400001928E-02 0.  1.
</event>
<event>
 5   0  0.1667342E-03  0.1344651E+04  0.7818609E-02  0.8994887E-01
        2   -1    0    0  501    0  0.00000000000E+00  0.00000000000E+00  0.73105607889E+03  0.73105607890E+03  0.25500000920E-02 0. -1.
       -2   -1    0    0    0  501  0.00000000000E+00  0.00000000000E+00 -0.61831356364E+03  0.61831356364E+03  0.25500000920E-02 0.  1.
    10030    2    1    2    0    0  0.00000000000E+00  0.00000000000E+00  0.11274251526E+03  0.13493696425E+04  0.13446514632E+04 0.  0.
        5    1    3    3  502    0  0.22138293638E+03 -0.62686735268E+03 -0.44113591573E+02  0.66628911242E+03  0.46999998093E+01 0.  1.
       -5    1    3    3    0  502 -0.22138293638E+03  0.62686735268E+03  0.15685610683E+03  0.68308053012E+03  0.46999998093E+01 0. -1.
</event>
<event>
 5   0  0.9027076E-04  0.1429241E+04  0.7818609E-02  0.8932920E-01
       -1   -1    0    0    0  501  0.00000000000E+00  0.00000000000E+00  0.45047531613E+03  0.45047531616E+03  0.50400001928E-02 0. -1.
        1   -1    0    0  501    0  0.00000000000E+00  0.00000000000E+00 -0.11336530149E+04  0.11336530149E+04  0.50400001928E-02 0.  1.
    10030    2    1    2    0    0  0.00000000000E+00  0.00000000000E+00 -0.68317769874E+03  0.15841283310E+04  0.14292413376E+04 0.  0.
        5    1    3    3  502    0  0.54613389340E+03 -0.16666090778E+03  0.13465253580E+03  0.58667834722E+03  0.46999998093E+01 0. -1.
       -5    1    3    3    0  502 -0.54613389340E+03  0.16666090778E+03 -0.81783023455E+03  0.99744998383E+03  0.46999998093E+01 0.  1.
</event>
<event>
 5   0  0.1623890E-03  0.1208592E+04  0.7818609E-02  0.9105369E-01
        2   -1    0    0  501    0  0.00000000000E+00  0.00000000000E+00  0.70842624005E+03  0.70842624006E+03  0.25500000920E-02 0. -1.
       -2   -1    0    0    0  501  0.00000000000E+00  0.00000000000E+00 -0.51547158553E+03  0.51547158554E+03  0.25500000920E-02 0.  1.
    10030    2    1    2    0    0  0.00000000000E+00  0.00000000000E+00  0.19295465452E+03  0.12238978256E+04  0.12085919033E+04 0.  0.
        3    1    3    3  502    0 -0.42676561089E+03  0.12187917292E+03 -0.31882635749E+03  0.54647385652E+03  0.10100000352E+00 0.  1.
       -3    1    3    3    0  502  0.42676561089E+03 -0.12187917292E+03  0.51178101201E+03  0.67742396908E+03  0.10100000352E+00 0. -1.
</event>
<event>
 5   0  0.1694675E-03  0.1300216E+04  0.7818609E-02  0.9029394E-01
        2   -1    0    0  501    0  0.00000000000E+00  0.00000000000E+00  0.13017591390E+04  0.13017591390E+04  0.25500000920E-02 0. -1.
       -2   -1    0    0    0  501  0.00000000000E+00  0.00000000000E+00 -0.32466873178E+03  0.32466873179E+03  0.25500000920E-02 0.  1.
    10030    2    1    2    0    0  0.00000000000E+00  0.00000000000E+00  0.97709040718E+03  0.16264278708E+04  0.13002161186E+04 0.  0.
        4    1    3    3  502    0  0.25509761249E+03 -0.33320670361E+03  0.11096439425E+04  0.11863442971E+04  0.12699999809E+01 0. -1.
       -4    1    3    3    0  502 -0.25509761249E+03  0.33320670361E+03 -0.13255353527E+03  0.44008357370E+03  0.12699999809E+01 0.  1.
</event>
<event>
 5   0  0.1623890E-03  0.1299130E+04  0.7818609E-02  0.9030255E-01
        2   -1    0    0  501    0  0.00000000000E+00  0.00000000000E+00  0.63103417621E+03  0.63103417622E+03  0.25500000920E-02 0.  1.
       -2   -1    0    0    0  501  0.00000000000E+00  0.00000000000E+00 -0.66863999923E+03  0.66863999924E+03  0.25500000920E-02 0. -1.
    10030    2    1    2    0    0  0.00000000000E+00  0.00000000000E+00 -0.37605823020E+02  0.12996741755E+04  0.12991300029E+04 0.  0.
        3    1    3    3  502    0  0.47440184915E+03 -0.16323154755E+03 -0.43156879039E+03  0.66178038928E+03  0.10100000352E+00 0. -1.
       -3    1    3    3    0  502 -0.47440184915E+03  0.16323154755E+03  0.39396296737E+03  0.63789378618E+03  0.10100000352E+00 0.  1.
</event>
<event>
 5   0  0.1714861E-03  0.1254961E+04  0.7818609E-02  0.9066064E-01
       -2   -1    0    0    0  501  0.00000000000E+00  0.00000000000E+00  0.12712786901E+04  0.12712786902E+04  0.25500000920E-02 0. -1.
        2   -1    0    0  501    0  0.00000000000E+00  0.00000000000E+00 -0.30971328431E+03  0.30971328432E+03  0.25500000920E-02 0.  1.
    10030    2    1    2    0    0  0.00000000000E+00  0.00000000000E+00  0.96156540584E+03  0.15809919745E+04  0.12549611921E+04 0.  0.
        1    1    3    3  502    0 -0.11000409277E+03  0.41441486515E+03  0.10579432097E+04  0.11415272296E+04  0.50400001928E-02 0. -1.
       -1    1    3    3    0  502  0.11000409277E+03 -0.41441486515E+03 -0.96377803879E+02  0.43946474488E+03  0.50400001928E-02 0.  1.
</event>
<event>
 5   0  0.9110949E-04  0.1298634E+04  0.7818609E-02  0.9030649E-01
        1   -1    0    0  501    0  0.00000000000E+00  0.00000000000E+00  0.44461983296E+03  0.44461983299E+03  0.50400001928E-02 0. -1.
       -1   -1    0    0    0  501  0.00000000000E+00  0.00000000000E+00 -0.94825434314E+03  0.94825434315E+03  0.50400001928E-02 0.  1.
    10030    2    1    2    0    0  0.00000000000E+00  0.00000000000E+00 -0.50363451018E+03  0.13928741761E+04  0.12986341866E+04 0.  0.
        2    1    3    3  502    0 -0.59643634149E+03 -0.24368279455E+03 -0.16537678854E+03  0.66518200216E+03  0.25500000920E-02 0.  1.
       -2    1    3    3    0  502  0.59643634149E+03  0.24368279455E+03 -0.33825772164E+03  0.72769217397E+03  0.25500000920E-02 0. -1.
</event>
<event>
 5   0  0.9081324E-04  0.1319970E+04  0.7818609E-02  0.9013877E-01
       -1   -1    0    0    0  501  0.00000000000E+00  0.00000000000E+00  0.57914380504E+03  0.57914380506E+03  0.50400001928E-02 0.  1.
        1   -1    0    0  501    0  0.00000000000E+00  0.00000000000E+00 -0.75211108354E+03  0.75211108356E+03  0.50400001928E-02 0. -1.
    10030    2    1    2    0    0  0.00000000000E+00  0.00000000000E+00 -0.17296727850E+03  0.13312548886E+04  0.13199704160E+04 0.  0.
        4    1    3    3  502    0 -0.41468221414E+03 -0.22885994503E+03  0.37705481074E+03  0.60540082290E+03  0.12699999809E+01 0.  1.
       -4    1    3    3    0  502  0.41468221414E+03  0.22885994503E+03 -0.55002208924E+03  0.72585406572E+03  0.12699999809E+01 0. -1.
</event>
<event>
 5   0  0.1667342E-03  0.1301618E+04  0.7818609E-02  0.9028283E-01
       -2   -1    0    0    0  501  0.00000000000E+00  0.00000000000E+00  0.32779631514E+03  0.32779631515E+03  0.25500000920E-02 0.  1.
        2   -1    0    0  501    0  0.00000000000E+00  0.00000000000E+00 -0.12921204273E+04  0.12921204273E+04  0.25500000920E-02 0. -1.
    10030    2    1    2    0    0  0.00000000000E+00  0.00000000000E+00 -0.96432411212E+03  0.16199167424E+04  0.13016179390E+04 0.  0.
        5    1    3    3  502    0 -0.32780208314E+03  0.40256832115E+03  0.62544680522E+01  0.51920773037E+03  0.46999998093E+01 0.  1.
       -5    1    3    3    0  502  0.32780208314E+03 -0.40256832115E+03 -0.97057858017E+03  0.11007090120E+04  0.46999998093E+01 0. -1.
</event>
<event>
 5   0  0.9098192E-04  0.1302479E+04  0.7818609E-02  0.9027601E-01
       -1   -1    0    0    0  501  0.00000000000E+00  0.00000000000E+00  0.32223163618E+03  0.32223163622E+03  0.50400001928E-02 0.  1.
        1   -1    0    0  501    0  0.00000000000E+00  0.00000000000E+00 -0.13161746971E+04  0.13161746971E+04  0.50400001928E-02 0. -1.
    10030    2    1    2    0    0  0.00000000000E+00  0.00000000000E+00 -0.99394306093E+03  0.16384063333E+04  0.13024793683E+04 0.  0.
        1    1    3    3  502    0 -0.91157956651E+02  0.61297749882E+03 -0.24519412822E+03  0.66646181261E+03  0.50400001928E-02 0.  1.
       -1    1    3    3    0  502  0.91157956651E+02 -0.61297749882E+03 -0.74874893270E+03  0.97194452073E+03  0.50400001928E-02 0. -1.
</event>
<event>
 5   0  0.9081324E-04  0.1279918E+04  0.7818609E-02  0.9045644E-01
       -1   -1    0    0    0  501  0.00000000000E+00  0.00000000000E+00  0.45460454679E+03  0.45460454682E+03  0.50400001928E-02 0. -1.
        1   -1    0    0  501    0  0.00000000000E+00  0.00000000000E+00 -0.90088718537E+03  0.90088718538E+03  0.50400001928E-02 0.  1.
    10030    2    1    2    0    0  0.00000000000E+00  0.00000000000E+00 -0.44628263857E+03  0.13554917322E+04  0.12799178265E+04 0.  0.
        4    1    3    3  502    0 -0.18875637689E+03 -0.14397840097E+03 -0.85252745144E+03  0.88496520729E+03  0.12699999809E+01 0.  1.
       -4    1    3    3    0  502  0.18875637689E+03  0.14397840097E+03  0.40624481286E+03  0.47052652491E+03  0.12699999809E+01 0. -1.
</event>
<event>
 5   0  0.9027076E-04  0.1295786E+04  0.7818609E-02  0.9032913E-01
        1   -1    0    0  501    0  0.00000000000E+00  0.00000000000E+00  0.51960053922E+03  0.51960053925E+03  0.50400001928E-02 0. -1.
       -1   -1    0    0    0  501  0.00000000000E+00  0.00000000000E+00 -0.80786192182E+03  0.80786192183E+03  0.50400001928E-02 0.  1.
    10030    2    1    2    0    0  0.00000000000E+00  0.00000000000E+00 -0.28826138259E+03  0.13274624611E+04  0.12957862327E+04 0.  0.
        5    1    3    3  502    0 -0.17874089554E+02  0.32726832335E+02  0.51848278508E+03  0.51984326201E+03  0.46999998093E+01 0. -1.
       -5    1    3    3    0  502  0.17874089554E+02 -0.32726832335E+02 -0.80674416768E+03  0.80761919907E+03  0.46999998093E+01 0.  1.
</event>
<event>
 5   0  0.1694675E-03  0.1299961E+04  0.7818609E-02  0.9029596E-01
        2   -1    0    0  501    0  0.00000000000E+00  0.00000000000E+00  0.34187720107E+03  0.34187720108E+03  0.25500000920E-02 0. -1.
       -2   -1    0    0    0  501  0.00000000000E+00  0.00000000000E+00 -0.12357496602E+04  0.12357496602E+04  0.25500000920E-02 0.  1.
    10030    2    1    2    0    0  0.00000000000E+00  0.00000000000E+00 -0.89387245911E+03  0.15776268613E+04  0.12999609764E+04 0.  0.
        4    1    3    3  502    0  0.53954768399E+03  0.13017083012E+03 -0.85744176290E+03  0.10214030243E+04  0.12699999809E+01 0.  1.
       -4    1    3    3    0  502 -0.53954768399E+03 -0.13017083012E+03 -0.36430696203E+02  0.55622383699E+03  0.12699999809E+01 0. -1.
</event>
<event>
 5   0  0.9098192E-04  0.1314107E+04  0.7818609E-02  0.9018452E-01
       -1   -1    0    0    0  501  0.00000000000E+00  0.00000000000E+00  0.31427922027E+03  0.31427922031E+03  0.50400001928E-02 0. -1.
        1   -1    0    0  501    0  0.00000000000E+00  0.00000000000E+00 -0.13736814589E+04  0.13736814589E+04  0.50400001928E-02 0.  1.
    10030    2    1    2    0    0  0.00000000000E+00  0.00000000000E+00 -0.10594022386E+04  0.16879606792E+04  0.13141073591E+04 0.  0.
        1    1    3    3  502    0  0.43864004978E+02 -0.62377133302E+03 -0.27054924788E+03  0.68133077310E+03  0.50400001928E-02 0. -1.
       -1    1    3    3    0  502 -0.43864004978E+02  0.62377133302E+03 -0.78885299073E+03  0.10066299061E+04  0.50400001928E-02 0.  1.
</event>
<event>
 5   0  0.1700511E-03  0.1295918E+04  0.7818609E-02  0.9032809E-01
        2   -1    0    0  501    0  0.00000000000E+00  0.00000000000E+00  0.30155720088E+03  0.30155720089E+03  0.25500000920E-02 0. -1.
       -2   -1    0    0    0  501  0.00000000000E+00  0.00000000000E+00 -0.13922758652E+04  0.13922758652E+04  0.25500000920E-02 0.  1.
    10030    2    1    2    0    0  0.00000000000E+00  0.00000000000E+00 -0.10907186643E+04  0.16938330661E+04  0.12959179183E+04 0.  0.
        2    1    3    3  502    0 -0.44095155166E+03 -0.43484943932E+03 -0.79444979824E+03  0.10073146419E+04  0.25500000920E-02 0.  1.
       -2    1    3    3    0  502  0.44095155166E+03  0.43484943932E+03 -0.29626886609E+03  0.68651842423E+03  0.25500000920E-02 0. -1.
</event>
<event>
 5   0  0.1667342E-03  0.1299613E+04  0.7818609E-02  0.9029872E-01
        2   -1    0    0  501    0  0.00000000000E+00  0.00000000000E+00  0.11330435336E+04  0.11330435336E+04  0.25500000920E-02 0.  1.
       -2   -1    0    0    0  501  0.00000000000E+00  0.00000000000E+00 -0.37266741471E+03  0.37266741472E+03  0.25500000920E-02 0. -1.
    10030    2    1    2    0    0  0.00000000000E+00  0.00000000000E+00  0.76037611885E+03  0.15057109483E+04  0.12996128722E+04 0.  0.
        5    1    3    3  502    0  0.51317494193E+03 -0.39539736109E+03  0.43856415264E+03  0.78233509454E+03  0.46999998093E+01 0.  1.
       -5    1    3    3    0  502 -0.51317494193E+03  0.39539736109E+03  0.32181196621E+03  0.72337585374E+03  0.46999998093E+01 0. -1.
</event>
<event>
 5   0  0.9215829E-04  0.1330198E+04  0.7818609E-02  0.9005955E-01
       -1   -1    0    0    0  501  0.00000000000E+00  0.00000000000E+00  0.24700373105E+03  0.24700373110E+03  0.50400001928E-02 0. -1.
        1   -1    0    0  501    0  0.00000000000E+00  0.00000000000E+00 -0.17908915192E+04  0.17908915192E+04  0.50400001928E-02 0.  1.
    10030    2    1    2    0    0  0.00000000000E+00  0.00000000000E+00 -0.15438877882E+04  0.20378952503E+04  0.13301983118E+04 0.  0.
        3    1    3    3  502    0  0.26720066458E+03  0.46523130440E+03 -0.13741685589E+04  0.14751866324E+04  0.10100000352E+00 0.  1.
       -3    1    3    3    0  502 -0.26720066458E+03 -0.46523130440E+03 -0.16971922924E+03  0.56270861796E+03  0.10100000352E+00 0. -1.
</event>
<event>
 5   0  0.6284125E-04  0.1297911E+04  0.7818609E-02  0.9031224E-01
       -3   -1    0    0    0  501  0.00000000000E+00  0.00000000000E+00  0.39920169921E+03  0.39920171198E+03  0.10100000352E+00 0. -1.
        3   -1    0    0  501    0  0.00000000000E+00  0.00000000000E+00 -0.10549629883E+04  0.10549629932E+04  0.10100000352E+00 0.  1.
    10030    2    1    2    0    0  0.00000000000E+00  0.00000000000E+00 -0.65576128914E+03  0.14541647052E+04  0.12979106754E+04 0.  0.
        5    1    3    3  502    0  0.11303773860E+03 -0.51809637264E+03  0.91210040598E+02  0.53809176094E+03  0.46999998093E+01 0. -1.
       -5    1    3    3    0  502 -0.11303773860E+03  0.51809637264E+03 -0.74697132974E+03  0.91607294422E+03  0.46999998093E+01 0.  1.
</event>
<event>
 5   0  0.9027076E-04  0.1289675E+04  0.7818609E-02  0.9037793E-01
       -1   -1    0    0    0  501  0.00000000000E+00  0.00000000000E+00  0.33060404116E+03  0.33060404119E+03  0.50400001928E-02 0.  1.
        1   -1    0    0  501    0  0.00000000000E+00  0.00000000000E+00 -0.12577451368E+04  0.12577451368E+04  0.50400001928E-02 0. -1.
    10030    2    1    2    0    0  0.00000000000E+00  0.00000000000E+00 -0.92714109566E+03  0.15883491780E+04  0.12896753468E+04 0.  0.
        5    1    3    3  502    0 -0.50774103629E+02  0.30750973562E+03  0.23165350098E+03  0.38836282214E+03  0.46999998093E+01 0.  1.
       -5    1    3    3    0  502  0.50774103629E+02 -0.30750973562E+03 -0.11587945966E+04  0.11999863559E+04  0.46999998093E+01 0. -1.
</event>
<event>
 5   0  0.1700511E-03  0.1309858E+04  0.7818609E-02  0.9021784E-01
        2   -1    0    0  501    0  0.00000000000E+00  0.00000000000E+00  0.13259487701E+04  0.13259487701E+04  0.25500000920E-02 0.  1.
       -2   -1    0    0    0  501  0.00000000000E+00  0.00000000000E+00 -0.32349086474E+03  0.32349086475E+03  0.25500000920E-02 0. -1.
    10030    2    1    2    0    0  0.00000000000E+00  0.00000000000E+00  0.10024579054E+04  0.16494396349E+04  0.13098584874E+04 0.  0.
        2    1    3    3  502    0  0.12161805874E+03  0.64264226565E+03  0.54397452567E+03  0.85069872364E+03  0.25500000920E-02 0.  1.
       -2    1    3    3    0  502 -0.12161805874E+03 -0.64264226565E+03  0.45848337971E+03  0.79874091124E+03  0.25500000920E-02 0. -1.
</event>
<event>
 5   0  0.9081324E-04  0.1303134E+04  0.7818609E-02  0.9027083E-01
        1   -1    0    0  501    0  0.00000000000E+00  0.00000000000E+00  0.13167862485E+04  0.13167862485E+04  0.50400001928E-02 0. -1.
       -1   -1    0    0    0  501  0.00000000000E+00  0.00000000000E+00 -0.32240587330E+03  0.32240587334E+03  0.50400001928E-02 0.  1.
    10030    2    1    2    0    0  0.00000000000E+00  0.00000000000E+00  0.99438037516E+03  0.16391921218E+04  0.13031340997E+04 0.  0.
        4    1    3    3  502    0 -0.32444748473E+03 -0.95265407937E+02  0.11977723619E+04  0.12445890535E+04  0.12699999809E+01 0. -1.
       -4    1    3    3    0  502  0.32444748473E+03  0.95265407937E+02 -0.20339198677E+03  0.39460306826E+03  0.12699999809E+01 0.  1.
</event>
<event>
 5   0  0.1623890E-03  0.1307945E+04  0.7818609E-02  0.9023289E-01
       -2   -1    0    0    0  501  0.00000000000E+00  0.00000000000E+00  0.16759714888E+04  0.16759714888E+04  0.25500000920E-02 0. -1.
        2   -1    0    0  501    0  0.00000000000E+00  0.00000000000E+00 -0.25518321735E+03  0.25518321736E+03  0.25500000920E-02 0.  1.
    10030    2    1    2    0    0  0.00000000000E+00  0.00000000000E+00  0.14207882715E+04  0.19311547062E+04  0.13079446421E+04 0.  0.
        3    1    3    3  502    0 -0.51246965658E+03  0.53546927680E+02  0.11577865540E+03  0.52810711946E+03  0.10100000352E+00 0.  1.
       -3    1    3    3    0  502  0.51246965658E+03 -0.53546927680E+02  0.13050096161E+04  0.14030475867E+04  0.10100000352E+00 0. -1.
</event>
<event>
 5   0  0.1667342E-03  0.1298639E+04  0.7818609E-02  0.9030645E-01
        2   -1    0    0  501    0  0.00000000000E+00  0.00000000000E+00  0.13089321952E+04  0.13089321952E+04  0.25500000920E-02 0.  1.
       -2   -1    0    0    0  501  0.00000000000E+00  0.00000000000E+00 -0.32210648839E+03  0.32210648840E+03  0.25500000920E-02 0. -1.
    10030    2    1    2    0    0  0.00000000000E+00  0.00000000000E+00  0.98682570686E+03  0.16310386836E+04  0.12986385994E+04 0.  0.
        5    1    3    3  502    0 -0.49771189585E+03 -0.39995974839E+03  0.34529186857E+03  0.72590185019E+03  0.46999998093E+01 0.  1.
       -5    1    3    3    0  502  0.49771189585E+03  0.39995974839E+03  0.64153383829E+03  0.90513683346E+03  0.46999998093E+01 0. -1.
</event>
<event>
 5   0  0.1714861E-03  0.1300303E+04  0.7818609E-02  0.9029325E-01
        2   -1    0    0  501    0  0.00000000000E+00  0.00000000000E+00  0.19664670497E+04  0.19664670497E+04  0.25500000920E-02 0.  1.
       -2   -1    0    0    0  501  0.00000000000E+00  0.00000000000E+00 -0.21495247481E+03  0.21495247482E+03  0.25500000920E-02 0. -1.
    10030    2    1    2    0    0  0.00000000000E+00  0.00000000000E+00  0.17515145749E+04  0.21814195245E+04  0.13003029785E+04 0.  0.
        1    1    3    3  502    0 -0.25533173035E+03 -0.49785519809E+03  0.14312582713E+04  0.15367349576E+04  0.50400001928E-02 0.  1.
       -1    1    3    3    0  502  0.25533173035E+03  0.49785519809E+03  0.32025630359E+03  0.64468456690E+03  0.50400001928E-02 0. -1.
</event>
<event>
 5   0  0.9081324E-04  0.1293456E+04  0.7818609E-02  0.9034771E-01
       -1   -1    0    0    0  501  0.00000000000E+00  0.00000000000E+00  0.72047548750E+03  0.72047548751E+03  0.50400001928E-02 0. -1.
        1   -1    0    0  501    0  0.00000000000E+00  0.00000000000E+00 -0.58052954580E+03  0.58052954583E+03  0.50400001928E-02 0.  1.
    10030    2    1    2    0    0  0.00000000000E+00  0.00000000000E+00  0.13994594169E+03  0.13010050333E+04  0.12934563117E+04 0.  0.
        4    1    3    3  502    0 -0.53316537672E+03 -0.36076250095E+03  0.13230879388E+03  0.65720782928E+03  0.12699999809E+01 0.  1.
       -4    1    3    3    0  502  0.53316537672E+03  0.36076250095E+03  0.76371478145E+01  0.64379720406E+03  0.12699999809E+01 0. -1.
</event>
<event>
 5   0  0.1714861E-03  0.1297781E+04  0.7818609E-02  0.9031327E-01
       -2   -1    0    0    0  501  0.00000000000E+00  0.00000000000E+00  0.74865910955E+03  0.74865910956E+03  0.25500000920E-02 0.  1.
        2   -1    0    0  501    0  0.00000000000E+00  0.00000000000E+00 -0.56241717636E+03  0.56241717637E+03  0.25500000920E-02 0. -1.
    10030    2    1    2    0    0  0.00000000000E+00  0.00000000000E+00  0.18624193319E+03  0.13110762859E+04  0.12977807865E+04 0.  0.
        1    1    3    3  502    0  0.95530752821E+02 -0.62770552035E+03 -0.42110016214E+02  0.63632821602E+03  0.50400001928E-02 0. -1.
       -1    1    3    3    0  502 -0.95530752821E+02  0.62770552035E+03  0.22835194940E+03  0.67474806990E+03  0.50400001928E-02 0.  1.
</event>
<event>
 5   0  0.9081324E-04  0.1115871E+04  0.7818609E-02  0.9189859E-01
       -1   -1    0    0    0  501  0.00000000000E+00  0.00000000000E+00  0.14055170850E+03  0.14055170859E+03  0.50400001928E-02 0.  1.
        1   -1    0    0  501    0  0.00000000000E+00  0.00000000000E+00 -0.22147869803E+04  0.22147869803E+04  0.50400001928E-02 0. -1.
    10030    2    1    2    0    0  0.00000000000E+00  0.00000000000E+00 -0.20742352718E+04  0.23553386889E+04  0.11158711290E+04 0.  0.
        4    1    3    3  502    0  0.11652025036E+03 -0.47736752330E+03 -0.15949093240E+04  0.16688900759E+04  0.12699999809E+01 0. -1.
       -4    1    3    3    0  502 -0.11652025036E+03  0.47736752330E+03 -0.47932594788E+03  0.68644861298E+03  0.12699999809E+01 0.  1.
</event>
<event>
 5   0  0.1694675E-03  0.1317761E+04  0.7818609E-02  0.9015598E-01
       -2   -1    0    0    0  501  0.00000000000E+00  0.00000000000E+00  0.31587341200E+03  0.31587341201E+03  0.25500000920E-02 0.  1.
        2   -1    0    0  501    0  0.00000000000E+00  0.00000000000E+00 -0.13743592261E+04  0.13743592261E+04  0.25500000920E-02 0. -1.
    10030    2    1    2    0    0  0.00000000000E+00  0.00000000000E+00 -0.10584858141E+04  0.16902326381E+04  0.13177610376E+04 0.  0.
        4    1    3    3  502    0 -0.34456589584E+03  0.54313474149E+03 -0.71244680506E+03  0.95984533490E+03  0.12699999809E+01 0.  1.
       -4    1    3    3    0  502  0.34456589584E+03 -0.54313474149E+03 -0.34603900900E+03  0.73038730317E+03  0.12699999809E+01 0. -1.
</event>
<event>
 5   0  0.9098192E-04  0.1304958E+04  0.7818609E-02  0.9025642E-01
        1   -1    0    0  501    0  0.00000000000E+00  0.00000000000E+00  0.15578866933E+04  0.15578866933E+04  0.50400001928E-02 0.  1.
       -1   -1    0    0    0  501  0.00000000000E+00  0.00000000000E+00 -0.27327340806E+03  0.27327340811E+03  0.50400001928E-02 0. -1.
    10030    2    1    2    0    0  0.00000000000E+00  0.00000000000E+00  0.12846132852E+04  0.18311601014E+04  0.13049582462E+04 0.  0.
        1    1    3    3  502    0  0.31719803583E+03 -0.32217037372E+03  0.13024536847E+04  0.13786928390E+04  0.50400001928E-02 0.  1.
       -1    1    3    3    0  502 -0.31719803583E+03  0.32217037372E+03 -0.17840399459E+02  0.45246726236E+03  0.50400001928E-02 0. -1.
</event>
<event>
 5   0  0.1667342E-03  0.1292711E+04  0.7818609E-02  0.9035365E-01
       -2   -1    0    0    0  501  0.00000000000E+00  0.00000000000E+00  0.50024554222E+03  0.50024554223E+03  0.25500000920E-02 0. -1.
        2   -1    0    0  501    0  0.00000000000E+00  0.00000000000E+00 -0.83514086401E+03  0.83514086401E+03  0.25500000920E-02 0.  1.
    10030    2    1    2    0    0  0.00000000000E+00  0.00000000000E+00 -0.33489532179E+03  0.13353864062E+04  0.12927110959E+04 0.  0.
        5    1    3    3  502    0  0.33042793855E+03 -0.37221926599E+03  0.25850376646E+03  0.56087083346E+03  0.46999998093E+01 0. -1.
       -5    1    3    3    0  502 -0.33042793855E+03  0.37221926599E+03 -0.59339908825E+03  0.77451557278E+03  0.46999998093E+01 0.  1.
</event>
<event>
 5   0  0.1667342E-03  0.1278671E+04  0.7818609E-02  0.9046652E-01
        2   -1    0    0  501    0  0.00000000000E+00  0.00000000000E+00  0.87450009980E+03  0.87450009980E+03  0.25500000920E-02 0. -1.
       -2   -1    0    0    0  501  0.00000000000E+00  0.00000000000E+00 -0.46741001071E+03  0.46741001071E+03  0.25500000920E-02 0.  1.
    10030    2    1    2    0    0  0.00000000000E+00  0.00000000000E+00  0.40709008909E+03  0.13419101105E+04  0.12786713433E+04 0.  0.
        5    1    3    3  502    0  0.61459849935E+03  0.59120446845E+02  0.37758238346E+03  0.72375209080E+03  0.46999998093E+01 0.  1.
       -5    1    3    3    0  502 -0.61459849935E+03 -0.59120446845E+02  0.29507705628E+02  0.61815801971E+03  0.46999998093E+01 0. -1.
</event>
<event>
 5   0  0.1700511E-03  0.1316813E+04  0.7818609E-02  0.9016337E-01
        2   -1    0    0  501    0  0.00000000000E+00  0.00000000000E+00  0.75507696220E+03  0.75507696220E+03  0.25500000920E-02 0. -1.
       -2   -1    0    0    0  501  0.00000000000E+00  0.00000000000E+00 -0.57411272216E+03  0.57411272217E+03  0.25500000920E-02 0.  1.
    10030    2    1    2    0    0  0.00000000000E+00  0.00000000000E+00  0.18096424004E+03  0.13291896844E+04  0.13168132597E+04 0.  0.
        2    1    3    3  502    0 -0.26908599384E+03  0.58944907567E+03 -0.27413777997E+02  0.64854375344E+03  0.25500000920E-02 0.  1.
       -2    1    3    3    0  502  0.26908599384E+03 -0.58944907567E+03  0.20837801803E+03  0.68064593093E+03  0.25500000920E-02 0. -1.
</event>
<event>
 5   0  0.1700511E-03  0.1297507E+04  0.7818609E-02  0.9031544E-01
       -2   -1    0    0    0  501  0.00000000000E+00  0.00000000000E+00  0.35325544893E+03  0.35325544894E+03  0.25500000920E-02 0. -1.
        2   -1    0    0  501    0  0.00000000000E+00  0.00000000000E+00 -0.11914360975E+04  0.11914360975E+04  0.25500000920E-02 0.  1.
    10030    2    1    2    0    0  0.00000000000E+00  0.00000000000E+00 -0.83818064853E+03  0.15446915464E+04  0.12975072924E+04 0.  0.
        2    1    3    3  502    0 -0.46335532777E+03  0.86913078840E+02 -0.94967360925E+03  0.10602509171E+04  0.25500000920E-02 0.  1.
       -2    1    3    3    0  502  0.46335532777E+03 -0.86913078840E+02  0.11149296072E+03  0.48444062932E+03  0.25500000920E-02 0. -1.
</event>
<event>
 5   0  0.1714861E-03  0.1293223E+04  0.7818609E-02  0.9034957E-01
       -2   -1    0    0    0  501  0.00000000000E+00  0.00000000000E+00  0.94161935710E+03  0.94161935711E+03  0.25500000920E-02 0.  1.
        2   -1    0    0  501    0  0.00000000000E+00  0.00000000000E+00 -0.44402887615E+03  0.44402887616E+03  0.25500000920E-02 0. -1.
    10030    2    1    2    0    0  0.00000000000E+00  0.00000000000E+00  0.49759048095E+03  0.13856482333E+04  0.12932226180E+04 0.  0.
        1    1    3    3  502    0 -0.61370128314E+03 -0.11662294545E+03  0.42768891934E+03  0.75706537900E+03  0.50400001928E-02 0.  1.
       -1    1    3    3    0  502  0.61370128314E+03  0.11662294545E+03  0.69901561613E+02  0.62858285427E+03  0.50400001928E-02 0. -1.
</event>
<event>
 5   0  0.9215829E-04  0.1296146E+04  0.7818609E-02  0.9032627E-01
        1   -1    0    0  501    0  0.00000000000E+00  0.00000000000E+00  0.19010625578E+04  0.19010625578E+04  0.50400001928E-02 0.  1.
       -1   -1    0    0    0  501  0.00000000000E+00  0.00000000000E+00 -0.22092830937E+03  0.22092830942E+03  0.50400001928E-02 0. -1.
    10030    2    1    2    0    0  0.00000000000E+00  0.00000000000E+00  0.16801342484E+04  0.21219908672E+04  0.12961458822E+04 0.  0.
        3    1    3    3  502    0  0.55145582875E+03  0.30691962230E+03  0.59892511914E+03  0.87006579875E+03  0.10100000352E+00 0.  1.
       -3    1    3    3    0  502 -0.55145582875E+03 -0.30691962230E+03  0.10812091293E+04  0.12519250684E+04  0.10100000352E+00 0. -1.
</event>
<event>
 5   0  0.9215829E-04  0.1295676E+04  0.7818609E-02  0.9033001E-01
        1   -1    0    0  501    0  0.00000000000E+00  0.00000000000E+00  0.17661401321E+04  0.17661401321E+04  0.50400001928E-02 0.  1.
       -1   -1    0    0    0  501  0.00000000000E+00  0.00000000000E+00 -0.23763345808E+03  0.23763345813E+03  0.50400001928E-02 0. -1.
    10030    2    1    2    0    0  0.00000000000E+00  0.00000000000E+00  0.15285066740E+04  0.20037735902E+04  0.12956758655E+04 0.  0.
        3    1    3    3  502    0  0.77916160153E+01 -0.54106501803E+03  0.21337950907E+03  0.58167249214E+03  0.10100000352E+00 0. -1.
       -3    1    3    3    0  502 -0.77916160153E+01  0.54106501803E+03  0.13151271649E+04  0.14221010981E+04  0.10100000352E+00 0.  1.
</event>
<event>
 5   0  0.6284125E-04  0.1293621E+04  0.7818609E-02  0.9034639E-01
       -3   -1    0    0    0  501  0.00000000000E+00  0.00000000000E+00  0.17276602121E+04  0.17276602150E+04  0.10100000352E+00 0. -1.
        3   -1    0    0  501    0  0.00000000000E+00  0.00000000000E+00 -0.24215624019E+03  0.24215626125E+03  0.10100000352E+00 0.  1.
    10030    2    1    2    0    0  0.00000000000E+00  0.00000000000E+00  0.14855039719E+04  0.19698164763E+04  0.12936208485E+04 0.  0.
        1    1    3    3  502    0 -0.52708075613E+03 -0.18343179132E+03  0.24488601276E+03  0.60945098639E+03  0.50400001928E-02 0.  1.
       -1    1    3    3    0  502  0.52708075613E+03  0.18343179132E+03  0.12406179591E+04  0.13603654899E+04  0.50400001928E-02 0. -1.
</event>
<event>
 5   0  0.1623890E-03  0.1298401E+04  0.7818609E-02  0.9030834E-01
       -2   -1    0    0    0  501  0.00000000000E+00  0.00000000000E+00  0.45188622377E+03  0.45188622378E+03  0.25500000920E-02 0. -1.
        2   -1    0    0  501    0  0.00000000000E+00  0.00000000000E+00 -0.93267176026E+03  0.93267176026E+03  0.25500000920E-02 0.  1.
    10030    2    1    2    0    0  0.00000000000E+00  0.00000000000E+00 -0.48078553649E+03  0.13845579840E+04  0.12984013552E+04 0.  0.
        3    1    3    3  502    0 -0.49972881669E+03  0.34804761463E+03 -0.53265367830E+00  0.60898795243E+03  0.10100000352E+00 0. -1.
       -3    1    3    3    0  502  0.49972881669E+03 -0.34804761463E+03 -0.48025288281E+03  0.77557003161E+03  0.10100000352E+00 0.  1.
</event>
<event>
 5   0  0.9098192E-04  0.1305530E+04  0.7818609E-02  0.9025192E-01
        1   -1    0    0  501    0  0.00000000000E+00  0.00000000000E+00  0.73671398663E+03  0.73671398665E+03  0.50400001928E-02 0. -1.
       -1   -1    0    0    0  501  0.00000000000E+00  0.00000000000E+00 -0.57838161707E+03  0.57838161709E+03  0.50400001928E-02 0.  1.
    10030    2    1    2    0    0  0.00000000000E+00  0.00000000000E+00  0.15833236956E+03  0.13150956037E+04  0.13055295124E+04 0.  0.
        1    1    3    3  502    0 -0.44429964315E+03 -0.40499097755E+03  0.33535621503E+03  0.68839207998E+03  0.50400001928E-02 0. -1.
       -1    1    3    3    0  502  0.44429964315E+03  0.40499097755E+03 -0.17702384547E+03  0.62670352376E+03  0.50400001928E-02 0.  1.
</event>
<event>
 5   0  0.1700511E-03  0.1284075E+04  0.7818609E-02  0.9042290E-01
       -2   -1    0    0    0  501  0.00000000000E+00  0.00000000000E+00  0.59601150368E+03  0.59601150369E+03  0.25500000920E-02 0.  1.
        2   -1    0    0  501    0  0.00000000000E+00  0.00000000000E+00 -0.69161797540E+03  0.69161797540E+03  0.25500000920E-02 0. -1.
    10030    2    1    2    0    0  0.00000000000E+00  0.00000000000E+00 -0.95606471715E+02  0.12876294791E+04  0.12840751839E+04 0.  0.
        2    1    3    3  502    0  0.59084213670E+03 -0.45371272962E+02  0.19998251077E+03  0.62541665115E+03  0.25500000920E-02 0.  1.
       -2    1    3    3    0  502 -0.59084213670E+03  0.45371272962E+02 -0.29558898249E+03  0.66221282794E+03  0.25500000920E-02 0. -1.
</event>
<event>
 5   0  0.9081324E-04  0.1293347E+04  0.7818609E-02  0.9034858E-01
        1   -1    0    0  501    0  0.00000000000E+00  0.00000000000E+00  0.12821666926E+04  0.12821666926E+04  0.50400001928E-02 0.  1.
       -1   -1    0    0    0  501  0.00000000000E+00  0.00000000000E+00 -0.32615632584E+03  0.32615632588E+03  0.50400001928E-02 0. -1.
    10030    2    1    2    0    0  0.00000000000E+00  0.00000000000E+00  0.95601036671E+03  0.16083230184E+04  0.12933472505E+04 0.  0.
        4    1    3    3  502    0  0.62783157995E+02  0.51690048645E+03  0.95487679245E+03  0.10876208620E+04  0.12699999809E+01 0.  1.
       -4    1    3    3    0  502 -0.62783157995E+02 -0.51690048645E+03  0.11335742639E+01  0.52070215643E+03  0.12699999809E+01 0. -1.
</event>
<event>
 5   0  0.9098192E-04  0.1301339E+04  0.7818609E-02  0.9028504E-01
       -1   -1    0    0    0  501  0.00000000000E+00  0.00000000000E+00  0.51217941172E+03  0.51217941174E+03  0.50400001928E-02 0. -1.
        1   -1    0    0  501    0  0.00000000000E+00  0.00000000000E+00 -0.82660581970E+03  0.82660581972E+03  0.50400001928E-02 0.  1.
    10030    2    1    2    0    0  0.00000000000E+00  0.00000000000E+00 -0.31442640798E+03  0.13387852315E+04  0.13013385147E+04 0.  0.
        1    1    3    3  502    0  0.28884446661E+03  0.17895493496E+03  0.41365478534E+03  0.53531885461E+03  0.50400001928E-02 0. -1.
       -1    1    3    3    0  502 -0.28884446661E+03 -0.17895493496E+03 -0.72808119332E+03  0.80346637685E+03  0.50400001928E-02 0.  1.
</event>
<event>
 5   0  0.9110949E-04  0.1335627E+04  0.7818609E-02  0.9001780E-01
       -1   -1    0    0    0  501  0.00000000000E+00  0.00000000000E+00  0.35961875731E+03  0.35961875734E+03  0.50400001928E-02 0.  1.
        1   -1    0    0  501    0  0.00000000000E+00  0.00000000000E+00 -0.12401316867E+04  0.12401316867E+04  0.50400001928E-02 0. -1.
    10030    2    1    2    0    0  0.00000000000E+00  0.00000000000E+00 -0.88051292940E+03  0.15997504441E+04  0.13356266186E+04 0.  0.
        2    1    3    3  502    0 -0.59083260474E+03 -0.27038546710E+03 -0.62497132978E+03  0.90154347133E+03  0.25500000920E-02 0. -1.
       -2    1    3    3    0  502  0.59083260474E+03  0.27038546710E+03 -0.25554159962E+03  0.69820697274E+03  0.25500000920E-02 0.  1.
</event>
<event>
 5   0  0.9215829E-04  0.1303557E+04  0.7818609E-02  0.9026749E-01
        1   -1    0    0  501    0  0.00000000000E+00  0.00000000000E+00  0.16238122302E+04  0.16238122302E+04  0.50400001928E-02 0.  1.
       -1   -1    0    0    0  501  0.00000000000E+00  0.00000000000E+00 -0.26161583354E+03  0.26161583359E+03  0.50400001928E-02 0. -1.
    10030    2    1    2    0    0  0.00000000000E+00  0.00000000000E+00  0.13621963966E+04  0.18854280638E+04  0.13035566580E+04 0.  0.
        3    1    3    3  502    0  0.18036037461E+03 -0.62623266522E+03  0.66540227749E+03  0.93137394037E+03  0.10100000352E+00 0.  1.
       -3    1    3    3    0  502 -0.18036037461E+03  0.62623266522E+03  0.69679411914E+03  0.95405412340E+03  0.10100000352E+00 0. -1.
</event>
<event>
 5   0  0.1694675E-03  0.1294326E+04  0.7818609E-02  0.9034077E-01
        2   -1    0    0  501    0  0.00000000000E+00  0.00000000000E+00  0.11115557161E+04  0.11115557161E+04  0.25500000920E-02 0.  1.
       -2   -1    0    0    0  501  0.00000000000E+00  0.00000000000E+00 -0.37678700793E+03  0.37678700794E+03  0.25500000920E-02 0. -1.
    10030    2    1    2    0    0  0.00000000000E+00  0.00000000000E+00  0.73476870815E+03  0.14883427240E+04  0.12943256969E+04 0.  0.
        4    1    3    3  502    0  0.15078717658E+02 -0.60175029017E+03  0.94087259675E+02  0.60924937815E+03  0.12699999809E+01 0. -1.
       -4    1    3    3    0  502 -0.15078717658E+02  0.60175029017E+03  0.64068144848E+03  0.87909334588E+03  0.12699999809E+01 0.  1.
</event>
<event>
 5   0  0.1694675E-03  0.1292688E+04  0.7818609E-02  0.9035384E-01
       -2   -1    0    0    0  501  0.00000000000E+00  0.00000000000E+00  0.20084039493E+03  0.20084039495E+03  0.25500000920E-02 0. -1.
        2   -1    0    0  501    0  0.00000000000E+00  0.00000000000E+00 -0.20800633403E+04  0.20800633403E+04  0.25500000920E-02 0.  1.
    10030    2    1    2    0    0  0.00000000000E+00  0.00000000000E+00 -0.18792229453E+04  0.22809037352E+04  0.12926882730E+04 0.  0.
        4    1    3    3  502    0  0.26326915914E+03 -0.21455524765E+03 -0.19099303286E+04  0.19398917695E+04  0.12699999809E+01 0.  1.
       -4    1    3    3    0  502 -0.26326915914E+03  0.21455524765E+03  0.30707383279E+02  0.34101196568E+03  0.12699999809E+01 0. -1.
</event>
<event>
 5   0  0.9110949E-04  0.1298125E+04  0.7818609E-02  0.9031053E-01
        1   -1    0    0  501    0  0.00000000000E+00  0.00000000000E+00  0.99707249889E+03  0.99707249890E+03  0.50400001928E-02 0. -1.
       -1   -1    0    0    0  501  0.00000000000E+00  0.00000000000E+00 -0.42251923923E+03  0.42251923926E+03  0.50400001928E-02 0.  1.
    10030    2    1    2    0    0  0.00000000000E+00  0.00000000000E+00  0.57455325966E+03  0.14195917382E+04  0.12981252847E+04 0.  0.
        2    1    3    3  502    0  0.45693032119E+03  0.45963306391E+03  0.24885443486E+03  0.69424520281E+03  0.25500000920E-02 0.  1.
       -2    1    3    3    0  502 -0.45693032119E+03 -0.45963306391E+03  0.32569882480E+03  0.72534653535E+03  0.25500000920E-02 0. -1.
</event>
<event>
 5   0  0.1694675E-03  0.1274622E+04  0.7818609E-02  0.9049935E-01
       -2   -1    0    0    0  501  0.00000000000E+00  0.00000000000E+00  0.44195060534E+03  0.44195060535E+03  0.25500000920E-02 0.  1.
        2   -1    0    0  501    0  0.00000000000E+00  0.00000000000E+00 -0.91902928273E+03  0.91902928274E+03  0.25500000920E-02 0. -1.
    10030    2    1    2    0    0  0.00000000000E+00  0.00000000000E+00 -0.47707867739E+03  0.13609798881E+04  0.12746223721E+04 0.  0.
        4    1    3    3  502    0 -0.17707923969E+03 -0.36834446224E+03 -0.76067878915E+03  0.86352100910E+03  0.12699999809E+01 0. -1.
       -4    1    3    3    0  502  0.17707923969E+03  0.36834446224E+03  0.28360011176E+03  0.49745887899E+03  0.12699999809E+01 0.  1.
</event>
<event>
 5   0  0.1714861E-03  0.1288638E+04  0.7818609E-02  0.9038624E-01
       -2   -1    0    0    0  501  0.00000000000E+00  0.00000000000E+00  0.25945023661E+03  0.25945023663E+03  0.25500000920E-02 0. -1.
        2   -1    0    0  501    0  0.00000000000E+00  0.00000000000E+00 -0.16001019787E+04  0.16001019787E+04  0.25500000920E-02 0.  1.
    10030    2    1    2    0    0  0.00000000000E+00  0.00000000000E+00 -0.13406517421E+04  0.18595522153E+04  0.12886377877E+04 0.  0.
        1    1    3    3  502    0  0.62561601298E+03  0.52326633724E+02 -0.87950835412E+03  0.10805870707E+04  0.50400001928E-02 0.  1.
       -1    1    3    3    0  502 -0.62561601298E+03 -0.52326633724E+02 -0.46114338794E+03  0.77896514464E+03  0.50400001928E-02 0. -1.
</event>
<event>
 5   0  0.1694675E-03  0.1304011E+04  0.7818609E-02  0.9026390E-01
        2   -1    0    0  501    0  0.00000000000E+00  0.00000000000E+00  0.75746273206E+03  0.75746273206E+03  0.25500000920E-02 0. -1.
       -2   -1    0    0    0  501  0.00000000000E+00  0.00000000000E+00 -0.56123062782E+03  0.56123062782E+03  0.25500000920E-02 0.  1.
    10030    2    1    2    0    0  0.00000000000E+00  0.00000000000E+00  0.19623210424E+03  0.13186933599E+04  0.13040111728E+04 0.  0.
        4    1    3    3  502    0 -0.15811334324E+03 -0.61537309913E+03 -0.49907541084E+02  0.63731958702E+03  0.12699999809E+01 0.  1.
       -4    1    3    3    0  502  0.15811334324E+03  0.61537309913E+03  0.24613964533E+03  0.68137377286E+03  0.12699999809E+01 0. -1.
</event>
<event>
 5   0  0.9215829E-04  0.1298478E+04  0.7818609E-02  0.9030773E-01
       -1   -1    0    0    0  501  0.00000000000E+00  0.00000000000E+00  0.53253574205E+03  0.53253574207E+03  0.50400001928E-02 0.  1.
        1   -1    0    0  501    0  0.00000000000E+00  0.00000000000E+00 -0.79151768200E+03  0.79151768202E+03  0.50400001928E-02 0. -1.
    10030    2    1    2    0    0  0.00000000000E+00  0.00000000000E+00 -0.25898193996E+03  0.13240534241E+04  0.12984782727E+04 0.  0.
        3    1    3    3  502    0  0.28806723908E+03  0.20444028008E+02 -0.72241672256E+03  0.77800168621E+03  0.10100000352E+00 0. -1.
       -3    1    3    3    0  502 -0.28806723908E+03 -0.20444028008E+02  0.46343478260E+03  0.54605173788E+03  0.10100000352E+00 0.  1.
</event>
<event>
 5   0  0.1667342E-03  0.1288435E+04  0.7818609E-02  0.9038787E-01
       -2   -1    0    0    0  501  0.00000000000E+00  0.00000000000E+00  0.38343183010E+03  0.38343183010E+03  0.25500000920E-02 0. -1.
        2   -1    0    0  501    0  0.00000000000E+00  0.00000000000E+00 -0.10823725535E+04  0.10823725535E+04  0.25500000920E-02 0.  1.
    10030    2    1    2    0    0  0.00000000000E+00  0.00000000000E+00 -0.69894072342E+03  0.14658043836E+04  0.12884348475E+04 0.  0.
        5    1    3    3  502    0 -0.26321559398E+03 -0.15699765887E+03 -0.99409793249E+03  0.10402804926E+04  0.46999998093E+01 0.  1.
       -5    1    3    3    0  502  0.26321559398E+03  0.15699765887E+03  0.29515720907E+03  0.42552389107E+03  0.46999998093E+01 0. -1.
</event>
<event>
 5   0  0.9027076E-04  0.1299723E+04  0.7818609E-02  0.9029785E-01
       -1   -1    0    0    0  501  0.00000000000E+00  0.00000000000E+00  0.38890068840E+03  0.38890068844E+03  0.50400001928E-02 0.  1.
        1   -1    0    0  501    0  0.00000000000E+00  0.00000000000E+00 -0.10859321862E+04  0.10859321862E+04  0.50400001928E-02 0. -1.
    10030    2    1    2    0    0  0.00000000000E+00  0.00000000000E+00 -0.69703149782E+03  0.14748328747E+04  0.12997227009E+04 0.  0.
        5    1    3    3  502    0 -0.26219726535E+03 -0.24722442615E+03 -0.96214116020E+03  0.10274264086E+04  0.46999998093E+01 0. -1.
       -5    1    3    3    0  502  0.26219726535E+03  0.24722442615E+03  0.26510966238E+03  0.44740646612E+03  0.46999998093E+01 0.  1.
</event>
<event>
 5   0  0.9215829E-04  0.1301868E+04  0.7818609E-02  0.9028085E-01
        1   -1    0    0  501    0  0.00000000000E+00  0.00000000000E+00  0.74623495944E+03  0.74623495946E+03  0.50400001928E-02 0. -1.
       -1   -1    0    0    0  501  0.00000000000E+00  0.00000000000E+00 -0.56780388995E+03  0.56780388997E+03  0.50400001928E-02 0.  1.
    10030    2    1    2    0    0  0.00000000000E+00  0.00000000000E+00  0.17843106949E+03  0.13140388494E+04  0.13018680622E+04 0.  0.
        3    1    3    3  502    0 -0.10206743441E+03 -0.51107157097E+03 -0.30443459123E+03  0.60356635290E+03  0.10100000352E+00 0.  1.
       -3    1    3    3    0  502  0.10206743441E+03  0.51107157097E+03  0.48286566072E+03  0.71047249653E+03  0.10100000352E+00 0. -1.
</event>
<event>
 5   0  0.1667342E-03  0.1323246E+04  0.7818609E-02  0.9011331E-01
       -2   -1    0    0    0  501  0.00000000000E+00  0.00000000000E+00  0.70395063988E+03  0.70395063989E+03  0.25500000920E-02 0.  1.
        2   -1    0    0  501    0  0.00000000000E+00  0.00000000000E+00 -0.62184056069E+03  0.62184056069E+03  0.25500000920E-02 0. -1.
    10030    2    1    2    0    0  0.00000000000E+00  0.00000000000E+00  0.82110079198E+02  0.13257912006E+04  0.13232461005E+04 0.  0.
        5    1    3    3  502    0 -0.61285404297E+03 -0.32359227038E+02  0.28868577451E+03  0.67823208710E+03  0.46999998093E+01 0.  1.
       -5    1    3    3    0  502  0.61285404297E+03  0.32359227038E+02 -0.20657569531E+03  0.64755911348E+03  0.46999998093E+01 0. -1.
</event>
<event>
 5   0  0.9098192E-04  0.1268562E+04  0.7818609E-02  0.9054874E-01
       -1   -1    0    0    0  501  0.00000000000E+00  0.00000000000E+00  0.31912280659E+03  0.31912280663E+03  0.50400001928E-02 0.  1.
        1   -1    0    0  501    0  0.00000000000E+00  0.00000000000E+00 -0.12606811437E+04  0.12606811437E+04  0.50400001928E-02 0. -1.
    10030    2    1    2    0    0  0.00000000000E+00  0.00000000000E+00 -0.94155833712E+03  0.15798039503E+04  0.12685615552E+04 0.  0.
        1    1    3    3  502    0 -0.66276382588E+02  0.62047160430E+03 -0.61241301383E+03  0.87431531507E+03  0.50400001928E-02 0.  1.
       -1    1    3    3    0  502  0.66276382588E+02 -0.62047160430E+03 -0.32914532328E+03  0.70548863527E+03  0.50400001928E-02 0. -1.
</event>
<event>
 5   0  0.9081324E-04  0.1268940E+04  0.7818609E-02  0.9054565E-01
        1   -1    0    0  501    0  0.00000000000E+00  0.00000000000E+00  0.55983197098E+03  0.55983197100E+03  0.50400001928E-02 0.  1.
       -1   -1    0    0    0  501  0.00000000000E+00  0.00000000000E+00 -0.71905873215E+03  0.71905873217E+03  0.50400001928E-02 0. -1.
    10030    2    1    2    0    0  0.00000000000E+00  0.00000000000E+00 -0.15922676117E+03  0.12788907032E+04  0.12689398209E+04 0.  0.
        4    1    3    3  502    0 -0.43742584538E+03  0.40496971577E+03  0.13936590106E+03  0.61218159738E+03  0.12699999809E+01 0.  1.
       -4    1    3    3    0  502  0.43742584538E+03 -0.40496971577E+03 -0.29859266223E+03  0.66670910578E+03  0.12699999809E+01 0. -1.
</event>
<event>
 5   0  0.9027076E-04  0.1296157E+04  0.7818609E-02  0.9032618E-01
       -1   -1    0    0    0  501  0.00000000000E+00  0.00000000000E+00  0.93568310178E+03  0.93568310179E+03  0.50400001928E-02 0. -1.
        1   -1    0    0  501    0  0.00000000000E+00  0.00000000000E+00 -0.44887633535E+03  0.44887633538E+03  0.50400001928E-02 0.  1.
    10030    2    1    2    0    0  0.00000000000E+00  0.00000000000E+00  0.48680676643E+03  0.13845594372E+04  0.12961574006E+04 0.  0.
        5    1    3    3  502    0 -0.78134947194E+02  0.63657924647E+03  0.34272735124E+03  0.72720171500E+03  0.46999998093E+01 0. -1.
       -5    1    3    3    0  502  0.78134947194E+02 -0.63657924647E+03  0.14407941519E+03  0.65735772217E+03  0.46999998093E+01 0.  1.
</event>
<event>
 5   0  0.9081324E-04  0.1299478E+04  0.7818609E-02  0.9029979E-01
        1   -1    0    0  501    0  0.00000000000E+00  0.00000000000E+00  0.50373196671E+03  0.50373196674E+03  0.50400001928E-02 0.  1.
       -1   -1    0    0    0  501  0.00000000000E+00  0.00000000000E+00 -0.83806650881E+03  0.83806650883E+03  0.50400001928E-02 0. -1.
    10030    2    1    2    0    0  0.00000000000E+00  0.00000000000E+00 -0.33433454210E+03  0.13417984756E+04  0.12994781887E+04 0.  0.
        4    1    3    3  502    0  0.25836905637E+03  0.46003611057E+03 -0.55868792714E+03  0.76845403581E+03  0.12699999809E+01 0. -1.
       -4    1    3    3    0  502 -0.25836905637E+03 -0.46003611057E+03  0.22435338503E+03  0.57334443976E+03  0.12699999809E+01 0.  1.
</event>
<event>
 5   0  0.9098192E-04  0.1298753E+04  0.7818609E-02  0.9030555E-01
       -1   -1    0    0    0  501  0.00000000000E+00  0.00000000000E+00  0.54610473005E+03  0.54610473007E+03  0.50400001928E-02 0. -1.
        1   -1    0    0  501    0  0.00000000000E+00  0.00000000000E+00 -0.77217772821E+03  0.77217772823E+03  0.50400001928E-02 0.  1.
    10030    2    1    2    0    0  0.00000000000E+00  0.00000000000E+00 -0.22607299817E+03  0.13182824583E+04  0.12987531095E+04 0.  0.
        1    1    3    3  502    0  0.32863334559E+03 -0.13906849972E+03  0.43766198735E+03  0.56470163684E+03  0.50400001928E-02 0. -1.
       -1    1    3    3    0  502 -0.32863334559E+03  0.13906849972E+03 -0.66373498551E+03  0.75358082146E+03  0.50400001928E-02 0.  1.
</event>
<event>
 5   0  0.1694675E-03  0.1368185E+04  0.7818609E-02  0.8977176E-01
       -2   -1    0    0    0  501  0.00000000000E+00  0.00000000000E+00  0.51408243143E+03  0.51408243144E+03  0.25500000920E-02 0. -1.
        2   -1    0    0  501    0  0.00000000000E+00  0.00000000000E+00 -0.91032536781E+03  0.91032536781E+03  0.25500000920E-02 0.  1.
    10030    2    1    2    0    0  0.00000000000E+00  0.00000000000E+00 -0.39624293638E+03  0.14244077993E+04  0.13681846052E+04 0.  0.
        4    1    3    3  502    0  0.10042215033E+03 -0.57014680225E+03  0.18131194618E+03  0.60665279948E+03  0.12699999809E+01 0. -1.
       -4    1    3    3    0  502 -0.10042215033E+03  0.57014680225E+03 -0.57755488256E+03  0.81775499977E+03  0.12699999809E+01 0.  1.
</event>
<event>
 5   0  0.9081324E-04  0.1273451E+04  0.7818609E-02  0.9050888E-01
       -1   -1    0    0    0  501  0.00000000000E+00  0.00000000000E+00  0.75378626576E+03  0.75378626578E+03  0.50400001928E-02 0. -1.
        1   -1    0    0  501    0  0.00000000000E+00  0.00000000000E+00 -0.53784381249E+03  0.53784381251E+03  0.50400001928E-02 0.  1.
    10030    2    1    2    0    0  0.00000000000E+00  0.00000000000E+00  0.21594245327E+03  0.12916300783E+04  0.12734508691E+04 0.  0.
        4    1    3    3  502    0  0.87289150551E+02  0.35537213075E+03  0.63647489495E+03  0.73417344812E+03  0.12699999809E+01 0. -1.
       -4    1    3    3    0  502 -0.87289150551E+02 -0.35537213075E+03 -0.42053244168E+03  0.55745663017E+03  0.12699999809E+01 0.  1.
</event>
<event>
 5   0  0.9098192E-04  0.1304911E+04  0.7818609E-02  0.9025680E-01
        1   -1    0    0  501    0  0.00000000000E+00  0.00000000000E+00  0.85564202752E+03  0.85564202754E+03  0.50400001928E-02 0.  1.
       -1   -1    0    0    0  501  0.00000000000E+00  0.00000000000E+00 -0.49751873575E+03  0.49751873578E+03  0.50400001928E-02 0. -1.
    10030    2    1    2    0    0  0.00000000000E+00  0.00000000000E+00  0.35812329177E+03  0.13531607633E+04  0.13049106327E+04 0.  0.
        1    1    3    3  502    0 -0.31415134279E+03  0.52217477471E+03 -0.62668021881E+02  0.61260496448E+03  0.50400001928E-02 0.  1.
       -1    1    3    3    0  502  0.31415134279E+03 -0.52217477471E+03  0.42079131365E+03  0.74055579883E+03  0.50400001928E-02 0. -1.
</event>
<event>
 5   0  0.9215829E-04  0.1287300E+04  0.7818609E-02  0.9039698E-01
        1   -1    0    0  501    0  0.00000000000E+00  0.00000000000E+00  0.11622721898E+04  0.11622721898E+04  0.50400001928E-02 0.  1.
       -1   -1    0    0    0  501  0.00000000000E+00  0.00000000000E+00 -0.35644409150E+03  0.35644409154E+03  0.50400001928E-02 0. -1.
    10030    2    1    2    0    0  0.00000000000E+00  0.00000000000E+00  0.80582809825E+03  0.15187162813E+04  0.12872995841E+04 0.  0.
        3    1    3    3  502    0  0.23131621573E+03  0.25991270820E+03 -0.23593199779E+03  0.42038758940E+03  0.10100000352E+00 0. -1.
       -3    1    3    3    0  502 -0.23131621573E+03 -0.25991270820E+03  0.10417600960E+04  0.10983286919E+04  0.10100000352E+00 0.  1.
</event>
<event>
 5   0  0.9215829E-04  0.1304544E+04  0.7818609E-02  0.9025970E-01
       -1   -1    0    0    0  501  0.00000000000E+00  0.00000000000E+00  0.58047496246E+03  0.58047496248E+03  0.50400001928E-02 0.  1.
        1   -1    0    0  501    0  0.00000000000E+00  0.00000000000E+00 -0.73294923341E+03  0.73294923343E+03  0.50400001928E-02 0. -1.
    10030    2    1    2    0    0  0.00000000000E+00  0.00000000000E+00 -0.15247427095E+03  0.13134241959E+04  0.13045438724E+04 0.  0.
        3    1    3    3  502    0 -0.27953526193E+02  0.45907331587E+03  0.38943592341E+03  0.60265251813E+03  0.10100000352E+00 0.  1.
       -3    1    3    3    0  502  0.27953526193E+02 -0.45907331587E+03 -0.54191019436E+03  0.71077167777E+03  0.10100000352E+00 0. -1.
</event>
<event>
 5   0  0.1694675E-03  0.1298140E+04  0.7818609E-02  0.9031042E-01
        2   -1    0    0  501    0  0.00000000000E+00  0.00000000000E+00  0.13924053578E+04  0.13924053578E+04  0.25500000920E-02 0.  1.
       -2   -1    0    0    0  501  0.00000000000E+00  0.00000000000E+00 -0.30256387397E+03  0.30256387398E+03  0.25500000920E-02 0. -1.
    10030    2    1    2    0    0  0.00000000000E+00  0.00000000000E+00  0.10898414839E+04  0.16949692318E+04  0.12981395290E+04 0.  0.
        4    1    3    3  502    0 -0.16862967887E+03  0.29670600894E+03 -0.17595736008E+03  0.38397008972E+03  0.12699999809E+01 0. -1.
       -4    1    3    3    0  502  0.16862967887E+03 -0.29670600894E+03  0.12657988439E+04  0.13109991421E+04  0.12699999809E+01 0.  1.
</event>
<event>
 5   0  0.9110949E-04  0.1297328E+04  0.7818609E-02  0.9031687E-01
        1   -1    0    0  501    0  0.00000000000E+00  0.00000000000E+00  0.17097667876E+04  0.17097667876E+04  0.50400001928E-02 0. -1.
       -1   -1    0    0    0  501  0.00000000000E+00  0.00000000000E+00 -0.24609478480E+03  0.24609478485E+03  0.50400001928E-02 0.  1.
    10030    2    1    2    0    0  0.00000000000E+00  0.00000000000E+00  0.14636720028E+04  0.19558615725E+04  0.12973275449E+04 0.  0.
        2    1    3    3  502    0  0.16116034146E+03 -0.61790857901E+03  0.56006774052E+03  0.84938774517E+03  0.25500000920E-02 0.  1.
       -2    1    3    3    0  502 -0.16116034146E+03  0.61790857901E+03  0.90360426230E+03  0.11064738273E+04  0.25500000920E-02 0. -1.
</event>
<event>
 5   0  0.9081324E-04  0.1267470E+04  0.7818609E-02  0.9055767E-01
       -1   -1    0    0    0  501  0.00000000000E+00  0.00000000000E+00  0.88252715591E+03  0.88252715593E+03  0.50400001928E-02 0. -1.
        1   -1    0    0  501    0  0.00000000000E+00  0.00000000000E+00 -0.45507975396E+03  0.45507975398E+03  0.50400001928E-02 0.  1.
    10030    2    1    2    0    0  0.00000000000E+00  0.00000000000E+00  0.42744740195E+03  0.13376069099E+04  0.12674703010E+04 0.  0.
        4    1    3    3  502    0  0.16610422470E+03 -0.59776853432E+03  0.35010639706E+03  0.71238608650E+03  0.12699999809E+01 0.  1.
       -4    1    3    3    0  502 -0.16610422470E+03  0.59776853432E+03  0.77341004895E+02  0.62522082341E+03  0.12699999809E+01 0. -1.
</event>
<event>
 5   0  0.1694675E-03  0.1311720E+04  0.7818609E-02  0.9020323E-01
       -2   -1    0    0    0  501  0.00000000000E+00  0.00000000000E+00  0.30866286555E+03  0.30866286556E+03  0.25500000920E-02 0. -1.
        2   -1    0    0  501    0  0.00000000000E+00  0.00000000000E+00 -0.13935984560E+04  0.13935984560E+04  0.25500000920E-02 0.  1.
    10030    2    1    2    0    0  0.00000000000E+00  0.00000000000E+00 -0.10849355905E+04  0.17022613216E+04  0.13117196238E+04 0.  0.
        4    1    3    3  502    0  0.70600871239E+02 -0.15698043127E+03 -0.13637624991E+04  0.13745825205E+04  0.12699999809E+01 0.  1.
       -4    1    3    3    0  502 -0.70600871239E+02  0.15698043127E+03  0.27882690862E+03  0.32767880110E+03  0.12699999809E+01 0. -1.
</event>
<event>
 5   0  0.1667342E-03  0.1249880E+04  0.7818609E-02  0.9070283E-01
        2   -1    0    0  501    0  0.00000000000E+00  0.00000000000E+00  0.32403083149E+04  0.32403083149E+04  0.25500000920E-02 0. -1.
       -2   -1    0    0    0  501  0.00000000000E+00  0.00000000000E+00 -0.12052871753E+03  0.12052871756E+03  0.25500000920E-02 0.  1.
    10030    2    1    2    0    0  0.00000000000E+00  0.00000000000E+00  0.31197795974E+04  0.33608370325E+04  0.12498803233E+04 0.  0.
        5    1    3    3  502    0  0.99359661608E+02 -0.42576429270E+03  0.27605508075E+04  0.27949616144E+04  0.46999998093E+01 0. -1.
       -5    1    3    3    0  502 -0.99359661608E+02  0.42576429270E+03  0.35922878992E+03  0.56587541809E+03  0.46999998093E+01 0.  1.
</event>
<event>
 5   0  0.9081324E-04  0.1300485E+04  0.7818609E-02  0.9029181E-01
       -1   -1    0    0    0  501  0.00000000000E+00  0.00000000000E+00  0.17081697156E+03  0.17081697164E+03  0.50400001928E-02 0.  1.
        1   -1    0    0  501    0  0.00000000000E+00  0.00000000000E+00 -0.24752517546E+04  0.24752517546E+04  0.50400001928E-02 0. -1.
    10030    2    1    2    0    0  0.00000000000E+00  0.00000000000E+00 -0.23044347830E+04  0.26460687262E+04  0.13004845384E+04 0.  0.
        4    1    3    3  502    0  0.61159297275E+03 -0.64280975094E+02 -0.72234893064E+03  0.94866622085E+03  0.12699999809E+01 0.  1.
       -4    1    3    3    0  502 -0.61159297275E+03  0.64280975094E+02 -0.15820858524E+04  0.16974025054E+04  0.12699999809E+01 0. -1.
</event>
<event>
 5   0  0.1694675E-03  0.1267191E+04  0.7818609E-02  0.9055995E-01
       -2   -1    0    0    0  501  0.00000000000E+00  0.00000000000E+00  0.25687902276E+03  0.25687902277E+03  0.25500000920E-02 0. -1.
        2   -1    0    0  501    0  0.00000000000E+00  0.00000000000E+00 -0.15627712997E+04  0.15627712997E+04  0.25500000920E-02 0.  1.
    10030    2    1    2    0    0  0.00000000000E+00  0.00000000000E+00 -0.13058922769E+04  0.18196503224E+04  0.12671908527E+04 0.  0.
        4    1    3    3  502    0  0.50204226619E+03  0.14607313194E+03 -0.11668109162E+04  0.12786059299E+04  0.12699999809E+01 0.  1.
       -4    1    3    3    0  502 -0.50204226619E+03 -0.14607313194E+03 -0.13908136072E+03  0.54104439255E+03  0.12699999809E+01 0. -1.
</event>
<event>
 5   0  0.1623890E-03  0.1315580E+04  0.7818609E-02  0.9017300E-01
        2   -1    0    0  501    0  0.00000000000E+00  0.00000000000E+00  0.14944520098E+04  0.14944520098E+04  0.25500000920E-02 0. -1.
       -2   -1    0    0    0  501  0.00000000000E+00  0.00000000000E+00 -0.28952940574E+03  0.28952940575E+03  0.25500000920E-02 0.  1.
    10030    2    1    2    0    0  0.00000000000E+00  0.00000000000E+00  0.12049226041E+04  0.17839814156E+04  0.13155801797E+04 0.  0.
        3    1    3    3  502    0 -0.64225230682E+03 -0.10521970277E+03  0.47290020031E+03  0.80448357418E+03  0.10100000352E+00 0.  1.
       -3    1    3    3    0  502  0.64225230682E+03  0.10521970277E+03  0.73202240377E+03  0.97949784139E+03  0.10100000352E+00 0. -1.
</event>
<event>
 5   0  0.9027076E-04  0.1295139E+04  0.7818609E-02  0.9033429E-01
        1   -1    0    0  501    0  0.00000000000E+00  0.00000000000E+00  0.96713579136E+03  0.96713579137E+03  0.50400001928E-02 0.  1.
       -1   -1    0    0    0  501  0.00000000000E+00  0.00000000000E+00 -0.43359625461E+03  0.43359625464E+03  0.50400001928E-02 0. -1.
    10030    2    1    2    0    0  0.00000000000E+00  0.00000000000E+00  0.53353953675E+03  0.14007320460E+04  0.12951393081E+04 0.  0.
        5    1    3    3  502    0  0.13945631292E+03 -0.63065531024E+03  0.21661914631E+03  0.68126362598E+03  0.46999998093E+01 0. -1.
       -5    1    3    3    0  502 -0.13945631292E+03  0.63065531024E+03  0.31692039044E+03  0.71946842003E+03  0.46999998093E+01 0.  1.
</event>
<event>
 5   0  0.1700511E-03  0.1300370E+04  0.7818609E-02  0.9029272E-01
       -2   -1    0    0    0  501  0.00000000000E+00  0.00000000000E+00  0.27954903185E+03  0.27954903186E+03  0.25500000920E-02 0.  1.
        2   -1    0    0  501    0  0.00000000000E+00  0.00000000000E+00 -0.15122226558E+04  0.15122226558E+04  0.25500000920E-02 0. -1.
    10030    2    1    2    0    0  0.00000000000E+00  0.00000000000E+00 -0.12326736240E+04  0.17917716877E+04  0.13003697619E+04 0.  0.
        2    1    3    3  502    0  0.41864844068E+03  0.30341824494E+03 -0.11595333686E+04  0.12695852792E+04  0.25500000920E-02 0. -1.
       -2    1    3    3    0  502 -0.41864844068E+03 -0.30341824494E+03 -0.73140255369E+02  0.52218640848E+03  0.25500000920E-02 0.  1.
</event>
<event>
 5   0  0.9027076E-04  0.1253995E+04  0.7818609E-02  0.9066865E-01
       -1   -1    0    0    0  501  0.00000000000E+00  0.00000000000E+00  0.14031642622E+03  0.14031642631E+03  0.50400001928E-02 0.  1.
        1   -1    0    0  501    0  0.00000000000E+00  0.00000000000E+00 -0.28017107657E+04  0.28017107657E+04  0.50400001928E-02 0. -1.
    10030    2    1    2    0    0  0.00000000000E+00  0.00000000000E+00 -0.26613943395E+04  0.29420271920E+04  0.12539952824E+04 0.  0.
        5    1    3    3  502    0 -0.75685923506E+02  0.26964267756E+03 -0.14632110067E+02  0.28048479678E+03  0.46999998093E+01 0.  1.
       -5    1    3    3    0  502  0.75685923506E+02 -0.26964267756E+03 -0.26467622294E+04  0.26615423953E+04  0.46999998093E+01 0. -1.
</event>
<event>
 5   0  0.1700511E-03  0.1301536E+04  0.7818609E-02  0.9028348E-01
        2   -1    0    0  501    0  0.00000000000E+00  0.00000000000E+00  0.11660631373E+04  0.11660631373E+04  0.25500000920E-02 0.  1.
       -2   -1    0    0    0  501  0.00000000000E+00  0.00000000000E+00 -0.36318695294E+03  0.36318695294E+03  0.25500000920E-02 0. -1.
    10030    2    1    2    0    0  0.00000000000E+00  0.00000000000E+00  0.80287618435E+03  0.15292500902E+04  0.13015358893E+04 0.  0.
        2    1    3    3  502    0  0.23444592790E+03 -0.32932559170E+03  0.10006421452E+04  0.10792149652E+04  0.25500000920E-02 0.  1.
       -2    1    3    3    0  502 -0.23444592790E+03  0.32932559170E+03 -0.19776596084E+03  0.45003512500E+03  0.25500000920E-02 0. -1.
</event>
<event>
 5   0  0.9215829E-04  0.1307858E+04  0.7818609E-02  0.9023357E-01
       -1   -1    0    0    0  501  0.00000000000E+00  0.00000000000E+00  0.19039477932E+03  0.19039477938E+03  0.50400001928E-02 0.  1.
        1   -1    0    0  501    0  0.00000000000E+00  0.00000000000E+00 -0.22459826880E+04  0.22459826880E+04  0.50400001928E-02 0. -1.
    10030    2    1    2    0    0  0.00000000000E+00  0.00000000000E+00 -0.20555879087E+04  0.24363774674E+04  0.13078583690E+04 0.  0.
        3    1    3    3  502    0  0.40620324243E+03 -0.32610571928E+02 -0.75066755880E+02  0.41436644604E+03  0.10100000352E+00 0.  1.
       -3    1    3    3    0  502 -0.40620324243E+03  0.32610571928E+02 -0.19805211528E+04  0.20220110214E+04  0.10100000352E+00 0. -1.
</event>
<event>
 5   0  0.1623890E-03  0.1289893E+04  0.7818609E-02  0.9037618E-01
       -2   -1    0    0    0  501  0.00000000000E+00  0.00000000000E+00  0.26159429828E+03  0.26159429829E+03  0.25500000920E-02 0. -1.
        2   -1    0    0  501    0  0.00000000000E+00  0.00000000000E+00 -0.15900811701E+04  0.15900811701E+04  0.25500000920E-02 0.  1.
    10030    2    1    2    0    0  0.00000000000E+00  0.00000000000E+00 -0.13284868718E+04  0.18516754684E+04  0.12898932792E+04 0.  0.
        3    1    3    3  502    0 -0.51660722626E+03 -0.20694124886E+02 -0.11078364176E+03  0.52875731532E+03  0.10100000352E+00 0. -1.
       -3    1    3    3    0  502  0.51660722626E+03  0.20694124886E+02 -0.12177032300E+04  0.13229181530E+04  0.10100000352E+00 0.  1.
</event>
<event>
 5   0  0.9110949E-04  0.1311062E+04  0.7818609E-02  0.9020838E-01
       -1   -1    0    0    0  501  0.00000000000E+00  0.00000000000E+00  0.46018967035E+03  0.46018967038E+03  0.50400001928E-02 0. -1.
        1   -1    0    0  501    0  0.00000000000E+00  0.00000000000E+00 -0.93379110869E+03  0.93379110871E+03  0.50400001928E-02 0.  1.
    10030    2    1    2    0    0  0.00000000000E+00  0.00000000000E+00 -0.47360143834E+03  0.13939807791E+04  0.13110621992E+04 0.  0.
        2    1    3    3  502    0  0.23614570641E+03 -0.15013433104E+03  0.39349477122E+03  0.48284909340E+03  0.25500000920E-02 0. -1.
       -2    1    3    3    0  502 -0.23614570641E+03  0.15013433104E+03 -0.86709620956E+03  0.91113168568E+03  0.25500000920E-02 0.  1.
</event>
<event>
 5   0  0.9098192E-04  0.1293990E+04  0.7818609E-02  0.9034345E-01
       -1   -1    0    0    0  501  0.00000000000E+00  0.00000000000E+00  0.34615871694E+03  0.34615871697E+03  0.50400001928E-02 0.  1.
        1   -1    0    0  501    0  0.00000000000E+00  0.00000000000E+00 -0.12092797213E+04  0.12092797213E+04  0.50400001928E-02 0. -1.
    10030    2    1    2    0    0  0.00000000000E+00  0.00000000000E+00 -0.86312100435E+03  0.15554384383E+04  0.12939902886E+04 0.  0.
        1    1    3    3  502    0  0.35120206160E+03  0.41156355389E+02  0.21972989569E+03  0.41631473761E+03  0.50400001928E-02 0.  1.
       -1    1    3    3    0  502 -0.35120206160E+03 -0.41156355389E+02 -0.10828509000E+04  0.11391237007E+04  0.50400001928E-02 0. -1.
</event>
<event>
 5   0  0.1700511E-03  0.1289021E+04  0.7818609E-02  0.9038317E-01
       -2   -1    0    0    0  501  0.00000000000E+00  0.00000000000E+00  0.63926089700E+03  0.63926089700E+03  0.25500000920E-02 0. -1.
        2   -1    0    0  501    0  0.00000000000E+00  0.00000000000E+00 -0.64980335741E+03  0.64980335741E+03  0.25500000920E-02 0.  1.
    10030    2    1    2    0    0  0.00000000000E+00  0.00000000000E+00 -0.10542460408E+02  0.12890642544E+04  0.12890211436E+04 0.  0.
        2    1    3    3  502    0 -0.16771859643E+03  0.21932924842E+03  0.57712186454E+03  0.63976909377E+03  0.25500000920E-02 0. -1.
       -2    1    3    3    0  502  0.16771859643E+03 -0.21932924842E+03 -0.58766432495E+03  0.64929516064E+03  0.25500000920E-02 0.  1.
</event>
<event>
 5   0  0.9215829E-04  0.1314709E+04  0.7818609E-02  0.9017981E-01
        1   -1    0    0  501    0  0.00000000000E+00  0.00000000000E+00  0.79370706355E+03  0.79370706357E+03  0.50400001928E-02 0.  1.
       -1   -1    0    0    0  501  0.00000000000E+00  0.00000000000E+00 -0.54442660631E+03  0.54442660634E+03  0.50400001928E-02 0. -1.
    10030    2    1    2    0    0  0.00000000000E+00  0.00000000000E+00  0.24928045724E+03  0.13381336699E+04  0.13147094630E+04 0.  0.
        3    1    3    3  502    0  0.51455033141E+03 -0.38942670295E+03 -0.28920099288E+01  0.64530889847E+03  0.10100000352E+00 0.  1.
       -3    1    3    3    0  502 -0.51455033141E+03  0.38942670295E+03  0.25217246717E+03  0.69282477144E+03  0.10100000352E+00 0. -1.
</event>
<event>
 5   0  0.1694675E-03  0.1302328E+04  0.7818609E-02  0.9027721E-01
       -2   -1    0    0    0  501  0.00000000000E+00  0.00000000000E+00  0.84139340943E+03  0.84139340944E+03  0.25500000920E-02 0. -1.
        2   -1    0    0  501    0  0.00000000000E+00  0.00000000000E+00 -0.50394303378E+03  0.50394303379E+03  0.25500000920E-02 0.  1.
    10030    2    1    2    0    0  0.00000000000E+00  0.00000000000E+00  0.33745037565E+03  0.13453364432E+04  0.13023276813E+04 0.  0.
        4    1    3    3  502    0  0.47472513697E+02  0.63717075097E+03  0.38988949181E+02  0.64012651601E+03  0.12699999809E+01 0.  1.
       -4    1    3    3    0  502 -0.47472513697E+02 -0.63717075097E+03  0.29846142647E+03  0.70520992721E+03  0.12699999809E+01 0. -1.
</event>
<event>
 5   0  0.1623890E-03  0.1301310E+04  0.7818609E-02  0.9028527E-01
        2   -1    0    0  501    0  0.00000000000E+00  0.00000000000E+00  0.76759933279E+03  0.76759933280E+03  0.25500000920E-02 0.  1.
       -2   -1    0    0    0  501  0.00000000000E+00  0.00000000000E+00 -0.55152706717E+03  0.55152706718E+03  0.25500000920E-02 0. -1.
    10030    2    1    2    0    0  0.00000000000E+00  0.00000000000E+00  0.21607226562E+03  0.13191264000E+04  0.13013098152E+04 0.  0.
        3    1    3    3  502    0 -0.55509402524E+03  0.26079509180E+03 -0.11221344249E+03  0.62348642619E+03  0.10100000352E+00 0. -1.
       -3    1    3    3    0  502  0.55509402524E+03 -0.26079509180E+03  0.32828570812E+03  0.69563997378E+03  0.10100000352E+00 0.  1.
</event>
<event>
 5   0  0.6284125E-04  0.1290440E+04  0.7818609E-02  0.9037181E-01
       -4   -1    0    0    0  501  0.00000000000E+00  0.00000000000E+00  0.59488037616E+03  0.59488173181E+03  0.12699999809E+01 0.  1.
        4   -1    0    0  501    0  0.00000000000E+00  0.00000000000E+00 -0.69981644367E+03  0.69981759604E+03  0.12699999809E+01 0. -1.
    10030    2    1    2    0    0  0.00000000000E+00  0.00000000000E+00 -0.10493606751E+03  0.12946993278E+04  0.12904397589E+04 0.  0.
        2    1    3    3  502    0 -0.14536237668E+02  0.18546839466E+03  0.56738912546E+03  0.59710991226E+03  0.25500000920E-02 0.  1.
       -2    1    3    3    0  502  0.14536237668E+02 -0.18546839466E+03 -0.67232519297E+03  0.69758941559E+03  0.25500000920E-02 0. -1.
</event>
<event>
 5   0  0.9081324E-04  0.1312223E+04  0.7818609E-02  0.9019928E-01
        1   -1    0    0  501    0  0.00000000000E+00  0.00000000000E+00  0.44788629027E+03  0.44788629030E+03  0.50400001928E-02 0. -1.
       -1   -1    0    0    0  501  0.00000000000E+00  0.00000000000E+00 -0.96114265698E+03  0.96114265700E+03  0.50400001928E-02 0.  1.
    10030    2    1    2    0    0  0.00000000000E+00  0.00000000000E+00 -0.51325636671E+03  0.14090289473E+04  0.13122234857E+04 0.  0.
        4    1    3    3  502    0  0.30441484462E+03  0.36987758797E+03  0.22478011430E+03  0.52915549736E+03  0.12699999809E+01 0. -1.
       -4    1    3    3    0  502 -0.30441484462E+03 -0.36987758797E+03 -0.73803648101E+03  0.87987344994E+03  0.12699999809E+01 0.  1.
</event>
<event>
 5   0  0.9215829E-04  0.1299732E+04  0.7818609E-02  0.9029777E-01
       -1   -1    0    0    0  501  0.00000000000E+00  0.00000000000E+00  0.10283019486E+04  0.10283019487E+04  0.50400001928E-02 0. -1.
        1   -1    0    0  501    0  0.00000000000E+00  0.00000000000E+00 -0.41070238138E+03  0.41070238141E+03  0.50400001928E-02 0.  1.
    10030    2    1    2    0    0  0.00000000000E+00  0.00000000000E+00  0.61759956726E+03  0.14390043301E+04  0.12997323711E+04 0.  0.
        3    1    3    3  502    0 -0.10117496106E+03 -0.55613812533E+03  0.66378057468E+03  0.87185471767E+03  0.10100000352E+00 0. -1.
       -3    1    3    3    0  502  0.10117496106E+03  0.55613812533E+03 -0.46181007416E+02  0.56714961240E+03  0.10100000352E+00 0.  1.
</event>
<event>
 5   0  0.9027076E-04  0.1306357E+04  0.7818609E-02  0.9024539E-01
        1   -1    0    0  501    0  0.00000000000E+00  0.00000000000E+00  0.93498198775E+03  0.93498198777E+03  0.50400001928E-02 0.  1.
       -1   -1    0    0    0  501  0.00000000000E+00  0.00000000000E+00 -0.45631060372E+03  0.45631060375E+03  0.50400001928E-02 0. -1.
    10030    2    1    2    0    0  0.00000000000E+00  0.00000000000E+00  0.47867138403E+03  0.13912925915E+04  0.13063570650E+04 0.  0.
        5    1    3    3  502    0  0.49344740154E+03 -0.18658867969E+03 -0.17081956321E+03  0.55453321510E+03  0.46999998093E+01 0. -1.
       -5    1    3    3    0  502 -0.49344740154E+03  0.18658867969E+03  0.64949094725E+03  0.83675937642E+03  0.46999998093E+01 0.  1.
</event>
<event>
 5   0  0.1694675E-03  0.1310071E+04  0.7818609E-02  0.9021617E-01
        2   -1    0    0  501    0  0.00000000000E+00  0.00000000000E+00  0.90659955072E+03  0.90659955073E+03  0.25500000920E-02 0.  1.
       -2   -1    0    0    0  501  0.00000000000E+00  0.00000000000E+00 -0.47327561151E+03  0.47327561152E+03  0.25500000920E-02 0. -1.
    10030    2    1    2    0    0  0.00000000000E+00  0.00000000000E+00  0.43332393921E+03  0.13798751622E+04  0.13100709244E+04 0.  0.
        4    1    3    3  502    0 -0.59658452187E+02  0.41341492400E+03 -0.31480120465E+03  0.52304152957E+03  0.12699999809E+01 0. -1.
       -4    1    3    3    0  502  0.59658452187E+02 -0.41341492400E+03  0.74812514386E+03  0.85683363267E+03  0.12699999809E+01 0.  1.
</event>
<event>
 5   0  0.1714861E-03  0.1279557E+04  0.7818609E-02  0.9045936E-01
       -2   -1    0    0    0  501  0.00000000000E+00  0.00000000000E+00  0.79837114494E+03  0.79837114494E+03  0.25500000920E-02 0. -1.
        2   -1    0    0  501    0  0.00000000000E+00  0.00000000000E+00 -0.51268919348E+03  0.51268919348E+03  0.25500000920E-02 0.  1.
    10030    2    1    2    0    0  0.00000000000E+00  0.00000000000E+00  0.28568195146E+03  0.13110603384E+04  0.12795565769E+04 0.  0.
        1    1    3    3  502    0  0.87990697546E+02 -0.52750816816E+03 -0.21695858049E+03  0.57712932347E+03  0.50400001928E-02 0.  1.
       -1    1    3    3    0  502 -0.87990697546E+02  0.52750816816E+03  0.50264053196E+03  0.73393101496E+03  0.50400001928E-02 0. -1.
</event>
<event>
 5   0  0.1667342E-03  0.1296785E+04  0.7818609E-02  0.9032119E-01
       -2   -1    0    0    0  501  0.00000000000E+00  0.00000000000E+00  0.59435629829E+03  0.59435629830E+03  0.25500000920E-02 0.  1.
        2   -1    0    0  501    0  0.00000000000E+00  0.00000000000E+00 -0.70734119219E+03  0.70734119220E+03  0.25500000920E-02 0. -1.
    10030    2    1    2    0    0  0.00000000000E+00  0.00000000000E+00 -0.11298489390E+03  0.13016974905E+04  0.12967847819E+04 0.  0.
        5    1    3    3  502    0 -0.13037885536E+02 -0.16209029894E+03  0.57353758928E+03  0.59616332308E+03  0.46999998093E+01 0.  1.
       -5    1    3    3    0  502  0.13037885536E+02  0.16209029894E+03 -0.68652248318E+03  0.70553416741E+03  0.46999998093E+01 0. -1.
</event>
<event>
 5   0  0.1694675E-03  0.1297863E+04  0.7818609E-02  0.9031261E-01
       -2   -1    0    0    0  501  0.00000000000E+00  0.00000000000E+00  0.36953325001E+03  0.36953325002E+03  0.25500000920E-02 0. -1.
        2   -1    0    0  501    0  0.00000000000E+00  0.00000000000E+00 -0.11395789826E+04  0.11395789826E+04  0.25500000920E-02 0.  1.
    10030    2    1    2    0    0  0.00000000000E+00  0.00000000000E+00 -0.77004573259E+03  0.15091122326E+04  0.12978633597E+04 0.  0.
        4    1    3    3  502    0  0.34439249095E+03 -0.56045342744E+02 -0.10212203554E+04  0.10791848291E+04  0.12699999809E+01 0.  1.
       -4    1    3    3    0  502 -0.34439249095E+03  0.56045342744E+02  0.25117462277E+03  0.42992740351E+03  0.12699999809E+01 0. -1.
</event>
<event>
 5   0  0.1700511E-03  0.1290791E+04  0.7818609E-02  0.9036900E-01
       -2   -1    0    0    0  501  0.00000000000E+00  0.00000000000E+00  0.23104326901E+03  0.23104326902E+03  0.25500000920E-02 0.  1.
        2   -1    0    0  501    0  0.00000000000E+00  0.00000000000E+00 -0.18028459103E+04  0.18028459104E+04  0.25500000920E-02 0. -1.
    10030    2    1    2    0    0  0.00000000000E+00  0.00000000000E+00 -0.15718026413E+04  0.20338891794E+04  0.12907910949E+04 0.  0.
        2    1    3    3  502    0  0.49171854870E+02  0.51042376769E+03 -0.14034140210E+04  0.14941623768E+04  0.25500000920E-02 0. -1.
       -2    1    3    3    0  502 -0.49171854870E+02 -0.51042376769E+03 -0.16838862033E+03  0.53972680255E+03  0.25500000920E-02 0.  1.
</event>
<event>
 5   0  0.1667342E-03  0.1304776E+04  0.7818609E-02  0.9025786E-01
        2   -1    0    0  501    0  0.00000000000E+00  0.00000000000E+00  0.80658124560E+03  0.80658124560E+03  0.25500000920E-02 0. -1.
       -2   -1    0    0    0  501  0.00000000000E+00  0.00000000000E+00 -0.52767178036E+03  0.52767178037E+03  0.25500000920E-02 0.  1.
    10030    2    1    2    0    0  0.00000000000E+00  0.00000000000E+00  0.27890946523E+03  0.13342530260E+04  0.13047760910E+04 0.  0.
        5    1    3    3  502    0  0.36388267072E+02 -0.46782218639E+03 -0.32400195994E+03  0.57024649416E+03  0.46999998093E+01 0.  1.
       -5    1    3    3    0  502 -0.36388267072E+02  0.46782218639E+03  0.60291142517E+03  0.76400653182E+03  0.46999998093E+01 0. -1.
</event>
<event>
 5   0  0.1667342E-03  0.1306415E+04  0.7818609E-02  0.9024493E-01
        2   -1    0    0  501    0  0.00000000000E+00  0.00000000000E+00  0.67828334210E+03  0.67828334211E+03  0.25500000920E-02 0. -1.
       -2   -1    0    0    0  501  0.00000000000E+00  0.00000000000E+00 -0.62905867808E+03  0.62905867808E+03  0.25500000920E-02 0.  1.
    10030    2    1    2    0    0  0.00000000000E+00  0.00000000000E+00  0.49224664025E+02  0.13073420202E+04  0.13064149763E+04 0.  0.
        5    1    3    3  502    0 -0.56775252313E+03  0.11191405070E+03 -0.27857171588E+03  0.64225538001E+03  0.46999998093E+01 0.  1.
       -5    1    3    3    0  502  0.56775252313E+03 -0.11191405070E+03  0.32779637991E+03  0.66508664018E+03  0.46999998093E+01 0. -1.
</event>
<event>
 5   0  0.9110949E-04  0.1342112E+04  0.7818609E-02  0.8996820E-01
        1   -1    0    0  501    0  0.00000000000E+00  0.00000000000E+00  0.97392052311E+03  0.97392052312E+03  0.50400001928E-02 0.  1.
       -1   -1    0    0    0  501  0.00000000000E+00  0.00000000000E+00 -0.46237492241E+03  0.46237492243E+03  0.50400001928E-02 0. -1.
    10030    2    1    2    0    0  0.00000000000E+00  0.00000000000E+00  0.51154560070E+03  0.14362954456E+04  0.13421124041E+04 0.  0.
        2    1    3    3  502    0 -0.26392750671E+03  0.36143350277E+03 -0.27934105341E+03  0.52756357896E+03  0.25500000920E-02 0. -1.
       -2    1    3    3    0  502  0.26392750671E+03 -0.36143350277E+03  0.79088665411E+03  0.90873186660E+03  0.25500000920E-02 0.  1.
</event>
<event>
 5   0  0.9110949E-04  0.1269956E+04  0.7818609E-02  0.9053735E-01
        1   -1    0    0  501    0  0.00000000000E+00  0.00000000000E+00  0.64382631167E+03  0.64382631169E+03  0.50400001928E-02 0.  1.
       -1   -1    0    0    0  501  0.00000000000E+00  0.00000000000E+00 -0.62625173098E+03  0.62625173100E+03  0.50400001928E-02 0. -1.
    10030    2    1    2    0    0  0.00000000000E+00  0.00000000000E+00  0.17574580694E+02  0.12700780427E+04  0.12699564436E+04 0.  0.
        2    1    3    3  502    0  0.42337995188E+02 -0.40696570644E+03 -0.47683489318E+03  0.62831927188E+03  0.25500000920E-02 0. -1.
       -2    1    3    3    0  502 -0.42337995188E+02  0.40696570644E+03  0.49440947387E+03  0.64175877082E+03  0.25500000920E-02 0.  1.
</event>
<event>
 5   0  0.6284125E-04  0.1246810E+04  0.7818609E-02  0.9072842E-01
       -4   -1    0    0    0  501  0.00000000000E+00  0.00000000000E+00  0.62851613691E+03  0.62851742001E+03  0.12699999809E+01 0. -1.
        4   -1    0    0  501    0  0.00000000000E+00  0.00000000000E+00 -0.61833331706E+03  0.61833462129E+03  0.12699999809E+01 0.  1.
    10030    2    1    2    0    0  0.00000000000E+00  0.00000000000E+00  0.10182819851E+02  0.12468520413E+04  0.12468104600E+04 0.  0.
        5    1    3    3  502    0 -0.18772171418E+03  0.49099792964E+03 -0.33002211117E+03  0.62068920786E+03  0.46999998093E+01 0.  1.
       -5    1    3    3    0  502  0.18772171418E+03 -0.49099792964E+03  0.34020493102E+03  0.62616283344E+03  0.46999998093E+01 0. -1.
</event>
<event>
 5   0  0.9027076E-04  0.1299064E+04  0.7818609E-02  0.9030308E-01
       -1   -1    0    0    0  501  0.00000000000E+00  0.00000000000E+00  0.53075247774E+03  0.53075247777E+03  0.50400001928E-02 0.  1.
        1   -1    0    0  501    0  0.00000000000E+00  0.00000000000E+00 -0.79489402844E+03  0.79489402846E+03  0.50400001928E-02 0. -1.
    10030    2    1    2    0    0  0.00000000000E+00  0.00000000000E+00 -0.26414155070E+03  0.13256465062E+04  0.12990642404E+04 0.  0.
        5    1    3    3  502    0 -0.42582434067E+03  0.41567262053E+03  0.13356289600E+03  0.60989444476E+03  0.46999998093E+01 0.  1.
       -5    1    3    3    0  502  0.42582434067E+03 -0.41567262053E+03 -0.39770444670E+03  0.71575206146E+03  0.46999998093E+01 0. -1.
</event>
<event>
 5   0  0.1623890E-03  0.1285783E+04  0.7818609E-02  0.9040916E-01
       -2   -1    0    0    0  501  0.00000000000E+00  0.00000000000E+00  0.29991377667E+03  0.29991377668E+03  0.25500000920E-02 0. -1.
        2   -1    0    0  501    0  0.00000000000E+00  0.00000000000E+00 -0.13780948058E+04  0.13780948058E+04  0.25500000920E-02 0.  1.
    10030    2    1    2    0    0  0.00000000000E+00  0.00000000000E+00 -0.10781810291E+04  0.16780085825E+04  0.12857832132E+04 0.  0.
        3    1    3    3  502    0 -0.44596979322E+03  0.33556134330E+03 -0.95551967196E+03  0.11065750428E+04  0.10100000352E+00 0.  1.
       -3    1    3    3    0  502  0.44596979322E+03 -0.33556134330E+03 -0.12266135718E+03  0.57143353973E+03  0.10100000352E+00 0. -1.
</event>
<event>
 5   0  0.9098192E-04  0.1296100E+04  0.7818609E-02  0.9032663E-01
       -1   -1    0    0    0  501  0.00000000000E+00  0.00000000000E+00  0.88575304881E+03  0.88575304883E+03  0.50400001928E-02 0. -1.
        1   -1    0    0  501    0  0.00000000000E+00  0.00000000000E+00 -0.47413791372E+03  0.47413791375E+03  0.50400001928E-02 0.  1.
    10030    2    1    2    0    0  0.00000000000E+00  0.00000000000E+00  0.41161513509E+03  0.13598909626E+04  0.12961004632E+04 0.  0.
        1    1    3    3  502    0  0.21916032950E+03  0.23827219005E+03  0.79483276367E+03  0.85823307371E+03  0.50400001928E-02 0. -1.
       -1    1    3    3    0  502 -0.21916032950E+03 -0.23827219005E+03 -0.38321762858E+03  0.50165788887E+03  0.50400001928E-02 0.  1.
</event>
<event>
 5   0  0.9110949E-04  0.1282135E+04  0.7818609E-02  0.9043853E-01
       -1   -1    0    0    0  501  0.00000000000E+00  0.00000000000E+00  0.81921650829E+03  0.81921650831E+03  0.50400001928E-02 0.  1.
        1   -1    0    0  501    0  0.00000000000E+00  0.00000000000E+00 -0.50165935267E+03  0.50165935269E+03  0.50400001928E-02 0. -1.
    10030    2    1    2    0    0  0.00000000000E+00  0.00000000000E+00  0.31755715563E+03  0.13208758610E+04  0.12821351306E+04 0.  0.
        2    1    3    3  502    0 -0.30097233593E+03 -0.39437362289E+03  0.57706740510E+03  0.76100045431E+03  0.25500000920E-02 0.  1.
       -2    1    3    3    0  502  0.30097233593E+03  0.39437362289E+03 -0.25951024947E+03  0.55987540669E+03  0.25500000920E-02 0. -1.
</event>
<event>
 5   0  0.9027076E-04  0.1304269E+04  0.7818609E-02  0.9026187E-01
        1   -1    0    0  501    0  0.00000000000E+00  0.00000000000E+00  0.10245614452E+04  0.10245614452E+04  0.50400001928E-02 0. -1.
       -1   -1    0    0    0  501  0.00000000000E+00  0.00000000000E+00 -0.41508404509E+03  0.41508404512E+03  0.50400001928E-02 0.  1.
    10030    2    1    2    0    0  0.00000000000E+00  0.00000000000E+00  0.60947740011E+03  0.14396454903E+04  0.13042685447E+04 0.  0.
        5    1    3    3  502    0 -0.23181652752E+03  0.38670156122E+03  0.82478915796E+03  0.93998736426E+03  0.46999998093E+01 0. -1.
       -5    1    3    3    0  502  0.23181652752E+03 -0.38670156122E+03 -0.21531175785E+03  0.49965812607E+03  0.46999998093E+01 0.  1.
</event>
<event>
 5   0  0.1700511E-03  0.1333873E+04  0.7818609E-02  0.9003127E-01
        2   -1    0    0  501    0  0.00000000000E+00  0.00000000000E+00  0.21503241655E+04  0.21503241655E+04  0.25500000920E-02 0. -1.
       -2   -1    0    0    0  501  0.00000000000E+00  0.00000000000E+00 -0.20685440532E+03  0.20685440534E+03  0.25500000920E-02 0.  1.
    10030    2    1    2    0    0  0.00000000000E+00  0.00000000000E+00  0.19434697601E+04  0.23571785708E+04  0.13338725974E+04 0.  0.
        2    1    3    3  502    0  0.57386043430E+03 -0.31978337223E+03  0.76849641351E+03  0.10110212366E+04  0.25500000920E-02 0.  1.
       -2    1    3    3    0  502 -0.57386043430E+03  0.31978337223E+03  0.11749733466E+04  0.13461573342E+04  0.25500000920E-02 0. -1.
</event>
<event>
 5   0  0.1694675E-03  0.1303543E+04  0.7818609E-02  0.9026760E-01
        2   -1    0    0  501    0  0.00000000000E+00  0.00000000000E+00  0.79370180951E+03  0.79370180952E+03  0.25500000920E-02 0. -1.
       -2   -1    0    0    0  501  0.00000000000E+00  0.00000000000E+00 -0.53522155315E+03  0.53522155316E+03  0.25500000920E-02 0.  1.
    10030    2    1    2    0    0  0.00000000000E+00  0.00000000000E+00  0.25848025636E+03  0.13289233627E+04  0.13035433483E+04 0.  0.
        4    1    3    3  502    0 -0.60319134215E+02  0.64897309957E+03  0.12876150787E+03  0.66436858801E+03  0.12699999809E+01 0. -1.
       -4    1    3    3    0  502  0.60319134215E+02 -0.64897309957E+03  0.12971874850E+03  0.66455477467E+03  0.12699999809E+01 0.  1.
</event>
<event>
 5   0  0.9215829E-04  0.1294322E+04  0.7818609E-02  0.9034080E-01
       -1   -1    0    0    0  501  0.00000000000E+00  0.00000000000E+00  0.43645541991E+03  0.43645541993E+03  0.50400001928E-02 0.  1.
        1   -1    0    0  501    0  0.00000000000E+00  0.00000000000E+00 -0.95958808051E+03  0.95958808052E+03  0.50400001928E-02 0. -1.
    10030    2    1    2    0    0  0.00000000000E+00  0.00000000000E+00 -0.52313266060E+03  0.13960435005E+04  0.12943220907E+04 0.  0.
        3    1    3    3  502    0 -0.80445407142E+02 -0.57592688385E+03  0.44749893144E+02  0.58323734637E+03  0.10100000352E+00 0.  1.
       -3    1    3    3    0  502  0.80445407142E+02  0.57592688385E+03 -0.56788255375E+03  0.81280615408E+03  0.10100000352E+00 0. -1.
</event>
<event>
 5   0  0.1700511E-03  0.1339986E+04  0.7818609E-02  0.8998443E-01
       -2   -1    0    0    0  501  0.00000000000E+00  0.00000000000E+00  0.57731541319E+03  0.57731541320E+03  0.25500000920E-02 0.  1.
        2   -1    0    0  501    0  0.00000000000E+00  0.00000000000E+00 -0.77754832052E+03  0.77754832052E+03  0.25500000920E-02 0. -1.
    10030    2    1    2    0    0  0.00000000000E+00  0.00000000000E+00 -0.20023290733E+03  0.13548637337E+04  0.13399860148E+04 0.  0.
        2    1    3    3  502    0 -0.14734907007E+03  0.17858147940E+03 -0.73581601673E+03  0.77138077739E+03  0.25500000920E-02 0. -1.
       -2    1    3    3    0  502  0.14734907007E+03 -0.17858147940E+03  0.53558310941E+03  0.58348295633E+03  0.25500000920E-02 0.  1.
</event>
<event>
 5   0  0.9027076E-04  0.1304611E+04  0.7818609E-02  0.9025917E-01
       -1   -1    0    0    0  501  0.00000000000E+00  0.00000000000E+00  0.64045450778E+03  0.64045450780E+03  0.50400001928E-02 0.  1.
        1   -1    0    0  501    0  0.00000000000E+00  0.00000000000E+00 -0.66437534028E+03  0.66437534029E+03  0.50400001928E-02 0. -1.
    10030    2    1    2    0    0  0.00000000000E+00  0.00000000000E+00 -0.23920832491E+02  0.13048298481E+04  0.13046105650E+04 0.  0.
        5    1    3    3  502    0 -0.62004377570E+03 -0.11988234201E+03 -0.17524848315E+03  0.65540840745E+03  0.46999998093E+01 0. -1.
       -5    1    3    3    0  502  0.62004377570E+03  0.11988234201E+03  0.15132765066E+03  0.64942144064E+03  0.46999998093E+01 0.  1.
</event>
<event>
 5   0  0.6284125E-04  0.1297796E+04  0.7818609E-02  0.9031314E-01
        3   -1    0    0  501    0  0.00000000000E+00  0.00000000000E+00  0.34891270840E+03  0.34891272302E+03  0.10100000352E+00 0. -1.
       -3   -1    0    0    0  501  0.00000000000E+00  0.00000000000E+00 -0.12068028730E+04  0.12068028772E+04  0.10100000352E+00 0.  1.
    10030    2    1    2    0    0  0.00000000000E+00  0.00000000000E+00 -0.85789016462E+03  0.15557156003E+04  0.12977963994E+04 0.  0.
        3    1    3    3  502    0  0.44020399223E+02 -0.28759962360E+03 -0.11242302216E+04  0.11612686771E+04  0.10100000352E+00 0.  1.
       -3    1    3    3    0  502 -0.44020399223E+02  0.28759962360E+03  0.26634005698E+03  0.39444692317E+03  0.10100000352E+00 0. -1.
</event>
<event>
 5   0  0.9081324E-04  0.1300710E+04  0.7818609E-02  0.9029002E-01
       -1   -1    0    0    0  501  0.00000000000E+00  0.00000000000E+00  0.50074982659E+03  0.50074982661E+03  0.50400001928E-02 0.  1.
        1   -1    0    0  501    0  0.00000000000E+00  0.00000000000E+00 -0.84465657858E+03  0.84465657859E+03  0.50400001928E-02 0. -1.
    10030    2    1    2    0    0  0.00000000000E+00  0.00000000000E+00 -0.34390675199E+03  0.13454064052E+04  0.13007100142E+04 0.  0.
        4    1    3    3  502    0  0.25006433936E+03  0.46947782179E+03 -0.55900206310E+03  0.77163885233E+03  0.12699999809E+01 0. -1.
       -4    1    3    3    0  502 -0.25006433936E+03 -0.46947782179E+03  0.21509531111E+03  0.57376755288E+03  0.12699999809E+01 0.  1.
</event>
<event>
 5   0  0.9110949E-04  0.1303373E+04  0.7818609E-02  0.9026894E-01
        1   -1    0    0  501    0  0.00000000000E+00  0.00000000000E+00  0.64545690260E+03  0.64545690262E+03  0.50400001928E-02 0.  1.
       -1   -1    0    0    0  501  0.00000000000E+00  0.00000000000E+00 -0.65797664099E+03  0.65797664101E+03  0.50400001928E-02 0. -1.
    10030    2    1    2    0    0  0.00000000000E+00  0.00000000000E+00 -0.12519738396E+02  0.13034335436E+04  0.13033734150E+04 0.  0.
        2    1    3    3  502    0 -0.94142216681E+02 -0.36945423515E+03 -0.53480707596E+03  0.65679357285E+03  0.25500000920E-02 0. -1.
       -2    1    3    3    0  502  0.94142216681E+02  0.36945423515E+03  0.52228733756E+03  0.64663997078E+03  0.25500000920E-02 0.  1.
</event>
<event>
 5   0  0.9027076E-04  0.1319467E+04  0.7818609E-02  0.9014268E-01
        1   -1    0    0  501    0  0.00000000000E+00  0.00000000000E+00  0.14618033903E+04  0.14618033903E+04  0.50400001928E-02 0.  1.
       -1   -1    0    0    0  501  0.00000000000E+00  0.00000000000E+00 -0.29774765913E+03  0.29774765918E+03  0.50400001928E-02 0. -1.
    10030    2    1    2    0    0  0.00000000000E+00  0.00000000000E+00  0.11640557312E+04  0.17595510495E+04  0.13194673738E+04 0.  0.
        5    1    3    3  502    0  0.49588008076E+03  0.28959735521E+02  0.11609873996E+04  0.12627943430E+04  0.46999998093E+01 0.  1.
       -5    1    3    3    0  502 -0.49588008076E+03 -0.28959735521E+02  0.30683315946E+01  0.49675670648E+03  0.46999998093E+01 0. -1.
</event>
<event>
 5   0  0.9098192E-04  0.1303276E+04  0.7818609E-02  0.9026971E-01
        1   -1    0    0  501    0  0.00000000000E+00  0.00000000000E+00  0.10427983037E+04  0.10427983037E+04  0.50400001928E-02 0. -1.
       -1   -1    0    0    0  501  0.00000000000E+00  0.00000000000E+00 -0.40720438551E+03  0.40720438554E+03  0.50400001928E-02 0.  1.
    10030    2    1    2    0    0  0.00000000000E+00  0.00000000000E+00  0.63559391817E+03  0.14500026892E+04  0.13032759378E+04 0.  0.
        1    1    3    3  502    0 -0.83784467915E+02  0.49280318644E+03 -0.14730696151E+03  0.52112777566E+03  0.50400001928E-02 0.  1.
       -1    1    3    3    0  502  0.83784467915E+02 -0.49280318644E+03  0.78290087968E+03  0.92887491357E+03  0.50400001928E-02 0. -1.
</event>
<event>
 5   0  0.1623890E-03  0.1185423E+04  0.7818609E-02  0.9125712E-01
        2   -1    0    0  501    0  0.00000000000E+00  0.00000000000E+00  0.40180018781E+03  0.40180018781E+03  0.25500000920E-02 0. -1.
       -2   -1    0    0    0  501  0.00000000000E+00  0.00000000000E+00 -0.87433280475E+03  0.87433280475E+03  0.25500000920E-02 0.  1.
    10030    2    1    2    0    0  0.00000000000E+00  0.00000000000E+00 -0.47253261694E+03  0.12761329926E+04  0.11854232749E+04 0.  0.
        3    1    3    3  502    0 -0.47533296253E+03  0.25917204539E+03 -0.49596346287E+03  0.73422839845E+03  0.10100000352E+00 0. -1.
       -3    1    3    3    0  502  0.47533296253E+03 -0.25917204539E+03  0.23430845932E+02  0.54190459412E+03  0.10100000352E+00 0.  1.
</event>
<event>
 5   0  0.1623890E-03  0.1293914E+04  0.7818609E-02  0.9034406E-01
       -2   -1    0    0    0  501  0.00000000000E+00  0.00000000000E+00  0.17759114567E+04  0.17759114567E+04  0.25500000920E-02 0.  1.
        2   -1    0    0  501    0  0.00000000000E+00  0.00000000000E+00 -0.23568352847E+03  0.23568352848E+03  0.25500000920E-02 0. -1.
    10030    2    1    2    0    0  0.00000000000E+00  0.00000000000E+00  0.15402279282E+04  0.20115949852E+04  0.12939135649E+04 0.  0.
        3    1    3    3  502    0  0.50605663704E+03 -0.32591005886E+03  0.11388088644E+04  0.12880979490E+04  0.10100000352E+00 0.  1.
       -3    1    3    3    0  502 -0.50605663704E+03  0.32591005886E+03  0.40141906380E+03  0.72349703617E+03  0.10100000352E+00 0. -1.
</event>
<event>
 5   0  0.9027076E-04  0.1297037E+04  0.7818609E-02  0.9031918E-01
       -1   -1    0    0    0  501  0.00000000000E+00  0.00000000000E+00  0.22857464495E+03  0.22857464500E+03  0.50400001928E-02 0.  1.
        1   -1    0    0  501    0  0.00000000000E+00  0.00000000000E+00 -0.18399957905E+04  0.18399957905E+04  0.50400001928E-02 0. -1.
    10030    2    1    2    0    0  0.00000000000E+00  0.00000000000E+00 -0.16114211455E+04  0.20685704355E+04  0.12970372155E+04 0.  0.
        5    1    3    3  502    0  0.38741730632E+03 -0.42555634058E+03 -0.32895146651E+03  0.66288877314E+03  0.46999998093E+01 0.  1.
       -5    1    3    3    0  502 -0.38741730632E+03  0.42555634058E+03 -0.12824696790E+04  0.14056816623E+04  0.46999998093E+01 0. -1.
</event>
<event>
 5   0  0.9215829E-04  0.1298201E+04  0.7818609E-02  0.9030993E-01
       -1   -1    0    0    0  501  0.00000000000E+00  0.00000000000E+00  0.32242624958E+03  0.32242624962E+03  0.50400001928E-02 0.  1.
        1   -1    0    0  501    0  0.00000000000E+00  0.00000000000E+00 -0.13067531739E+04  0.13067531739E+04  0.50400001928E-02 0. -1.
    10030    2    1    2    0    0  0.00000000000E+00  0.00000000000E+00 -0.98432692428E+03  0.16291794235E+04  0.12982011016E+04 0.  0.
        3    1    3    3  502    0  0.34960902749E+03  0.60955595992E+02 -0.11742263806E+04  0.12266823794E+04  0.10100000352E+00 0. -1.
       -3    1    3    3    0  502 -0.34960902749E+03 -0.60955595992E+02  0.18989945635E+03  0.40249704409E+03  0.10100000352E+00 0.  1.
</event>
<event>
 5   0  0.9215829E-04  0.1304532E+04  0.7818609E-02  0.9025979E-01
        1   -1    0    0  501    0  0.00000000000E+00  0.00000000000E+00  0.11703162670E+04  0.11703162670E+04  0.50400001928E-02 0. -1.
       -1   -1    0    0    0  501  0.00000000000E+00  0.00000000000E+00 -0.36353526540E+03  0.36353526544E+03  0.50400001928E-02 0.  1.
    10030    2    1    2    0    0  0.00000000000E+00  0.00000000000E+00  0.80678100156E+03  0.15338515324E+04  0.13045324599E+04 0.  0.
        3    1    3    3  502    0 -0.31449624918E+03  0.85691439258E+02  0.10676841303E+04  0.11163334295E+04  0.10100000352E+00 0. -1.
       -3    1    3    3    0  502  0.31449624918E+03 -0.85691439258E+02 -0.26090312872E+03  0.41751810294E+03  0.10100000352E+00 0.  1.
</event>
<event>
 5   0  0.1700511E-03  0.1371913E+04  0.7818609E-02  0.8974404E-01
        2   -1    0    0  501    0  0.00000000000E+00  0.00000000000E+00  0.24529868539E+04  0.24529868539E+04  0.25500000920E-02 0.  1.
       -2   -1    0    0    0  501  0.00000000000E+00  0.00000000000E+00 -0.19182191276E+03  0.19182191278E+03  0.25500000920E-02 0. -1.
    10030    2    1    2    0    0  0.00000000000E+00  0.00000000000E+00  0.22611649411E+04  0.26448087667E+04  0.13719134526E+04 0.  0.
        2    1    3    3  502    0 -0.82310541600E+02 -0.47794005492E+03  0.19536903346E+03  0.52284871674E+03  0.25500000920E-02 0. -1.
       -2    1    3    3    0  502  0.82310541600E+02  0.47794005492E+03  0.20657959077E+04  0.21219600500E+04  0.25500000920E-02 0.  1.
</event>
<event>
 5   0  0.1700511E-03  0.1275348E+04  0.7818609E-02  0.9049346E-01
        2   -1    0    0  501    0  0.00000000000E+00  0.00000000000E+00  0.20082445007E+04  0.20082445007E+04  0.25500000920E-02 0.  1.
       -2   -1    0    0    0  501  0.00000000000E+00  0.00000000000E+00 -0.20247932042E+03  0.20247932043E+03  0.25500000920E-02 0. -1.
    10030    2    1    2    0    0  0.00000000000E+00  0.00000000000E+00  0.18057651803E+04  0.22107238211E+04  0.12753477671E+04 0.  0.
        2    1    3    3  502    0  0.29872619466E+03  0.52453518693E+03  0.54656512786E+03  0.81431439918E+03  0.25500000920E-02 0. -1.
       -2    1    3    3    0  502 -0.29872619466E+03 -0.52453518693E+03  0.12592000524E+04  0.13964094220E+04  0.25500000920E-02 0.  1.
</event>
<event>
 5   0  0.9081324E-04  0.1291434E+04  0.7818609E-02  0.9036386E-01
        1   -1    0    0  501    0  0.00000000000E+00  0.00000000000E+00  0.16229470347E+04  0.16229470347E+04  0.50400001928E-02 0.  1.
       -1   -1    0    0    0  501  0.00000000000E+00  0.00000000000E+00 -0.25690934936E+03  0.25690934941E+03  0.50400001928E-02 0. -1.
    10030    2    1    2    0    0  0.00000000000E+00  0.00000000000E+00  0.13660376854E+04  0.18798563842E+04  0.12914337254E+04 0.  0.
        4    1    3    3  502    0  0.47186897362E+03  0.22968383453E+03  0.13539491042E+03  0.54198559646E+03  0.12699999809E+01 0. -1.
       -4    1    3    3    0  502 -0.47186897362E+03 -0.22968383453E+03  0.12306427750E+04  0.13378707877E+04  0.12699999809E+01 0.  1.
</event>
<event>
 5   0  0.1714861E-03  0.1319759E+04  0.7818609E-02  0.9014041E-01
        2   -1    0    0  501    0  0.00000000000E+00  0.00000000000E+00  0.20325034155E+04  0.20325034155E+04  0.25500000920E-02 0. -1.
       -2   -1    0    0    0  501  0.00000000000E+00  0.00000000000E+00 -0.21423864299E+03  0.21423864300E+03  0.25500000920E-02 0.  1.
    10030    2    1    2    0    0  0.00000000000E+00  0.00000000000E+00  0.18182647725E+04  0.22467420585E+04  0.13197587259E+04 0.  0.
        1    1    3    3  502    0  0.25252779419E+03  0.12817448467E+03  0.19237927531E+04  0.19445250172E+04  0.50400001928E-02 0. -1.
       -1    1    3    3    0  502 -0.25252779419E+03 -0.12817448467E+03 -0.10552798062E+03  0.30221704134E+03  0.50400001928E-02 0.  1.
</event>
<event>
 5   0  0.6284125E-04  0.1319430E+04  0.7818609E-02  0.9014297E-01
        3   -1    0    0  501    0  0.00000000000E+00  0.00000000000E+00  0.38963257777E+03  0.38963259086E+03  0.10100000352E+00 0. -1.
       -3   -1    0    0    0  501  0.00000000000E+00  0.00000000000E+00 -0.11170108384E+04  0.11170108429E+04  0.10100000352E+00 0.  1.
    10030    2    1    2    0    0  0.00000000000E+00  0.00000000000E+00 -0.72737826061E+03  0.15066434338E+04  0.13194299158E+04 0.  0.
        1    1    3    3  502    0  0.31227537107E+03  0.23282573407E+03  0.24430692487E+03  0.45979300058E+03  0.50400001928E-02 0. -1.
       -1    1    3    3    0  502 -0.31227537107E+03 -0.23282573407E+03 -0.97168518548E+03  0.10468504332E+04  0.50400001928E-02 0.  1.
</event>
<event>
 5   0  0.6284125E-04  0.1301833E+04  0.7818609E-02  0.9028113E-01
        4   -1    0    0  501    0  0.00000000000E+00  0.00000000000E+00  0.31683687180E+03  0.31683941710E+03  0.12699999809E+01 0. -1.
       -4   -1    0    0    0  501  0.00000000000E+00  0.00000000000E+00 -0.13372485404E+04  0.13372491435E+04  0.12699999809E+01 0.  1.
    10030    2    1    2    0    0  0.00000000000E+00  0.00000000000E+00 -0.10204116686E+04  0.16540885606E+04  0.13018329358E+04 0.  0.
        2    1    3    3  502    0 -0.24450449102E+03 -0.60284169135E+03 -0.48203158286E+03  0.80966350902E+03  0.25500000920E-02 0.  1.
       -2    1    3    3    0  502  0.24450449102E+03  0.60284169135E+03 -0.53838008577E+03  0.84442505157E+03  0.25500000920E-02 0. -1.
</event>
<event>
 5   0  0.1667342E-03  0.1305067E+04  0.7818609E-02  0.9025557E-01
       -2   -1    0    0    0  501  0.00000000000E+00  0.00000000000E+00  0.14806620081E+04  0.14806620081E+04  0.25500000920E-02 0. -1.
        2   -1    0    0  501    0  0.00000000000E+00  0.00000000000E+00 -0.28757398500E+03  0.28757398501E+03  0.25500000920E-02 0.  1.
    10030    2    1    2    0    0  0.00000000000E+00  0.00000000000E+00  0.11930880231E+04  0.17682359931E+04  0.13050668551E+04 0.  0.
        5    1    3    3  502    0 -0.34141303597E+03  0.60231704385E+02  0.13455321674E+04  0.13894853806E+04  0.46999998093E+01 0. -1.
       -5    1    3    3    0  502  0.34141303597E+03 -0.60231704385E+02 -0.15244414432E+03  0.37875061251E+03  0.46999998093E+01 0.  1.
</event>
<event>
 5   0  0.1700511E-03  0.1299806E+04  0.7818609E-02  0.9029719E-01
        2   -1    0    0  501    0  0.00000000000E+00  0.00000000000E+00  0.10829085163E+04  0.10829085163E+04  0.25500000920E-02 0.  1.
       -2   -1    0    0    0  501  0.00000000000E+00  0.00000000000E+00 -0.39003634023E+03  0.39003634024E+03  0.25500000920E-02 0. -1.
    10030    2    1    2    0    0  0.00000000000E+00  0.00000000000E+00  0.69287217611E+03  0.14729448566E+04  0.12998056386E+04 0.  0.
        2    1    3    3  502    0 -0.28264592362E+03 -0.32038248300E+03  0.90140531015E+03  0.99752954178E+03  0.25500000920E-02 0.  1.
       -2    1    3    3    0  502  0.28264592362E+03  0.32038248300E+03 -0.20853313404E+03  0.47541531480E+03  0.25500000920E-02 0. -1.
</event>
<event>
 5   0  0.9027076E-04  0.1318842E+04  0.7818609E-02  0.9014756E-01
       -1   -1    0    0    0  501  0.00000000000E+00  0.00000000000E+00  0.27650272289E+03  0.27650272293E+03  0.50400001928E-02 0.  1.
        1   -1    0    0  501    0  0.00000000000E+00  0.00000000000E+00 -0.15726276376E+04  0.15726276376E+04  0.50400001928E-02 0. -1.
    10030    2    1    2    0    0  0.00000000000E+00  0.00000000000E+00 -0.12961249148E+04  0.18491303606E+04  0.13188416492E+04 0.  0.
        5    1    3    3  502    0 -0.13174690383E+03 -0.10333087102E+03  0.24617787610E+03  0.29775854691E+03  0.46999998093E+01 0.  1.
       -5    1    3    3    0  502  0.13174690383E+03  0.10333087102E+03 -0.15423027909E+04  0.15513718137E+04  0.46999998093E+01 0. -1.
</event>
<event>
 5   0  0.1623890E-03  0.1295797E+04  0.7818609E-02  0.9032904E-01
        2   -1    0    0  501    0  0.00000000000E+00  0.00000000000E+00  0.15070961042E+04  0.15070961042E+04  0.25500000920E-02 0.  1.
       -2   -1    0    0    0  501  0.00000000000E+00  0.00000000000E+00 -0.27853084054E+03  0.27853084055E+03  0.25500000920E-02 0. -1.
    10030    2    1    2    0    0  0.00000000000E+00  0.00000000000E+00  0.12285652637E+04  0.17856269447E+04  0.12957974297E+04 0.  0.
        3    1    3    3  502    0  0.14937756400E+03  0.62062968126E+03  0.46159099572E+03  0.78775701547E+03  0.10100000352E+00 0. -1.
       -3    1    3    3    0  502 -0.14937756400E+03 -0.62062968126E+03  0.76697426793E+03  0.99786992928E+03  0.10100000352E+00 0.  1.
</event>
<event>
 5   0  0.9215829E-04  0.1308443E+04  0.7818609E-02  0.9022896E-01
        1   -1    0    0  501    0  0.00000000000E+00  0.00000000000E+00  0.67802201877E+03  0.67802201878E+03  0.50400001928E-02 0. -1.
       -1   -1    0    0    0  501  0.00000000000E+00  0.00000000000E+00 -0.63125675738E+03  0.63125675740E+03  0.50400001928E-02 0.  1.
    10030    2    1    2    0    0  0.00000000000E+00  0.00000000000E+00  0.46765261387E+02  0.13092787762E+04  0.13084433209E+04 0.  0.
        3    1    3    3  502    0  0.18732469561E+03  0.39608889368E+03  0.50952101422E+03  0.67200344301E+03  0.10100000352E+00 0. -1.
       -3    1    3    3    0  502 -0.18732469561E+03 -0.39608889368E+03 -0.46275575283E+03  0.63727533317E+03  0.10100000352E+00 0.  1.
</event>
<event>
 5   0  0.1694675E-03  0.1308802E+04  0.7818609E-02  0.9022614E-01
        2   -1    0    0  501    0  0.00000000000E+00  0.00000000000E+00  0.15514067598E+04  0.15514067598E+04  0.25500000920E-02 0.  1.
       -2   -1    0    0    0  501  0.00000000000E+00  0.00000000000E+00 -0.27603377351E+03  0.27603377352E+03  0.25500000920E-02 0. -1.
    10030    2    1    2    0    0  0.00000000000E+00  0.00000000000E+00  0.12753729862E+04  0.18274405333E+04  0.13088019899E+04 0.  0.
        4    1    3    3  502    0 -0.33866875372E+03 -0.54685062036E+03  0.46957119662E+03  0.79639239532E+03  0.12699999809E+01 0. -1.
       -4    1    3    3    0  502  0.33866875372E+03  0.54685062036E+03  0.80580178962E+03  0.10310481380E+04  0.12699999809E+01 0.  1.
</event>
<event>
 5   0  0.9110949E-04  0.1314279E+04  0.7818609E-02  0.9018318E-01
        1   -1    0    0  501    0  0.00000000000E+00  0.00000000000E+00  0.75657128816E+03  0.75657128818E+03  0.50400001928E-02 0.  1.
       -1   -1    0    0    0  501  0.00000000000E+00  0.00000000000E+00 -0.57077518370E+03  0.57077518372E+03  0.50400001928E-02 0. -1.
    10030    2    1    2    0    0  0.00000000000E+00  0.00000000000E+00  0.18579610446E+03  0.13273464719E+04  0.13142786858E+04 0.  0.
        2    1    3    3  502    0 -0.10424434517E+03 -0.70542749986E+02  0.74428302267E+03  0.75485123098E+03  0.25500000920E-02 0.  1.
       -2    1    3    3    0  502  0.10424434517E+03  0.70542749986E+02 -0.55848691820E+03  0.57249524093E+03  0.25500000920E-02 0. -1.
</event>
<event>
 5   0  0.9098192E-04  0.1291699E+04  0.7818609E-02  0.9036174E-01
       -1   -1    0    0    0  501  0.00000000000E+00  0.00000000000E+00  0.44766995744E+03  0.44766995747E+03  0.50400001928E-02 0.  1.
        1   -1    0    0  501    0  0.00000000000E+00  0.00000000000E+00 -0.93176093402E+03  0.93176093404E+03  0.50400001928E-02 0. -1.
    10030    2    1    2    0    0  0.00000000000E+00  0.00000000000E+00 -0.48409097658E+03  0.13794308915E+04  0.12916986920E+04 0.  0.
        1    1    3    3  502    0  0.52367542135E+03 -0.24294279942E+03  0.67216897422E+02  0.58118436149E+03  0.50400001928E-02 0.  1.
       -1    1    3    3    0  502 -0.52367542135E+03  0.24294279942E+03 -0.55130787401E+03  0.79824653002E+03  0.50400001928E-02 0. -1.
</event>
<event>
 5   0  0.1667342E-03  0.1298418E+04  0.7818609E-02  0.9030820E-01
       -2   -1    0    0    0  501  0.00000000000E+00  0.00000000000E+00  0.17680116056E+03  0.17680116058E+03  0.25500000920E-02 0. -1.
        2   -1    0    0  501    0  0.00000000000E+00  0.00000000000E+00 -0.23838783344E+04  0.23838783344E+04  0.25500000920E-02 0.  1.
    10030    2    1    2    0    0  0.00000000000E+00  0.00000000000E+00 -0.22070771738E+04  0.25606794949E+04  0.12984182010E+04 0.  0.
        5    1    3    3  502    0  0.46023567687E+03 -0.74870337705E+02 -0.21272787528E+03  0.51254042246E+03  0.46999998093E+01 0. -1.
       -5    1    3    3    0  502 -0.46023567687E+03  0.74870337705E+02 -0.19943492985E+04  0.20481390725E+04  0.46999998093E+01 0.  1.
</event>
<event>
 5   0  0.9027076E-04  0.1293942E+04  0.7818609E-02  0.9034383E-01
        1   -1    0    0  501    0  0.00000000000E+00  0.00000000000E+00  0.10700603487E+04  0.10700603487E+04  0.50400001928E-02 0. -1.
       -1   -1    0    0    0  501  0.00000000000E+00  0.00000000000E+00 -0.39116606901E+03  0.39116606904E+03  0.50400001928E-02 0.  1.
    10030    2    1    2    0    0  0.00000000000E+00  0.00000000000E+00  0.67889427972E+03  0.14612264178E+04  0.12939417301E+04 0.  0.
        5    1    3    3  502    0  0.21529163255E+03  0.26382216180E+03  0.96065195147E+03  0.10192285720E+04  0.46999998093E+01 0. -1.
       -5    1    3    3    0  502 -0.21529163255E+03 -0.26382216180E+03 -0.28175767174E+03  0.44199784580E+03  0.46999998093E+01 0.  1.
</event>
<event>
 5   0  0.1623890E-03  0.1323748E+04  0.7818609E-02  0.9010942E-01
       -2   -1    0    0    0  501  0.00000000000E+00  0.00000000000E+00  0.70173339851E+03  0.70173339852E+03  0.25500000920E-02 0. -1.
        2   -1    0    0  501    0  0.00000000000E+00  0.00000000000E+00 -0.62427851636E+03  0.62427851637E+03  0.25500000920E-02 0.  1.
    10030    2    1    2    0    0  0.00000000000E+00  0.00000000000E+00  0.77454882150E+02  0.13260119149E+04  0.13237478384E+04 0.  0.
        3    1    3    3  502    0  0.23012124532E+03  0.61683150228E+03  0.10696285157E+03  0.66699171777E+03  0.10100000352E+00 0.  1.
       -3    1    3    3    0  502 -0.23012124532E+03 -0.61683150228E+03 -0.29507969424E+02  0.65902019712E+03  0.10100000352E+00 0. -1.
</event>
<event>
 5   0  0.1714861E-03  0.1241483E+04  0.7818609E-02  0.9077302E-01
        2   -1    0    0  501    0  0.00000000000E+00  0.00000000000E+00  0.25996873931E+03  0.25996873933E+03  0.25500000920E-02 0.  1.
       -2   -1    0    0    0  501  0.00000000000E+00  0.00000000000E+00 -0.14821791933E+04  0.14821791933E+04  0.25500000920E-02 0. -1.
    10030    2    1    2    0    0  0.00000000000E+00  0.00000000000E+00 -0.12222104540E+04  0.17421479326E+04  0.12414833971E+04 0.  0.
        1    1    3    3  502    0  0.19293559837E+02  0.23896850214E+03  0.19237733456E+03  0.30738774430E+03  0.50400001928E-02 0.  1.
       -1    1    3    3    0  502 -0.19293559837E+02 -0.23896850214E+03 -0.14145877886E+04  0.14347601883E+04  0.50400001928E-02 0. -1.
</event>
<event>
 5   0  0.9110949E-04  0.1330138E+04  0.7818609E-02  0.9006001E-01
        1   -1    0    0  501    0  0.00000000000E+00  0.00000000000E+00  0.14393785853E+04  0.14393785853E+04  0.50400001928E-02 0.  1.
       -1   -1    0    0    0  501  0.00000000000E+00  0.00000000000E+00 -0.30729694297E+03  0.30729694301E+03  0.50400001928E-02 0. -1.
    10030    2    1    2    0    0  0.00000000000E+00  0.00000000000E+00  0.11320816423E+04  0.17466755283E+04  0.13301377960E+04 0.  0.
        2    1    3    3  502    0  0.17404968511E+03  0.12531894289E+03 -0.26063984169E+03  0.33753704599E+03  0.25500000920E-02 0. -1.
       -2    1    3    3    0  502 -0.17404968511E+03 -0.12531894289E+03  0.13927214840E+04  0.14091384824E+04  0.25500000920E-02 0.  1.
</event>
<event>
 5   0  0.9110949E-04  0.1302034E+04  0.7818609E-02  0.9027954E-01
       -1   -1    0    0    0  501  0.00000000000E+00  0.00000000000E+00  0.20522190067E+03  0.20522190074E+03  0.50400001928E-02 0. -1.
        1   -1    0    0  501    0  0.00000000000E+00  0.00000000000E+00 -0.20651953869E+04  0.20651953869E+04  0.50400001928E-02 0.  1.
    10030    2    1    2    0    0  0.00000000000E+00  0.00000000000E+00 -0.18599734862E+04  0.22704172877E+04  0.13020342893E+04 0.  0.
        2    1    3    3  502    0  0.54204749286E+03 -0.31990253550E+03 -0.12200478225E+04  0.13728327669E+04  0.25500000920E-02 0.  1.
       -2    1    3    3    0  502 -0.54204749286E+03  0.31990253550E+03 -0.63992566372E+03  0.89758452072E+03  0.25500000920E-02 0. -1.
</event>
<event>
 5   0  0.1623890E-03  0.1316574E+04  0.7818609E-02  0.9016524E-01
       -2   -1    0    0    0  501  0.00000000000E+00  0.00000000000E+00  0.23515628697E+03  0.23515628698E+03  0.25500000920E-02 0. -1.
        2   -1    0    0  501    0  0.00000000000E+00  0.00000000000E+00 -0.18427832492E+04  0.18427832492E+04  0.25500000920E-02 0.  1.
    10030    2    1    2    0    0  0.00000000000E+00  0.00000000000E+00 -0.16076269622E+04  0.20779395362E+04  0.13165744439E+04 0.  0.
        3    1    3    3  502    0  0.64276251372E+03 -0.71050519408E+02 -0.99807962223E+03  0.11892664831E+04  0.10100000352E+00 0. -1.
       -3    1    3    3    0  502 -0.64276251372E+03  0.71050519408E+02 -0.60954733998E+03  0.88867305306E+03  0.10100000352E+00 0.  1.
</event>
<event>
 5   0  0.1667342E-03  0.1307424E+04  0.7818609E-02  0.9023698E-01
        2   -1    0    0  501    0  0.00000000000E+00  0.00000000000E+00  0.68941732793E+03  0.68941732794E+03  0.25500000920E-02 0. -1.
       -2   -1    0    0    0  501  0.00000000000E+00  0.00000000000E+00 -0.61985633630E+03  0.61985633630E+03  0.25500000920E-02 0.  1.
    10030    2    1    2    0    0  0.00000000000E+00  0.00000000000E+00  0.69560991639E+02  0.13092736642E+04  0.13074244897E+04 0.  0.
        5    1    3    3  502    0 -0.27180759383E+03  0.47402773914E+01 -0.56054814877E+03  0.62300734777E+03  0.46999998093E+01 0.  1.
       -5    1    3    3    0  502  0.27180759383E+03 -0.47402773914E+01  0.63010914041E+03  0.68626631647E+03  0.46999998093E+01 0. -1.
</event>
<event>
 5   0  0.9081324E-04  0.1300154E+04  0.7818609E-02  0.9029443E-01
        1   -1    0    0  501    0  0.00000000000E+00  0.00000000000E+00  0.54032760661E+03  0.54032760663E+03  0.50400001928E-02 0.  1.
       -1   -1    0    0    0  501  0.00000000000E+00  0.00000000000E+00 -0.78211782839E+03  0.78211782840E+03  0.50400001928E-02 0. -1.
    10030    2    1    2    0    0  0.00000000000E+00  0.00000000000E+00 -0.24179022178E+03  0.13224454350E+04  0.13001536130E+04 0.  0.
        4    1    3    3  502    0  0.31174204921E+02  0.15884992945E+03 -0.76128747276E+03  0.77830929599E+03  0.12699999809E+01 0. -1.
       -4    1    3    3    0  502 -0.31174204921E+02 -0.15884992945E+03  0.51949725098E+03  0.54413613905E+03  0.12699999809E+01 0.  1.
</event>
<event>
 5   0  0.9081324E-04  0.1317110E+04  0.7818609E-02  0.9016106E-01
        1   -1    0    0  501    0  0.00000000000E+00  0.00000000000E+00  0.15480539060E+04  0.15480539060E+04  0.50400001928E-02 0. -1.
       -1   -1    0    0    0  501  0.00000000000E+00  0.00000000000E+00 -0.28015474520E+03  0.28015474524E+03  0.50400001928E-02 0.  1.
    10030    2    1    2    0    0  0.00000000000E+00  0.00000000000E+00  0.12678991608E+04  0.18282086512E+04  0.13171099386E+04 0.  0.
        4    1    3    3  502    0  0.30066096339E+03 -0.51742997756E+03  0.10155036934E+04  0.11787197125E+04  0.12699999809E+01 0. -1.
       -4    1    3    3    0  502 -0.30066096339E+03  0.51742997756E+03  0.25239546738E+03  0.64948893865E+03  0.12699999809E+01 0.  1.
</event>
<event>
 5   0  0.9098192E-04  0.1311797E+04  0.7818609E-02  0.9020262E-01
       -1   -1    0    0    0  501  0.00000000000E+00  0.00000000000E+00  0.21026832638E+03  0.21026832644E+03  0.50400001928E-02 0. -1.
        1   -1    0    0  501    0  0.00000000000E+00  0.00000000000E+00 -0.20459719732E+04  0.20459719732E+04  0.50400001928E-02 0.  1.
    10030    2    1    2    0    0  0.00000000000E+00  0.00000000000E+00 -0.18357036468E+04  0.22562402997E+04  0.13117973970E+04 0.  0.
        1    1    3    3  502    0 -0.19800602992E+03  0.60321228832E+03 -0.12011584223E+04  0.13586217311E+04  0.50400001928E-02 0.  1.
       -1    1    3    3    0  502  0.19800602992E+03 -0.60321228832E+03 -0.63454522456E+03  0.89761856860E+03  0.50400001928E-02 0. -1.
</event>
<event>
 5   0  0.9098192E-04  0.1297687E+04  0.7818609E-02  0.9031401E-01
        1   -1    0    0  501    0  0.00000000000E+00  0.00000000000E+00  0.84132674072E+03  0.84132674073E+03  0.50400001928E-02 0. -1.
       -1   -1    0    0    0  501  0.00000000000E+00  0.00000000000E+00 -0.50039771496E+03  0.50039771499E+03  0.50400001928E-02 0.  1.
    10030    2    1    2    0    0  0.00000000000E+00  0.00000000000E+00  0.34092902576E+03  0.13417244557E+04  0.12976871404E+04 0.  0.
        1    1    3    3  502    0 -0.49453462624E+03 -0.20671350110E+03  0.54852729667E+03  0.76692709125E+03  0.50400001928E-02 0. -1.
       -1    1    3    3    0  502  0.49453462624E+03  0.20671350110E+03 -0.20759827091E+03  0.57479736447E+03  0.50400001928E-02 0.  1.
</event>
<event>
 5   0  0.9110949E-04  0.1298734E+04  0.7818609E-02  0.9030570E-01
       -1   -1    0    0    0  501  0.00000000000E+00  0.00000000000E+00  0.11096589604E+04  0.11096589604E+04  0.50400001928E-02 0. -1.
        1   -1    0    0  501    0  0.00000000000E+00  0.00000000000E+00 -0.38000624837E+03  0.38000624840E+03  0.50400001928E-02 0.  1.
    10030    2    1    2    0    0  0.00000000000E+00  0.00000000000E+00  0.72965271205E+03  0.14896652088E+04  0.12987337503E+04 0.  0.
        2    1    3    3  502    0 -0.23822174661E+02 -0.32149032690E+03  0.10113939487E+04  0.10615277885E+04  0.25500000920E-02 0. -1.
       -2    1    3    3    0  502  0.23822174661E+02  0.32149032690E+03 -0.28174123661E+03  0.42813742036E+03  0.25500000920E-02 0.  1.
</event>
<event>
 5   0  0.9027076E-04  0.1284908E+04  0.7818609E-02  0.9041619E-01
       -1   -1    0    0    0  501  0.00000000000E+00  0.00000000000E+00  0.39441974434E+03  0.39441974437E+03  0.50400001928E-02 0. -1.
        1   -1    0    0  501    0  0.00000000000E+00  0.00000000000E+00 -0.10464670082E+04  0.10464670083E+04  0.50400001928E-02 0.  1.
    10030    2    1    2    0    0  0.00000000000E+00  0.00000000000E+00 -0.65204726391E+03  0.14408867526E+04  0.12849081677E+04 0.  0.
        5    1    3    3  502    0 -0.74345356177E+01 -0.40149638533E+03  0.23631939728E+03  0.46596519965E+03  0.46999998093E+01 0. -1.
       -5    1    3    3    0  502  0.74345356177E+01  0.40149638533E+03 -0.88836666119E+03  0.97492155298E+03  0.46999998093E+01 0.  1.
</event>
<event>
 5   0  0.9110949E-04  0.1383268E+04  0.7818609E-02  0.8966019E-01
       -1   -1    0    0    0  501  0.00000000000E+00  0.00000000000E+00  0.41657481357E+03  0.41657481360E+03  0.50400001928E-02 0.  1.
        1   -1    0    0  501    0  0.00000000000E+00  0.00000000000E+00 -0.11483121777E+04  0.11483121777E+04  0.50400001928E-02 0. -1.
    10030    2    1    2    0    0  0.00000000000E+00  0.00000000000E+00 -0.73173736413E+03  0.15648869913E+04  0.13832684936E+04 0.  0.
        2    1    3    3  502    0 -0.28658759532E+03 -0.61644338407E+03 -0.22177578987E+03  0.71506600852E+03  0.25500000920E-02 0. -1.
       -2    1    3    3    0  502  0.28658759532E+03  0.61644338407E+03 -0.50996157425E+03  0.84982098278E+03  0.25500000920E-02 0.  1.
</event>
<event>
 5   0  0.1714861E-03  0.1285850E+04  0.7818609E-02  0.9040862E-01
       -2   -1    0    0    0  501  0.00000000000E+00  0.00000000000E+00  0.55931943723E+03  0.55931943723E+03  0.25500000920E-02 0. -1.
        2   -1    0    0  501    0  0.00000000000E+00  0.00000000000E+00 -0.73902815788E+03  0.73902815789E+03  0.25500000920E-02 0.  1.
    10030    2    1    2    0    0  0.00000000000E+00  0.00000000000E+00 -0.17970872066E+03  0.12983475951E+04  0.12858504009E+04 0.  0.
        1    1    3    3  502    0  0.48284567443E+03  0.48957666355E+01  0.33875786044E+03  0.58984811764E+03  0.50400001928E-02 0. -1.
       -1    1    3    3    0  502 -0.48284567443E+03 -0.48957666355E+01 -0.51846658110E+03  0.70849947748E+03  0.50400001928E-02 0.  1.
</event>
<event>
 5   0  0.1714861E-03  0.1304309E+04  0.7818609E-02  0.9026155E-01
        2   -1    0    0  501    0  0.00000000000E+00  0.00000000000E+00  0.17636156814E+04  0.17636156814E+04  0.25500000920E-02 0.  1.
       -2   -1    0    0    0  501  0.00000000000E+00  0.00000000000E+00 -0.24115554515E+03  0.24115554517E+03  0.25500000920E-02 0. -1.
    10030    2    1    2    0    0  0.00000000000E+00  0.00000000000E+00  0.15224601362E+04  0.20047712265E+04  0.13043093208E+04 0.  0.
        1    1    3    3  502    0  0.59561714724E+03  0.20767259087E+03  0.50672162883E+03  0.80910722419E+03  0.50400001928E-02 0.  1.
       -1    1    3    3    0  502 -0.59561714724E+03 -0.20767259087E+03  0.10157385074E+04  0.11956640023E+04  0.50400001928E-02 0. -1.
</event>
<event>
 5   0  0.1700511E-03  0.1332231E+04  0.7818609E-02  0.9004389E-01
        2   -1    0    0  501    0  0.00000000000E+00  0.00000000000E+00  0.12588949845E+04  0.12588949845E+04  0.25500000920E-02 0.  1.
       -2   -1    0    0    0  501  0.00000000000E+00  0.00000000000E+00 -0.35245953769E+03  0.35245953770E+03  0.25500000920E-02 0. -1.
    10030    2    1    2    0    0  0.00000000000E+00  0.00000000000E+00  0.90643544685E+03  0.16113545222E+04  0.13322305270E+04 0.  0.
        2    1    3    3  502    0  0.39753635618E+03  0.52461592372E+03  0.32955970763E+03  0.73611590311E+03  0.25500000920E-02 0. -1.
       -2    1    3    3    0  502 -0.39753635618E+03 -0.52461592372E+03  0.57687573923E+03  0.87523861913E+03  0.25500000920E-02 0.  1.
</event>
<event>
 5   0  0.9081324E-04  0.1292594E+04  0.7818609E-02  0.9035459E-01
        1   -1    0    0  501    0  0.00000000000E+00  0.00000000000E+00  0.81879277098E+03  0.81879277099E+03  0.50400001928E-02 0.  1.
       -1   -1    0    0    0  501  0.00000000000E+00  0.00000000000E+00 -0.51014109265E+03  0.51014109268E+03  0.50400001928E-02 0. -1.
    10030    2    1    2    0    0  0.00000000000E+00  0.00000000000E+00  0.30865167833E+03  0.13289338637E+04  0.12925940413E+04 0.  0.
        4    1    3    3  502    0  0.10257132479E+03  0.21039305129E+03 -0.46503244497E+03  0.52061780653E+03  0.12699999809E+01 0. -1.
       -4    1    3    3    0  502 -0.10257132479E+03 -0.21039305129E+03  0.77368412329E+03  0.80831605714E+03  0.12699999809E+01 0.  1.
</event>
<event>
 5   0  0.9081324E-04  0.1278655E+04  0.7818609E-02  0.9046666E-01
        1   -1    0    0  501    0  0.00000000000E+00  0.00000000000E+00  0.76724630240E+03  0.76724630241E+03  0.50400001928E-02 0. -1.
       -1   -1    0    0    0  501  0.00000000000E+00  0.00000000000E+00 -0.53273558626E+03  0.53273558629E+03  0.50400001928E-02 0.  1.
    10030    2    1    2    0    0  0.00000000000E+00  0.00000000000E+00  0.23451071613E+03  0.12999818887E+04  0.12786546191E+04 0.  0.
        4    1    3    3  502    0  0.60281186212E+03 -0.21055862139E+02 -0.98204675999E+02  0.61112295140E+03  0.12699999809E+01 0.  1.
       -4    1    3    3    0  502 -0.60281186212E+03  0.21055862139E+02  0.33271539213E+03  0.68885893730E+03  0.12699999809E+01 0. -1.
</event>
<event>
 5   0  0.9098192E-04  0.1302518E+04  0.7818609E-02  0.9027571E-01
        1   -1    0    0  501    0  0.00000000000E+00  0.00000000000E+00  0.90793284281E+03  0.90793284283E+03  0.50400001928E-02 0.  1.
       -1   -1    0    0    0  501  0.00000000000E+00  0.00000000000E+00 -0.46714730421E+03  0.46714730423E+03  0.50400001928E-02 0. -1.
    10030    2    1    2    0    0  0.00000000000E+00  0.00000000000E+00  0.44078553861E+03  0.13750801471E+04  0.13025181457E+04 0.  0.
        1    1    3    3  502    0 -0.44058079131E+03  0.47728778871E+03  0.17061395663E+03  0.67158334490E+03  0.50400001928E-02 0.  1.
       -1    1    3    3    0  502  0.44058079131E+03 -0.47728778871E+03  0.27017158198E+03  0.70349680216E+03  0.50400001928E-02 0. -1.
</event>
<event>
 5   0  0.9110949E-04  0.1307114E+04  0.7818609E-02  0.9023943E-01
       -1   -1    0    0    0  501  0.00000000000E+00  0.00000000000E+00  0.28934035503E+03  0.28934035507E+03  0.50400001928E-02 0.  1.
        1   -1    0    0  501    0  0.00000000000E+00  0.00000000000E+00 -0.14762432212E+04  0.14762432212E+04  0.50400001928E-02 0. -1.
    10030    2    1    2    0    0  0.00000000000E+00  0.00000000000E+00 -0.11869028661E+04  0.17655835762E+04  0.13071139778E+04 0.  0.
        2    1    3    3  502    0  0.23477019070E+03 -0.50720697085E+03 -0.13586664880E+03  0.57518318819E+03  0.25500000920E-02 0. -1.
       -2    1    3    3    0  502 -0.23477019070E+03  0.50720697085E+03 -0.10510362173E+04  0.11904003881E+04  0.25500000920E-02 0.  1.
</event>
<event>
 5   0  0.9110949E-04  0.1287145E+04  0.7818609E-02  0.9039821E-01
       -1   -1    0    0    0  501  0.00000000000E+00  0.00000000000E+00  0.31983325147E+03  0.31983325151E+03  0.50400001928E-02 0.  1.
        1   -1    0    0  501    0  0.00000000000E+00  0.00000000000E+00 -0.12950056622E+04  0.12950056622E+04  0.50400001928E-02 0. -1.
    10030    2    1    2    0    0  0.00000000000E+00  0.00000000000E+00 -0.97517241074E+03  0.16148389137E+04  0.12871454800E+04 0.  0.
        2    1    3    3  502    0 -0.53792724782E+03 -0.34161851455E+03 -0.37455517396E+03  0.73916203350E+03  0.25500000920E-02 0. -1.
       -2    1    3    3    0  502  0.53792724782E+03  0.34161851455E+03 -0.60061723679E+03  0.87567688022E+03  0.25500000920E-02 0.  1.
</event>
<event>
 5   0  0.1623890E-03  0.1304737E+04  0.7818609E-02  0.9025817E-01
        2   -1    0    0  501    0  0.00000000000E+00  0.00000000000E+00  0.15073295259E+04  0.15073295259E+04  0.25500000920E-02 0.  1.
       -2   -1    0    0    0  501  0.00000000000E+00  0.00000000000E+00 -0.28234366124E+03  0.28234366125E+03  0.25500000920E-02 0. -1.
    10030    2    1    2    0    0  0.00000000000E+00  0.00000000000E+00  0.12249858647E+04  0.17896731872E+04  0.13047374250E+04 0.  0.
        3    1    3    3  502    0  0.29312735271E+03  0.54357980777E+03  0.32417301374E+03  0.69748892849E+03  0.10100000352E+00 0.  1.
       -3    1    3    3    0  502 -0.29312735271E+03 -0.54357980777E+03  0.90081285096E+03  0.10921842587E+04  0.10100000352E+00 0. -1.
</event>
<event>
 5   0  0.1714861E-03  0.1340942E+04  0.7818609E-02  0.8997714E-01
        2   -1    0    0  501    0  0.00000000000E+00  0.00000000000E+00  0.20839901172E+04  0.20839901172E+04  0.25500000920E-02 0. -1.
       -2   -1    0    0    0  501  0.00000000000E+00  0.00000000000E+00 -0.21570690849E+03  0.21570690851E+03  0.25500000920E-02 0.  1.
    10030    2    1    2    0    0  0.00000000000E+00  0.00000000000E+00  0.18682832088E+04  0.22996970258E+04  0.13409415581E+04 0.  0.
        1    1    3    3  502    0  0.42156035365E+03  0.26394104025E+03  0.17052242591E+04  0.17762791950E+04  0.50400001928E-02 0. -1.
       -1    1    3    3    0  502 -0.42156035365E+03 -0.26394104025E+03  0.16305894960E+03  0.52341783077E+03  0.50400001928E-02 0.  1.
</event>
<event>
 5   0  0.1623890E-03  0.1298994E+04  0.7818609E-02  0.9030363E-01
        2   -1    0    0  501    0  0.00000000000E+00  0.00000000000E+00  0.86774428126E+03  0.86774428126E+03  0.25500000920E-02 0. -1.
       -2   -1    0    0    0  501  0.00000000000E+00  0.00000000000E+00 -0.48614141117E+03  0.48614141118E+03  0.25500000920E-02 0.  1.
    10030    2    1    2    0    0  0.00000000000E+00  0.00000000000E+00  0.38160287008E+03  0.13538856924E+04  0.12989941177E+04 0.  0.
        3    1    3    3  502    0 -0.46938450712E+03 -0.25370669478E+02 -0.27633546300E+03  0.54527679641E+03  0.10100000352E+00 0.  1.
       -3    1    3    3    0  502  0.46938450712E+03  0.25370669478E+02  0.65793833308E+03  0.80860889603E+03  0.10100000352E+00 0. -1.
</event>
<event>
 5   0  0.9098192E-04  0.1293077E+04  0.7818609E-02  0.9035073E-01
        1   -1    0    0  501    0  0.00000000000E+00  0.00000000000E+00  0.64984550567E+03  0.64984550569E+03  0.50400001928E-02 0. -1.
       -1   -1    0    0    0  501  0.00000000000E+00  0.00000000000E+00 -0.64324802604E+03  0.64324802606E+03  0.50400001928E-02 0.  1.
    10030    2    1    2    0    0  0.00000000000E+00  0.00000000000E+00  0.65974796304E+01  0.12930935317E+04  0.12930767012E+04 0.  0.
        1    1    3    3  502    0 -0.58136662249E+03  0.10965677945E+03  0.26407038302E+03  0.64787724628E+03  0.50400001928E-02 0. -1.
       -1    1    3    3    0  502  0.58136662249E+03 -0.10965677945E+03 -0.25747290339E+03  0.64521628547E+03  0.50400001928E-02 0.  1.
</event>
<event>
 5   0  0.1700511E-03  0.1280438E+04  0.7818609E-02  0.9045223E-01
        2   -1    0    0  501    0  0.00000000000E+00  0.00000000000E+00  0.67490310479E+03  0.67490310480E+03  0.25500000920E-02 0. -1.
       -2   -1    0    0    0  501  0.00000000000E+00  0.00000000000E+00 -0.60731735498E+03  0.60731735498E+03  0.25500000920E-02 0.  1.
    10030    2    1    2    0    0  0.00000000000E+00  0.00000000000E+00  0.67585749817E+02  0.12822204598E+04  0.12804380008E+04 0.  0.
        2    1    3    3  502    0  0.44574420193E+03 -0.20825447090E+02 -0.42593091816E+03  0.61687822125E+03  0.25500000920E-02 0.  1.
       -2    1    3    3    0  502 -0.44574420193E+03  0.20825447090E+02  0.49351666797E+03  0.66534223853E+03  0.25500000920E-02 0. -1.
</event>
<event>
 5   0  0.1700511E-03  0.1299649E+04  0.7818609E-02  0.9029843E-01
        2   -1    0    0  501    0  0.00000000000E+00  0.00000000000E+00  0.10918496638E+04  0.10918496638E+04  0.25500000920E-02 0.  1.
       -2   -1    0    0    0  501  0.00000000000E+00  0.00000000000E+00 -0.38674923290E+03  0.38674923291E+03  0.25500000920E-02 0. -1.
    10030    2    1    2    0    0  0.00000000000E+00  0.00000000000E+00  0.70510043086E+03  0.14785988967E+04  0.12996492141E+04 0.  0.
        2    1    3    3  502    0  0.22451638020E+03 -0.60107471183E+03  0.23556370534E+03  0.68351201413E+03  0.25500000920E-02 0. -1.
       -2    1    3    3    0  502 -0.22451638020E+03  0.60107471183E+03  0.46953672552E+03  0.79508688255E+03  0.25500000920E-02 0.  1.
</event>
<event>
 5   0  0.9098192E-04  0.1153114E+04  0.7818609E-02  0.9154915E-01
        1   -1    0    0  501    0  0.00000000000E+00  0.00000000000E+00  0.94325290544E+03  0.94325290546E+03  0.50400001928E-02 0. -1.
       -1   -1    0    0    0  501  0.00000000000E+00  0.00000000000E+00 -0.35241688295E+03  0.35241688299E+03  0.50400001928E-02 0.  1.
    10030    2    1    2    0    0  0.00000000000E+00  0.00000000000E+00  0.59083602249E+03  0.12956697884E+04  0.11531144762E+04 0.  0.
        1    1    3    3  502    0  0.43256760286E+02  0.10083895729E+03 -0.34057693080E+03  0.35781599802E+03  0.50400001928E-02 0.  1.
       -1    1    3    3    0  502 -0.43256760286E+02 -0.10083895729E+03  0.93141295330E+03  0.93785379042E+03  0.50400001928E-02 0. -1.
</event>
<event>
 5   0  0.9081324E-04  0.1289543E+04  0.7818609E-02  0.9037899E-01
       -1   -1    0    0    0  501  0.00000000000E+00  0.00000000000E+00  0.38180094536E+03  0.38180094539E+03  0.50400001928E-02 0.  1.
        1   -1    0    0  501    0  0.00000000000E+00  0.00000000000E+00 -0.10888666194E+04  0.10888666195E+04  0.50400001928E-02 0. -1.
    10030    2    1    2    0    0  0.00000000000E+00  0.00000000000E+00 -0.70706567408E+03  0.14706675648E+04  0.12895430271E+04 0.  0.
        4    1    3    3  502    0  0.27362587723E+03 -0.16296328475E+03 -0.99290134257E+03  0.10427285562E+04  0.12699999809E+01 0. -1.
       -4    1    3    3    0  502 -0.27362587723E+03  0.16296328475E+03  0.28583566849E+03  0.42793900868E+03  0.12699999809E+01 0.  1.
</event>
<event>
 5   0  0.9027076E-04  0.1300569E+04  0.7818609E-02  0.9029114E-01
        1   -1    0    0  501    0  0.00000000000E+00  0.00000000000E+00  0.84022726698E+03  0.84022726699E+03  0.50400001928E-02 0.  1.
       -1   -1    0    0    0  501  0.00000000000E+00  0.00000000000E+00 -0.50328066397E+03  0.50328066400E+03  0.50400001928E-02 0. -1.
    10030    2    1    2    0    0  0.00000000000E+00  0.00000000000E+00  0.33694660301E+03  0.13435079310E+04  0.13005693166E+04 0.  0.
        5    1    3    3  502    0 -0.32996723036E+03  0.47808086591E+03 -0.13342239376E+03  0.59603969047E+03  0.46999998093E+01 0. -1.
       -5    1    3    3    0  502  0.32996723036E+03 -0.47808086591E+03  0.47036899677E+03  0.74746824052E+03  0.46999998093E+01 0.  1.
</event>
<event>
 5   0  0.1694675E-03  0.1297945E+04  0.7818609E-02  0.9031196E-01
       -2   -1    0    0    0  501  0.00000000000E+00  0.00000000000E+00  0.21475279083E+03  0.21475279085E+03  0.25500000920E-02 0. -1.
        2   -1    0    0  501    0  0.00000000000E+00  0.00000000000E+00 -0.19611642599E+04  0.19611642599E+04  0.25500000920E-02 0.  1.
    10030    2    1    2    0    0  0.00000000000E+00  0.00000000000E+00 -0.17464114691E+04  0.21759170507E+04  0.12979452964E+04 0.  0.
        4    1    3    3  502    0 -0.24309922691E+03  0.51102716506E+03 -0.14057675473E+04  0.15153976401E+04  0.12699999809E+01 0.  1.
       -4    1    3    3    0  502  0.24309922691E+03 -0.51102716506E+03 -0.34064392175E+03  0.66051941068E+03  0.12699999809E+01 0. -1.
</event>
<event>
 5   0  0.9027076E-04  0.1305454E+04  0.7818609E-02  0.9025251E-01
        1   -1    0    0  501    0  0.00000000000E+00  0.00000000000E+00  0.61292455838E+03  0.61292455840E+03  0.50400001928E-02 0. -1.
       -1   -1    0    0    0  501  0.00000000000E+00  0.00000000000E+00 -0.69511405761E+03  0.69511405763E+03  0.50400001928E-02 0.  1.
    10030    2    1    2    0    0  0.00000000000E+00  0.00000000000E+00 -0.82189499226E+02  0.13080386160E+04  0.13054539085E+04 0.  0.
        5    1    3    3  502    0  0.25464481329E+03 -0.23575405031E+03  0.51281660650E+03  0.61921475682E+03  0.46999998093E+01 0. -1.
       -5    1    3    3    0  502 -0.25464481329E+03  0.23575405031E+03 -0.59500610572E+03  0.68882385921E+03  0.46999998093E+01 0.  1.
</event>
<event>
 5   0  0.1623890E-03  0.1285517E+04  0.7818609E-02  0.9041130E-01
       -2   -1    0    0    0  501  0.00000000000E+00  0.00000000000E+00  0.72497188532E+03  0.72497188533E+03  0.25500000920E-02 0. -1.
        2   -1    0    0  501    0  0.00000000000E+00  0.00000000000E+00 -0.56986810738E+03  0.56986810738E+03  0.25500000920E-02 0.  1.
    10030    2    1    2    0    0  0.00000000000E+00  0.00000000000E+00  0.15510377795E+03  0.12948399927E+04  0.12855167929E+04 0.  0.
        3    1    3    3  502    0 -0.41769836025E+01 -0.42177986657E+03  0.56606689986E+03  0.70593728359E+03  0.10100000352E+00 0. -1.
       -3    1    3    3    0  502  0.41769836025E+01  0.42177986657E+03 -0.41096312192E+03  0.58890270912E+03  0.10100000352E+00 0.  1.
</event>
<event>
 5   0  0.9027076E-04  0.1289726E+04  0.7818609E-02  0.9037752E-01
       -1   -1    0    0    0  501  0.00000000000E+00  0.00000000000E+00  0.65790449228E+03  0.65790449230E+03  0.50400001928E-02 0. -1.
        1   -1    0    0  501    0  0.00000000000E+00  0.00000000000E+00 -0.63208013615E+03  0.63208013617E+03  0.50400001928E-02 0.  1.
    10030    2    1    2    0    0  0.00000000000E+00  0.00000000000E+00  0.25824356124E+02  0.12899846285E+04  0.12897261121E+04 0.  0.
        5    1    3    3  502    0  0.56151149861E+03  0.20612138532E+03 -0.22806158461E+03  0.64016823174E+03  0.46999998093E+01 0. -1.
       -5    1    3    3    0  502 -0.56151149861E+03 -0.20612138532E+03  0.25388594074E+03  0.64981639673E+03  0.46999998093E+01 0.  1.
</event>
<event>
 5   0  0.9215829E-04  0.1282657E+04  0.7818609E-02  0.9043432E-01
        1   -1    0    0  501    0  0.00000000000E+00  0.00000000000E+00  0.49755391893E+03  0.49755391896E+03  0.50400001928E-02 0. -1.
       -1   -1    0    0    0  501  0.00000000000E+00  0.00000000000E+00 -0.82664859667E+03  0.82664859668E+03  0.50400001928E-02 0.  1.
    10030    2    1    2    0    0  0.00000000000E+00  0.00000000000E+00 -0.32909467774E+03  0.13242025156E+04  0.12826570062E+04 0.  0.
        3    1    3    3  502    0 -0.35112899063E+03  0.44650776072E+03  0.14282331094E+03  0.58571260597E+03  0.10100000352E+00 0. -1.
       -3    1    3    3    0  502  0.35112899063E+03 -0.44650776072E+03 -0.47191798868E+03  0.73848990967E+03  0.10100000352E+00 0.  1.
</event>
<event>
 5   0  0.9215829E-04  0.1422471E+04  0.7818609E-02  0.8937711E-01
       -1   -1    0    0    0  501  0.00000000000E+00  0.00000000000E+00  0.15969544370E+04  0.15969544370E+04  0.50400001928E-02 0.  1.
        1   -1    0    0  501    0  0.00000000000E+00  0.00000000000E+00 -0.31676305348E+03  0.31676305352E+03  0.50400001928E-02 0. -1.
    10030    2    1    2    0    0  0.00000000000E+00  0.00000000000E+00  0.12801913835E+04  0.19137174905E+04  0.14224713196E+04 0.  0.
        3    1    3    3  502    0  0.70640488373E+01  0.66332902911E+03  0.98519974944E+03  0.11877179203E+04  0.10100000352E+00 0.  1.
       -3    1    3    3    0  502 -0.70640488373E+01 -0.66332902911E+03  0.29499163411E+03  0.72599957027E+03  0.10100000352E+00 0. -1.
</event>
<event>
 5   0  0.9027076E-04  0.1426751E+04  0.7818609E-02  0.8934679E-01
       -1   -1    0    0    0  501  0.00000000000E+00  0.00000000000E+00  0.11831052323E+04  0.11831052323E+04  0.50400001928E-02 0. -1.
        1   -1    0    0  501    0  0.00000000000E+00  0.00000000000E+00 -0.43014311505E+03  0.43014311507E+03  0.50400001928E-02 0.  1.
    10030    2    1    2    0    0  0.00000000000E+00  0.00000000000E+00  0.75296211721E+03  0.16132483473E+04  0.14267509524E+04 0.  0.
        5    1    3    3  502    0 -0.52235763173E+03  0.37020983994E+03  0.73219762764E+03  0.97265013079E+03  0.46999998093E+01 0. -1.
       -5    1    3    3    0  502  0.52235763173E+03 -0.37020983994E+03  0.20764489570E+02  0.64059821654E+03  0.46999998093E+01 0.  1.
</event>
<event>
 5   0  0.1694675E-03  0.1343645E+04  0.7818609E-02  0.8995653E-01
        2   -1    0    0  501    0  0.00000000000E+00  0.00000000000E+00  0.80815355297E+03  0.80815355297E+03  0.25500000920E-02 0.  1.
       -2   -1    0    0    0  501  0.00000000000E+00  0.00000000000E+00 -0.55848947259E+03  0.55848947259E+03  0.25500000920E-02 0. -1.
    10030    2    1    2    0    0  0.00000000000E+00  0.00000000000E+00  0.24966408038E+03  0.13666430256E+04  0.13436446726E+04 0.  0.
        4    1    3    3  502    0  0.33772975626E+03 -0.31377320155E+01 -0.46585991970E+03  0.57541142786E+03  0.12699999809E+01 0. -1.
       -4    1    3    3    0  502 -0.33772975626E+03  0.31377320155E+01  0.71552400008E+03  0.79123159771E+03  0.12699999809E+01 0.  1.
</event>
<event>
 5   0  0.1623890E-03  0.1187727E+04  0.7818609E-02  0.9123668E-01
        2   -1    0    0  501    0  0.00000000000E+00  0.00000000000E+00  0.14261723134E+04  0.14261723134E+04  0.25500000920E-02 0.  1.
       -2   -1    0    0    0  501  0.00000000000E+00  0.00000000000E+00 -0.24728684919E+03  0.24728684920E+03  0.25500000920E-02 0. -1.
    10030    2    1    2    0    0  0.00000000000E+00  0.00000000000E+00  0.11788854642E+04  0.16734591626E+04  0.11877266652E+04 0.  0.
        3    1    3    3  502    0 -0.51464483834E+03 -0.15635432626E+03  0.94411926627E+03  0.10865851021E+04  0.10100000352E+00 0.  1.
       -3    1    3    3    0  502  0.51464483834E+03  0.15635432626E+03  0.23476619791E+03  0.58687406047E+03  0.10100000352E+00 0. -1.
</event>
<event>
 5   0  0.1700511E-03  0.1301564E+04  0.7818609E-02  0.9028326E-01
        2   -1    0    0  501    0  0.00000000000E+00  0.00000000000E+00  0.18082147064E+04  0.18082147064E+04  0.25500000920E-02 0. -1.
       -2   -1    0    0    0  501  0.00000000000E+00  0.00000000000E+00 -0.23421832189E+03  0.23421832190E+03  0.25500000920E-02 0.  1.
    10030    2    1    2    0    0  0.00000000000E+00  0.00000000000E+00  0.15739963845E+04  0.20424330283E+04  0.13015636967E+04 0.  0.
        2    1    3    3  502    0 -0.49048211701E+03  0.76705202009E+02  0.14473013699E+04  0.15300776616E+04  0.25500000920E-02 0. -1.
       -2    1    3    3    0  502  0.49048211701E+03 -0.76705202009E+02  0.12669501466E+03  0.51235536678E+03  0.25500000920E-02 0.  1.
</event>
<event>
 5   0  0.1714861E-03  0.1301519E+04  0.7818609E-02  0.9028362E-01
        2   -1    0    0  501    0  0.00000000000E+00  0.00000000000E+00  0.95592011064E+03  0.95592011064E+03  0.25500000920E-02 0. -1.
       -2   -1    0    0    0  501  0.00000000000E+00  0.00000000000E+00 -0.44301586235E+03  0.44301586235E+03  0.25500000920E-02 0.  1.
    10030    2    1    2    0    0  0.00000000000E+00  0.00000000000E+00  0.51290424829E+03  0.13989359730E+04  0.13015187623E+04 0.  0.
        1    1    3    3  502    0 -0.32093894454E+03  0.23847385159E+03  0.80831787560E+03  0.90180339989E+03  0.50400001928E-02 0. -1.
       -1    1    3    3    0  502  0.32093894454E+03 -0.23847385159E+03 -0.29541362731E+03  0.49713257310E+03  0.50400001928E-02 0.  1.
</event>
<event>
 5   0  0.1667342E-03  0.1300514E+04  0.7818609E-02  0.9029157E-01
       -2   -1    0    0    0  501  0.00000000000E+00  0.00000000000E+00  0.21140474278E+03  0.21140474279E+03  0.25500000920E-02 0.  1.
        2   -1    0    0  501    0  0.00000000000E+00  0.00000000000E+00 -0.20001173629E+04  0.20001173629E+04  0.25500000920E-02 0. -1.
    10030    2    1    2    0    0  0.00000000000E+00  0.00000000000E+00 -0.17887126201E+04  0.22115221057E+04  0.13005142008E+04 0.  0.
        5    1    3    3  502    0 -0.11059955818E+03 -0.91392248022E+02  0.18412348361E+03  0.23347023896E+03  0.46999998093E+01 0.  1.
       -5    1    3    3    0  502  0.11059955818E+03  0.91392248022E+02 -0.19728361037E+04  0.19780518667E+04  0.46999998093E+01 0. -1.
</event>
<event>
 5   0  0.1623890E-03  0.1254768E+04  0.7818609E-02  0.9066224E-01
       -2   -1    0    0    0  501  0.00000000000E+00  0.00000000000E+00  0.40047304864E+03  0.40047304865E+03  0.25500000920E-02 0. -1.
        2   -1    0    0  501    0  0.00000000000E+00  0.00000000000E+00 -0.98286394923E+03  0.98286394923E+03  0.25500000920E-02 0.  1.
    10030    2    1    2    0    0  0.00000000000E+00  0.00000000000E+00 -0.58239090059E+03  0.13833369979E+04  0.12547677429E+04 0.  0.
        3    1    3    3  502    0  0.24123441452E+03  0.54411385896E+03 -0.72483098596E+02  0.59958964637E+03  0.10100000352E+00 0. -1.
       -3    1    3    3    0  502 -0.24123441452E+03 -0.54411385896E+03 -0.50990780199E+03  0.78374735150E+03  0.10100000352E+00 0.  1.
</event>
<event>
 5   0  0.9098192E-04  0.1394218E+04  0.7818609E-02  0.8958015E-01
       -1   -1    0    0    0  501  0.00000000000E+00  0.00000000000E+00  0.45014259162E+03  0.45014259165E+03  0.50400001928E-02 0.  1.
        1   -1    0    0  501    0  0.00000000000E+00  0.00000000000E+00 -0.10795705111E+04  0.10795705111E+04  0.50400001928E-02 0. -1.
    10030    2    1    2    0    0  0.00000000000E+00  0.00000000000E+00 -0.62942791947E+03  0.15297131028E+04  0.13942175838E+04 0.  0.
        1    1    3    3  502    0  0.37229642455E+03  0.31591164179E+03 -0.86061767409E+03  0.98947843541E+03  0.50400001928E-02 0. -1.
       -1    1    3    3    0  502 -0.37229642455E+03 -0.31591164179E+03  0.23118975462E+03  0.54023466736E+03  0.50400001928E-02 0.  1.
</event>
<event>
 5   0  0.9215829E-04  0.1298940E+04  0.7818609E-02  0.9030407E-01
        1   -1    0    0  501    0  0.00000000000E+00  0.00000000000E+00  0.40698829059E+03  0.40698829062E+03  0.50400001928E-02 0.  1.
       -1   -1    0    0    0  501  0.00000000000E+00  0.00000000000E+00 -0.10364204674E+04  0.10364204674E+04  0.50400001928E-02 0. -1.
    10030    2    1    2    0    0  0.00000000000E+00  0.00000000000E+00 -0.62943217683E+03  0.14434087580E+04  0.12989395589E+04 0.  0.
        3    1    3    3  502    0  0.38275172853E+03 -0.67953065741E+02 -0.89286550553E+03  0.97381996591E+03  0.10100000352E+00 0. -1.
       -3    1    3    3    0  502 -0.38275172853E+03  0.67953065741E+02  0.26343332870E+03  0.46958879214E+03  0.10100000352E+00 0.  1.
</event>
<event>
 5   0  0.9027076E-04  0.1314930E+04  0.7818609E-02  0.9017809E-01
        1   -1    0    0  501    0  0.00000000000E+00  0.00000000000E+00  0.36378975741E+03  0.36378975744E+03  0.50400001928E-02 0. -1.
       -1   -1    0    0    0  501  0.00000000000E+00  0.00000000000E+00 -0.11882135513E+04  0.11882135513E+04  0.50400001928E-02 0.  1.
    10030    2    1    2    0    0  0.00000000000E+00  0.00000000000E+00 -0.82442379392E+03  0.15520033088E+04  0.13149295337E+04 0.  0.
        5    1    3    3  502    0 -0.43474463085E+03  0.14151428412E+03 -0.96984130136E+03  0.10722142633E+04  0.46999998093E+01 0.  1.
       -5    1    3    3    0  502  0.43474463085E+03 -0.14151428412E+03  0.14541750744E+03  0.47978904545E+03  0.46999998093E+01 0. -1.
</event>
<event>
 5   0  0.9215829E-04  0.1275964E+04  0.7818609E-02  0.9048846E-01
        1   -1    0    0  501    0  0.00000000000E+00  0.00000000000E+00  0.55976927156E+03  0.55976927158E+03  0.50400001928E-02 0.  1.
       -1   -1    0    0    0  501  0.00000000000E+00  0.00000000000E+00 -0.72712264310E+03  0.72712264312E+03  0.50400001928E-02 0. -1.
    10030    2    1    2    0    0  0.00000000000E+00  0.00000000000E+00 -0.16735337154E+03  0.12868919147E+04  0.12759638119E+04 0.  0.
        3    1    3    3  502    0 -0.87497918067E+02  0.52236881526E+03 -0.44238532125E+03  0.69009408596E+03  0.10100000352E+00 0. -1.
       -3    1    3    3    0  502  0.87497918067E+02 -0.52236881526E+03  0.27503194971E+03  0.59679782874E+03  0.10100000352E+00 0.  1.
</event>
<event>
 5   0  0.1700511E-03  0.1222109E+04  0.7818609E-02  0.9093721E-01
       -2   -1    0    0    0  501  0.00000000000E+00  0.00000000000E+00  0.25537783481E+04  0.25537783481E+04  0.25500000920E-02 0.  1.
        2   -1    0    0  501    0  0.00000000000E+00  0.00000000000E+00 -0.14620996675E+03  0.14620996677E+03  0.25500000920E-02 0. -1.
    10030    2    1    2    0    0  0.00000000000E+00  0.00000000000E+00  0.24075683814E+04  0.26999883149E+04  0.12221094017E+04 0.  0.
        2    1    3    3  502    0 -0.44620889317E+03  0.36314949673E+03  0.16587463276E+04  0.17556820079E+04  0.25500000920E-02 0.  1.
       -2    1    3    3    0  502  0.44620889317E+03 -0.36314949673E+03  0.74882205376E+03  0.94430630705E+03  0.25500000920E-02 0. -1.
</event>
<event>
 5   0  0.1623890E-03  0.1309743E+04  0.7818609E-02  0.9021875E-01
       -2   -1    0    0    0  501  0.00000000000E+00  0.00000000000E+00  0.32275541747E+03  0.32275541748E+03  0.25500000920E-02 0.  1.
        2   -1    0    0  501    0  0.00000000000E+00  0.00000000000E+00 -0.13287351904E+04  0.13287351904E+04  0.25500000920E-02 0. -1.
    10030    2    1    2    0    0  0.00000000000E+00  0.00000000000E+00 -0.10059797730E+04  0.16514906079E+04  0.13097426940E+04 0.  0.
        3    1    3    3  502    0 -0.34287031897E+02 -0.48083722364E+03  0.55924589456E+02  0.48529125904E+03  0.10100000352E+00 0.  1.
       -3    1    3    3    0  502  0.34287031897E+02  0.48083722364E+03 -0.10619043624E+04  0.11661993489E+04  0.10100000352E+00 0. -1.
</event>
<event>
 5   0  0.9215829E-04  0.1308337E+04  0.7818609E-02  0.9022980E-01
       -1   -1    0    0    0  501  0.00000000000E+00  0.00000000000E+00  0.13575447375E+04  0.13575447375E+04  0.50400001928E-02 0. -1.
        1   -1    0    0  501    0  0.00000000000E+00  0.00000000000E+00 -0.31522836504E+03  0.31522836508E+03  0.50400001928E-02 0.  1.
    10030    2    1    2    0    0  0.00000000000E+00  0.00000000000E+00  0.10423163725E+04  0.16727731026E+04  0.13083372778E+04 0.  0.
        3    1    3    3  502    0  0.40954033345E+03  0.61926102159E+02 -0.12622005370E+03  0.43300073789E+03  0.10100000352E+00 0.  1.
       -3    1    3    3    0  502 -0.40954033345E+03 -0.61926102159E+02  0.11685364262E+04  0.12397723647E+04  0.10100000352E+00 0. -1.
</event>
<event>
 5   0  0.9110949E-04  0.1280304E+04  0.7818609E-02  0.9045332E-01
        1   -1    0    0  501    0  0.00000000000E+00  0.00000000000E+00  0.54110903418E+03  0.54110903421E+03  0.50400001928E-02 0. -1.
       -1   -1    0    0    0  501  0.00000000000E+00  0.00000000000E+00 -0.75732326685E+03  0.75732326687E+03  0.50400001928E-02 0.  1.
    10030    2    1    2    0    0  0.00000000000E+00  0.00000000000E+00 -0.21621423267E+03  0.12984323011E+04  0.12803038101E+04 0.  0.
        2    1    3    3  502    0  0.18395546856E+03  0.37283469161E+03  0.38555959286E+03  0.56701104163E+03  0.25500000920E-02 0. -1.
       -2    1    3    3    0  502 -0.18395546856E+03 -0.37283469161E+03 -0.60177382553E+03  0.73142125945E+03  0.25500000920E-02 0.  1.
</event>
<event>
 5   0  0.1700511E-03  0.1309962E+04  0.7818609E-02  0.9021702E-01
       -2   -1    0    0    0  501  0.00000000000E+00  0.00000000000E+00  0.40318740011E+03  0.40318740012E+03  0.25500000920E-02 0. -1.
        2   -1    0    0  501    0  0.00000000000E+00  0.00000000000E+00 -0.10640216332E+04  0.10640216332E+04  0.25500000920E-02 0.  1.
    10030    2    1    2    0    0  0.00000000000E+00  0.00000000000E+00 -0.66083423304E+03  0.14672090333E+04  0.13099620085E+04 0.  0.
        2    1    3    3  502    0  0.14704739965E+03 -0.31003325718E+03 -0.95529124890E+03  0.10150492247E+04  0.25500000920E-02 0.  1.
       -2    1    3    3    0  502 -0.14704739965E+03  0.31003325718E+03  0.29445701586E+03  0.45215980858E+03  0.25500000920E-02 0. -1.
</event>
<event>
 5   0  0.9081324E-04  0.1313459E+04  0.7818609E-02  0.9018959E-01
       -1   -1    0    0    0  501  0.00000000000E+00  0.00000000000E+00  0.32814196315E+03  0.32814196319E+03  0.50400001928E-02 0.  1.
        1   -1    0    0  501    0  0.00000000000E+00  0.00000000000E+00 -0.13143513687E+04  0.13143513687E+04  0.50400001928E-02 0. -1.
    10030    2    1    2    0    0  0.00000000000E+00  0.00000000000E+00 -0.98620940551E+03  0.16424933319E+04  0.13134593080E+04 0.  0.
        4    1    3    3  502    0 -0.13813033130E+03  0.61029267479E+03 -0.24376964133E+03  0.67153733199E+03  0.12699999809E+01 0.  1.
       -4    1    3    3    0  502  0.13813033130E+03 -0.61029267479E+03 -0.74243976418E+03  0.97095599986E+03  0.12699999809E+01 0. -1.
</event>
<event>
 5   0  0.6284125E-04  0.1311362E+04  0.7818609E-02  0.9020603E-01
        3   -1    0    0  501    0  0.00000000000E+00  0.00000000000E+00  0.20106149631E+04  0.20106149656E+04  0.10100000352E+00 0. -1.
       -3   -1    0    0    0  501  0.00000000000E+00  0.00000000000E+00 -0.21382394161E+03  0.21382396547E+03  0.10100000352E+00 0.  1.
    10030    2    1    2    0    0  0.00000000000E+00  0.00000000000E+00  0.17967910215E+04  0.22244389311E+04  0.13113621099E+04 0.  0.
        3    1    3    3  502    0  0.34613960434E+03  0.21054200763E+03  0.23901955451E+02  0.40584710957E+03  0.10100000352E+00 0.  1.
       -3    1    3    3    0  502 -0.34613960434E+03 -0.21054200763E+03  0.17728890660E+04  0.18185918215E+04  0.10100000352E+00 0. -1.
</event>
<event>
 5   0  0.1714861E-03  0.1392377E+04  0.7818609E-02  0.8959355E-01
        2   -1    0    0  501    0  0.00000000000E+00  0.00000000000E+00  0.11463040356E+04  0.11463040356E+04  0.25500000920E-02 0.  1.
       -2   -1    0    0    0  501  0.00000000000E+00  0.00000000000E+00 -0.42281851750E+03  0.42281851751E+03  0.25500000920E-02 0. -1.
    10030    2    1    2    0    0  0.00000000000E+00  0.00000000000E+00  0.72348551813E+03  0.15691225531E+04  0.13923772089E+04 0.  0.
        1    1    3    3  502    0  0.27654276489E+03  0.94281771520E+02 -0.35038353278E+03  0.45621658597E+03  0.50400001928E-02 0. -1.
       -1    1    3    3    0  502 -0.27654276489E+03 -0.94281771520E+02  0.10738690509E+04  0.11129059672E+04  0.50400001928E-02 0.  1.
</event>
<event>
 5   0  0.9081324E-04  0.1340754E+04  0.7818609E-02  0.8997857E-01
       -1   -1    0    0    0  501  0.00000000000E+00  0.00000000000E+00  0.25685978660E+03  0.25685978665E+03  0.50400001928E-02 0.  1.
        1   -1    0    0  501    0  0.00000000000E+00  0.00000000000E+00 -0.17496128018E+04  0.17496128018E+04  0.50400001928E-02 0. -1.
    10030    2    1    2    0    0  0.00000000000E+00  0.00000000000E+00 -0.14927530152E+04  0.20064725884E+04  0.13407537745E+04 0.  0.
        4    1    3    3  502    0  0.34458457724E+03 -0.72690452465E+02  0.10727454683E+03  0.36814653883E+03  0.12699999809E+01 0.  1.
       -4    1    3    3    0  502 -0.34458457724E+03  0.72690452465E+02 -0.16000275620E+04  0.16383260496E+04  0.12699999809E+01 0. -1.
</event>
<event>
 5   0  0.9215829E-04  0.1308872E+04  0.7818609E-02  0.9022559E-01
        1   -1    0    0  501    0  0.00000000000E+00  0.00000000000E+00  0.49033675012E+03  0.49033675015E+03  0.50400001928E-02 0. -1.
       -1   -1    0    0    0  501  0.00000000000E+00  0.00000000000E+00 -0.87345414901E+03  0.87345414902E+03  0.50400001928E-02 0.  1.
    10030    2    1    2    0    0  0.00000000000E+00  0.00000000000E+00 -0.38311739888E+03  0.13637908992E+04  0.13088722914E+04 0.  0.
        3    1    3    3  502    0  0.17594252820E+03  0.10098468373E+03  0.45674813339E+03  0.49977249538E+03  0.10100000352E+00 0. -1.
       -3    1    3    3    0  502 -0.17594252820E+03 -0.10098468373E+03 -0.83986553228E+03  0.86401840379E+03  0.10100000352E+00 0.  1.
</event>
<event>
 5   0  0.9110949E-04  0.1300038E+04  0.7818609E-02  0.9029535E-01
       -1   -1    0    0    0  501  0.00000000000E+00  0.00000000000E+00  0.33625117852E+03  0.33625117856E+03  0.50400001928E-02 0.  1.
        1   -1    0    0  501    0  0.00000000000E+00  0.00000000000E+00 -0.12565749968E+04  0.12565749968E+04  0.50400001928E-02 0. -1.
    10030    2    1    2    0    0  0.00000000000E+00  0.00000000000E+00 -0.92032381823E+03  0.15928261753E+04  0.13000381896E+04 0.  0.
        2    1    3    3  502    0  0.16169576796E+03  0.29746730722E+03 -0.11400099198E+04  0.11892245110E+04  0.25500000920E-02 0. -1.
       -2    1    3    3    0  502 -0.16169576796E+03 -0.29746730722E+03  0.21968610156E+03  0.40360166436E+03  0.25500000920E-02 0.  1.
</event>
<event>
 5   0  0.1714861E-03  0.1287600E+04  0.7818609E-02  0.9039456E-01
        2   -1    0    0  501    0  0.00000000000E+00  0.00000000000E+00  0.66284044187E+03  0.66284044188E+03  0.25500000920E-02 0. -1.
       -2   -1    0    0    0  501  0.00000000000E+00  0.00000000000E+00 -0.62530674230E+03  0.62530674231E+03  0.25500000920E-02 0.  1.
    10030    2    1    2    0    0  0.00000000000E+00  0.00000000000E+00  0.37533699571E+02  0.12881471842E+04  0.12876002445E+04 0.  0.
        1    1    3    3  502    0  0.26589990127E+03 -0.56800807662E+03 -0.12670008906E+03  0.63983501404E+03  0.50400001928E-02 0.  1.
       -1    1    3    3    0  502 -0.26589990127E+03  0.56800807662E+03  0.16423378863E+03  0.64831217014E+03  0.50400001928E-02 0. -1.
</event>
<event>
 5   0  0.1667342E-03  0.1304365E+04  0.7818609E-02  0.9026111E-01
       -2   -1    0    0    0  501  0.00000000000E+00  0.00000000000E+00  0.27673069783E+03  0.27673069784E+03  0.25500000920E-02 0. -1.
        2   -1    0    0  501    0  0.00000000000E+00  0.00000000000E+00 -0.15370241541E+04  0.15370241541E+04  0.25500000920E-02 0.  1.
    10030    2    1    2    0    0  0.00000000000E+00  0.00000000000E+00 -0.12602934563E+04  0.18137548520E+04  0.13043646220E+04 0.  0.
        5    1    3    3  502    0 -0.42362938049E+03 -0.36345023227E+03 -0.16114146666E+03  0.58098759507E+03  0.46999998093E+01 0.  1.
       -5    1    3    3    0  502  0.42362938049E+03  0.36345023227E+03 -0.10991519896E+04  0.12327672569E+04  0.46999998093E+01 0. -1.
</event>
<event>
 5   0  0.9027076E-04  0.1259636E+04  0.7818609E-02  0.9062201E-01
       -1   -1    0    0    0  501  0.00000000000E+00  0.00000000000E+00  0.73986626805E+03  0.73986626807E+03  0.50400001928E-02 0.  1.
        1   -1    0    0  501    0  0.00000000000E+00  0.00000000000E+00 -0.53613841894E+03  0.53613841897E+03  0.50400001928E-02 0. -1.
    10030    2    1    2    0    0  0.00000000000E+00  0.00000000000E+00  0.20372784911E+03  0.12760046870E+04  0.12596360287E+04 0.  0.
        5    1    3    3  502    0  0.37904229520E+03 -0.35355953346E+03  0.46424322128E+03  0.69586008921E+03  0.46999998093E+01 0.  1.
       -5    1    3    3    0  502 -0.37904229520E+03  0.35355953346E+03 -0.26051537218E+03  0.58014459783E+03  0.46999998093E+01 0. -1.
</event>
<event>
 5   0  0.1694675E-03  0.1298255E+04  0.7818609E-02  0.9030950E-01
        2   -1    0    0  501    0  0.00000000000E+00  0.00000000000E+00  0.97592657322E+03  0.97592657322E+03  0.25500000920E-02 0.  1.
       -2   -1    0    0    0  501  0.00000000000E+00  0.00000000000E+00 -0.43176049371E+03  0.43176049372E+03  0.25500000920E-02 0. -1.
    10030    2    1    2    0    0  0.00000000000E+00  0.00000000000E+00  0.54416607951E+03  0.14076870669E+04  0.12982550429E+04 0.  0.
        4    1    3    3  502    0 -0.35902608132E+03 -0.35081210529E+03  0.71835311113E+03  0.87635704222E+03  0.12699999809E+01 0.  1.
       -4    1    3    3    0  502  0.35902608132E+03  0.35081210529E+03 -0.17418703163E+03  0.53133002472E+03  0.12699999809E+01 0. -1.
</event>
<event>
 5   0  0.9098192E-04  0.1307718E+04  0.7818609E-02  0.9023467E-01
        1   -1    0    0  501    0  0.00000000000E+00  0.00000000000E+00  0.71556061594E+03  0.71556061595E+03  0.50400001928E-02 0. -1.
       -1   -1    0    0    0  501  0.00000000000E+00  0.00000000000E+00 -0.59747764031E+03  0.59747764033E+03  0.50400001928E-02 0.  1.
    10030    2    1    2    0    0  0.00000000000E+00  0.00000000000E+00  0.11808297563E+03  0.13130382563E+04  0.13077178110E+04 0.  0.
        1    1    3    3  502    0  0.47426744819E+03  0.37958762339E+03  0.30192458218E+03  0.67836187216E+03  0.50400001928E-02 0. -1.
       -1    1    3    3    0  502 -0.47426744819E+03 -0.37958762339E+03 -0.18384160655E+03  0.63467638413E+03  0.50400001928E-02 0.  1.
</event>
<event>
 5   0  0.9027076E-04  0.1296038E+04  0.7818609E-02  0.9032713E-01
        1   -1    0    0  501    0  0.00000000000E+00  0.00000000000E+00  0.10769058153E+04  0.10769058153E+04  0.50400001928E-02 0.  1.
       -1   -1    0    0    0  501  0.00000000000E+00  0.00000000000E+00 -0.38993984887E+03  0.38993984890E+03  0.50400001928E-02 0. -1.
    10030    2    1    2    0    0  0.00000000000E+00  0.00000000000E+00  0.68696596642E+03  0.14668456642E+04  0.12960377940E+04 0.  0.
        5    1    3    3  502    0  0.38402805182E+03 -0.55919100663E+02 -0.24385281559E+03  0.45835660361E+03  0.46999998093E+01 0. -1.
       -5    1    3    3    0  502 -0.38402805182E+03  0.55919100663E+02  0.93081878201E+03  0.10084890606E+04  0.46999998093E+01 0.  1.
</event>
<event>
 5   0  0.9110949E-04  0.1299694E+04  0.7818609E-02  0.9029807E-01
       -1   -1    0    0    0  501  0.00000000000E+00  0.00000000000E+00  0.25692435841E+03  0.25692435846E+03  0.50400001928E-02 0. -1.
        1   -1    0    0  501    0  0.00000000000E+00  0.00000000000E+00 -0.16436800575E+04  0.16436800575E+04  0.50400001928E-02 0.  1.
    10030    2    1    2    0    0  0.00000000000E+00  0.00000000000E+00 -0.13867556990E+04  0.19006044159E+04  0.12996944937E+04 0.  0.
        2    1    3    3  502    0 -0.35468651581E+03 -0.47048530099E+01  0.10286546806E+03  0.36933178128E+03  0.25500000920E-02 0. -1.
       -2    1    3    3    0  502  0.35468651581E+03  0.47048530099E+01 -0.14896211671E+04  0.15312726346E+04  0.25500000920E-02 0.  1.
</event>
<event>
 5   0  0.9110949E-04  0.1381068E+04  0.7818609E-02  0.8967638E-01
       -1   -1    0    0    0  501  0.00000000000E+00  0.00000000000E+00  0.43378159119E+03  0.43378159122E+03  0.50400001928E-02 0. -1.
        1   -1    0    0  501    0  0.00000000000E+00  0.00000000000E+00 -0.10992560788E+04  0.10992560788E+04  0.50400001928E-02 0.  1.
    10030    2    1    2    0    0  0.00000000000E+00  0.00000000000E+00 -0.66547448756E+03  0.15330376700E+04  0.13810677768E+04 0.  0.
        2    1    3    3  502    0 -0.27725262562E+03  0.55320655045E+03  0.74681975229E+01  0.61883946211E+03  0.25500000920E-02 0. -1.
       -2    1    3    3    0  502  0.27725262562E+03 -0.55320655045E+03 -0.67294268508E+03  0.91419820788E+03  0.25500000920E-02 0.  1.
</event>
<event>
 5   0  0.9027076E-04  0.1309410E+04  0.7818609E-02  0.9022136E-01
        1   -1    0    0  501    0  0.00000000000E+00  0.00000000000E+00  0.59389281041E+03  0.59389281043E+03  0.50400001928E-02 0.  1.
       -1   -1    0    0    0  501  0.00000000000E+00  0.00000000000E+00 -0.72174436078E+03  0.72174436080E+03  0.50400001928E-02 0. -1.
    10030    2    1    2    0    0  0.00000000000E+00  0.00000000000E+00 -0.12785155037E+03  0.13156371712E+04  0.13094102288E+04 0.  0.
        5    1    3    3  502    0 -0.40163147371E+03 -0.18855709447E+03  0.41977305352E+03  0.61081349446E+03  0.46999998093E+01 0.  1.
       -5    1    3    3    0  502  0.40163147371E+03  0.18855709447E+03 -0.54762460389E+03  0.70482367677E+03  0.46999998093E+01 0. -1.
</event>
<event>
 5   0  0.9027076E-04  0.1297846E+04  0.7818609E-02  0.9031275E-01
       -1   -1    0    0    0  501  0.00000000000E+00  0.00000000000E+00  0.47698055928E+03  0.47698055931E+03  0.50400001928E-02 0.  1.
        1   -1    0    0  501    0  0.00000000000E+00  0.00000000000E+00 -0.88284810463E+03  0.88284810465E+03  0.50400001928E-02 0. -1.
    10030    2    1    2    0    0  0.00000000000E+00  0.00000000000E+00 -0.40586754535E+03  0.13598286640E+04  0.12978464974E+04 0.  0.
        5    1    3    3  502    0  0.55565315076E+03 -0.33408298182E+03 -0.23099784181E+03  0.68829060404E+03  0.46999998093E+01 0. -1.
       -5    1    3    3    0  502 -0.55565315076E+03  0.33408298182E+03 -0.17486970354E+03  0.67153805991E+03  0.46999998093E+01 0.  1.
</event>
<event>
 5   0  0.9110949E-04  0.1288116E+04  0.7818609E-02  0.9039043E-01
       -1   -1    0    0    0  501  0.00000000000E+00  0.00000000000E+00  0.25795612475E+03  0.25795612479E+03  0.50400001928E-02 0.  1.
        1   -1    0    0  501    0  0.00000000000E+00  0.00000000000E+00 -0.16080661659E+04  0.16080661659E+04  0.50400001928E-02 0. -1.
    10030    2    1    2    0    0  0.00000000000E+00  0.00000000000E+00 -0.13501100411E+04  0.18660222907E+04  0.12881157037E+04 0.  0.
        2    1    3    3  502    0  0.18286811815E+03 -0.41576942196E+03 -0.13365411898E+04  0.14116116013E+04  0.25500000920E-02 0. -1.
       -2    1    3    3    0  502 -0.18286811815E+03  0.41576942196E+03 -0.13568851303E+02  0.45441068936E+03  0.25500000920E-02 0.  1.
</event>
<event>
 5   0  0.9110949E-04  0.1300829E+04  0.7818609E-02  0.9028908E-01
        1   -1    0    0  501    0  0.00000000000E+00  0.00000000000E+00  0.60217910266E+03  0.60217910268E+03  0.50400001928E-02 0. -1.
       -1   -1    0    0    0  501  0.00000000000E+00  0.00000000000E+00 -0.70251368660E+03  0.70251368662E+03  0.50400001928E-02 0.  1.
    10030    2    1    2    0    0  0.00000000000E+00  0.00000000000E+00 -0.10033458394E+03  0.13046927893E+04  0.13008290609E+04 0.  0.
        2    1    3    3  502    0 -0.24730983272E+03  0.65778675876E+01 -0.65348003981E+03  0.69874285981E+03  0.25500000920E-02 0.  1.
       -2    1    3    3    0  502  0.24730983272E+03 -0.65778675876E+01  0.55314545587E+03  0.60594992949E+03  0.25500000920E-02 0. -1.
</event>
<event>
 5   0  0.6284125E-04  0.1297495E+04  0.7818609E-02  0.9031554E-01
       -4   -1    0    0    0  501  0.00000000000E+00  0.00000000000E+00  0.58904832065E+03  0.58904968972E+03  0.12699999809E+01 0.  1.
        4   -1    0    0  501    0  0.00000000000E+00  0.00000000000E+00 -0.71449431393E+03  0.71449544263E+03  0.12699999809E+01 0. -1.
    10030    2    1    2    0    0  0.00000000000E+00  0.00000000000E+00 -0.12544599328E+03  0.13035451323E+04  0.12974949768E+04 0.  0.
        5    1    3    3  502    0 -0.36808729216E+03 -0.40059439441E+03 -0.41776453003E+03  0.68593980497E+03  0.46999998093E+01 0. -1.
       -5    1    3    3    0  502  0.36808729216E+03  0.40059439441E+03  0.29231853675E+03  0.61760532738E+03  0.46999998093E+01 0.  1.
</event>
<event>
 5   0  0.1714861E-03  0.1311242E+04  0.7818609E-02  0.9020698E-01
        2   -1    0    0  501    0  0.00000000000E+00  0.00000000000E+00  0.89740949941E+03  0.89740949942E+03  0.25500000920E-02 0.  1.
       -2   -1    0    0    0  501  0.00000000000E+00  0.00000000000E+00 -0.47897709838E+03  0.47897709838E+03  0.25500000920E-02 0. -1.
    10030    2    1    2    0    0  0.00000000000E+00  0.00000000000E+00  0.41843240104E+03  0.13763865978E+04  0.13112415462E+04 0.  0.
        1    1    3    3  502    0 -0.12982022713E+02 -0.63266617707E+03  0.29222298674E+02  0.63347373055E+03  0.50400001928E-02 0. -1.
       -1    1    3    3    0  502  0.12982022713E+02  0.63266617707E+03  0.38921010236E+03  0.74291286725E+03  0.50400001928E-02 0.  1.
</event>
<event>
 5   0  0.9027076E-04  0.1301908E+04  0.7818609E-02  0.9028053E-01
        1   -1    0    0  501    0  0.00000000000E+00  0.00000000000E+00  0.15571551397E+04  0.15571551397E+04  0.50400001928E-02 0.  1.
       -1   -1    0    0    0  501  0.00000000000E+00  0.00000000000E+00 -0.27212530152E+03  0.27212530157E+03  0.50400001928E-02 0. -1.
    10030    2    1    2    0    0  0.00000000000E+00  0.00000000000E+00  0.12850298382E+04  0.18292804413E+04  0.13019083101E+04 0.  0.
        5    1    3    3  502    0  0.55973322803E+02  0.62431320381E+03  0.88918177735E+03  0.10879183391E+04  0.46999998093E+01 0.  1.
       -5    1    3    3    0  502 -0.55973322803E+02 -0.62431320381E+03  0.39584806080E+03  0.74136210218E+03  0.46999998093E+01 0. -1.
</event>
<event>
 5   0  0.9110949E-04  0.1291572E+04  0.7818609E-02  0.9036275E-01
       -1   -1    0    0    0  501  0.00000000000E+00  0.00000000000E+00  0.43775662459E+03  0.43775662461E+03  0.50400001928E-02 0. -1.
        1   -1    0    0  501    0  0.00000000000E+00  0.00000000000E+00 -0.95267476916E+03  0.95267476917E+03  0.50400001928E-02 0.  1.
    10030    2    1    2    0    0  0.00000000000E+00  0.00000000000E+00 -0.51491814457E+03  0.13904313938E+04  0.12915722067E+04 0.  0.
        2    1    3    3  502    0  0.62187689873E+03 -0.17128905751E+03 -0.29096828908E+03  0.70762515759E+03  0.25500000920E-02 0.  1.
       -2    1    3    3    0  502 -0.62187689873E+03  0.17128905751E+03 -0.22394985549E+03  0.68280623619E+03  0.25500000920E-02 0. -1.
</event>
<event>
 5   0  0.9098192E-04  0.1304692E+04  0.7818609E-02  0.9025853E-01
       -1   -1    0    0    0  501  0.00000000000E+00  0.00000000000E+00  0.65646293868E+03  0.65646293870E+03  0.50400001928E-02 0.  1.
        1   -1    0    0  501    0  0.00000000000E+00  0.00000000000E+00 -0.64825451728E+03  0.64825451730E+03  0.50400001928E-02 0. -1.
    10030    2    1    2    0    0  0.00000000000E+00  0.00000000000E+00  0.82084213919E+01  0.13047174560E+04  0.13046916348E+04 0.  0.
        1    1    3    3  502    0  0.27318560053E+03  0.47637122676E+02 -0.58637796371E+03  0.64864380375E+03  0.50400001928E-02 0. -1.
       -1    1    3    3    0  502 -0.27318560053E+03 -0.47637122676E+02  0.59458638511E+03  0.65607365225E+03  0.50400001928E-02 0.  1.
</event>
<event>
 5   0  0.1667342E-03  0.1278097E+04  0.7818609E-02  0.9047117E-01
        2   -1    0    0  501    0  0.00000000000E+00  0.00000000000E+00  0.10321528135E+04  0.10321528135E+04  0.25500000920E-02 0. -1.
       -2   -1    0    0    0  501  0.00000000000E+00  0.00000000000E+00 -0.39566105013E+03  0.39566105014E+03  0.25500000920E-02 0.  1.
    10030    2    1    2    0    0  0.00000000000E+00  0.00000000000E+00  0.63649176336E+03  0.14278138636E+04  0.12780965004E+04 0.  0.
        5    1    3    3  502    0  0.42132449674E+02 -0.34456910299E+03  0.91761832677E+03  0.98109555787E+03  0.46999998093E+01 0. -1.
       -5    1    3    3    0  502 -0.42132449674E+02  0.34456910299E+03 -0.28112656340E+03  0.44671830576E+03  0.46999998093E+01 0.  1.
</event>
<event>
 5   0  0.1667342E-03  0.1385397E+04  0.7818609E-02  0.8964457E-01
        2   -1    0    0  501    0  0.00000000000E+00  0.00000000000E+00  0.71627196692E+03  0.71627196692E+03  0.25500000920E-02 0. -1.
       -2   -1    0    0    0  501  0.00000000000E+00  0.00000000000E+00 -0.66990092061E+03  0.66990092062E+03  0.25500000920E-02 0.  1.
    10030    2    1    2    0    0  0.00000000000E+00  0.00000000000E+00  0.46371046305E+02  0.13861728875E+04  0.13853970551E+04 0.  0.
        5    1    3    3  502    0  0.28040607673E+03  0.15867960572E+03  0.63671923941E+03  0.71361072369E+03  0.46999998093E+01 0. -1.
       -5    1    3    3    0  502 -0.28040607673E+03 -0.15867960572E+03 -0.59034819310E+03  0.67256216385E+03  0.46999998093E+01 0.  1.
</event>
<event>
 5   0  0.1694675E-03  0.1298880E+04  0.7818609E-02  0.9030453E-01
        2   -1    0    0  501    0  0.00000000000E+00  0.00000000000E+00  0.21568906423E+04  0.21568906423E+04  0.25500000920E-02 0.  1.
       -2   -1    0    0    0  501  0.00000000000E+00  0.00000000000E+00 -0.19554660058E+03  0.19554660060E+03  0.25500000920E-02 0. -1.
    10030    2    1    2    0    0  0.00000000000E+00  0.00000000000E+00  0.19613440418E+04  0.23524372429E+04  0.12988804917E+04 0.  0.
        4    1    3    3  502    0 -0.63647659257E+03  0.11501931473E+03  0.10868838273E+04  0.12647726921E+04  0.12699999809E+01 0.  1.
       -4    1    3    3    0  502  0.63647659257E+03 -0.11501931473E+03  0.87446021441E+03  0.10876645508E+04  0.12699999809E+01 0. -1.
</event>
<event>
 5   0  0.9027076E-04  0.1328828E+04  0.7818609E-02  0.9007012E-01
       -1   -1    0    0    0  501  0.00000000000E+00  0.00000000000E+00  0.40282429381E+03  0.40282429384E+03  0.50400001928E-02 0. -1.
        1   -1    0    0  501    0  0.00000000000E+00  0.00000000000E+00 -0.10958772602E+04  0.10958772602E+04  0.50400001928E-02 0.  1.
    10030    2    1    2    0    0  0.00000000000E+00  0.00000000000E+00 -0.69305296638E+03  0.14987015540E+04  0.13288280302E+04 0.  0.
        5    1    3    3  502    0 -0.50912146615E+03  0.24661142173E+03  0.46443480395E+02  0.56762747246E+03  0.46999998093E+01 0. -1.
       -5    1    3    3    0  502  0.50912146615E+03 -0.24661142173E+03 -0.73949644677E+03  0.93107408159E+03  0.46999998093E+01 0.  1.
</event>
<event>
 5   0  0.1700511E-03  0.1291308E+04  0.7818609E-02  0.9036487E-01
       -2   -1    0    0    0  501  0.00000000000E+00  0.00000000000E+00  0.69200678448E+03  0.69200678448E+03  0.25500000920E-02 0.  1.
        2   -1    0    0  501    0  0.00000000000E+00  0.00000000000E+00 -0.60240598601E+03  0.60240598602E+03  0.25500000920E-02 0. -1.
    10030    2    1    2    0    0  0.00000000000E+00  0.00000000000E+00  0.89600798469E+02  0.12944127705E+04  0.12913079096E+04 0.  0.
        2    1    3    3  502    0 -0.61122474857E+03 -0.20728996244E+03  0.27316915901E+02  0.64599615765E+03  0.25500000920E-02 0.  1.
       -2    1    3    3    0  502  0.61122474857E+03  0.20728996244E+03  0.62283882568E+02  0.64841661285E+03  0.25500000920E-02 0. -1.
</event>
<event>
 5   0  0.9110949E-04  0.1298894E+04  0.7818609E-02  0.9030443E-01
       -1   -1    0    0    0  501  0.00000000000E+00  0.00000000000E+00  0.30988323046E+03  0.30988323050E+03  0.50400001928E-02 0.  1.
        1   -1    0    0  501    0  0.00000000000E+00  0.00000000000E+00 -0.13610978848E+04  0.13610978848E+04  0.50400001928E-02 0. -1.
    10030    2    1    2    0    0  0.00000000000E+00  0.00000000000E+00 -0.10512146543E+04  0.16709811153E+04  0.12988940058E+04 0.  0.
        2    1    3    3  502    0  0.16194229547E+03 -0.14689822772E+03 -0.13123274948E+04  0.13304164198E+04  0.25500000920E-02 0. -1.
       -2    1    3    3    0  502 -0.16194229547E+03  0.14689822772E+03  0.26111284048E+03  0.34056469553E+03  0.25500000920E-02 0.  1.
</event>
<event>
 5   0  0.1700511E-03  0.1294377E+04  0.7818609E-02  0.9034036E-01
       -2   -1    0    0    0  501  0.00000000000E+00  0.00000000000E+00  0.91826262065E+03  0.91826262066E+03  0.25500000920E-02 0. -1.
        2   -1    0    0  501    0  0.00000000000E+00  0.00000000000E+00 -0.45613632218E+03  0.45613632219E+03  0.25500000920E-02 0.  1.
    10030    2    1    2    0    0  0.00000000000E+00  0.00000000000E+00  0.46212629848E+03  0.13743989428E+04  0.12943769692E+04 0.  0.
        2    1    3    3  502    0 -0.20125115249E+03  0.23181052184E+03 -0.37391012196E+03  0.48378396390E+03  0.25500000920E-02 0.  1.
       -2    1    3    3    0  502  0.20125115249E+03 -0.23181052184E+03  0.83603642044E+03  0.89061497894E+03  0.25500000920E-02 0. -1.
</event>
<event>
 5   0  0.9027076E-04  0.1278007E+04  0.7818609E-02  0.9047190E-01
        1   -1    0    0  501    0  0.00000000000E+00  0.00000000000E+00  0.11019726143E+04  0.11019726143E+04  0.50400001928E-02 0.  1.
       -1   -1    0    0    0  501  0.00000000000E+00  0.00000000000E+00 -0.37054035142E+03  0.37054035145E+03  0.50400001928E-02 0. -1.
    10030    2    1    2    0    0  0.00000000000E+00  0.00000000000E+00  0.73143226288E+03  0.14725129658E+04  0.12780067602E+04 0.  0.
        5    1    3    3  502    0 -0.23087727401E+03 -0.53281604583E+03  0.58475233502E+02  0.58364261091E+03  0.46999998093E+01 0.  1.
       -5    1    3    3    0  502  0.23087727401E+03  0.53281604583E+03  0.67295702938E+03  0.88887035485E+03  0.46999998093E+01 0. -1.
</event>
<event>
 5   0  0.1694675E-03  0.1330517E+04  0.7818609E-02  0.9005709E-01
        2   -1    0    0  501    0  0.00000000000E+00  0.00000000000E+00  0.10042002997E+04  0.10042002997E+04  0.25500000920E-02 0.  1.
       -2   -1    0    0    0  501  0.00000000000E+00  0.00000000000E+00 -0.44071761555E+03  0.44071761555E+03  0.25500000920E-02 0. -1.
    10030    2    1    2    0    0  0.00000000000E+00  0.00000000000E+00  0.56348268419E+03  0.14449179153E+04  0.13305168344E+04 0.  0.
        4    1    3    3  502    0 -0.20870322676E+03  0.32287671783E+03 -0.30785885340E+03  0.49252928674E+03  0.12699999809E+01 0. -1.
       -4    1    3    3    0  502  0.20870322676E+03 -0.32287671783E+03  0.87134153759E+03  0.95238862856E+03  0.12699999809E+01 0.  1.
</event>
<event>
 5   0  0.9098192E-04  0.1316727E+04  0.7818609E-02  0.9016405E-01
        1   -1    0    0  501    0  0.00000000000E+00  0.00000000000E+00  0.10222845369E+04  0.10222845369E+04  0.50400001928E-02 0. -1.
       -1   -1    0    0    0  501  0.00000000000E+00  0.00000000000E+00 -0.42399379912E+03  0.42399379915E+03  0.50400001928E-02 0.  1.
    10030    2    1    2    0    0  0.00000000000E+00  0.00000000000E+00  0.59829073779E+03  0.14462783361E+04  0.13167267061E+04 0.  0.
        1    1    3    3  502    0  0.55445749666E+03  0.34696512703E+03  0.21669745444E+03  0.68903243883E+03  0.50400001928E-02 0. -1.
       -1    1    3    3    0  502 -0.55445749666E+03 -0.34696512703E+03  0.38159328335E+03  0.75724589725E+03  0.50400001928E-02 0.  1.
</event>
<event>
 5   0  0.9027076E-04  0.1290856E+04  0.7818609E-02  0.9036848E-01
        1   -1    0    0  501    0  0.00000000000E+00  0.00000000000E+00  0.10402811808E+04  0.10402811808E+04  0.50400001928E-02 0. -1.
       -1   -1    0    0    0  501  0.00000000000E+00  0.00000000000E+00 -0.40044694902E+03  0.40044694905E+03  0.50400001928E-02 0.  1.
    10030    2    1    2    0    0  0.00000000000E+00  0.00000000000E+00  0.63983423178E+03  0.14407281299E+04  0.12908561887E+04 0.  0.
        5    1    3    3  502    0  0.25437638233E+03  0.54370588785E+03  0.55252703743E+02  0.60282533759E+03  0.46999998093E+01 0.  1.
       -5    1    3    3    0  502 -0.25437638233E+03 -0.54370588785E+03  0.58458152804E+03  0.83790279227E+03  0.46999998093E+01 0. -1.
</event>
<event>
 5   0  0.9098192E-04  0.1299447E+04  0.7818609E-02  0.9030004E-01
       -1   -1    0    0    0  501  0.00000000000E+00  0.00000000000E+00  0.49457358659E+03  0.49457358661E+03  0.50400001928E-02 0. -1.
        1   -1    0    0  501    0  0.00000000000E+00  0.00000000000E+00 -0.85354414223E+03  0.85354414224E+03  0.50400001928E-02 0.  1.
    10030    2    1    2    0    0  0.00000000000E+00  0.00000000000E+00 -0.35897055564E+03  0.13481177289E+04  0.12994466326E+04 0.  0.
        1    1    3    3  502    0 -0.44878461857E+03  0.26348777277E+03 -0.58303663005E+03  0.78151465263E+03  0.50400001928E-02 0.  1.
       -1    1    3    3    0  502  0.44878461857E+03 -0.26348777277E+03  0.22406607441E+03  0.56660307623E+03  0.50400001928E-02 0. -1.
</event>
<event>
 5   0  0.1700511E-03  0.1291094E+04  0.7818609E-02  0.9036658E-01
       -2   -1    0    0    0  501  0.00000000000E+00  0.00000000000E+00  0.37328185260E+03  0.37328185261E+03  0.25500000920E-02 0.  1.
        2   -1    0    0  501    0  0.00000000000E+00  0.00000000000E+00 -0.11163966437E+04  0.11163966437E+04  0.25500000920E-02 0. -1.
    10030    2    1    2    0    0  0.00000000000E+00  0.00000000000E+00 -0.74311479112E+03  0.14896784963E+04  0.12910935015E+04 0.  0.
        2    1    3    3  502    0 -0.70984750745E+02  0.47968029308E+03  0.12013227920E+03  0.49956359247E+03  0.25500000920E-02 0.  1.
       -2    1    3    3    0  502  0.70984750745E+02 -0.47968029308E+03 -0.86324707032E+03  0.99011490385E+03  0.25500000920E-02 0. -1.
</event>
<event>
 5   0  0.1623890E-03  0.1286519E+04  0.7818609E-02  0.9040325E-01
        2   -1    0    0  501    0  0.00000000000E+00  0.00000000000E+00  0.20890860551E+04  0.20890860551E+04  0.25500000920E-02 0.  1.
       -2   -1    0    0    0  501  0.00000000000E+00  0.00000000000E+00 -0.19806878672E+03  0.19806878674E+03  0.25500000920E-02 0. -1.
    10030    2    1    2    0    0  0.00000000000E+00  0.00000000000E+00  0.18910172683E+04  0.22871548418E+04  0.12865189315E+04 0.  0.
        3    1    3    3  502    0 -0.18668544336E+03  0.20497958017E+03 -0.86395452025E+02  0.29040018489E+03  0.10100000352E+00 0. -1.
       -3    1    3    3    0  502  0.18668544336E+03 -0.20497958017E+03  0.19774127204E+04  0.19967546569E+04  0.10100000352E+00 0.  1.
</event>
<event>
 5   0  0.9027076E-04  0.1298328E+04  0.7818609E-02  0.9030892E-01
        1   -1    0    0  501    0  0.00000000000E+00  0.00000000000E+00  0.96451941710E+03  0.96451941712E+03  0.50400001928E-02 0.  1.
       -1   -1    0    0    0  501  0.00000000000E+00  0.00000000000E+00 -0.43691581626E+03  0.43691581629E+03  0.50400001928E-02 0. -1.
    10030    2    1    2    0    0  0.00000000000E+00  0.00000000000E+00  0.52760360084E+03  0.14014352334E+04  0.12983278299E+04 0.  0.
        5    1    3    3  502    0 -0.47578203738E+03 -0.22836021209E+03 -0.14420408699E+03  0.54711410351E+03  0.46999998093E+01 0. -1.
       -5    1    3    3    0  502  0.47578203738E+03  0.22836021209E+03  0.67180768783E+03  0.85432112990E+03  0.46999998093E+01 0.  1.
</event>
<event>
 5   0  0.1667342E-03  0.1282132E+04  0.7818609E-02  0.9043856E-01
       -2   -1    0    0    0  501  0.00000000000E+00  0.00000000000E+00  0.28086346792E+03  0.28086346793E+03  0.25500000920E-02 0. -1.
        2   -1    0    0  501    0  0.00000000000E+00  0.00000000000E+00 -0.14632217720E+04  0.14632217720E+04  0.25500000920E-02 0.  1.
    10030    2    1    2    0    0  0.00000000000E+00  0.00000000000E+00 -0.11823583041E+04  0.17440852399E+04  0.12821318828E+04 0.  0.
        5    1    3    3  502    0  0.37476181109E+03 -0.26223496547E+03  0.19791148165E+02  0.45785081818E+03  0.46999998093E+01 0. -1.
       -5    1    3    3    0  502 -0.37476181109E+03  0.26223496547E+03 -0.12021494523E+04  0.12862344218E+04  0.46999998093E+01 0.  1.
</event>
<event>
 5   0  0.1667342E-03  0.1297046E+04  0.7818609E-02  0.9031911E-01
        2   -1    0    0  501    0  0.00000000000E+00  0.00000000000E+00  0.57654837975E+03  0.57654837976E+03  0.25500000920E-02 0.  1.
       -2   -1    0    0    0  501  0.00000000000E+00  0.00000000000E+00 -0.72948297938E+03  0.72948297939E+03  0.25500000920E-02 0. -1.
    10030    2    1    2    0    0  0.00000000000E+00  0.00000000000E+00 -0.15293459963E+03  0.13060313591E+04  0.12970462287E+04 0.  0.
        5    1    3    3  502    0 -0.16280620789E+03 -0.62748367177E+03 -0.58496532588E+02  0.65091132575E+03  0.46999998093E+01 0.  1.
       -5    1    3    3    0  502  0.16280620789E+03  0.62748367177E+03 -0.94438067041E+02  0.65512003340E+03  0.46999998093E+01 0. -1.
</event>
<event>
 5   0  0.1667342E-03  0.1301773E+04  0.7818609E-02  0.9028160E-01
       -2   -1    0    0    0  501  0.00000000000E+00  0.00000000000E+00  0.26466780116E+03  0.26466780118E+03  0.25500000920E-02 0.  1.
        2   -1    0    0  501    0  0.00000000000E+00  0.00000000000E+00 -0.16006978047E+04  0.16006978047E+04  0.25500000920E-02 0. -1.
    10030    2    1    2    0    0  0.00000000000E+00  0.00000000000E+00 -0.13360300036E+04  0.18653656059E+04  0.13017728962E+04 0.  0.
        5    1    3    3  502    0 -0.61934433244E+03  0.37313672757E+02 -0.94973077487E+03  0.11344559696E+04  0.46999998093E+01 0.  1.
       -5    1    3    3    0  502  0.61934433244E+03 -0.37313672757E+02 -0.38629922869E+03  0.73090963627E+03  0.46999998093E+01 0. -1.
</event>
<event>
 5   0  0.9098192E-04  0.1306320E+04  0.7818609E-02  0.9024568E-01
        1   -1    0    0  501    0  0.00000000000E+00  0.00000000000E+00  0.67639502761E+03  0.67639502763E+03  0.50400001928E-02 0.  1.
       -1   -1    0    0    0  501  0.00000000000E+00  0.00000000000E+00 -0.63072304109E+03  0.63072304111E+03  0.50400001928E-02 0. -1.
    10030    2    1    2    0    0  0.00000000000E+00  0.00000000000E+00  0.45671986520E+02  0.13071180687E+04  0.13063199131E+04 0.  0.
        1    1    3    3  502    0  0.39044121400E+03 -0.41019716201E+03 -0.30280389740E+03  0.64218085741E+03  0.50400001928E-02 0. -1.
       -1    1    3    3    0  502 -0.39044121400E+03  0.41019716201E+03  0.34847588392E+03  0.66493721133E+03  0.50400001928E-02 0.  1.
</event>
<event>
 5   0  0.1694675E-03  0.1298469E+04  0.7818609E-02  0.9030780E-01
       -2   -1    0    0    0  501  0.00000000000E+00  0.00000000000E+00  0.26734173342E+03  0.26734173343E+03  0.25500000920E-02 0.  1.
        2   -1    0    0  501    0  0.00000000000E+00  0.00000000000E+00 -0.15766534726E+04  0.15766534726E+04  0.25500000920E-02 0. -1.
    10030    2    1    2    0    0  0.00000000000E+00  0.00000000000E+00 -0.13093117392E+04  0.18439952060E+04  0.12984687480E+04 0.  0.
        4    1    3    3  502    0 -0.56393264473E+03  0.31639165448E+03 -0.57209322516E+03  0.86337476104E+03  0.12699999809E+01 0.  1.
       -4    1    3    3    0  502  0.56393264473E+03 -0.31639165448E+03 -0.73721851402E+03  0.98062044500E+03  0.12699999809E+01 0. -1.
</event>
<event>
 5   0  0.9098192E-04  0.1290450E+04  0.7818609E-02  0.9037173E-01
        1   -1    0    0  501    0  0.00000000000E+00  0.00000000000E+00  0.14603612921E+04  0.14603612921E+04  0.50400001928E-02 0.  1.
       -1   -1    0    0    0  501  0.00000000000E+00  0.00000000000E+00 -0.28507678825E+03  0.28507678829E+03  0.50400001928E-02 0. -1.
    10030    2    1    2    0    0  0.00000000000E+00  0.00000000000E+00  0.11752845039E+04  0.17454380804E+04  0.12904496997E+04 0.  0.
        1    1    3    3  502    0  0.46469372925E+03  0.23491574216E+03  0.72258314193E+02  0.52568710458E+03  0.50400001928E-02 0. -1.
       -1    1    3    3    0  502 -0.46469372925E+03 -0.23491574216E+03  0.11030261897E+04  0.12197509759E+04  0.50400001928E-02 0.  1.
</event>
<event>
 5   0  0.9098192E-04  0.1326710E+04  0.7818609E-02  0.9008648E-01
       -1   -1    0    0    0  501  0.00000000000E+00  0.00000000000E+00  0.37689051424E+03  0.37689051427E+03  0.50400001928E-02 0. -1.
        1   -1    0    0  501    0  0.00000000000E+00  0.00000000000E+00 -0.11675529447E+04  0.11675529447E+04  0.50400001928E-02 0.  1.
    10030    2    1    2    0    0  0.00000000000E+00  0.00000000000E+00 -0.79066243045E+03  0.15444434590E+04  0.13267096589E+04 0.  0.
        1    1    3    3  502    0 -0.58825494253E+03 -0.10602367256E+03 -0.73021378538E+03  0.94366152244E+03  0.50400001928E-02 0.  1.
       -1    1    3    3    0  502  0.58825494253E+03  0.10602367256E+03 -0.60448645072E+02  0.60078193653E+03  0.50400001928E-02 0. -1.
</event>
<event>
 5   0  0.9110949E-04  0.1296375E+04  0.7818609E-02  0.9032445E-01
       -1   -1    0    0    0  501  0.00000000000E+00  0.00000000000E+00  0.39664023759E+03  0.39664023763E+03  0.50400001928E-02 0.  1.
        1   -1    0    0  501    0  0.00000000000E+00  0.00000000000E+00 -0.10592641961E+04  0.10592641961E+04  0.50400001928E-02 0. -1.
    10030    2    1    2    0    0  0.00000000000E+00  0.00000000000E+00 -0.66262395847E+03  0.14559044337E+04  0.12963746410E+04 0.  0.
        2    1    3    3  502    0  0.30644750775E+03 -0.42105787669E+03  0.10211726439E+03  0.53068610894E+03  0.25500000920E-02 0.  1.
       -2    1    3    3    0  502 -0.30644750775E+03  0.42105787669E+03 -0.76474122286E+03  0.92521832476E+03  0.25500000920E-02 0. -1.
</event>
<event>
 5   0  0.1694675E-03  0.1298568E+04  0.7818609E-02  0.9030701E-01
       -2   -1    0    0    0  501  0.00000000000E+00  0.00000000000E+00  0.21985232203E+03  0.21985232205E+03  0.25500000920E-02 0. -1.
        2   -1    0    0  501    0  0.00000000000E+00  0.00000000000E+00 -0.19175144579E+04  0.19175144579E+04  0.25500000920E-02 0.  1.
    10030    2    1    2    0    0  0.00000000000E+00  0.00000000000E+00 -0.16976621359E+04  0.21373667800E+04  0.12985684520E+04 0.  0.
        4    1    3    3  502    0 -0.35200539643E+03 -0.38109548248E+03 -0.14914372695E+04  0.15790909751E+04  0.12699999809E+01 0.  1.
       -4    1    3    3    0  502  0.35200539643E+03  0.38109548248E+03 -0.20622486638E+03  0.55827580486E+03  0.12699999809E+01 0. -1.
</event>
<event>
 5   0  0.9081324E-04  0.1296284E+04  0.7818609E-02  0.9032518E-01
        1   -1    0    0  501    0  0.00000000000E+00  0.00000000000E+00  0.67573953526E+03  0.67573953528E+03  0.50400001928E-02 0. -1.
       -1   -1    0    0    0  501  0.00000000000E+00  0.00000000000E+00 -0.62167111888E+03  0.62167111891E+03  0.50400001928E-02 0.  1.
    10030    2    1    2    0    0  0.00000000000E+00  0.00000000000E+00  0.54068416375E+02  0.12974106542E+04  0.12962835384E+04 0.  0.
        4    1    3    3  502    0  0.27811438556E+03  0.40102138055E+03  0.45392632252E+03  0.66649567012E+03  0.12699999809E+01 0. -1.
       -4    1    3    3    0  502 -0.27811438556E+03 -0.40102138055E+03 -0.39985790615E+03  0.63091498406E+03  0.12699999809E+01 0.  1.
</event>
<event>
 5   0  0.9215829E-04  0.1293164E+04  0.7818609E-02  0.9035004E-01
       -1   -1    0    0    0  501  0.00000000000E+00  0.00000000000E+00  0.76048466149E+03  0.76048466150E+03  0.50400001928E-02 0.  1.
        1   -1    0    0  501    0  0.00000000000E+00  0.00000000000E+00 -0.54973951540E+03  0.54973951542E+03  0.50400001928E-02 0. -1.
    10030    2    1    2    0    0  0.00000000000E+00  0.00000000000E+00  0.21074514608E+03  0.13102241769E+04  0.12931642886E+04 0.  0.
        3    1    3    3  502    0 -0.52947876037E+03 -0.21095007526E+03  0.41472123545E+03  0.70486977894E+03  0.10100000352E+00 0.  1.
       -3    1    3    3    0  502  0.52947876037E+03  0.21095007526E+03 -0.20397608936E+03  0.60535439799E+03  0.10100000352E+00 0. -1.
</event>
<event>
 5   0  0.1714861E-03  0.1297106E+04  0.7818609E-02  0.9031863E-01
       -2   -1    0    0    0  501  0.00000000000E+00  0.00000000000E+00  0.32284283615E+03  0.32284283616E+03  0.25500000920E-02 0.  1.
        2   -1    0    0  501    0  0.00000000000E+00  0.00000000000E+00 -0.13028669902E+04  0.13028669902E+04  0.25500000920E-02 0. -1.
    10030    2    1    2    0    0  0.00000000000E+00  0.00000000000E+00 -0.98002415408E+03  0.16257098264E+04  0.12971064324E+04 0.  0.
        1    1    3    3  502    0  0.32285152324E+03 -0.51556318397E+03 -0.20812917862E+03  0.64292787911E+03  0.50400001928E-02 0.  1.
       -1    1    3    3    0  502 -0.32285152324E+03  0.51556318397E+03 -0.77189497546E+03  0.98278194728E+03  0.50400001928E-02 0. -1.
</event>
<event>
 5   0  0.1667342E-03  0.1325193E+04  0.7818609E-02  0.9009822E-01
        2   -1    0    0  501    0  0.00000000000E+00  0.00000000000E+00  0.11021768581E+04  0.11021768581E+04  0.25500000920E-02 0.  1.
       -2   -1    0    0    0  501  0.00000000000E+00  0.00000000000E+00 -0.39833366950E+03  0.39833366951E+03  0.25500000920E-02 0. -1.
    10030    2    1    2    0    0  0.00000000000E+00  0.00000000000E+00  0.70384318856E+03  0.15005105276E+04  0.13251930460E+04 0.  0.
        5    1    3    3  502    0 -0.62950110033E+03  0.20673632848E+03  0.35110705973E+03  0.74987319076E+03  0.46999998093E+01 0. -1.
       -5    1    3    3    0  502  0.62950110033E+03 -0.20673632848E+03  0.35273612883E+03  0.75063733681E+03  0.46999998093E+01 0.  1.
</event>
<event>
 5   0  0.9081324E-04  0.1296771E+04  0.7818609E-02  0.9032130E-01
        1   -1    0    0  501    0  0.00000000000E+00  0.00000000000E+00  0.80719820081E+03  0.80719820082E+03  0.50400001928E-02 0. -1.
       -1   -1    0    0    0  501  0.00000000000E+00  0.00000000000E+00 -0.52081822191E+03  0.52081822193E+03  0.50400001928E-02 0.  1.
    10030    2    1    2    0    0  0.00000000000E+00  0.00000000000E+00  0.28637997890E+03  0.13280164228E+04  0.12967706531E+04 0.  0.
        4    1    3    3  502    0  0.76560773261E+02  0.58403864347E+03  0.42071640642E+03  0.72385536995E+03  0.12699999809E+01 0.  1.
       -4    1    3    3    0  502 -0.76560773261E+02 -0.58403864347E+03 -0.13433642752E+03  0.60416105281E+03  0.12699999809E+01 0. -1.
</event>
<event>
 5   0  0.1694675E-03  0.1304689E+04  0.7818609E-02  0.9025855E-01
        2   -1    0    0  501    0  0.00000000000E+00  0.00000000000E+00  0.11257233787E+04  0.11257233787E+04  0.25500000920E-02 0.  1.
       -2   -1    0    0    0  501  0.00000000000E+00  0.00000000000E+00 -0.37802636462E+03  0.37802636463E+03  0.25500000920E-02 0. -1.
    10030    2    1    2    0    0  0.00000000000E+00  0.00000000000E+00  0.74769701412E+03  0.15037497434E+04  0.13046886471E+04 0.  0.
        4    1    3    3  502    0  0.30645445291E+03 -0.18162945187E+03  0.10037148840E+04  0.10650581067E+04  0.12699999809E+01 0.  1.
       -4    1    3    3    0  502 -0.30645445291E+03  0.18162945187E+03 -0.25601786984E+03  0.43869163666E+03  0.12699999809E+01 0. -1.
</event>
<event>
 5   0  0.1700511E-03  0.1141253E+04  0.7818609E-02  0.9165891E-01
        2   -1    0    0  501    0  0.00000000000E+00  0.00000000000E+00  0.19127765033E+04  0.19127765033E+04  0.25500000920E-02 0. -1.
       -2   -1    0    0    0  501  0.00000000000E+00  0.00000000000E+00 -0.17023127517E+03  0.17023127518E+03  0.25500000920E-02 0.  1.
    10030    2    1    2    0    0  0.00000000000E+00  0.00000000000E+00  0.17425452281E+04  0.20830077785E+04  0.11412526158E+04 0.  0.
        2    1    3    3  502    0 -0.46413692194E+03 -0.33194665060E+03  0.86826125182E+03  0.10389847268E+04  0.25500000920E-02 0.  1.
       -2    1    3    3    0  502  0.46413692194E+03  0.33194665060E+03  0.87428397632E+03  0.10440230517E+04  0.25500000920E-02 0. -1.
</event>
<event>
 5   0  0.9098192E-04  0.1299008E+04  0.7818609E-02  0.9030352E-01
       -1   -1    0    0    0  501  0.00000000000E+00  0.00000000000E+00  0.29431457884E+03  0.29431457888E+03  0.50400001928E-02 0.  1.
        1   -1    0    0  501    0  0.00000000000E+00  0.00000000000E+00 -0.14333494722E+04  0.14333494722E+04  0.50400001928E-02 0. -1.
    10030    2    1    2    0    0  0.00000000000E+00  0.00000000000E+00 -0.11390348933E+04  0.17276640511E+04  0.12990083083E+04 0.  0.
        1    1    3    3  502    0  0.29432013891E+03  0.34891920456E+03  0.44997952703E+02  0.45868700793E+03  0.50400001928E-02 0.  1.
       -1    1    3    3    0  502 -0.29432013891E+03 -0.34891920456E+03 -0.11840328460E+04  0.12689770431E+04  0.50400001928E-02 0. -1.
</event>
<event>
 5   0  0.1700511E-03  0.1306158E+04  0.7818609E-02  0.9024696E-01
        2   -1    0    0  501    0  0.00000000000E+00  0.00000000000E+00  0.10428313435E+04  0.10428313435E+04  0.25500000920E-02 0. -1.
       -2   -1    0    0    0  501  0.00000000000E+00  0.00000000000E+00 -0.40899455664E+03  0.40899455665E+03  0.25500000920E-02 0.  1.
    10030    2    1    2    0    0  0.00000000000E+00  0.00000000000E+00  0.63383678684E+03  0.14518259001E+04  0.13061582492E+04 0.  0.
        2    1    3    3  502    0  0.31689780711E+03  0.53052904924E+03  0.55172906764E+03  0.82842637351E+03  0.25500000920E-02 0. -1.
       -2    1    3    3    0  502 -0.31689780711E+03 -0.53052904924E+03  0.82107719194E+02  0.62339952662E+03  0.25500000920E-02 0.  1.
</event>
<event>
 5   0  0.9110949E-04  0.1301383E+04  0.7818609E-02  0.9028469E-01
       -1   -1    0    0    0  501  0.00000000000E+00  0.00000000000E+00  0.91190428461E+03  0.91190428462E+03  0.50400001928E-02 0. -1.
        1   -1    0    0  501    0  0.00000000000E+00  0.00000000000E+00 -0.46430273074E+03  0.46430273077E+03  0.50400001928E-02 0.  1.
    10030    2    1    2    0    0  0.00000000000E+00  0.00000000000E+00  0.44760155387E+03  0.13762070154E+04  0.13013833402E+04 0.  0.
        2    1    3    3  502    0 -0.45045637689E+03 -0.12051888064E+03  0.70372655709E+03  0.84419595784E+03  0.25500000920E-02 0. -1.
       -2    1    3    3    0  502  0.45045637689E+03  0.12051888064E+03 -0.25612500322E+03  0.53201105755E+03  0.25500000920E-02 0.  1.
</event>
<event>
 5   0  0.9081324E-04  0.1279469E+04  0.7818609E-02  0.9046007E-01
        1   -1    0    0  501    0  0.00000000000E+00  0.00000000000E+00  0.16731242125E+04  0.16731242125E+04  0.50400001928E-02 0. -1.
       -1   -1    0    0    0  501  0.00000000000E+00  0.00000000000E+00 -0.24460836070E+03  0.24460836075E+03  0.50400001928E-02 0.  1.
    10030    2    1    2    0    0  0.00000000000E+00  0.00000000000E+00  0.14285158518E+04  0.19177325733E+04  0.12794689069E+04 0.  0.
        4    1    3    3  502    0 -0.23923931710E+03  0.14303048641E+03  0.15773217282E+04  0.16017610989E+04  0.12699999809E+01 0. -1.
       -4    1    3    3    0  502  0.23923931710E+03 -0.14303048641E+03 -0.14880587635E+03  0.31597147438E+03  0.12699999809E+01 0.  1.
</event>
<event>
 5   0  0.1714861E-03  0.1269551E+04  0.7818609E-02  0.9054066E-01
       -2   -1    0    0    0  501  0.00000000000E+00  0.00000000000E+00  0.17566945546E+03  0.17566945548E+03  0.25500000920E-02 0.  1.
        2   -1    0    0  501    0  0.00000000000E+00  0.00000000000E+00 -0.22937404050E+04  0.22937404050E+04  0.25500000920E-02 0. -1.
    10030    2    1    2    0    0  0.00000000000E+00  0.00000000000E+00 -0.21180709496E+04  0.24694098605E+04  0.12695513033E+04 0.  0.
        1    1    3    3  502    0  0.20994733665E+03  0.14223695644E+03  0.72859702748E+02  0.26385179979E+03  0.50400001928E-02 0.  1.
       -1    1    3    3    0  502 -0.20994733665E+03 -0.14223695644E+03 -0.21909306523E+04  0.22055580607E+04  0.50400001928E-02 0. -1.
</event>
<event>
 5   0  0.1700511E-03  0.1296392E+04  0.7818609E-02  0.9032431E-01
        2   -1    0    0  501    0  0.00000000000E+00  0.00000000000E+00  0.93908452097E+03  0.93908452097E+03  0.25500000920E-02 0. -1.
       -2   -1    0    0    0  501  0.00000000000E+00  0.00000000000E+00 -0.44741271006E+03  0.44741271007E+03  0.25500000920E-02 0.  1.
    10030    2    1    2    0    0  0.00000000000E+00  0.00000000000E+00  0.49167181090E+03  0.13864972310E+04  0.12963924568E+04 0.  0.
        2    1    3    3  502    0 -0.12478040855E+03  0.46051930952E+03 -0.22341956600E+03  0.52684389270E+03  0.25500000920E-02 0.  1.
       -2    1    3    3    0  502  0.12478040855E+03 -0.46051930952E+03  0.71509137691E+03  0.85965333834E+03  0.25500000920E-02 0. -1.
</event>
<event>
 5   0  0.9098192E-04  0.1294849E+04  0.7818609E-02  0.9033660E-01
       -1   -1    0    0    0  501  0.00000000000E+00  0.00000000000E+00  0.12223978057E+04  0.12223978057E+04  0.50400001928E-02 0.  1.
        1   -1    0    0  501    0  0.00000000000E+00  0.00000000000E+00 -0.34289842359E+03  0.34289842363E+03  0.50400001928E-02 0. -1.
    10030    2    1    2    0    0  0.00000000000E+00  0.00000000000E+00  0.87949938211E+03  0.15652962293E+04  0.12948486871E+04 0.  0.
        1    1    3    3  502    0  0.58296544553E+03 -0.89821178195E+02  0.76240939741E+03  0.96394224102E+03  0.50400001928E-02 0.  1.
       -1    1    3    3    0  502 -0.58296544553E+03  0.89821178195E+02  0.11708998470E+03  0.60135398832E+03  0.50400001928E-02 0. -1.
</event>
<event>
 5   0  0.9110949E-04  0.1327257E+04  0.7818609E-02  0.9008225E-01
        1   -1    0    0  501    0  0.00000000000E+00  0.00000000000E+00  0.18007332450E+04  0.18007332450E+04  0.50400001928E-02 0. -1.
       -1   -1    0    0    0  501  0.00000000000E+00  0.00000000000E+00 -0.24456858514E+03  0.24456858519E+03  0.50400001928E-02 0.  1.
    10030    2    1    2    0    0  0.00000000000E+00  0.00000000000E+00  0.15561646598E+04  0.20453018302E+04  0.13272569939E+04 0.  0.
        2    1    3    3  502    0 -0.63808951948E+03 -0.37286925906E+02  0.10531160580E+04  0.12319098917E+04  0.25500000920E-02 0. -1.
       -2    1    3    3    0  502  0.63808951948E+03  0.37286925906E+02  0.50304860187E+03  0.81339193847E+03  0.25500000920E-02 0.  1.
</event>
<event>
 5   0  0.1714861E-03  0.1295966E+04  0.7818609E-02  0.9032771E-01
       -2   -1    0    0    0  501  0.00000000000E+00  0.00000000000E+00  0.58239383771E+03  0.58239383772E+03  0.25500000920E-02 0.  1.
        2   -1    0    0  501    0  0.00000000000E+00  0.00000000000E+00 -0.72095834737E+03  0.72095834738E+03  0.25500000920E-02 0. -1.
    10030    2    1    2    0    0  0.00000000000E+00  0.00000000000E+00 -0.13856450966E+03  0.13033521851E+04  0.12959655841E+04 0.  0.
        1    1    3    3  502    0  0.57929340417E+01  0.63528819570E+03  0.58947606918E+02  0.63804347036E+03  0.50400001928E-02 0.  1.
       -1    1    3    3    0  502 -0.57929340417E+01 -0.63528819570E+03 -0.19751211658E+03  0.66530871474E+03  0.50400001928E-02 0. -1.
</event>
<event>
 5   0  0.9110949E-04  0.1289975E+04  0.7818609E-02  0.9037553E-01
       -1   -1    0    0    0  501  0.00000000000E+00  0.00000000000E+00  0.44175833813E+03  0.44175833815E+03  0.50400001928E-02 0.  1.
        1   -1    0    0  501    0  0.00000000000E+00  0.00000000000E+00 -0.94171201389E+03  0.94171201391E+03  0.50400001928E-02 0. -1.
    10030    2    1    2    0    0  0.00000000000E+00  0.00000000000E+00 -0.49995367577E+03  0.13834703521E+04  0.12899754017E+04 0.  0.
        2    1    3    3  502    0  0.57092206237E+03  0.89760907653E+02  0.57134359745E+02  0.58075240586E+03  0.25500000920E-02 0.  1.
       -2    1    3    3    0  502 -0.57092206237E+03 -0.89760907653E+02 -0.55708803551E+03  0.80271794620E+03  0.25500000920E-02 0. -1.
</event>
<event>
 5   0  0.9215829E-04  0.1296014E+04  0.7818609E-02  0.9032732E-01
       -1   -1    0    0    0  501  0.00000000000E+00  0.00000000000E+00  0.62958835975E+03  0.62958835977E+03  0.50400001928E-02 0.  1.
        1   -1    0    0  501    0  0.00000000000E+00  0.00000000000E+00 -0.66696404372E+03  0.66696404374E+03  0.50400001928E-02 0. -1.
    10030    2    1    2    0    0  0.00000000000E+00  0.00000000000E+00 -0.37375683978E+02  0.12965524035E+04  0.12960135776E+04 0.  0.
        3    1    3    3  502    0  0.32862808411E+03 -0.55686035147E+03 -0.61401253360E+02  0.64950750020E+03  0.10100000352E+00 0. -1.
       -3    1    3    3    0  502 -0.32862808411E+03  0.55686035147E+03  0.24025569381E+02  0.64704490330E+03  0.10100000352E+00 0.  1.
</event>
<event>
 5   0  0.1714861E-03  0.1324831E+04  0.7818609E-02  0.9010103E-01
       -2   -1    0    0    0  501  0.00000000000E+00  0.00000000000E+00  0.77351697807E+03  0.77351697808E+03  0.25500000920E-02 0. -1.
        2   -1    0    0  501    0  0.00000000000E+00  0.00000000000E+00 -0.56727143885E+03  0.56727143885E+03  0.25500000920E-02 0.  1.
    10030    2    1    2    0    0  0.00000000000E+00  0.00000000000E+00  0.20624553923E+03  0.13407884169E+04  0.13248306898E+04 0.  0.
        1    1    3    3  502    0  0.87404028942E+02 -0.47973035005E+03  0.55686833285E+03  0.74019120043E+03  0.50400001928E-02 0. -1.
       -1    1    3    3    0  502 -0.87404028942E+02  0.47973035005E+03 -0.35062279362E+03  0.60059721650E+03  0.50400001928E-02 0.  1.
</event>
<event>
 5   0  0.1694675E-03  0.1308335E+04  0.7818609E-02  0.9022982E-01
       -2   -1    0    0    0  501  0.00000000000E+00  0.00000000000E+00  0.63129906727E+03  0.63129906728E+03  0.25500000920E-02 0.  1.
        2   -1    0    0  501    0  0.00000000000E+00  0.00000000000E+00 -0.67786405617E+03  0.67786405618E+03  0.25500000920E-02 0. -1.
    10030    2    1    2    0    0  0.00000000000E+00  0.00000000000E+00 -0.46564988900E+02  0.13091631235E+04  0.13083347376E+04 0.  0.
        4    1    3    3  502    0  0.63860395048E+03  0.10510507989E+02  0.11825619829E+03  0.64954724054E+03  0.12699999809E+01 0.  1.
       -4    1    3    3    0  502 -0.63860395048E+03 -0.10510507989E+02 -0.16482118719E+03  0.65961588292E+03  0.12699999809E+01 0. -1.
</event>
<event>
 5   0  0.1694675E-03  0.1298427E+04  0.7818609E-02  0.9030814E-01
       -2   -1    0    0    0  501  0.00000000000E+00  0.00000000000E+00  0.13022331539E+04  0.13022331539E+04  0.25500000920E-02 0.  1.
        2   -1    0    0  501    0  0.00000000000E+00  0.00000000000E+00 -0.32365794096E+03  0.32365794097E+03  0.25500000920E-02 0. -1.
    10030    2    1    2    0    0  0.00000000000E+00  0.00000000000E+00  0.97857521293E+03  0.16258910949E+04  0.12984268963E+04 0.  0.
        4    1    3    3  502    0 -0.56542510573E+03  0.62495404022E+02  0.88101886900E+03  0.10487168761E+04  0.12699999809E+01 0.  1.
       -4    1    3    3    0  502  0.56542510573E+03 -0.62495404022E+02  0.97556343931E+02  0.57717421881E+03  0.12699999809E+01 0. -1.
</event>
<event>
 5   0  0.1623890E-03  0.1270912E+04  0.7818609E-02  0.9052956E-01
        2   -1    0    0  501    0  0.00000000000E+00  0.00000000000E+00  0.22238529398E+04  0.22238529398E+04  0.25500000920E-02 0.  1.
       -2   -1    0    0    0  501  0.00000000000E+00  0.00000000000E+00 -0.18157873678E+03  0.18157873680E+03  0.25500000920E-02 0. -1.
    10030    2    1    2    0    0  0.00000000000E+00  0.00000000000E+00  0.20422742030E+04  0.24054316766E+04  0.12709121254E+04 0.  0.
        3    1    3    3  502    0 -0.47989827401E+02 -0.25894891537E+03  0.21157008152E+04  0.21320289665E+04  0.10100000352E+00 0.  1.
       -3    1    3    3    0  502  0.47989827401E+02  0.25894891537E+03 -0.73426612203E+02  0.27340271009E+03  0.10100000352E+00 0. -1.
</event>
<event>
 5   0  0.9098192E-04  0.1286415E+04  0.7818609E-02  0.9040408E-01
       -1   -1    0    0    0  501  0.00000000000E+00  0.00000000000E+00  0.20977528534E+03  0.20977528540E+03  0.50400001928E-02 0.  1.
        1   -1    0    0  501    0  0.00000000000E+00  0.00000000000E+00 -0.19721845391E+04  0.19721845391E+04  0.50400001928E-02 0. -1.
    10030    2    1    2    0    0  0.00000000000E+00  0.00000000000E+00 -0.17624092537E+04  0.21819598245E+04  0.12864145125E+04 0.  0.
        1    1    3    3  502    0 -0.23964915611E+01 -0.21809098810E+03  0.14513962948E+03  0.26198269854E+03  0.50400001928E-02 0.  1.
       -1    1    3    3    0  502  0.23964915611E+01  0.21809098810E+03 -0.19075488832E+04  0.19199771259E+04  0.50400001928E-02 0. -1.
</event>
<event>
 5   0  0.1700511E-03  0.1303907E+04  0.7818609E-02  0.9026473E-01
        2   -1    0    0  501    0  0.00000000000E+00  0.00000000000E+00  0.76481727114E+03  0.76481727115E+03  0.25500000920E-02 0.  1.
       -2   -1    0    0    0  501  0.00000000000E+00  0.00000000000E+00 -0.55574501420E+03  0.55574501421E+03  0.25500000920E-02 0. -1.
    10030    2    1    2    0    0  0.00000000000E+00  0.00000000000E+00  0.20907225694E+03  0.13205622854E+04  0.13039070292E+04 0.  0.
        2    1    3    3  502    0  0.39564883997E+02 -0.64972326845E+03  0.14157760725E+03  0.66614557305E+03  0.25500000920E-02 0.  1.
       -2    1    3    3    0  502 -0.39564883997E+02  0.64972326845E+03  0.67494649691E+02  0.65441671231E+03  0.25500000920E-02 0. -1.
</event>
<event>
 5   0  0.1714861E-03  0.1314810E+04  0.7818609E-02  0.9017902E-01
        2   -1    0    0  501    0  0.00000000000E+00  0.00000000000E+00  0.33964923522E+03  0.33964923523E+03  0.25500000920E-02 0. -1.
       -2   -1    0    0    0  501  0.00000000000E+00  0.00000000000E+00 -0.12724343503E+04  0.12724343503E+04  0.25500000920E-02 0.  1.
    10030    2    1    2    0    0  0.00000000000E+00  0.00000000000E+00 -0.93278511505E+03  0.16120835855E+04  0.13148100303E+04 0.  0.
        1    1    3    3  502    0  0.16109825730E+03  0.47526132634E+03 -0.98709437655E+03  0.11073307027E+04  0.50400001928E-02 0.  1.
       -1    1    3    3    0  502 -0.16109825730E+03 -0.47526132634E+03  0.54309261507E+02  0.50475288284E+03  0.50400001928E-02 0. -1.
</event>
<event>
 5   0  0.9110949E-04  0.1311037E+04  0.7818609E-02  0.9020858E-01
       -1   -1    0    0    0  501  0.00000000000E+00  0.00000000000E+00  0.28113706725E+03  0.28113706729E+03  0.50400001928E-02 0. -1.
        1   -1    0    0  501    0  0.00000000000E+00  0.00000000000E+00 -0.15284512863E+04  0.15284512864E+04  0.50400001928E-02 0.  1.
    10030    2    1    2    0    0  0.00000000000E+00  0.00000000000E+00 -0.12473142191E+04  0.18095883536E+04  0.13110367075E+04 0.  0.
        2    1    3    3  502    0  0.16158306963E+03  0.22919954432E+03 -0.14414763852E+04  0.14685011708E+04  0.25500000920E-02 0.  1.
       -2    1    3    3    0  502 -0.16158306963E+03 -0.22919954432E+03  0.19416216615E+03  0.34108718281E+03  0.25500000920E-02 0. -1.
</event>
<event>
 5   0  0.9110949E-04  0.1299221E+04  0.7818609E-02  0.9030183E-01
       -1   -1    0    0    0  501  0.00000000000E+00  0.00000000000E+00  0.30368985058E+03  0.30368985062E+03  0.50400001928E-02 0.  1.
        1   -1    0    0  501    0  0.00000000000E+00  0.00000000000E+00 -0.13895554856E+04  0.13895554856E+04  0.50400001928E-02 0. -1.
    10030    2    1    2    0    0  0.00000000000E+00  0.00000000000E+00 -0.10858656350E+04  0.16932453362E+04  0.12992211480E+04 0.  0.
        2    1    3    3  502    0 -0.25862810301E+03  0.51204969369E+02  0.23082700324E+03  0.35041625245E+03  0.25500000920E-02 0.  1.
       -2    1    3    3    0  502  0.25862810301E+03 -0.51204969369E+02 -0.13166926383E+04  0.13428290838E+04  0.25500000920E-02 0. -1.
</event>
<event>
 5   0  0.1714861E-03  0.1129326E+04  0.7818609E-02  0.9177071E-01
        2   -1    0    0  501    0  0.00000000000E+00  0.00000000000E+00  0.13462659569E+04  0.13462659569E+04  0.25500000920E-02 0. -1.
       -2   -1    0    0    0  501  0.00000000000E+00  0.00000000000E+00 -0.23683600771E+03  0.23683600772E+03  0.25500000920E-02 0.  1.
    10030    2    1    2    0    0  0.00000000000E+00  0.00000000000E+00  0.11094299492E+04  0.15831019646E+04  0.11293259132E+04 0.  0.
        1    1    3    3  502    0  0.27012039534E+03 -0.49500327428E+03  0.51382182633E+03  0.76289326827E+03  0.50400001928E-02 0. -1.
       -1    1    3    3    0  502 -0.27012039534E+03  0.49500327428E+03  0.59560812282E+03  0.82020869632E+03  0.50400001928E-02 0.  1.
</event>
<event>
 5   0  0.1694675E-03  0.1274580E+04  0.7818609E-02  0.9049970E-01
       -2   -1    0    0    0  501  0.00000000000E+00  0.00000000000E+00  0.10782117925E+04  0.10782117925E+04  0.25500000920E-02 0.  1.
        2   -1    0    0  501    0  0.00000000000E+00  0.00000000000E+00 -0.37667802282E+03  0.37667802283E+03  0.25500000920E-02 0. -1.
    10030    2    1    2    0    0  0.00000000000E+00  0.00000000000E+00  0.70153376967E+03  0.14548898153E+04  0.12745802230E+04 0.  0.
        4    1    3    3  502    0  0.40130337017E+02  0.20548923440E+03  0.10378314917E+04  0.10587408028E+04  0.12699999809E+01 0.  1.
       -4    1    3    3    0  502 -0.40130337017E+02 -0.20548923440E+03 -0.33629772203E+03  0.39614901255E+03  0.12699999809E+01 0. -1.
</event>
<event>
 5   0  0.1694675E-03  0.1298909E+04  0.7818609E-02  0.9030431E-01
       -2   -1    0    0    0  501  0.00000000000E+00  0.00000000000E+00  0.11185591349E+04  0.11185591349E+04  0.25500000920E-02 0.  1.
        2   -1    0    0  501    0  0.00000000000E+00  0.00000000000E+00 -0.37708413357E+03  0.37708413358E+03  0.25500000920E-02 0. -1.
    10030    2    1    2    0    0  0.00000000000E+00  0.00000000000E+00  0.74147500128E+03  0.14956432684E+04  0.12989086222E+04 0.  0.
        4    1    3    3  502    0  0.54254619112E+03  0.35584221988E+03  0.33798182356E+03  0.73158279156E+03  0.12699999809E+01 0.  1.
       -4    1    3    3    0  502 -0.54254619112E+03 -0.35584221988E+03  0.40349317772E+03  0.76406047687E+03  0.12699999809E+01 0. -1.
</event>
<event>
 5   0  0.9215829E-04  0.1295688E+04  0.7818609E-02  0.9032992E-01
       -1   -1    0    0    0  501  0.00000000000E+00  0.00000000000E+00  0.88020882692E+03  0.88020882693E+03  0.50400001928E-02 0. -1.
        1   -1    0    0  501    0  0.00000000000E+00  0.00000000000E+00 -0.47682082818E+03  0.47682082821E+03  0.50400001928E-02 0.  1.
    10030    2    1    2    0    0  0.00000000000E+00  0.00000000000E+00  0.40338799874E+03  0.13570296551E+04  0.12956880826E+04 0.  0.
        3    1    3    3  502    0  0.17542178686E+03  0.20310409982E+03 -0.41586344697E+03  0.49494090092E+03  0.10100000352E+00 0.  1.
       -3    1    3    3    0  502 -0.17542178686E+03 -0.20310409982E+03  0.81925144571E+03  0.86208875423E+03  0.10100000352E+00 0. -1.
</event>
<event>
 5   0  0.6284125E-04  0.1298297E+04  0.7818609E-02  0.9030916E-01
       -3   -1    0    0    0  501  0.00000000000E+00  0.00000000000E+00  0.98293608345E+03  0.98293608864E+03  0.10100000352E+00 0. -1.
        3   -1    0    0  501    0  0.00000000000E+00  0.00000000000E+00 -0.42870948814E+03  0.42870950004E+03  0.10100000352E+00 0.  1.
    10030    2    1    2    0    0  0.00000000000E+00  0.00000000000E+00  0.55422659531E+03  0.14116455887E+04  0.12982974039E+04 0.  0.
        5    1    3    3  502    0 -0.60248043867E+03  0.19916865148E+02  0.15272251695E+02  0.60302130324E+03  0.46999998093E+01 0.  1.
       -5    1    3    3    0  502  0.60248043867E+03 -0.19916865148E+02  0.53895434361E+03  0.80862428543E+03  0.46999998093E+01 0. -1.
</event>
<event>
 5   0  0.9027076E-04  0.1293485E+04  0.7818609E-02  0.9034748E-01
        1   -1    0    0  501    0  0.00000000000E+00  0.00000000000E+00  0.15499498773E+04  0.15499498773E+04  0.50400001928E-02 0. -1.
       -1   -1    0    0    0  501  0.00000000000E+00  0.00000000000E+00 -0.26986417349E+03  0.26986417354E+03  0.50400001928E-02 0.  1.
    10030    2    1    2    0    0  0.00000000000E+00  0.00000000000E+00  0.12800857038E+04  0.18198140508E+04  0.12934851258E+04 0.  0.
        5    1    3    3  502    0  0.68649555116E+02  0.83934787123E+02 -0.25695981853E+03  0.27894129892E+03  0.46999998093E+01 0.  1.
       -5    1    3    3    0  502 -0.68649555116E+02 -0.83934787123E+02  0.15370455223E+04  0.15408727519E+04  0.46999998093E+01 0. -1.
</event>
<event>
 5   0  0.1700511E-03  0.1374739E+04  0.7818609E-02  0.8972309E-01
       -2   -1    0    0    0  501  0.00000000000E+00  0.00000000000E+00  0.20107662630E+03  0.20107662632E+03  0.25500000920E-02 0. -1.
        2   -1    0    0  501    0  0.00000000000E+00  0.00000000000E+00 -0.23497355727E+04  0.23497355727E+04  0.25500000920E-02 0.  1.
    10030    2    1    2    0    0  0.00000000000E+00  0.00000000000E+00 -0.21486589464E+04  0.25508121990E+04  0.13747391050E+04 0.  0.
        2    1    3    3  502    0 -0.64850309184E+03 -0.99362843328E+02 -0.69385182334E+03  0.95491339268E+03  0.25500000920E-02 0. -1.
       -2    1    3    3    0  502  0.64850309184E+03  0.99362843328E+02 -0.14548071230E+04  0.15958988063E+04  0.25500000920E-02 0.  1.
</event>
<event>
 5   0  0.9110949E-04  0.1278001E+04  0.7818609E-02  0.9047195E-01
        1   -1    0    0  501    0  0.00000000000E+00  0.00000000000E+00  0.61890938613E+03  0.61890938615E+03  0.50400001928E-02 0. -1.
       -1   -1    0    0    0  501  0.00000000000E+00  0.00000000000E+00 -0.65974401244E+03  0.65974401246E+03  0.50400001928E-02 0.  1.
    10030    2    1    2    0    0  0.00000000000E+00  0.00000000000E+00 -0.40834626303E+02  0.12786533986E+04  0.12780011921E+04 0.  0.
        2    1    3    3  502    0 -0.10190691173E+03  0.69678084196E+02 -0.64769955854E+03  0.65935936500E+03  0.25500000920E-02 0.  1.
       -2    1    3    3    0  502  0.10190691173E+03 -0.69678084196E+02  0.60686493224E+03  0.61929403361E+03  0.25500000920E-02 0. -1.
</event>
<event>
 5   0  0.9110949E-04  0.1300136E+04  0.7818609E-02  0.9029457E-01
       -1   -1    0    0    0  501  0.00000000000E+00  0.00000000000E+00  0.94280613495E+03  0.94280613496E+03  0.50400001928E-02 0.  1.
        1   -1    0    0  501    0  0.00000000000E+00  0.00000000000E+00 -0.44822435331E+03  0.44822435333E+03  0.50400001928E-02 0. -1.
    10030    2    1    2    0    0  0.00000000000E+00  0.00000000000E+00  0.49458178164E+03  0.13910304883E+04  0.13001364085E+04 0.  0.
        2    1    3    3  502    0  0.34537722285E+03  0.27386036767E+03 -0.26392488163E+03  0.51375214861E+03  0.25500000920E-02 0. -1.
       -2    1    3    3    0  502 -0.34537722285E+03 -0.27386036767E+03  0.75850666327E+03  0.87727833969E+03  0.25500000920E-02 0.  1.
</event>
<event>
 5   0  0.9098192E-04  0.1258470E+04  0.7818609E-02  0.9063163E-01
        1   -1    0    0  501    0  0.00000000000E+00  0.00000000000E+00  0.10229112427E+04  0.10229112427E+04  0.50400001928E-02 0.  1.
       -1   -1    0    0    0  501  0.00000000000E+00  0.00000000000E+00 -0.38706821218E+03  0.38706821222E+03  0.50400001928E-02 0. -1.
    10030    2    1    2    0    0  0.00000000000E+00  0.00000000000E+00  0.63584303048E+03  0.14099794549E+04  0.12584695880E+04 0.  0.
        1    1    3    3  502    0 -0.21148657329E+03  0.59191988163E+03  0.28543576495E+03  0.69033998355E+03  0.50400001928E-02 0. -1.
       -1    1    3    3    0  502  0.21148657329E+03 -0.59191988163E+03  0.35040726553E+03  0.71963947134E+03  0.50400001928E-02 0.  1.
</event>
<event>
 5   0  0.1700511E-03  0.1317622E+04  0.7818609E-02  0.9015706E-01
       -2   -1    0    0    0  501  0.00000000000E+00  0.00000000000E+00  0.11236397122E+04  0.11236397122E+04  0.25500000920E-02 0. -1.
        2   -1    0    0  501    0  0.00000000000E+00  0.00000000000E+00 -0.38627345333E+03  0.38627345334E+03  0.25500000920E-02 0.  1.
    10030    2    1    2    0    0  0.00000000000E+00  0.00000000000E+00  0.73736625884E+03  0.15099131655E+04  0.13176223919E+04 0.  0.
        2    1    3    3  502    0 -0.22921996214E+03  0.58257477514E+03  0.60380159849E+03  0.86977671274E+03  0.25500000920E-02 0. -1.
       -2    1    3    3    0  502  0.22921996214E+03 -0.58257477514E+03  0.13356466035E+03  0.64013645278E+03  0.25500000920E-02 0.  1.
</event>
<event>
 5   0  0.1694675E-03  0.1292009E+04  0.7818609E-02  0.9035926E-01
       -2   -1    0    0    0  501  0.00000000000E+00  0.00000000000E+00  0.21685782099E+03  0.21685782100E+03  0.25500000920E-02 0.  1.
        2   -1    0    0  501    0  0.00000000000E+00  0.00000000000E+00 -0.19244021129E+04  0.19244021129E+04  0.25500000920E-02 0. -1.
    10030    2    1    2    0    0  0.00000000000E+00  0.00000000000E+00 -0.17075442919E+04  0.21412599339E+04  0.12920087444E+04 0.  0.
        4    1    3    3  502    0 -0.54358589036E+03  0.31752374072E+03 -0.61353016673E+03  0.87904938684E+03  0.12699999809E+01 0. -1.
       -4    1    3    3    0  502  0.54358589036E+03 -0.31752374072E+03 -0.10940141252E+04  0.12622105470E+04  0.12699999809E+01 0.  1.
</event>
<event>
 5   0  0.9098192E-04  0.1315743E+04  0.7818609E-02  0.9017173E-01
       -1   -1    0    0    0  501  0.00000000000E+00  0.00000000000E+00  0.18093899691E+03  0.18093899698E+03  0.50400001928E-02 0. -1.
        1   -1    0    0  501    0  0.00000000000E+00  0.00000000000E+00 -0.23919373021E+04  0.23919373021E+04  0.50400001928E-02 0.  1.
    10030    2    1    2    0    0  0.00000000000E+00  0.00000000000E+00 -0.22109983052E+04  0.25728762991E+04  0.13157427350E+04 0.  0.
        1    1    3    3  502    0 -0.45452115934E+03 -0.45280888705E+03 -0.82098634078E+03  0.10419423901E+04  0.50400001928E-02 0. -1.
       -1    1    3    3    0  502  0.45452115934E+03  0.45280888705E+03 -0.13900119644E+04  0.15309339090E+04  0.50400001928E-02 0.  1.
</event>
<event>
 5   0  0.1714861E-03  0.1047529E+04  0.7818609E-02  0.9257899E-01
       -2   -1    0    0    0  501  0.00000000000E+00  0.00000000000E+00  0.22146605279E+03  0.22146605280E+03  0.25500000920E-02 0. -1.
        2   -1    0    0  501    0  0.00000000000E+00  0.00000000000E+00 -0.12386955570E+04  0.12386955570E+04  0.25500000920E-02 0.  1.
    10030    2    1    2    0    0  0.00000000000E+00  0.00000000000E+00 -0.10172295042E+04  0.14601616098E+04  0.10475285498E+04 0.  0.
        1    1    3    3  502    0 -0.17791163067E+03 -0.55080263307E+02 -0.11909803101E+04  0.12054544715E+04  0.50400001928E-02 0.  1.
       -1    1    3    3    0  502  0.17791163067E+03  0.55080263307E+02  0.17375080590E+03  0.25470713832E+03  0.50400001928E-02 0. -1.
</event>
<event>
 5   0  0.9110949E-04  0.1122399E+04  0.7818609E-02  0.9183631E-01
       -1   -1    0    0    0  501  0.00000000000E+00  0.00000000000E+00  0.21370983252E+03  0.21370983258E+03  0.50400001928E-02 0.  1.
        1   -1    0    0  501    0  0.00000000000E+00  0.00000000000E+00 -0.14737042710E+04  0.14737042710E+04  0.50400001928E-02 0. -1.
    10030    2    1    2    0    0  0.00000000000E+00  0.00000000000E+00 -0.12599944385E+04  0.16874141036E+04  0.11223993817E+04 0.  0.
        2    1    3    3  502    0 -0.35376848587E+02  0.55729017366E+03 -0.54600531758E+03  0.78099018298E+03  0.25500000920E-02 0. -1.
       -2    1    3    3    0  502  0.35376848587E+02 -0.55729017366E+03 -0.71398912089E+03  0.90642392060E+03  0.25500000920E-02 0.  1.
</event>
<event>
 5   0  0.9098192E-04  0.1253664E+04  0.7818609E-02  0.9067139E-01
        1   -1    0    0  501    0  0.00000000000E+00  0.00000000000E+00  0.17238528277E+04  0.17238528277E+04  0.50400001928E-02 0. -1.
       -1   -1    0    0    0  501  0.00000000000E+00  0.00000000000E+00 -0.22793045252E+03  0.22793045257E+03  0.50400001928E-02 0.  1.
    10030    2    1    2    0    0  0.00000000000E+00  0.00000000000E+00  0.14959223752E+04  0.19517832803E+04  0.12536643173E+04 0.  0.
        1    1    3    3  502    0 -0.45792475269E+03 -0.38715770355E+03  0.10322001090E+04  0.11937433693E+04  0.50400001928E-02 0. -1.
       -1    1    3    3    0  502  0.45792475269E+03  0.38715770355E+03  0.46372226615E+03  0.75803991101E+03  0.50400001928E-02 0.  1.
</event>
<event>
 5   0  0.9098192E-04  0.1295074E+04  0.7818609E-02  0.9033480E-01
       -1   -1    0    0    0  501  0.00000000000E+00  0.00000000000E+00  0.30264647967E+03  0.30264647971E+03  0.50400001928E-02 0. -1.
        1   -1    0    0  501    0  0.00000000000E+00  0.00000000000E+00 -0.13854596274E+04  0.13854596274E+04  0.50400001928E-02 0.  1.
    10030    2    1    2    0    0  0.00000000000E+00  0.00000000000E+00 -0.10828131477E+04  0.16881061071E+04  0.12950744828E+04 0.  0.
        1    1    3    3  502    0 -0.49862717720E+03  0.40662842536E+03 -0.44625471136E+03  0.78301916042E+03  0.50400001928E-02 0.  1.
       -1    1    3    3    0  502  0.49862717720E+03 -0.40662842536E+03 -0.63655843638E+03  0.90508694671E+03  0.50400001928E-02 0. -1.
</event>
<event>
 5   0  0.9098192E-04  0.1328225E+04  0.7818609E-02  0.9007477E-01
        1   -1    0    0  501    0  0.00000000000E+00  0.00000000000E+00  0.10588870884E+04  0.10588870884E+04  0.50400001928E-02 0.  1.
       -1   -1    0    0    0  501  0.00000000000E+00  0.00000000000E+00 -0.41651816878E+03  0.41651816881E+03  0.50400001928E-02 0. -1.
    10030    2    1    2    0    0  0.00000000000E+00  0.00000000000E+00  0.64236891961E+03  0.14754052572E+04  0.13282254493E+04 0.  0.
        1    1    3    3  502    0  0.57700294344E+03  0.32235299660E+03  0.24917984839E+03  0.70635292030E+03  0.50400001928E-02 0. -1.
       -1    1    3    3    0  502 -0.57700294344E+03 -0.32235299660E+03  0.39318907122E+03  0.76905233691E+03  0.50400001928E-02 0.  1.
</event>
<event>
 5   0  0.9098192E-04  0.1291093E+04  0.7818609E-02  0.9036659E-01
       -1   -1    0    0    0  501  0.00000000000E+00  0.00000000000E+00  0.12069414084E+04  0.12069414085E+04  0.50400001928E-02 0.  1.
        1   -1    0    0  501    0  0.00000000000E+00  0.00000000000E+00 -0.34527790676E+03  0.34527790680E+03  0.50400001928E-02 0. -1.
    10030    2    1    2    0    0  0.00000000000E+00  0.00000000000E+00  0.86166350168E+03  0.15522193152E+04  0.12910928752E+04 0.  0.
        1    1    3    3  502    0  0.47498015136E+03  0.33844636586E+03  0.76352802598E+03  0.96079505267E+03  0.50400001928E-02 0.  1.
       -1    1    3    3    0  502 -0.47498015136E+03 -0.33844636586E+03  0.98135475704E+02  0.59142426258E+03  0.50400001928E-02 0. -1.
</event>
<event>
 5   0  0.9110949E-04  0.1321058E+04  0.7818609E-02  0.9013031E-01
       -1   -1    0    0    0  501  0.00000000000E+00  0.00000000000E+00  0.45453181147E+03  0.45453181149E+03  0.50400001928E-02 0. -1.
        1   -1    0    0  501    0  0.00000000000E+00  0.00000000000E+00 -0.95988546967E+03  0.95988546968E+03  0.50400001928E-02 0.  1.
    10030    2    1    2    0    0  0.00000000000E+00  0.00000000000E+00 -0.50535365820E+03  0.14144172812E+04  0.13210578812E+04 0.  0.
        2    1    3    3  502    0 -0.25666548604E+03  0.60637368433E+03 -0.19671175500E+03  0.68721301744E+03  0.25500000920E-02 0. -1.
       -2    1    3    3    0  502  0.25666548604E+03 -0.60637368433E+03 -0.30864190320E+03  0.72720426373E+03  0.25500000920E-02 0.  1.
</event>
<event>
 5   0  0.9081324E-04  0.1293527E+04  0.7818609E-02  0.9034714E-01
       -1   -1    0    0    0  501  0.00000000000E+00  0.00000000000E+00  0.54082503485E+03  0.54082503487E+03  0.50400001928E-02 0.  1.
        1   -1    0    0  501    0  0.00000000000E+00  0.00000000000E+00 -0.77345406755E+03  0.77345406757E+03  0.50400001928E-02 0. -1.
    10030    2    1    2    0    0  0.00000000000E+00  0.00000000000E+00 -0.23262903271E+03  0.13142791024E+04  0.12935274610E+04 0.  0.
        4    1    3    3  502    0 -0.60922575191E+03  0.18972285053E+03 -0.90224623278E+01  0.63814872446E+03  0.12699999809E+01 0.  1.
       -4    1    3    3    0  502  0.60922575191E+03 -0.18972285053E+03 -0.22360657038E+03  0.67613037798E+03  0.12699999809E+01 0. -1.
</event>
<event>
 5   0  0.1700511E-03  0.1301679E+04  0.7818609E-02  0.9028235E-01
       -2   -1    0    0    0  501  0.00000000000E+00  0.00000000000E+00  0.53935722020E+03  0.53935722021E+03  0.25500000920E-02 0. -1.
        2   -1    0    0  501    0  0.00000000000E+00  0.00000000000E+00 -0.78536495209E+03  0.78536495210E+03  0.25500000920E-02 0.  1.
    10030    2    1    2    0    0  0.00000000000E+00  0.00000000000E+00 -0.24600773189E+03  0.13247221723E+04  0.13016793114E+04 0.  0.
        2    1    3    3  502    0 -0.48281296514E+03  0.11146324400E+03  0.30643742180E+03  0.58261162669E+03  0.25500000920E-02 0. -1.
       -2    1    3    3    0  502  0.48281296514E+03 -0.11146324400E+03 -0.55244515369E+03  0.74211054561E+03  0.25500000920E-02 0.  1.
</event>
<event>
 5   0  0.9110949E-04  0.1304508E+04  0.7818609E-02  0.9025998E-01
       -1   -1    0    0    0  501  0.00000000000E+00  0.00000000000E+00  0.60513290314E+03  0.60513290316E+03  0.50400001928E-02 0.  1.
        1   -1    0    0  501    0  0.00000000000E+00  0.00000000000E+00 -0.70304466890E+03  0.70304466892E+03  0.50400001928E-02 0. -1.
    10030    2    1    2    0    0  0.00000000000E+00  0.00000000000E+00 -0.97911765768E+02  0.13081775721E+04  0.13045082776E+04 0.  0.
        2    1    3    3  502    0  0.40872006414E+03 -0.50439370159E+03  0.14232181189E+02  0.64935941668E+03  0.25500000920E-02 0.  1.
       -2    1    3    3    0  502 -0.40872006414E+03  0.50439370159E+03 -0.11214394696E+03  0.65881815540E+03  0.25500000920E-02 0. -1.
</event>
<event>
 5   0  0.9027076E-04  0.1296415E+04  0.7818609E-02  0.9032413E-01
        1   -1    0    0  501    0  0.00000000000E+00  0.00000000000E+00  0.75474680210E+03  0.75474680212E+03  0.50400001928E-02 0.  1.
       -1   -1    0    0    0  501  0.00000000000E+00  0.00000000000E+00 -0.55670715742E+03  0.55670715744E+03  0.50400001928E-02 0. -1.
    10030    2    1    2    0    0  0.00000000000E+00  0.00000000000E+00  0.19803964469E+03  0.13114539596E+04  0.12964149749E+04 0.  0.
        5    1    3    3  502    0  0.31640124727E+03 -0.10057195652E+02 -0.47317411647E+03  0.56932128974E+03  0.46999998093E+01 0. -1.
       -5    1    3    3    0  502 -0.31640124727E+03  0.10057195652E+02  0.67121376115E+03  0.74213266982E+03  0.46999998093E+01 0.  1.
</event>
<event>
 5   0  0.1714861E-03  0.1307219E+04  0.7818609E-02  0.9023860E-01
        2   -1    0    0  501    0  0.00000000000E+00  0.00000000000E+00  0.72804321708E+03  0.72804321708E+03  0.25500000920E-02 0.  1.
       -2   -1    0    0    0  501  0.00000000000E+00  0.00000000000E+00 -0.58678568930E+03  0.58678568930E+03  0.25500000920E-02 0. -1.
    10030    2    1    2    0    0  0.00000000000E+00  0.00000000000E+00  0.14125752778E+03  0.13148289064E+04  0.13072189426E+04 0.  0.
        1    1    3    3  502    0  0.62865094290E+03 -0.16410447783E+03  0.14226877154E+03  0.66511103662E+03  0.50400001928E-02 0.  1.
       -1    1    3    3    0  502 -0.62865094290E+03  0.16410447783E+03 -0.10112437636E+01  0.64971786976E+03  0.50400001928E-02 0. -1.
</event>
<event>
 5   0  0.1714861E-03  0.1307120E+04  0.7818609E-02  0.9023938E-01
       -2   -1    0    0    0  501  0.00000000000E+00  0.00000000000E+00  0.11570045971E+04  0.11570045971E+04  0.25500000920E-02 0. -1.
        2   -1    0    0  501    0  0.00000000000E+00  0.00000000000E+00 -0.36917817463E+03  0.36917817464E+03  0.25500000920E-02 0.  1.
    10030    2    1    2    0    0  0.00000000000E+00  0.00000000000E+00  0.78782642250E+03  0.15261827718E+04  0.13071202626E+04 0.  0.
        1    1    3    3  502    0  0.57446057244E+03 -0.84527990277E+02  0.43653380922E+02  0.58228476548E+03  0.50400001928E-02 0.  1.
       -1    1    3    3    0  502 -0.57446057244E+03  0.84527990277E+02  0.74417304158E+03  0.94389800628E+03  0.50400001928E-02 0. -1.
</event>
<event>
 5   0  0.1700511E-03  0.1263679E+04  0.7818609E-02  0.9058874E-01
       -2   -1    0    0    0  501  0.00000000000E+00  0.00000000000E+00  0.24610536968E+03  0.24610536970E+03  0.25500000920E-02 0.  1.
        2   -1    0    0  501    0  0.00000000000E+00  0.00000000000E+00 -0.16221556704E+04  0.16221556704E+04  0.25500000920E-02 0. -1.
    10030    2    1    2    0    0  0.00000000000E+00  0.00000000000E+00 -0.13760503007E+04  0.18682610401E+04  0.12636791063E+04 0.  0.
        2    1    3    3  502    0  0.39680968937E+03 -0.34340884520E+03 -0.12082847478E+04  0.13173228899E+04  0.25500000920E-02 0. -1.
       -2    1    3    3    0  502 -0.39680968937E+03  0.34340884520E+03 -0.16776555289E+03  0.55093815014E+03  0.25500000920E-02 0.  1.
</event>
<event>
 5   0  0.1667342E-03  0.1302171E+04  0.7818609E-02  0.9027845E-01
       -2   -1    0    0    0  501  0.00000000000E+00  0.00000000000E+00  0.32403427348E+03  0.32403427349E+03  0.25500000920E-02 0.  1.
        2   -1    0    0  501    0  0.00000000000E+00  0.00000000000E+00 -0.13082326441E+04  0.13082326441E+04  0.25500000920E-02 0. -1.
    10030    2    1    2    0    0  0.00000000000E+00  0.00000000000E+00 -0.98419837059E+03  0.16322669176E+04  0.13021708250E+04 0.  0.
        5    1    3    3  502    0 -0.15489887191E+03 -0.28652730046E+03 -0.11987407629E+04  0.12422129693E+04  0.46999998093E+01 0. -1.
       -5    1    3    3    0  502  0.15489887191E+03  0.28652730046E+03  0.21454239235E+03  0.39005394825E+03  0.46999998093E+01 0.  1.
</event>
<event>
 5   0  0.9081324E-04  0.1309329E+04  0.7818609E-02  0.9022200E-01
        1   -1    0    0  501    0  0.00000000000E+00  0.00000000000E+00  0.84665047185E+03  0.84665047187E+03  0.50400001928E-02 0. -1.
       -1   -1    0    0    0  501  0.00000000000E+00  0.00000000000E+00 -0.50621316731E+03  0.50621316734E+03  0.50400001928E-02 0.  1.
    10030    2    1    2    0    0  0.00000000000E+00  0.00000000000E+00  0.34043730454E+03  0.13528636392E+04  0.13093290144E+04 0.  0.
        4    1    3    3  502    0 -0.12321179140E+03  0.48949972339E+03 -0.26052731667E+03  0.56803804483E+03  0.12699999809E+01 0.  1.
       -4    1    3    3    0  502  0.12321179140E+03 -0.48949972339E+03  0.60096462121E+03  0.78482559438E+03  0.12699999809E+01 0. -1.
</event>
<event>
 5   0  0.1714861E-03  0.1222852E+04  0.7818609E-02  0.9093086E-01
        2   -1    0    0  501    0  0.00000000000E+00  0.00000000000E+00  0.62906199982E+03  0.62906199982E+03  0.25500000920E-02 0. -1.
       -2   -1    0    0    0  501  0.00000000000E+00  0.00000000000E+00 -0.59428421384E+03  0.59428421385E+03  0.25500000920E-02 0.  1.
    10030    2    1    2    0    0  0.00000000000E+00  0.00000000000E+00  0.34777785975E+02  0.12233462137E+04  0.12228517752E+04 0.  0.
        1    1    3    3  502    0  0.78460897408E+02  0.38885414527E+03 -0.44807114905E+03  0.59844081859E+03  0.50400001928E-02 0.  1.
       -1    1    3    3    0  502 -0.78460897408E+02 -0.38885414527E+03  0.48284893503E+03  0.62490539508E+03  0.50400001928E-02 0. -1.
</event>
<event>
 5   0  0.9098192E-04  0.1234786E+04  0.7818609E-02  0.9082942E-01
       -1   -1    0    0    0  501  0.00000000000E+00  0.00000000000E+00  0.13863586387E+04  0.13863586387E+04  0.50400001928E-02 0.  1.
        1   -1    0    0  501    0  0.00000000000E+00  0.00000000000E+00 -0.27494606145E+03  0.27494606149E+03  0.50400001928E-02 0. -1.
    10030    2    1    2    0    0  0.00000000000E+00  0.00000000000E+00  0.11114125773E+04  0.16613047002E+04  0.12347855644E+04 0.  0.
        1    1    3    3  502    0 -0.28651276444E+03  0.17993331880E+03 -0.13911961810E+03  0.36581393025E+03  0.50400001928E-02 0. -1.
       -1    1    3    3    0  502  0.28651276444E+03 -0.17993331880E+03  0.12505321954E+04  0.12954907700E+04  0.50400001928E-02 0.  1.
</event>
<event>
 5   0  0.9110949E-04  0.1297893E+04  0.7818609E-02  0.9031238E-01
       -1   -1    0    0    0  501  0.00000000000E+00  0.00000000000E+00  0.34781486488E+03  0.34781486491E+03  0.50400001928E-02 0.  1.
        1   -1    0    0  501    0  0.00000000000E+00  0.00000000000E+00 -0.12107919986E+04  0.12107919986E+04  0.50400001928E-02 0. -1.
    10030    2    1    2    0    0  0.00000000000E+00  0.00000000000E+00 -0.86297713368E+03  0.15586068635E+04  0.12978928390E+04 0.  0.
        2    1    3    3  502    0 -0.30360637805E+03  0.53804476634E+03 -0.67004425782E+03  0.91138812304E+03  0.25500000920E-02 0.  1.
       -2    1    3    3    0  502  0.30360637805E+03 -0.53804476634E+03 -0.19293287586E+03  0.64721874044E+03  0.25500000920E-02 0. -1.
</event>
<event>
 5   0  0.9098192E-04  0.1290391E+04  0.7818609E-02  0.9037220E-01
        1   -1    0    0  501    0  0.00000000000E+00  0.00000000000E+00  0.84752475085E+03  0.84752475087E+03  0.50400001928E-02 0.  1.
       -1   -1    0    0    0  501  0.00000000000E+00  0.00000000000E+00 -0.49116814332E+03  0.49116814334E+03  0.50400001928E-02 0. -1.
    10030    2    1    2    0    0  0.00000000000E+00  0.00000000000E+00  0.35635660753E+03  0.13386928942E+04  0.12903908839E+04 0.  0.
        1    1    3    3  502    0 -0.32059484029E+03  0.41346510961E+03  0.56985900822E+03  0.77361084388E+03  0.50400001928E-02 0.  1.
       -1    1    3    3    0  502  0.32059484029E+03 -0.41346510961E+03 -0.21350240069E+03  0.56508205034E+03  0.50400001928E-02 0. -1.
</event>
<event>
 5   0  0.9027076E-04  0.1179260E+04  0.7818609E-02  0.9131206E-01
        1   -1    0    0  501    0  0.00000000000E+00  0.00000000000E+00  0.66932848987E+03  0.66932848989E+03  0.50400001928E-02 0.  1.
       -1   -1    0    0    0  501  0.00000000000E+00  0.00000000000E+00 -0.51942149149E+03  0.51942149152E+03  0.50400001928E-02 0. -1.
    10030    2    1    2    0    0  0.00000000000E+00  0.00000000000E+00  0.14990699838E+03  0.11887499814E+04  0.11792601113E+04 0.  0.
        5    1    3    3  502    0  0.14854686713E+03 -0.15527741995E+03  0.62842954943E+03  0.66417093995E+03  0.46999998093E+01 0.  1.
       -5    1    3    3    0  502 -0.14854686713E+03  0.15527741995E+03 -0.47852255105E+03  0.52457904146E+03  0.46999998093E+01 0. -1.
</event>
<event>
 5   0  0.9110949E-04  0.1308343E+04  0.7818609E-02  0.9022975E-01
        1   -1    0    0  501    0  0.00000000000E+00  0.00000000000E+00  0.14035467568E+04  0.14035467568E+04  0.50400001928E-02 0. -1.
       -1   -1    0    0    0  501  0.00000000000E+00  0.00000000000E+00 -0.30489904927E+03  0.30489904931E+03  0.50400001928E-02 0.  1.
    10030    2    1    2    0    0  0.00000000000E+00  0.00000000000E+00  0.10986477075E+04  0.17084458061E+04  0.13083425725E+04 0.  0.
        2    1    3    3  502    0 -0.52798934186E+03 -0.16364523276E+03  0.92500413664E+02  0.56045413180E+03  0.25500000920E-02 0.  1.
       -2    1    3    3    0  502  0.52798934186E+03  0.16364523276E+03  0.10061472938E+04  0.11479916743E+04  0.25500000920E-02 0. -1.
</event>
<event>
 5   0  0.1714861E-03  0.1298835E+04  0.7818609E-02  0.9030490E-01
       -2   -1    0    0    0  501  0.00000000000E+00  0.00000000000E+00  0.18746533767E+03  0.18746533769E+03  0.25500000920E-02 0. -1.
        2   -1    0    0  501    0  0.00000000000E+00  0.00000000000E+00 -0.22497122047E+04  0.22497122047E+04  0.25500000920E-02 0.  1.
    10030    2    1    2    0    0  0.00000000000E+00  0.00000000000E+00 -0.20622468671E+04  0.24371775424E+04  0.12988349520E+04 0.  0.
        1    1    3    3  502    0  0.30354325410E+03  0.39546264839E+03 -0.18120757210E+04  0.18794008705E+04  0.50400001928E-02 0.  1.
       -1    1    3    3    0  502 -0.30354325410E+03 -0.39546264839E+03 -0.25017114603E+03  0.55777667190E+03  0.50400001928E-02 0. -1.
</event>
<event>
 5   0  0.1623890E-03  0.1297256E+04  0.7818609E-02  0.9031744E-01
        2   -1    0    0  501    0  0.00000000000E+00  0.00000000000E+00  0.54773603990E+03  0.54773603990E+03  0.25500000920E-02 0.  1.
       -2   -1    0    0    0  501  0.00000000000E+00  0.00000000000E+00 -0.76810438285E+03  0.76810438285E+03  0.25500000920E-02 0. -1.
    10030    2    1    2    0    0  0.00000000000E+00  0.00000000000E+00 -0.22036834295E+03  0.13158404228E+04  0.12972562629E+04 0.  0.
        3    1    3    3  502    0 -0.18438191598E+03 -0.12556036235E+03 -0.72797129339E+03  0.76138315567E+03  0.10100000352E+00 0. -1.
       -3    1    3    3    0  502  0.18438191598E+03  0.12556036235E+03  0.50760295044E+03  0.55445726709E+03  0.10100000352E+00 0.  1.
</event>
<event>
 5   0  0.9098192E-04  0.1268227E+04  0.7818609E-02  0.9055148E-01
       -1   -1    0    0    0  501  0.00000000000E+00  0.00000000000E+00  0.66094354092E+03  0.66094354094E+03  0.50400001928E-02 0.  1.
        1   -1    0    0  501    0  0.00000000000E+00  0.00000000000E+00 -0.60837287878E+03  0.60837287880E+03  0.50400001928E-02 0. -1.
    10030    2    1    2    0    0  0.00000000000E+00  0.00000000000E+00  0.52570662138E+02  0.12693164197E+04  0.12682273057E+04 0.  0.
        1    1    3    3  502    0 -0.50850199170E+02  0.35214579156E+03  0.55162438492E+03  0.65641592251E+03  0.50400001928E-02 0.  1.
       -1    1    3    3    0  502  0.50850199170E+02 -0.35214579156E+03 -0.49905372278E+03  0.61290049723E+03  0.50400001928E-02 0. -1.
</event>
<event>
 5   0  0.9110949E-04  0.1306293E+04  0.7818609E-02  0.9024590E-01
       -1   -1    0    0    0  501  0.00000000000E+00  0.00000000000E+00  0.62888265148E+03  0.62888265150E+03  0.50400001928E-02 0. -1.
        1   -1    0    0  501    0  0.00000000000E+00  0.00000000000E+00 -0.67834654825E+03  0.67834654826E+03  0.50400001928E-02 0.  1.
    10030    2    1    2    0    0  0.00000000000E+00  0.00000000000E+00 -0.49463896769E+02  0.13072291998E+04  0.13062930390E+04 0.  0.
        2    1    3    3  502    0 -0.14427647484E+03  0.28440394575E+03  0.54567572862E+03  0.63203109604E+03  0.25500000920E-02 0. -1.
       -2    1    3    3    0  502  0.14427647484E+03 -0.28440394575E+03 -0.59513962539E+03  0.67519810372E+03  0.25500000920E-02 0.  1.
</event>
<event>
 5   0  0.6284125E-04  0.1346524E+04  0.7818609E-02  0.8993464E-01
       -3   -1    0    0    0  501  0.00000000000E+00  0.00000000000E+00  0.14420788529E+04  0.14420788564E+04  0.10100000352E+00 0.  1.
        3   -1    0    0  501    0  0.00000000000E+00  0.00000000000E+00 -0.31432518848E+03  0.31432520470E+03  0.10100000352E+00 0. -1.
    10030    2    1    2    0    0  0.00000000000E+00  0.00000000000E+00  0.11277536644E+04  0.17564040611E+04  0.13465240059E+04 0.  0.
        3    1    3    3  502    0  0.18658577004E+03 -0.10525202917E+03  0.13964362438E+04  0.14127726046E+04  0.10100000352E+00 0.  1.
       -3    1    3    3    0  502 -0.18658577004E+03  0.10525202917E+03 -0.26868257938E+03  0.34363145649E+03  0.10100000352E+00 0. -1.
</event>
<event>
 5   0  0.9098192E-04  0.1303259E+04  0.7818609E-02  0.9026985E-01
        1   -1    0    0  501    0  0.00000000000E+00  0.00000000000E+00  0.11476739616E+04  0.11476739616E+04  0.50400001928E-02 0. -1.
       -1   -1    0    0    0  501  0.00000000000E+00  0.00000000000E+00 -0.36998414604E+03  0.36998414607E+03  0.50400001928E-02 0.  1.
    10030    2    1    2    0    0  0.00000000000E+00  0.00000000000E+00  0.77768981559E+03  0.15176581077E+04  0.13032592538E+04 0.  0.
        1    1    3    3  502    0 -0.49401941545E+03  0.25294410698E+02  0.88280323308E+03  0.10119469049E+04  0.50400001928E-02 0. -1.
       -1    1    3    3    0  502  0.49401941545E+03 -0.25294410698E+02 -0.10511341748E+03  0.50571120278E+03  0.50400001928E-02 0.  1.
</event>
<event>
 5   0  0.9110949E-04  0.1301925E+04  0.7818609E-02  0.9028040E-01
        1   -1    0    0  501    0  0.00000000000E+00  0.00000000000E+00  0.60834068069E+03  0.60834068072E+03  0.50400001928E-02 0.  1.
       -1   -1    0    0    0  501  0.00000000000E+00  0.00000000000E+00 -0.69657048833E+03  0.69657048835E+03  0.50400001928E-02 0. -1.
    10030    2    1    2    0    0  0.00000000000E+00  0.00000000000E+00 -0.88229807635E+02  0.13049111691E+04  0.13019249826E+04 0.  0.
        2    1    3    3  502    0 -0.92938778172E+02  0.46188525224E+03  0.40611086356E+03  0.62201417688E+03  0.25500000920E-02 0.  1.
       -2    1    3    3    0  502  0.92938778172E+02 -0.46188525224E+03 -0.49434067120E+03  0.68289699218E+03  0.25500000920E-02 0. -1.
</event>
<event>
 5   0  0.9215829E-04  0.1315016E+04  0.7818609E-02  0.9017742E-01
        1   -1    0    0  501    0  0.00000000000E+00  0.00000000000E+00  0.13755995299E+04  0.13755995300E+04  0.50400001928E-02 0.  1.
       -1   -1    0    0    0  501  0.00000000000E+00  0.00000000000E+00 -0.31427506023E+03  0.31427506028E+03  0.50400001928E-02 0. -1.
    10030    2    1    2    0    0  0.00000000000E+00  0.00000000000E+00  0.10613244697E+04  0.16898745902E+04  0.13150157796E+04 0.  0.
        3    1    3    3  502    0  0.41666845718E+02  0.39006643647E+03 -0.14741705991E+03  0.41907010231E+03  0.10100000352E+00 0. -1.
       -3    1    3    3    0  502 -0.41666845718E+02 -0.39006643647E+03  0.12087415296E+04  0.12708044879E+04  0.10100000352E+00 0.  1.
</event>
<event>
 5   0  0.1714861E-03  0.1280360E+04  0.7818609E-02  0.9045287E-01
        2   -1    0    0  501    0  0.00000000000E+00  0.00000000000E+00  0.78430433651E+03  0.78430433651E+03  0.25500000920E-02 0. -1.
       -2   -1    0    0    0  501  0.00000000000E+00  0.00000000000E+00 -0.52253985646E+03  0.52253985647E+03  0.25500000920E-02 0.  1.
    10030    2    1    2    0    0  0.00000000000E+00  0.00000000000E+00  0.26176448004E+03  0.13068441930E+04  0.12803597548E+04 0.  0.
        1    1    3    3  502    0 -0.54475101550E+03 -0.15388254176E+03  0.43605988071E+03  0.71455001585E+03  0.50400001928E-02 0. -1.
       -1    1    3    3    0  502  0.54475101550E+03  0.15388254176E+03 -0.17429540067E+03  0.59229417714E+03  0.50400001928E-02 0.  1.
</event>
<event>
 5   0  0.9027076E-04  0.1309363E+04  0.7818609E-02  0.9022173E-01
        1   -1    0    0  501    0  0.00000000000E+00  0.00000000000E+00  0.53878225909E+03  0.53878225912E+03  0.50400001928E-02 0.  1.
       -1   -1    0    0    0  501  0.00000000000E+00  0.00000000000E+00 -0.79551209600E+03  0.79551209602E+03  0.50400001928E-02 0. -1.
    10030    2    1    2    0    0  0.00000000000E+00  0.00000000000E+00 -0.25672983691E+03  0.13342943551E+04  0.13093629050E+04 0.  0.
        5    1    3    3  502    0 -0.47523405730E+03 -0.11193675379E+02  0.33033142317E+03  0.57889001263E+03  0.46999998093E+01 0.  1.
       -5    1    3    3    0  502  0.47523405730E+03  0.11193675379E+02 -0.58706126008E+03  0.75540434251E+03  0.46999998093E+01 0. -1.
</event>
<event>
 5   0  0.1700511E-03  0.1311632E+04  0.7818609E-02  0.9020391E-01
       -2   -1    0    0    0  501  0.00000000000E+00  0.00000000000E+00  0.37853618017E+03  0.37853618017E+03  0.25500000920E-02 0. -1.
        2   -1    0    0  501    0  0.00000000000E+00  0.00000000000E+00 -0.11362047051E+04  0.11362047051E+04  0.25500000920E-02 0.  1.
    10030    2    1    2    0    0  0.00000000000E+00  0.00000000000E+00 -0.75766852493E+03  0.15147408853E+04  0.13116319437E+04 0.  0.
        2    1    3    3  502    0 -0.64374106575E+02  0.33865344361E+03  0.26547013418E+03  0.43509145317E+03  0.25500000920E-02 0. -1.
       -2    1    3    3    0  502  0.64374106575E+02 -0.33865344361E+03 -0.10231386591E+04  0.10796494321E+04  0.25500000920E-02 0.  1.
</event>
<event>
 5   0  0.9110949E-04  0.1298890E+04  0.7818609E-02  0.9030446E-01
        1   -1    0    0  501    0  0.00000000000E+00  0.00000000000E+00  0.14897380912E+04  0.14897380912E+04  0.50400001928E-02 0. -1.
       -1   -1    0    0    0  501  0.00000000000E+00  0.00000000000E+00 -0.28312264642E+03  0.28312264646E+03  0.50400001928E-02 0.  1.
    10030    2    1    2    0    0  0.00000000000E+00  0.00000000000E+00  0.12066154448E+04  0.17728607377E+04  0.12988896657E+04 0.  0.
        2    1    3    3  502    0  0.26333378681E+03 -0.50061459908E+03  0.16777917501E+03  0.59000806068E+03  0.25500000920E-02 0.  1.
       -2    1    3    3    0  502 -0.26333378681E+03  0.50061459908E+03  0.10388362698E+04  0.11828526770E+04  0.25500000920E-02 0. -1.
</event>
<event>
 5   0  0.1623890E-03  0.1284560E+04  0.7818609E-02  0.9041900E-01
        2   -1    0    0  501    0  0.00000000000E+00  0.00000000000E+00  0.85766955947E+03  0.85766955947E+03  0.25500000920E-02 0. -1.
       -2   -1    0    0    0  501  0.00000000000E+00  0.00000000000E+00 -0.48098164749E+03  0.48098164750E+03  0.25500000920E-02 0.  1.
    10030    2    1    2    0    0  0.00000000000E+00  0.00000000000E+00  0.37668791197E+03  0.13386512070E+04  0.12845595630E+04 0.  0.
        3    1    3    3  502    0 -0.52778150822E+03  0.30324940028E+03  0.40193765353E+03  0.72942950771E+03  0.10100000352E+00 0. -1.
       -3    1    3    3    0  502  0.52778150822E+03 -0.30324940028E+03 -0.25249741560E+02  0.60922169926E+03  0.10100000352E+00 0.  1.
</event>
<event>
 5   0  0.9098192E-04  0.1305849E+04  0.7818609E-02  0.9024940E-01
       -1   -1    0    0    0  501  0.00000000000E+00  0.00000000000E+00  0.40708342574E+03  0.40708342578E+03  0.50400001928E-02 0. -1.
        1   -1    0    0  501    0  0.00000000000E+00  0.00000000000E+00 -0.10472306986E+04  0.10472306987E+04  0.50400001928E-02 0.  1.
    10030    2    1    2    0    0  0.00000000000E+00  0.00000000000E+00 -0.64014727290E+03  0.14543141244E+04  0.13058487820E+04 0.  0.
        1    1    3    3  502    0 -0.29098796858E+03  0.46513779532E+03  0.74121778566E+02  0.55364357179E+03  0.50400001928E-02 0. -1.
       -1    1    3    3    0  502  0.29098796858E+03 -0.46513779532E+03 -0.71426905147E+03  0.90067055265E+03  0.50400001928E-02 0.  1.
</event>
<event>
 5   0  0.1623890E-03  0.1297606E+04  0.7818609E-02  0.9031466E-01
       -2   -1    0    0    0  501  0.00000000000E+00  0.00000000000E+00  0.33670178132E+03  0.33670178133E+03  0.25500000920E-02 0.  1.
        2   -1    0    0  501    0  0.00000000000E+00  0.00000000000E+00 -0.12502019982E+04  0.12502019982E+04  0.25500000920E-02 0. -1.
    10030    2    1    2    0    0  0.00000000000E+00  0.00000000000E+00 -0.91350021686E+03  0.15869037795E+04  0.12976058567E+04 0.  0.
        3    1    3    3  502    0  0.34352411629E+03  0.15915970907E+03 -0.11010990584E+04  0.11643709796E+04  0.10100000352E+00 0. -1.
       -3    1    3    3    0  502 -0.34352411629E+03 -0.15915970907E+03  0.18759884156E+03  0.42253279993E+03  0.10100000352E+00 0.  1.
</event>
<event>
 5   0  0.9215829E-04  0.1291872E+04  0.7818609E-02  0.9036035E-01
       -1   -1    0    0    0  501  0.00000000000E+00  0.00000000000E+00  0.26423818060E+03  0.26423818065E+03  0.50400001928E-02 0.  1.
        1   -1    0    0  501    0  0.00000000000E+00  0.00000000000E+00 -0.15790055174E+04  0.15790055174E+04  0.50400001928E-02 0. -1.
    10030    2    1    2    0    0  0.00000000000E+00  0.00000000000E+00 -0.13147673368E+04  0.18432436980E+04  0.12918723546E+04 0.  0.
        3    1    3    3  502    0  0.68652376849E+02  0.15313208944E+03 -0.15473581524E+04  0.15564317677E+04  0.10100000352E+00 0. -1.
       -3    1    3    3    0  502 -0.68652376849E+02 -0.15313208944E+03  0.23259081560E+03  0.28681193030E+03  0.10100000352E+00 0.  1.
</event>
<event>
 5   0  0.9027076E-04  0.1304076E+04  0.7818609E-02  0.9026339E-01
       -1   -1    0    0    0  501  0.00000000000E+00  0.00000000000E+00  0.40698848180E+03  0.40698848183E+03  0.50400001928E-02 0.  1.
        1   -1    0    0  501    0  0.00000000000E+00  0.00000000000E+00 -0.10446328060E+04  0.10446328060E+04  0.50400001928E-02 0. -1.
    10030    2    1    2    0    0  0.00000000000E+00  0.00000000000E+00 -0.63764432417E+03  0.14516212878E+04  0.13040759483E+04 0.  0.
        5    1    3    3  502    0 -0.18129697229E+03  0.43454373925E+02  0.37666832553E+03  0.42030702139E+03  0.46999998093E+01 0.  1.
       -5    1    3    3    0  502  0.18129697229E+03 -0.43454373925E+02 -0.10143126497E+04  0.10313142664E+04  0.46999998093E+01 0. -1.
</event>
<event>
 5   0  0.9215829E-04  0.1301569E+04  0.7818609E-02  0.9028322E-01
        1   -1    0    0  501    0  0.00000000000E+00  0.00000000000E+00  0.84465157940E+03  0.84465157941E+03  0.50400001928E-02 0. -1.
       -1   -1    0    0    0  501  0.00000000000E+00  0.00000000000E+00 -0.50141420302E+03  0.50141420305E+03  0.50400001928E-02 0.  1.
    10030    2    1    2    0    0  0.00000000000E+00  0.00000000000E+00  0.34323737638E+03  0.13460657825E+04  0.13015687435E+04 0.  0.
        3    1    3    3  502    0 -0.18001083239E+03  0.24404869673E+03  0.76711356157E+03  0.82487992623E+03  0.10100000352E+00 0. -1.
       -3    1    3    3    0  502  0.18001083239E+03 -0.24404869673E+03 -0.42387618520E+03  0.52118585623E+03  0.10100000352E+00 0.  1.
</event>
<event>
 5   0  0.1667342E-03  0.1293104E+04  0.7818609E-02  0.9035051E-01
        2   -1    0    0  501    0  0.00000000000E+00  0.00000000000E+00  0.49648126587E+03  0.49648126588E+03  0.25500000920E-02 0.  1.
       -2   -1    0    0    0  501  0.00000000000E+00  0.00000000000E+00 -0.84198479983E+03  0.84198479983E+03  0.25500000920E-02 0. -1.
    10030    2    1    2    0    0  0.00000000000E+00  0.00000000000E+00 -0.34550353395E+03  0.13384660657E+04  0.12931042947E+04 0.  0.
        5    1    3    3  502    0  0.91062537344E+02  0.33489288591E+03  0.39187636825E+03  0.52348334141E+03  0.46999998093E+01 0.  1.
       -5    1    3    3    0  502 -0.91062537344E+02 -0.33489288591E+03 -0.73737990220E+03  0.81498272430E+03  0.46999998093E+01 0. -1.
</event>
<event>
 5   0  0.1714861E-03  0.1292943E+04  0.7818609E-02  0.9035180E-01
       -2   -1    0    0    0  501  0.00000000000E+00  0.00000000000E+00  0.21515112476E+03  0.21515112477E+03  0.25500000920E-02 0. -1.
        2   -1    0    0  501    0  0.00000000000E+00  0.00000000000E+00 -0.19424741015E+04  0.19424741015E+04  0.25500000920E-02 0.  1.
    10030    2    1    2    0    0  0.00000000000E+00  0.00000000000E+00 -0.17273229767E+04  0.21576252262E+04  0.12929431353E+04 0.  0.
        1    1    3    3  502    0 -0.51963102200E+02 -0.14978657981E+03 -0.19095283754E+04  0.19160988492E+04  0.50400001928E-02 0.  1.
       -1    1    3    3    0  502  0.51963102200E+02  0.14978657981E+03  0.18220539867E+03  0.24152637705E+03  0.50400001928E-02 0. -1.
</event>
<event>
 5   0  0.1714861E-03  0.1299935E+04  0.7818609E-02  0.9029616E-01
       -2   -1    0    0    0  501  0.00000000000E+00  0.00000000000E+00  0.58539746265E+03  0.58539746265E+03  0.25500000920E-02 0. -1.
        2   -1    0    0  501    0  0.00000000000E+00  0.00000000000E+00 -0.72166011897E+03  0.72166011898E+03  0.25500000920E-02 0.  1.
    10030    2    1    2    0    0  0.00000000000E+00  0.00000000000E+00 -0.13626265633E+03  0.13070575816E+04  0.12999353869E+04 0.  0.
        1    1    3    3  502    0  0.35176488970E+03  0.31531257703E+03 -0.51700467468E+03  0.70032449087E+03  0.50400001928E-02 0.  1.
       -1    1    3    3    0  502 -0.35176488970E+03 -0.31531257703E+03  0.38074201835E+03  0.60673309076E+03  0.50400001928E-02 0. -1.
</event>
<event>
 5   0  0.9110949E-04  0.1276405E+04  0.7818609E-02  0.9048488E-01
        1   -1    0    0  501    0  0.00000000000E+00  0.00000000000E+00  0.13210322954E+04  0.13210322954E+04  0.50400001928E-02 0. -1.
       -1   -1    0    0    0  501  0.00000000000E+00  0.00000000000E+00 -0.30832138842E+03  0.30832138847E+03  0.50400001928E-02 0.  1.
    10030    2    1    2    0    0  0.00000000000E+00  0.00000000000E+00  0.10127109070E+04  0.16293536839E+04  0.12764051262E+04 0.  0.
        2    1    3    3  502    0 -0.11211508868E+03  0.31367239872E+03  0.12012576486E+04  0.12465873837E+04  0.25500000920E-02 0. -1.
       -2    1    3    3    0  502  0.11211508868E+03 -0.31367239872E+03 -0.18854674158E+03  0.38276630024E+03  0.25500000920E-02 0.  1.
</event>
<event>
 5   0  0.6284125E-04  0.1253682E+04  0.7818609E-02  0.9067125E-01
        4   -1    0    0  501    0  0.00000000000E+00  0.00000000000E+00  0.24706053318E+03  0.24706379734E+03  0.12699999809E+01 0. -1.
       -4   -1    0    0    0  501  0.00000000000E+00  0.00000000000E+00 -0.15904036110E+04  0.15904041180E+04  0.12699999809E+01 0.  1.
    10030    2    1    2    0    0  0.00000000000E+00  0.00000000000E+00 -0.13433430778E+04  0.18374679154E+04  0.12536816643E+04 0.  0.
        3    1    3    3  502    0  0.92933401909E+02  0.41303887395E+03  0.58549936824E+01  0.42340526654E+03  0.10100000352E+00 0.  1.
       -3    1    3    3    0  502 -0.92933401909E+02 -0.41303887395E+03 -0.13491980715E+04  0.14140626488E+04  0.10100000352E+00 0. -1.
</event>
<event>
 5   0  0.1700511E-03  0.1240567E+04  0.7818609E-02  0.9078071E-01
        2   -1    0    0  501    0  0.00000000000E+00  0.00000000000E+00  0.52094317179E+03  0.52094317179E+03  0.25500000920E-02 0. -1.
       -2   -1    0    0    0  501  0.00000000000E+00  0.00000000000E+00 -0.73856688967E+03  0.73856688968E+03  0.25500000920E-02 0.  1.
    10030    2    1    2    0    0  0.00000000000E+00  0.00000000000E+00 -0.21762371789E+03  0.12595100615E+04  0.12405666094E+04 0.  0.
        2    1    3    3  502    0 -0.17849897452E+03 -0.20046629897E+03  0.45892541581E+03  0.53165887391E+03  0.25500000920E-02 0. -1.
       -2    1    3    3    0  502  0.17849897452E+03  0.20046629897E+03 -0.67654913369E+03  0.72785118756E+03  0.25500000920E-02 0.  1.
</event>
<event>
 5   0  0.9027076E-04  0.1304348E+04  0.7818609E-02  0.9026124E-01
       -1   -1    0    0    0  501  0.00000000000E+00  0.00000000000E+00  0.47503039358E+03  0.47503039361E+03  0.50400001928E-02 0.  1.
        1   -1    0    0  501    0  0.00000000000E+00  0.00000000000E+00 -0.89537643110E+03  0.89537643112E+03  0.50400001928E-02 0. -1.
    10030    2    1    2    0    0  0.00000000000E+00  0.00000000000E+00 -0.42034603752E+03  0.13704068247E+04  0.13043481414E+04 0.  0.
        5    1    3    3  502    0  0.75431972895E+02  0.20850263100E+03 -0.85454104346E+03  0.88285095833E+03  0.46999998093E+01 0. -1.
       -5    1    3    3    0  502 -0.75431972895E+02 -0.20850263100E+03  0.43419500594E+03  0.48755586639E+03  0.46999998093E+01 0.  1.
</event>
<event>
 5   0  0.9081324E-04  0.1292587E+04  0.7818609E-02  0.9035464E-01
       -1   -1    0    0    0  501  0.00000000000E+00  0.00000000000E+00  0.28040970643E+03  0.28040970648E+03  0.50400001928E-02 0.  1.
        1   -1    0    0  501    0  0.00000000000E+00  0.00000000000E+00 -0.14895902605E+04  0.14895902605E+04  0.50400001928E-02 0. -1.
    10030    2    1    2    0    0  0.00000000000E+00  0.00000000000E+00 -0.12091805541E+04  0.17699999670E+04  0.12925874325E+04 0.  0.
        4    1    3    3  502    0  0.45482059448E+03 -0.11093678132E+03 -0.12147185685E+04  0.13018108758E+04  0.12699999809E+01 0. -1.
       -4    1    3    3    0  502 -0.45482059448E+03  0.11093678132E+03  0.55380144851E+01  0.46818909120E+03  0.12699999809E+01 0.  1.
</event>
<event>
 5   0  0.9215829E-04  0.1296021E+04  0.7818609E-02  0.9032726E-01
       -1   -1    0    0    0  501  0.00000000000E+00  0.00000000000E+00  0.55361859294E+03  0.55361859296E+03  0.50400001928E-02 0.  1.
        1   -1    0    0  501    0  0.00000000000E+00  0.00000000000E+00 -0.75849624148E+03  0.75849624150E+03  0.50400001928E-02 0. -1.
    10030    2    1    2    0    0  0.00000000000E+00  0.00000000000E+00 -0.20487764854E+03  0.13121148345E+04  0.12960210214E+04 0.  0.
        3    1    3    3  502    0 -0.43366207839E+03  0.37411691746E+03 -0.40933897755E+03  0.70397775171E+03  0.10100000352E+00 0. -1.
       -3    1    3    3    0  502  0.43366207839E+03 -0.37411691746E+03  0.20446132900E+03  0.60813708275E+03  0.10100000352E+00 0.  1.
</event>
<event>
 5   0  0.9027076E-04  0.1281430E+04  0.7818609E-02  0.9044422E-01
        1   -1    0    0  501    0  0.00000000000E+00  0.00000000000E+00  0.25547819456E+03  0.25547819461E+03  0.50400001928E-02 0. -1.
       -1   -1    0    0    0  501  0.00000000000E+00  0.00000000000E+00 -0.16068524205E+04  0.16068524205E+04  0.50400001928E-02 0.  1.
    10030    2    1    2    0    0  0.00000000000E+00  0.00000000000E+00 -0.13513742259E+04  0.18623306151E+04  0.12814300689E+04 0.  0.
        5    1    3    3  502    0 -0.24645926814E+03  0.12145063178E+01 -0.15351769502E+04  0.15548421156E+04  0.46999998093E+01 0.  1.
       -5    1    3    3    0  502  0.24645926814E+03 -0.12145063178E+01  0.18380272430E+03  0.30748849952E+03  0.46999998093E+01 0. -1.
</event>
<event>
 5   0  0.1700511E-03  0.1326465E+04  0.7818609E-02  0.9008837E-01
        2   -1    0    0  501    0  0.00000000000E+00  0.00000000000E+00  0.67680466847E+03  0.67680466847E+03  0.25500000920E-02 0.  1.
       -2   -1    0    0    0  501  0.00000000000E+00  0.00000000000E+00 -0.64993256980E+03  0.64993256980E+03  0.25500000920E-02 0. -1.
    10030    2    1    2    0    0  0.00000000000E+00  0.00000000000E+00  0.26872098668E+02  0.13267372383E+04  0.13264650729E+04 0.  0.
        2    1    3    3  502    0  0.26302964743E+02  0.61770243297E+03 -0.22667414838E+03  0.65850536156E+03  0.25500000920E-02 0. -1.
       -2    1    3    3    0  502 -0.26302964743E+02 -0.61770243297E+03  0.25354624705E+03  0.66823187671E+03  0.25500000920E-02 0.  1.
</event>
<event>
 5   0  0.1700511E-03  0.1250545E+04  0.7818609E-02  0.9069730E-01
        2   -1    0    0  501    0  0.00000000000E+00  0.00000000000E+00  0.17153620511E+04  0.17153620511E+04  0.25500000920E-02 0.  1.
       -2   -1    0    0    0  501  0.00000000000E+00  0.00000000000E+00 -0.22792005087E+03  0.22792005089E+03  0.25500000920E-02 0. -1.
    10030    2    1    2    0    0  0.00000000000E+00  0.00000000000E+00  0.14874420002E+04  0.19432821020E+04  0.12505445309E+04 0.  0.
        2    1    3    3  502    0 -0.27425501759E+03  0.33400469570E+03  0.14459106236E+04  0.15091164577E+04  0.25500000920E-02 0.  1.
       -2    1    3    3    0  502  0.27425501759E+03 -0.33400469570E+03  0.41531376603E+02  0.43416564428E+03  0.25500000920E-02 0. -1.
</event>
<event>
 5   0  0.9081324E-04  0.1278858E+04  0.7818609E-02  0.9046501E-01
       -1   -1    0    0    0  501  0.00000000000E+00  0.00000000000E+00  0.35960419188E+03  0.35960419191E+03  0.50400001928E-02 0.  1.
        1   -1    0    0  501    0  0.00000000000E+00  0.00000000000E+00 -0.11369986965E+04  0.11369986965E+04  0.50400001928E-02 0. -1.
    10030    2    1    2    0    0  0.00000000000E+00  0.00000000000E+00 -0.77739450465E+03  0.14966028884E+04  0.12788580804E+04 0.  0.
        4    1    3    3  502    0 -0.80690652913E+02 -0.63299351750E+03 -0.43660827848E+03  0.77318831885E+03  0.12699999809E+01 0. -1.
       -4    1    3    3    0  502  0.80690652913E+02  0.63299351750E+03 -0.34078622616E+03  0.72341456960E+03  0.12699999809E+01 0.  1.
</event>
<event>
 5   0  0.9098192E-04  0.1297744E+04  0.7818609E-02  0.9031356E-01
        1   -1    0    0  501    0  0.00000000000E+00  0.00000000000E+00  0.14451201984E+04  0.14451201984E+04  0.50400001928E-02 0.  1.
       -1   -1    0    0    0  501  0.00000000000E+00  0.00000000000E+00 -0.29134931628E+03  0.29134931632E+03  0.50400001928E-02 0. -1.
    10030    2    1    2    0    0  0.00000000000E+00  0.00000000000E+00  0.11537708821E+04  0.17364695147E+04  0.12977438604E+04 0.  0.
        1    1    3    3  502    0 -0.53293482344E+02 -0.95349990095E+02 -0.27895833045E+03  0.29958231928E+03  0.50400001928E-02 0. -1.
       -1    1    3    3    0  502  0.53293482344E+02  0.95349990095E+02  0.14327292126E+04  0.14368871955E+04  0.50400001928E-02 0.  1.
</event>
<event>
 5   0  0.9098192E-04  0.1297092E+04  0.7818609E-02  0.9031875E-01
        1   -1    0    0  501    0  0.00000000000E+00  0.00000000000E+00  0.43207630170E+03  0.43207630173E+03  0.50400001928E-02 0.  1.
       -1   -1    0    0    0  501  0.00000000000E+00  0.00000000000E+00 -0.97346617112E+03  0.97346617113E+03  0.50400001928E-02 0. -1.
    10030    2    1    2    0    0  0.00000000000E+00  0.00000000000E+00 -0.54138986942E+03  0.14055424729E+04  0.12970916129E+04 0.  0.
        1    1    3    3  502    0  0.20871149639E+03  0.33508588185E+03  0.28688428976E+03  0.48800167282E+03  0.50400001928E-02 0.  1.
       -1    1    3    3    0  502 -0.20871149639E+03 -0.33508588185E+03 -0.82827415918E+03  0.91754080003E+03  0.50400001928E-02 0. -1.
</event>
<event>
 5   0  0.6284125E-04  0.1360088E+04  0.7818609E-02  0.8983227E-01
        3   -1    0    0  501    0  0.00000000000E+00  0.00000000000E+00  0.67638051830E+03  0.67638052584E+03  0.10100000352E+00 0.  1.
       -3   -1    0    0    0  501  0.00000000000E+00  0.00000000000E+00 -0.68372689085E+03  0.68372689831E+03  0.10100000352E+00 0. -1.
    10030    2    1    2    0    0  0.00000000000E+00  0.00000000000E+00 -0.73463725500E+01  0.13601074242E+04  0.13600875840E+04 0.  0.
        3    1    3    3  502    0  0.30331022841E+02  0.61080453339E+02 -0.68029871985E+03  0.68370838167E+03  0.10100000352E+00 0. -1.
       -3    1    3    3    0  502 -0.30331022841E+02 -0.61080453339E+02  0.67295234730E+03  0.67639904248E+03  0.10100000352E+00 0.  1.
</event>
<event>
 5   0  0.9027076E-04  0.1298221E+04  0.7818609E-02  0.9030977E-01
        1   -1    0    0  501    0  0.00000000000E+00  0.00000000000E+00  0.57508421068E+03  0.57508421071E+03  0.50400001928E-02 0. -1.
       -1   -1    0    0    0  501  0.00000000000E+00  0.00000000000E+00 -0.73266582608E+03  0.73266582610E+03  0.50400001928E-02 0.  1.
    10030    2    1    2    0    0  0.00000000000E+00  0.00000000000E+00 -0.15758161540E+03  0.13077500368E+04  0.12982211650E+04 0.  0.
        5    1    3    3  502    0 -0.38991126659E+02  0.41241880703E+03 -0.58217146755E+03  0.71453151644E+03  0.46999998093E+01 0.  1.
       -5    1    3    3    0  502  0.38991126659E+02 -0.41241880703E+03  0.42458985216E+03  0.59321852037E+03  0.46999998093E+01 0. -1.
</event>
<event>
 5   0  0.1714861E-03  0.1296116E+04  0.7818609E-02  0.9032651E-01
       -2   -1    0    0    0  501  0.00000000000E+00  0.00000000000E+00  0.95142942903E+03  0.95142942903E+03  0.25500000920E-02 0.  1.
        2   -1    0    0  501    0  0.00000000000E+00  0.00000000000E+00 -0.44141924941E+03  0.44141924942E+03  0.25500000920E-02 0. -1.
    10030    2    1    2    0    0  0.00000000000E+00  0.00000000000E+00  0.51001017962E+03  0.13928486785E+04  0.12961161436E+04 0.  0.
        1    1    3    3  502    0  0.12308979761E+03  0.77576725052E+02 -0.42364052319E+03  0.44792916790E+03  0.50400001928E-02 0. -1.
       -1    1    3    3    0  502 -0.12308979761E+03 -0.77576725052E+02  0.93365070281E+03  0.94491951055E+03  0.50400001928E-02 0.  1.
</event>
<event>
 5   0  0.1623890E-03  0.1247545E+04  0.7818609E-02  0.9072229E-01
       -2   -1    0    0    0  501  0.00000000000E+00  0.00000000000E+00  0.44780842732E+03  0.44780842733E+03  0.25500000920E-02 0.  1.
        2   -1    0    0  501    0  0.00000000000E+00  0.00000000000E+00 -0.86888014127E+03  0.86888014128E+03  0.25500000920E-02 0. -1.
    10030    2    1    2    0    0  0.00000000000E+00  0.00000000000E+00 -0.42107171395E+03  0.13166885686E+04  0.12475445477E+04 0.  0.
        3    1    3    3  502    0 -0.40355563902E+03 -0.47515420190E+03 -0.23325004575E+03  0.66560819061E+03  0.10100000352E+00 0. -1.
       -3    1    3    3    0  502  0.40355563902E+03  0.47515420190E+03 -0.18782166820E+03  0.65108037800E+03  0.10100000352E+00 0.  1.
</event>
<event>
 5   0  0.1714861E-03  0.1324032E+04  0.7818609E-02  0.9010722E-01
        2   -1    0    0  501    0  0.00000000000E+00  0.00000000000E+00  0.20952967448E+04  0.20952967448E+04  0.25500000920E-02 0.  1.
       -2   -1    0    0    0  501  0.00000000000E+00  0.00000000000E+00 -0.20916622627E+03  0.20916622628E+03  0.25500000920E-02 0. -1.
    10030    2    1    2    0    0  0.00000000000E+00  0.00000000000E+00  0.18861305186E+04  0.23044629711E+04  0.13240321945E+04 0.  0.
        1    1    3    3  502    0 -0.17759542205E+03  0.60143438030E+03  0.13122863037E+04  0.14544273067E+04  0.50400001928E-02 0.  1.
       -1    1    3    3    0  502  0.17759542205E+03 -0.60143438030E+03  0.57384421491E+03  0.85003566440E+03  0.50400001928E-02 0. -1.
</event>
<event>
 5   0  0.1623890E-03  0.1292822E+04  0.7818609E-02  0.9035277E-01
        2   -1    0    0  501    0  0.00000000000E+00  0.00000000000E+00  0.51987660469E+03  0.51987660470E+03  0.25500000920E-02 0. -1.
       -2   -1    0    0    0  501  0.00000000000E+00  0.00000000000E+00 -0.80374268855E+03  0.80374268855E+03  0.25500000920E-02 0.  1.
    10030    2    1    2    0    0  0.00000000000E+00  0.00000000000E+00 -0.28386608386E+03  0.13236192932E+04  0.12928217510E+04 0.  0.
        3    1    3    3  502    0  0.49423823092E+03  0.23905301343E+03  0.20741270914E+03  0.58688824681E+03  0.10100000352E+00 0.  1.
       -3    1    3    3    0  502 -0.49423823092E+03 -0.23905301343E+03 -0.49127879299E+03  0.73673104644E+03  0.10100000352E+00 0. -1.
</event>
<event>
 5   0  0.1667342E-03  0.1283505E+04  0.7818609E-02  0.9042749E-01
       -2   -1    0    0    0  501  0.00000000000E+00  0.00000000000E+00  0.16934788314E+04  0.16934788314E+04  0.25500000920E-02 0.  1.
        2   -1    0    0  501    0  0.00000000000E+00  0.00000000000E+00 -0.24319528463E+03  0.24319528464E+03  0.25500000920E-02 0. -1.
    10030    2    1    2    0    0  0.00000000000E+00  0.00000000000E+00  0.14502835467E+04  0.19366741160E+04  0.12835046808E+04 0.  0.
        5    1    3    3  502    0 -0.60242463893E+03  0.21894968691E+03  0.67815802598E+03  0.93315315420E+03  0.46999998093E+01 0.  1.
       -5    1    3    3    0  502  0.60242463893E+03 -0.21894968691E+03  0.77212552076E+03  0.10035209618E+04  0.46999998093E+01 0. -1.
</event>
<event>
 5   0  0.6284125E-04  0.1299318E+04  0.7818609E-02  0.9030106E-01
       -4   -1    0    0    0  501  0.00000000000E+00  0.00000000000E+00  0.31064523672E+03  0.31064783276E+03  0.12699999809E+01 0. -1.
        4   -1    0    0  501    0  0.00000000000E+00  0.00000000000E+00 -0.13586380778E+04  0.13586386713E+04  0.12699999809E+01 0.  1.
    10030    2    1    2    0    0  0.00000000000E+00  0.00000000000E+00 -0.10479928411E+04  0.16692865041E+04  0.12993184513E+04 0.  0.
        3    1    3    3  502    0 -0.11902891619E+03 -0.48053001700E+03 -0.10644737947E+04  0.11739597310E+04  0.10100000352E+00 0.  1.
       -3    1    3    3    0  502  0.11902891619E+03  0.48053001700E+03  0.16480953679E+02  0.49532677311E+03  0.10100000352E+00 0. -1.
</event>
<event>
 5   0  0.9098192E-04  0.1265235E+04  0.7818609E-02  0.9057598E-01
       -1   -1    0    0    0  501  0.00000000000E+00  0.00000000000E+00  0.22405273427E+03  0.22405273433E+03  0.50400001928E-02 0. -1.
        1   -1    0    0  501    0  0.00000000000E+00  0.00000000000E+00 -0.17862071293E+04  0.17862071293E+04  0.50400001928E-02 0.  1.
    10030    2    1    2    0    0  0.00000000000E+00  0.00000000000E+00 -0.15621543950E+04  0.20102598637E+04  0.12652345101E+04 0.  0.
        1    1    3    3  502    0  0.23643382280E+02 -0.35782785569E+03 -0.16091144947E+04  0.16485900767E+04  0.50400001928E-02 0.  1.
       -1    1    3    3    0  502 -0.23643382280E+02  0.35782785569E+03  0.46960099653E+02  0.36166978698E+03  0.50400001928E-02 0. -1.
</event>
<event>
 5   0  0.1714861E-03  0.1278074E+04  0.7818609E-02  0.9047136E-01
        2   -1    0    0  501    0  0.00000000000E+00  0.00000000000E+00  0.77030130009E+03  0.77030130009E+03  0.25500000920E-02 0.  1.
       -2   -1    0    0    0  501  0.00000000000E+00  0.00000000000E+00 -0.53014058189E+03  0.53014058190E+03  0.25500000920E-02 0. -1.
    10030    2    1    2    0    0  0.00000000000E+00  0.00000000000E+00  0.24016071819E+03  0.13004418820E+04  0.12780735182E+04 0.  0.
        1    1    3    3  502    0  0.58669767609E+03 -0.18575041866E+03 -0.55126797675E+02  0.61786434191E+03  0.50400001928E-02 0.  1.
       -1    1    3    3    0  502 -0.58669767609E+03  0.18575041866E+03  0.29528751587E+03  0.68257754007E+03  0.50400001928E-02 0. -1.
</event>
<event>
 5   0  0.9215829E-04  0.1106453E+04  0.7818609E-02  0.9198925E-01
       -1   -1    0    0    0  501  0.00000000000E+00  0.00000000000E+00  0.22545067426E+03  0.22545067432E+03  0.50400001928E-02 0.  1.
        1   -1    0    0  501    0  0.00000000000E+00  0.00000000000E+00 -0.13575466536E+04  0.13575466536E+04  0.50400001928E-02 0. -1.
    10030    2    1    2    0    0  0.00000000000E+00  0.00000000000E+00 -0.11320959794E+04  0.15829973280E+04  0.11064534486E+04 0.  0.
        3    1    3    3  502    0 -0.13952877628E+03 -0.11157243206E+03 -0.13151409292E+04  0.13272197862E+04  0.10100000352E+00 0. -1.
       -3    1    3    3    0  502  0.13952877628E+03  0.11157243206E+03  0.18304494984E+03  0.25577754176E+03  0.10100000352E+00 0.  1.
</event>
<event>
 5   0  0.9110949E-04  0.1311100E+04  0.7818609E-02  0.9020808E-01
        1   -1    0    0  501    0  0.00000000000E+00  0.00000000000E+00  0.10282795050E+04  0.10282795050E+04  0.50400001928E-02 0. -1.
       -1   -1    0    0    0  501  0.00000000000E+00  0.00000000000E+00 -0.41792729992E+03  0.41792729995E+03  0.50400001928E-02 0.  1.
    10030    2    1    2    0    0  0.00000000000E+00  0.00000000000E+00  0.61035220509E+03  0.14462068050E+04  0.13111004189E+04 0.  0.
        2    1    3    3  502    0 -0.77980398390E+02 -0.24104594578E+03 -0.36174576705E+03  0.44163796315E+03  0.25500000920E-02 0.  1.
       -2    1    3    3    0  502  0.77980398390E+02  0.24104594578E+03  0.97209797214E+03  0.10045688418E+04  0.25500000920E-02 0. -1.
</event>
<event>
 5   0  0.9081324E-04  0.1283419E+04  0.7818609E-02  0.9042818E-01
       -1   -1    0    0    0  501  0.00000000000E+00  0.00000000000E+00  0.75293518872E+03  0.75293518874E+03  0.50400001928E-02 0. -1.
        1   -1    0    0  501    0  0.00000000000E+00  0.00000000000E+00 -0.54691448049E+03  0.54691448051E+03  0.50400001928E-02 0.  1.
    10030    2    1    2    0    0  0.00000000000E+00  0.00000000000E+00  0.20602070824E+03  0.12998496692E+04  0.12834191172E+04 0.  0.
        4    1    3    3  502    0  0.49217612787E+03  0.31239153558E+03 -0.16868453178E+03  0.60686233737E+03  0.12699999809E+01 0.  1.
       -4    1    3    3    0  502 -0.49217612787E+03 -0.31239153558E+03  0.37470524002E+03  0.69298733188E+03  0.12699999809E+01 0. -1.
</event>
<event>
 5   0  0.1694675E-03  0.1313576E+04  0.7818609E-02  0.9018868E-01
        2   -1    0    0  501    0  0.00000000000E+00  0.00000000000E+00  0.12910547950E+04  0.12910547951E+04  0.25500000920E-02 0.  1.
       -2   -1    0    0    0  501  0.00000000000E+00  0.00000000000E+00 -0.33412237716E+03  0.33412237717E+03  0.25500000920E-02 0. -1.
    10030    2    1    2    0    0  0.00000000000E+00  0.00000000000E+00  0.95693241788E+03  0.16251771722E+04  0.13135757263E+04 0.  0.
        4    1    3    3  502    0 -0.50681140861E+02 -0.45048813334E+03  0.10664505871E+04  0.11588039541E+04  0.12699999809E+01 0.  1.
       -4    1    3    3    0  502  0.50681140861E+02  0.45048813334E+03 -0.10951816923E+03  0.46637321816E+03  0.12699999809E+01 0. -1.
</event>
<event>
 5   0  0.9027076E-04  0.1296598E+04  0.7818609E-02  0.9032267E-01
       -1   -1    0    0    0  501  0.00000000000E+00  0.00000000000E+00  0.49458583140E+03  0.49458583142E+03  0.50400001928E-02 0. -1.
        1   -1    0    0  501    0  0.00000000000E+00  0.00000000000E+00 -0.84978491679E+03  0.84978491681E+03  0.50400001928E-02 0.  1.
    10030    2    1    2    0    0  0.00000000000E+00  0.00000000000E+00 -0.35519908540E+03  0.13443707482E+04  0.12965979787E+04 0.  0.
        5    1    3    3  502    0  0.34841816867E+03  0.23826872143E+03 -0.68776747760E+03  0.80697794091E+03  0.46999998093E+01 0.  1.
       -5    1    3    3    0  502 -0.34841816867E+03 -0.23826872143E+03  0.33256839220E+03  0.53739280732E+03  0.46999998093E+01 0. -1.
</event>
<event>
 5   0  0.9027076E-04  0.1296955E+04  0.7818609E-02  0.9031983E-01
        1   -1    0    0  501    0  0.00000000000E+00  0.00000000000E+00  0.65445009911E+03  0.65445009912E+03  0.50400001928E-02 0.  1.
       -1   -1    0    0    0  501  0.00000000000E+00  0.00000000000E+00 -0.64255936514E+03  0.64255936516E+03  0.50400001928E-02 0. -1.
    10030    2    1    2    0    0  0.00000000000E+00  0.00000000000E+00  0.11890733966E+02  0.12970094643E+04  0.12969549572E+04 0.  0.
        5    1    3    3  502    0 -0.21288659001E+03 -0.75988759473E+02  0.61375866822E+03  0.65407704789E+03  0.46999998093E+01 0.  1.
       -5    1    3    3    0  502  0.21288659001E+03  0.75988759473E+02 -0.60186793425E+03  0.64293241639E+03  0.46999998093E+01 0. -1.
</event>
<event>
 5   0  0.9027076E-04  0.1298593E+04  0.7818609E-02  0.9030681E-01
        1   -1    0    0  501    0  0.00000000000E+00  0.00000000000E+00  0.94553981244E+03  0.94553981246E+03  0.50400001928E-02 0. -1.
       -1   -1    0    0    0  501  0.00000000000E+00  0.00000000000E+00 -0.44586819039E+03  0.44586819042E+03  0.50400001928E-02 0.  1.
    10030    2    1    2    0    0  0.00000000000E+00  0.00000000000E+00  0.49967162206E+03  0.13914080029E+04  0.12985932776E+04 0.  0.
        5    1    3    3  502    0  0.17660025459E+03  0.13126108073E+03  0.90435332731E+03  0.93074924219E+03  0.46999998093E+01 0. -1.
       -5    1    3    3    0  502 -0.17660025459E+03 -0.13126108073E+03 -0.40468170525E+03  0.46065876068E+03  0.46999998093E+01 0.  1.
</event>
<event>
 5   0  0.1667342E-03  0.1301960E+04  0.7818609E-02  0.9028012E-01
        2   -1    0    0  501    0  0.00000000000E+00  0.00000000000E+00  0.68766642737E+03  0.68766642738E+03  0.25500000920E-02 0. -1.
       -2   -1    0    0    0  501  0.00000000000E+00  0.00000000000E+00 -0.61625054766E+03  0.61625054766E+03  0.25500000920E-02 0.  1.
    10030    2    1    2    0    0  0.00000000000E+00  0.00000000000E+00  0.71415879713E+02  0.13039169750E+04  0.13019597728E+04 0.  0.
        5    1    3    3  502    0  0.64023941777E+03 -0.85561895521E+02  0.11660915150E+03  0.65638946841E+03  0.46999998093E+01 0.  1.
       -5    1    3    3    0  502 -0.64023941777E+03  0.85561895521E+02 -0.45193271782E+02  0.64752750663E+03  0.46999998093E+01 0. -1.
</event>
<event>
 5   0  0.1623890E-03  0.1310957E+04  0.7818609E-02  0.9020921E-01
        2   -1    0    0  501    0  0.00000000000E+00  0.00000000000E+00  0.46681476608E+03  0.46681476609E+03  0.25500000920E-02 0. -1.
       -2   -1    0    0    0  501  0.00000000000E+00  0.00000000000E+00 -0.92039099885E+03  0.92039099886E+03  0.25500000920E-02 0.  1.
    10030    2    1    2    0    0  0.00000000000E+00  0.00000000000E+00 -0.45357623277E+03  0.13872057649E+04  0.13109570685E+04 0.  0.
        3    1    3    3  502    0  0.25896033423E+03  0.41533531817E+03 -0.68813757409E+03  0.84445083474E+03  0.10100000352E+00 0.  1.
       -3    1    3    3    0  502 -0.25896033423E+03 -0.41533531817E+03  0.23456134132E+03  0.54275493021E+03  0.10100000352E+00 0. -1.
</event>
<event>
 5   0  0.9110949E-04  0.1292967E+04  0.7818609E-02  0.9035161E-01
       -1   -1    0    0    0  501  0.00000000000E+00  0.00000000000E+00  0.19390298999E+03  0.19390299005E+03  0.50400001928E-02 0. -1.
        1   -1    0    0  501    0  0.00000000000E+00  0.00000000000E+00 -0.21554124141E+04  0.21554124142E+04  0.50400001928E-02 0.  1.
    10030    2    1    2    0    0  0.00000000000E+00  0.00000000000E+00 -0.19615094242E+04  0.23493154042E+04  0.12929669939E+04 0.  0.
        2    1    3    3  502    0  0.81319737044E+02 -0.57866652693E+03 -0.14832223896E+04  0.15941820806E+04  0.25500000920E-02 0.  1.
       -2    1    3    3    0  502 -0.81319737044E+02  0.57866652693E+03 -0.47828703456E+03  0.75513332363E+03  0.25500000920E-02 0. -1.
</event>
<event>
 5   0  0.6284125E-04  0.1247842E+04  0.7818609E-02  0.9071981E-01
        4   -1    0    0  501    0  0.00000000000E+00  0.00000000000E+00  0.74285734865E+03  0.74285843426E+03  0.12699999809E+01 0.  1.
       -4   -1    0    0    0  501  0.00000000000E+00  0.00000000000E+00 -0.52402501846E+03  0.52402655741E+03  0.12699999809E+01 0. -1.
    10030    2    1    2    0    0  0.00000000000E+00  0.00000000000E+00  0.21883233020E+03  0.12668849917E+04  0.12478421348E+04 0.  0.
        1    1    3    3  502    0 -0.30494012934E+02 -0.61964615531E+03  0.17665567172E+03  0.64505695019E+03  0.50400001928E-02 0.  1.
       -1    1    3    3    0  502  0.30494012934E+02  0.61964615531E+03  0.42176658474E+02  0.62182804147E+03  0.50400001928E-02 0. -1.
</event>
<event>
 5   0  0.1714861E-03  0.1311234E+04  0.7818609E-02  0.9020704E-01
        2   -1    0    0  501    0  0.00000000000E+00  0.00000000000E+00  0.86139003794E+03  0.86139003795E+03  0.25500000920E-02 0. -1.
       -2   -1    0    0    0  501  0.00000000000E+00  0.00000000000E+00 -0.49899998096E+03  0.49899998097E+03  0.25500000920E-02 0.  1.
    10030    2    1    2    0    0  0.00000000000E+00  0.00000000000E+00  0.36239005698E+03  0.13603900189E+04  0.13112339418E+04 0.  0.
        1    1    3    3  502    0  0.50236594880E+03 -0.40349715649E+03  0.30677875039E+03  0.71364886571E+03  0.50400001928E-02 0. -1.
       -1    1    3    3    0  502 -0.50236594880E+03  0.40349715649E+03  0.55611306592E+02  0.64674115321E+03  0.50400001928E-02 0.  1.
</event>
<event>
 5   0  0.6284125E-04  0.1290891E+04  0.7818609E-02  0.9036820E-01
       -3   -1    0    0    0  501  0.00000000000E+00  0.00000000000E+00  0.34593403446E+03  0.34593404921E+03  0.10100000352E+00 0.  1.
        3   -1    0    0  501    0  0.00000000000E+00  0.00000000000E+00 -0.12042748585E+04  0.12042748627E+04  0.10100000352E+00 0. -1.
    10030    2    1    2    0    0  0.00000000000E+00  0.00000000000E+00 -0.85834082399E+03  0.15502089119E+04  0.12908906617E+04 0.  0.
        1    1    3    3  502    0  0.18972367817E+03 -0.29374814120E+02  0.31085209316E+03  0.36535869719E+03  0.50400001928E-02 0.  1.
       -1    1    3    3    0  502 -0.18972367817E+03  0.29374814120E+02 -0.11691929171E+04  0.11848502147E+04  0.50400001928E-02 0. -1.
</event>
<event>
 5   0  0.1714861E-03  0.1346967E+04  0.7818609E-02  0.8993127E-01
        2   -1    0    0  501    0  0.00000000000E+00  0.00000000000E+00  0.84874279724E+03  0.84874279725E+03  0.25500000920E-02 0. -1.
       -2   -1    0    0    0  501  0.00000000000E+00  0.00000000000E+00 -0.53441433458E+03  0.53441433458E+03  0.25500000920E-02 0.  1.
    10030    2    1    2    0    0  0.00000000000E+00  0.00000000000E+00  0.31432846267E+03  0.13831571318E+04  0.13469674342E+04 0.  0.
        1    1    3    3  502    0  0.32105222811E+03  0.46359280094E+03 -0.22095106732E+03  0.60565022285E+03  0.50400001928E-02 0. -1.
       -1    1    3    3    0  502 -0.32105222811E+03 -0.46359280094E+03  0.53527952999E+03  0.77750690898E+03  0.50400001928E-02 0.  1.
</event>
<event>
 5   0  0.1623890E-03  0.1295834E+04  0.7818609E-02  0.9032875E-01
       -2   -1    0    0    0  501  0.00000000000E+00  0.00000000000E+00  0.48061308115E+03  0.48061308116E+03  0.25500000920E-02 0.  1.
        2   -1    0    0  501    0  0.00000000000E+00  0.00000000000E+00 -0.87346077398E+03  0.87346077398E+03  0.25500000920E-02 0. -1.
    10030    2    1    2    0    0  0.00000000000E+00  0.00000000000E+00 -0.39284769282E+03  0.13540738551E+04  0.12958343626E+04 0.  0.
        3    1    3    3  502    0 -0.19927060924E+03 -0.59307363193E+03 -0.20477074746E+02  0.62599075823E+03  0.10100000352E+00 0. -1.
       -3    1    3    3    0  502  0.19927060924E+03  0.59307363193E+03 -0.37237061808E+03  0.72808309691E+03  0.10100000352E+00 0.  1.
</event>
<event>
 5   0  0.9081324E-04  0.1322076E+04  0.7818609E-02  0.9012239E-01
        1   -1    0    0  501    0  0.00000000000E+00  0.00000000000E+00  0.12871124093E+04  0.12871124093E+04  0.50400001928E-02 0. -1.
       -1   -1    0    0    0  501  0.00000000000E+00  0.00000000000E+00 -0.33949746573E+03  0.33949746577E+03  0.50400001928E-02 0.  1.
    10030    2    1    2    0    0  0.00000000000E+00  0.00000000000E+00  0.94761494358E+03  0.16266098751E+04  0.13220762476E+04 0.  0.
        4    1    3    3  502    0 -0.65635889961E+03  0.63648470178E+02  0.53034520884E+03  0.84624215582E+03  0.12699999809E+01 0. -1.
       -4    1    3    3    0  502  0.65635889961E+03 -0.63648470178E+02  0.41726973475E+03  0.78036771927E+03  0.12699999809E+01 0.  1.
</event>
<event>
 5   0  0.9081324E-04  0.1315079E+04  0.7818609E-02  0.9017692E-01
       -1   -1    0    0    0  501  0.00000000000E+00  0.00000000000E+00  0.42461715515E+03  0.42461715518E+03  0.50400001928E-02 0. -1.
        1   -1    0    0  501    0  0.00000000000E+00  0.00000000000E+00 -0.10182303758E+04  0.10182303758E+04  0.50400001928E-02 0.  1.
    10030    2    1    2    0    0  0.00000000000E+00  0.00000000000E+00 -0.59361322063E+03  0.14428475310E+04  0.13150788349E+04 0.  0.
        4    1    3    3  502    0  0.27861640439E+03  0.26920560827E+03 -0.87970326251E+03  0.96123784949E+03  0.12699999809E+01 0.  1.
       -4    1    3    3    0  502 -0.27861640439E+03 -0.26920560827E+03  0.28609004189E+03  0.48160968147E+03  0.12699999809E+01 0. -1.
</event>
<event>
 5   0  0.9098192E-04  0.1288266E+04  0.7818609E-02  0.9038922E-01
        1   -1    0    0  501    0  0.00000000000E+00  0.00000000000E+00  0.13547885620E+04  0.13547885620E+04  0.50400001928E-02 0. -1.
       -1   -1    0    0    0  501  0.00000000000E+00  0.00000000000E+00 -0.30625269008E+03  0.30625269012E+03  0.50400001928E-02 0.  1.
    10030    2    1    2    0    0  0.00000000000E+00  0.00000000000E+00  0.10485358719E+04  0.16610412521E+04  0.12882664967E+04 0.  0.
        1    1    3    3  502    0  0.27091122952E+03 -0.56451710811E+03  0.71910740808E+03  0.95351346295E+03  0.50400001928E-02 0. -1.
       -1    1    3    3    0  502 -0.27091122952E+03  0.56451710811E+03  0.32942846380E+03  0.70752778915E+03  0.50400001928E-02 0.  1.
</event>
<event>
 5   0  0.1667342E-03  0.1295179E+04  0.7818609E-02  0.9033397E-01
        2   -1    0    0  501    0  0.00000000000E+00  0.00000000000E+00  0.79672684560E+03  0.79672684560E+03  0.25500000920E-02 0. -1.
       -2   -1    0    0    0  501  0.00000000000E+00  0.00000000000E+00 -0.52636912003E+03  0.52636912003E+03  0.25500000920E-02 0.  1.
    10030    2    1    2    0    0  0.00000000000E+00  0.00000000000E+00  0.27035772558E+03  0.13230959656E+04  0.12951793831E+04 0.  0.
        5    1    3    3  502    0 -0.58364727282E+03  0.26327459933E+03  0.36174157149E+02  0.64131763843E+03  0.46999998093E+01 0.  1.
       -5    1    3    3    0  502  0.58364727282E+03 -0.26327459933E+03  0.23418356843E+03  0.68177832720E+03  0.46999998093E+01 0. -1.
</event>
<event>
 5   0  0.9098192E-04  0.1360112E+04  0.7818609E-02  0.8983209E-01
        1   -1    0    0  501    0  0.00000000000E+00  0.00000000000E+00  0.59813804196E+03  0.59813804198E+03  0.50400001928E-02 0.  1.
       -1   -1    0    0    0  501  0.00000000000E+00  0.00000000000E+00 -0.77319270732E+03  0.77319270734E+03  0.50400001928E-02 0. -1.
    10030    2    1    2    0    0  0.00000000000E+00  0.00000000000E+00 -0.17505466537E+03  0.13713307493E+04  0.13601117190E+04 0.  0.
        1    1    3    3  502    0  0.15632859300E+03  0.13607612790E+03 -0.74057411361E+03  0.76902884168E+03  0.50400001928E-02 0. -1.
       -1    1    3    3    0  502 -0.15632859300E+03 -0.13607612790E+03  0.56551944824E+03  0.60230190763E+03  0.50400001928E-02 0.  1.
</event>
<event>
 5   0  0.6284125E-04  0.1310400E+04  0.7818609E-02  0.9021359E-01
       -3   -1    0    0    0  501  0.00000000000E+00  0.00000000000E+00  0.16538827415E+04  0.16538827446E+04  0.10100000352E+00 0.  1.
        3   -1    0    0  501    0  0.00000000000E+00  0.00000000000E+00 -0.25956300210E+03  0.25956302175E+03  0.10100000352E+00 0. -1.
    10030    2    1    2    0    0  0.00000000000E+00  0.00000000000E+00  0.13943197394E+04  0.19134457664E+04  0.13103996204E+04 0.  0.
        3    1    3    3  502    0 -0.53096856076E+03 -0.20863904569E+03  0.11676727981E+04  0.12995836401E+04  0.10100000352E+00 0.  1.
       -3    1    3    3    0  502  0.53096856076E+03  0.20863904569E+03  0.22664694133E+03  0.61386212631E+03  0.10100000352E+00 0. -1.
</event>
<event>
 5   0  0.1667342E-03  0.1250061E+04  0.7818609E-02  0.9070133E-01
        2   -1    0    0  501    0  0.00000000000E+00  0.00000000000E+00  0.18394401938E+04  0.18394401938E+04  0.25500000920E-02 0.  1.
       -2   -1    0    0    0  501  0.00000000000E+00  0.00000000000E+00 -0.21238145248E+03  0.21238145250E+03  0.25500000920E-02 0. -1.
    10030    2    1    2    0    0  0.00000000000E+00  0.00000000000E+00  0.16270587413E+04  0.20518216463E+04  0.12500607667E+04 0.  0.
        5    1    3    3  502    0  0.43784774800E+02  0.37912664436E+03  0.16259478608E+04  0.16701445013E+04  0.46999998093E+01 0.  1.
       -5    1    3    3    0  502 -0.43784774800E+02 -0.37912664436E+03  0.11108804537E+01  0.38167714501E+03  0.46999998093E+01 0. -1.
</event>
<event>
 5   0  0.1714861E-03  0.1298977E+04  0.7818609E-02  0.9030377E-01
        2   -1    0    0  501    0  0.00000000000E+00  0.00000000000E+00  0.31557154387E+04  0.31557154387E+04  0.25500000920E-02 0.  1.
       -2   -1    0    0    0  501  0.00000000000E+00  0.00000000000E+00 -0.13367347081E+03  0.13367347083E+03  0.25500000920E-02 0. -1.
    10030    2    1    2    0    0  0.00000000000E+00  0.00000000000E+00  0.30220419679E+04  0.32893889095E+04  0.12989771909E+04 0.  0.
        1    1    3    3  502    0  0.58190027149E+02  0.32440890774E+03  0.93823827927E+02  0.34268079811E+03  0.50400001928E-02 0. -1.
       -1    1    3    3    0  502 -0.58190027149E+02 -0.32440890774E+03  0.29282181399E+04  0.29467081114E+04  0.50400001928E-02 0.  1.
</event>
<event>
 5   0  0.1694675E-03  0.1303834E+04  0.7818609E-02  0.9026530E-01
       -2   -1    0    0    0  501  0.00000000000E+00  0.00000000000E+00  0.85670733985E+03  0.85670733986E+03  0.25500000920E-02 0.  1.
        2   -1    0    0  501    0  0.00000000000E+00  0.00000000000E+00 -0.49608044439E+03  0.49608044440E+03  0.25500000920E-02 0. -1.
    10030    2    1    2    0    0  0.00000000000E+00  0.00000000000E+00  0.36062689547E+03  0.13527877843E+04  0.13038339739E+04 0.  0.
        4    1    3    3  502    0 -0.42489134831E+03  0.22844362844E+03  0.63526880656E+03  0.79767613650E+03  0.12699999809E+01 0.  1.
       -4    1    3    3    0  502  0.42489134831E+03 -0.22844362844E+03 -0.27464191110E+03  0.55511164776E+03  0.12699999809E+01 0. -1.
</event>
<event>
 5   0  0.1667342E-03  0.1288344E+04  0.7818609E-02  0.9038860E-01
        2   -1    0    0  501    0  0.00000000000E+00  0.00000000000E+00  0.69278524394E+03  0.69278524394E+03  0.25500000920E-02 0.  1.
       -2   -1    0    0    0  501  0.00000000000E+00  0.00000000000E+00 -0.59896985643E+03  0.59896985643E+03  0.25500000920E-02 0. -1.
    10030    2    1    2    0    0  0.00000000000E+00  0.00000000000E+00  0.93815387510E+02  0.12917551004E+04  0.12883438642E+04 0.  0.
        5    1    3    3  502    0 -0.14834364348E+03 -0.53585333638E+03  0.37302379874E+03  0.66956215477E+03  0.46999998093E+01 0.  1.
       -5    1    3    3    0  502  0.14834364348E+03  0.53585333638E+03 -0.27920841123E+03  0.62219294561E+03  0.46999998093E+01 0. -1.
</event>
<event>
 5   0  0.9081324E-04  0.1297191E+04  0.7818609E-02  0.9031796E-01
       -1   -1    0    0    0  501  0.00000000000E+00  0.00000000000E+00  0.59157126545E+03  0.59157126547E+03  0.50400001928E-02 0.  1.
        1   -1    0    0  501    0  0.00000000000E+00  0.00000000000E+00 -0.71111660654E+03  0.71111660655E+03  0.50400001928E-02 0. -1.
    10030    2    1    2    0    0  0.00000000000E+00  0.00000000000E+00 -0.11954534109E+03  0.13026878720E+04  0.12971910435E+04 0.  0.
        4    1    3    3  502    0  0.52964301760E+03  0.36944187417E+03 -0.12057270666E+03  0.65692344682E+03  0.12699999809E+01 0. -1.
       -4    1    3    3    0  502 -0.52964301760E+03 -0.36944187417E+03  0.10273655733E+01  0.64576442521E+03  0.12699999809E+01 0.  1.
</event>
<event>
 5   0  0.1714861E-03  0.1280869E+04  0.7818609E-02  0.9044876E-01
       -2   -1    0    0    0  501  0.00000000000E+00  0.00000000000E+00  0.49957920122E+03  0.49957920122E+03  0.25500000920E-02 0. -1.
        2   -1    0    0  501    0  0.00000000000E+00  0.00000000000E+00 -0.82100320684E+03  0.82100320685E+03  0.25500000920E-02 0.  1.
    10030    2    1    2    0    0  0.00000000000E+00  0.00000000000E+00 -0.32142400562E+03  0.13205824081E+04  0.12808686526E+04 0.  0.
        1    1    3    3  502    0  0.24095048793E+03 -0.30922134175E+03  0.36143000765E+03  0.53320411316E+03  0.50400001928E-02 0. -1.
       -1    1    3    3    0  502 -0.24095048793E+03  0.30922134175E+03 -0.68285401328E+03  0.78737829492E+03  0.50400001928E-02 0.  1.
</event>
<event>
 5   0  0.9081324E-04  0.1328445E+04  0.7818609E-02  0.9007307E-01
        1   -1    0    0  501    0  0.00000000000E+00  0.00000000000E+00  0.66564207068E+03  0.66564207070E+03  0.50400001928E-02 0.  1.
       -1   -1    0    0    0  501  0.00000000000E+00  0.00000000000E+00 -0.66280610427E+03  0.66280610429E+03  0.50400001928E-02 0. -1.
    10030    2    1    2    0    0  0.00000000000E+00  0.00000000000E+00  0.28359664111E+01  0.13284481750E+04  0.13284451479E+04 0.  0.
        4    1    3    3  502    0 -0.94556646870E+02  0.34936076906E+03  0.55837177131E+03  0.66541307045E+03  0.12699999809E+01 0.  1.
       -4    1    3    3    0  502  0.94556646870E+02 -0.34936076906E+03 -0.55553580490E+03  0.66303510454E+03  0.12699999809E+01 0. -1.
</event>
<event>
 5   0  0.9110949E-04  0.1302151E+04  0.7818609E-02  0.9027861E-01
       -1   -1    0    0    0  501  0.00000000000E+00  0.00000000000E+00  0.60526529944E+03  0.60526529946E+03  0.50400001928E-02 0.  1.
        1   -1    0    0  501    0  0.00000000000E+00  0.00000000000E+00 -0.70035259108E+03  0.70035259109E+03  0.50400001928E-02 0. -1.
    10030    2    1    2    0    0  0.00000000000E+00  0.00000000000E+00 -0.95087291634E+02  0.13056178906E+04  0.13021507144E+04 0.  0.
        2    1    3    3  502    0  0.86348754989E+02  0.96866810725E+02  0.59216756931E+03  0.60621919853E+03  0.25500000920E-02 0.  1.
       -2    1    3    3    0  502 -0.86348754989E+02 -0.96866810725E+02 -0.68725486095E+03  0.69939869203E+03  0.25500000920E-02 0. -1.
</event>
<event>
 5   0  0.9110949E-04  0.1267261E+04  0.7818609E-02  0.9055938E-01
       -1   -1    0    0    0  501  0.00000000000E+00  0.00000000000E+00  0.16909662501E+03  0.16909662508E+03  0.50400001928E-02 0.  1.
        1   -1    0    0  501    0  0.00000000000E+00  0.00000000000E+00 -0.23743085603E+04  0.23743085603E+04  0.50400001928E-02 0. -1.
    10030    2    1    2    0    0  0.00000000000E+00  0.00000000000E+00 -0.22052119353E+04  0.25434051854E+04  0.12672609272E+04 0.  0.
        2    1    3    3  502    0 -0.19301541479E+03 -0.27581806876E+03 -0.21799740371E+04  0.22058144437E+04  0.25500000920E-02 0. -1.
       -2    1    3    3    0  502  0.19301541479E+03  0.27581806876E+03 -0.25237898205E+02  0.33759074175E+03  0.25500000920E-02 0.  1.
</event>
<event>
 5   0  0.9098192E-04  0.1295927E+04  0.7818609E-02  0.9032801E-01
        1   -1    0    0  501    0  0.00000000000E+00  0.00000000000E+00  0.11534509795E+04  0.11534509795E+04  0.50400001928E-02 0. -1.
       -1   -1    0    0    0  501  0.00000000000E+00  0.00000000000E+00 -0.36400049790E+03  0.36400049794E+03  0.50400001928E-02 0.  1.
    10030    2    1    2    0    0  0.00000000000E+00  0.00000000000E+00  0.78945048156E+03  0.15174514774E+04  0.12959270517E+04 0.  0.
        1    1    3    3  502    0  0.70303722422E+02 -0.50576899580E+03  0.86179904075E+03  0.10017197598E+04  0.50400001928E-02 0. -1.
       -1    1    3    3    0  502 -0.70303722422E+02  0.50576899580E+03 -0.72348559196E+02  0.51573171761E+03  0.50400001928E-02 0.  1.
</event>
<event>
 5   0  0.9081324E-04  0.1278791E+04  0.7818609E-02  0.9046556E-01
        1   -1    0    0  501    0  0.00000000000E+00  0.00000000000E+00  0.53551741199E+03  0.53551741201E+03  0.50400001928E-02 0.  1.
       -1   -1    0    0    0  501  0.00000000000E+00  0.00000000000E+00 -0.76342313053E+03  0.76342313054E+03  0.50400001928E-02 0. -1.
    10030    2    1    2    0    0  0.00000000000E+00  0.00000000000E+00 -0.22790571854E+03  0.12989405426E+04  0.12787906461E+04 0.  0.
        4    1    3    3  502    0  0.51392201755E+02 -0.60226462154E+03  0.97804906624E+02  0.61231629524E+03  0.12699999809E+01 0.  1.
       -4    1    3    3    0  502 -0.51392201755E+02  0.60226462154E+03 -0.32571062516E+03  0.68662424731E+03  0.12699999809E+01 0. -1.
</event>
<event>
 5   0  0.1694675E-03  0.1347451E+04  0.7818609E-02  0.8992760E-01
       -2   -1    0    0    0  501  0.00000000000E+00  0.00000000000E+00  0.46113681134E+03  0.46113681135E+03  0.25500000920E-02 0. -1.
        2   -1    0    0  501    0  0.00000000000E+00  0.00000000000E+00 -0.98431992215E+03  0.98431992216E+03  0.25500000920E-02 0.  1.
    10030    2    1    2    0    0  0.00000000000E+00  0.00000000000E+00 -0.52318311081E+03  0.14454567335E+04  0.13474511498E+04 0.  0.
        4    1    3    3  502    0 -0.26349387663E+03  0.15734695077E+03 -0.90497935489E+03  0.95560260130E+03  0.12699999809E+01 0.  1.
       -4    1    3    3    0  502  0.26349387663E+03 -0.15734695077E+03  0.38179624408E+03  0.48985413220E+03  0.12699999809E+01 0. -1.
</event>
<event>
 5   0  0.1694675E-03  0.1298800E+04  0.7818609E-02  0.9030518E-01
        2   -1    0    0  501    0  0.00000000000E+00  0.00000000000E+00  0.12497722216E+04  0.12497722216E+04  0.25500000920E-02 0.  1.
       -2   -1    0    0    0  501  0.00000000000E+00  0.00000000000E+00 -0.33743755922E+03  0.33743755923E+03  0.25500000920E-02 0. -1.
    10030    2    1    2    0    0  0.00000000000E+00  0.00000000000E+00  0.91233466233E+03  0.15872097808E+04  0.12987995812E+04 0.  0.
        4    1    3    3  502    0 -0.78510314121E+02 -0.59505643257E+03  0.75913558039E+03  0.96775227702E+03  0.12699999809E+01 0.  1.
       -4    1    3    3    0  502  0.78510314121E+02  0.59505643257E+03  0.15319908194E+03  0.61945750377E+03  0.12699999809E+01 0. -1.
</event>
<event>
 5   0  0.9027076E-04  0.1295727E+04  0.7818609E-02  0.9032961E-01
       -1   -1    0    0    0  501  0.00000000000E+00  0.00000000000E+00  0.35271325391E+03  0.35271325395E+03  0.50400001928E-02 0. -1.
        1   -1    0    0  501    0  0.00000000000E+00  0.00000000000E+00 -0.11899950534E+04  0.11899950535E+04  0.50400001928E-02 0.  1.
    10030    2    1    2    0    0  0.00000000000E+00  0.00000000000E+00 -0.83728179953E+03  0.15427083074E+04  0.12957268655E+04 0.  0.
        5    1    3    3  502    0 -0.44947406975E+03 -0.15115040495E+03  0.10689211114E+03  0.48612899288E+03  0.46999998093E+01 0. -1.
       -5    1    3    3    0  502  0.44947406975E+03  0.15115040495E+03 -0.94417391066E+03  0.10565793145E+04  0.46999998093E+01 0.  1.
</event>
<event>
 5   0  0.1700511E-03  0.1294287E+04  0.7818609E-02  0.9034108E-01
        2   -1    0    0  501    0  0.00000000000E+00  0.00000000000E+00  0.48883310136E+03  0.48883310137E+03  0.25500000920E-02 0.  1.
       -2   -1    0    0    0  501  0.00000000000E+00  0.00000000000E+00 -0.85672366408E+03  0.85672366408E+03  0.25500000920E-02 0. -1.
    10030    2    1    2    0    0  0.00000000000E+00  0.00000000000E+00 -0.36789056271E+03  0.13455567655E+04  0.12942872722E+04 0.  0.
        2    1    3    3  502    0  0.16320815305E+03 -0.32499271908E+03  0.37255096844E+03  0.52062596245E+03  0.25500000920E-02 0.  1.
       -2    1    3    3    0  502 -0.16320815305E+03  0.32499271908E+03 -0.74044153116E+03  0.82493080301E+03  0.25500000920E-02 0. -1.
</event>
<event>
 5   0  0.9027076E-04  0.1208506E+04  0.7818609E-02  0.9105444E-01
        1   -1    0    0  501    0  0.00000000000E+00  0.00000000000E+00  0.11006196972E+04  0.11006196972E+04  0.50400001928E-02 0. -1.
       -1   -1    0    0    0  501  0.00000000000E+00  0.00000000000E+00 -0.33174194049E+03  0.33174194053E+03  0.50400001928E-02 0.  1.
    10030    2    1    2    0    0  0.00000000000E+00  0.00000000000E+00  0.76887775674E+03  0.14323616378E+04  0.12085060432E+04 0.  0.
        5    1    3    3  502    0  0.54219373550E+03  0.26305508026E+03  0.43647591374E+03  0.74411379193E+03  0.46999998093E+01 0. -1.
       -5    1    3    3    0  502 -0.54219373550E+03 -0.26305508026E+03  0.33240184300E+03  0.68824784583E+03  0.46999998093E+01 0.  1.
</event>
<event>
 5   0  0.1714861E-03  0.1308550E+04  0.7818609E-02  0.9022813E-01
       -2   -1    0    0    0  501  0.00000000000E+00  0.00000000000E+00  0.27558892712E+03  0.27558892713E+03  0.25500000920E-02 0.  1.
        2   -1    0    0  501    0  0.00000000000E+00  0.00000000000E+00 -0.15533117003E+04  0.15533117003E+04  0.25500000920E-02 0. -1.
    10030    2    1    2    0    0  0.00000000000E+00  0.00000000000E+00 -0.12777227732E+04  0.18289006274E+04  0.13085495863E+04 0.  0.
        1    1    3    3  502    0  0.30379172328E+03  0.18238287445E+03  0.12987745126E+03  0.37738717042E+03  0.50400001928E-02 0.  1.
       -1    1    3    3    0  502 -0.30379172328E+03 -0.18238287445E+03 -0.14076002244E+04  0.14515134570E+04  0.50400001928E-02 0. -1.
</event>
<event>
 5   0  0.1694675E-03  0.1286328E+04  0.7818609E-02  0.9040478E-01
        2   -1    0    0  501    0  0.00000000000E+00  0.00000000000E+00  0.10431929077E+04  0.10431929077E+04  0.25500000920E-02 0.  1.
       -2   -1    0    0    0  501  0.00000000000E+00  0.00000000000E+00 -0.39653233370E+03  0.39653233371E+03  0.25500000920E-02 0. -1.
    10030    2    1    2    0    0  0.00000000000E+00  0.00000000000E+00  0.64666057403E+03  0.14397252414E+04  0.12863276693E+04 0.  0.
        4    1    3    3  502    0 -0.14174495619E+03  0.33644320324E+02 -0.37782080605E+03  0.40493672009E+03  0.12699999809E+01 0. -1.
       -4    1    3    3    0  502  0.14174495619E+03 -0.33644320324E+02  0.10244813801E+04  0.10347885213E+04  0.12699999809E+01 0.  1.
</event>
<event>
 5   0  0.9215829E-04  0.1307303E+04  0.7818609E-02  0.9023794E-01
       -1   -1    0    0    0  501  0.00000000000E+00  0.00000000000E+00  0.43977830436E+03  0.43977830439E+03  0.50400001928E-02 0. -1.
        1   -1    0    0  501    0  0.00000000000E+00  0.00000000000E+00 -0.97153511647E+03  0.97153511649E+03  0.50400001928E-02 0.  1.
    10030    2    1    2    0    0  0.00000000000E+00  0.00000000000E+00 -0.53175681211E+03  0.14113134209E+04  0.13073026676E+04 0.  0.
        3    1    3    3  502    0  0.55949111595E+03  0.26796636131E+03 -0.43520801657E+02  0.62187647487E+03  0.10100000352E+00 0. -1.
       -3    1    3    3    0  502 -0.55949111595E+03 -0.26796636131E+03 -0.48823601046E+03  0.78943694601E+03  0.10100000352E+00 0.  1.
</event>
<event>
 5   0  0.1694675E-03  0.1296330E+04  0.7818609E-02  0.9032480E-01
        2   -1    0    0  501    0  0.00000000000E+00  0.00000000000E+00  0.62577662376E+03  0.62577662376E+03  0.25500000920E-02 0. -1.
       -2   -1    0    0    0  501  0.00000000000E+00  0.00000000000E+00 -0.67135447592E+03  0.67135447592E+03  0.25500000920E-02 0.  1.
    10030    2    1    2    0    0  0.00000000000E+00  0.00000000000E+00 -0.45577852161E+02  0.12971310997E+04  0.12963301081E+04 0.  0.
        4    1    3    3  502    0 -0.47447229408E+03 -0.26652953209E+02  0.41825772820E+03  0.63306830426E+03  0.12699999809E+01 0. -1.
       -4    1    3    3    0  502  0.47447229408E+03  0.26652953209E+02 -0.46383558036E+03  0.66406279543E+03  0.12699999809E+01 0.  1.
</event>
<event>
 5   0  0.1667342E-03  0.1312991E+04  0.7818609E-02  0.9019326E-01
        2   -1    0    0  501    0  0.00000000000E+00  0.00000000000E+00  0.56890240576E+03  0.56890240577E+03  0.25500000920E-02 0.  1.
       -2   -1    0    0    0  501  0.00000000000E+00  0.00000000000E+00 -0.75757497672E+03  0.75757497672E+03  0.25500000920E-02 0. -1.
    10030    2    1    2    0    0  0.00000000000E+00  0.00000000000E+00 -0.18867257095E+03  0.13264773825E+04  0.13129908253E+04 0.  0.
        5    1    3    3  502    0  0.52787781517E+03  0.27925291395E+03  0.18109377693E+03  0.62406267613E+03  0.46999998093E+01 0.  1.
       -5    1    3    3    0  502 -0.52787781517E+03 -0.27925291395E+03 -0.36976634788E+03  0.70241470637E+03  0.46999998093E+01 0. -1.
</event>
<event>
 5   0  0.1714861E-03  0.1291354E+04  0.7818609E-02  0.9036450E-01
        2   -1    0    0  501    0  0.00000000000E+00  0.00000000000E+00  0.51753643062E+03  0.51753643062E+03  0.25500000920E-02 0.  1.
       -2   -1    0    0    0  501  0.00000000000E+00  0.00000000000E+00 -0.80554440539E+03  0.80554440540E+03  0.25500000920E-02 0. -1.
    10030    2    1    2    0    0  0.00000000000E+00  0.00000000000E+00 -0.28800797478E+03  0.13230808360E+04  0.12913536716E+04 0.  0.
        1    1    3    3  502    0  0.32591222949E+03  0.35115985991E+03 -0.58749743196E+03  0.75807998334E+03  0.50400001928E-02 0. -1.
       -1    1    3    3    0  502 -0.32591222949E+03 -0.35115985991E+03  0.29948945719E+03  0.56500085269E+03  0.50400001928E-02 0.  1.
</event>
<event>
 5   0  0.9081324E-04  0.1291392E+04  0.7818609E-02  0.9036419E-01
        1   -1    0    0  501    0  0.00000000000E+00  0.00000000000E+00  0.44943274190E+03  0.44943274193E+03  0.50400001928E-02 0. -1.
       -1   -1    0    0    0  501  0.00000000000E+00  0.00000000000E+00 -0.92766563362E+03  0.92766563364E+03  0.50400001928E-02 0.  1.
    10030    2    1    2    0    0  0.00000000000E+00  0.00000000000E+00 -0.47823289172E+03  0.13770983756E+04  0.12913919766E+04 0.  0.
        4    1    3    3  502    0 -0.10163551759E+03 -0.44929082976E+03 -0.72161639683E+03  0.85610972732E+03  0.12699999809E+01 0.  1.
       -4    1    3    3    0  502  0.10163551759E+03  0.44929082976E+03  0.24338350511E+03  0.52098864824E+03  0.12699999809E+01 0. -1.
</event>
<event>
 5   0  0.1714861E-03  0.1346141E+04  0.7818609E-02  0.8993755E-01
       -2   -1    0    0    0  501  0.00000000000E+00  0.00000000000E+00  0.51833298675E+03  0.51833298675E+03  0.25500000920E-02 0. -1.
        2   -1    0    0  501    0  0.00000000000E+00  0.00000000000E+00 -0.87400160730E+03  0.87400160731E+03  0.25500000920E-02 0.  1.
    10030    2    1    2    0    0  0.00000000000E+00  0.00000000000E+00 -0.35566862056E+03  0.13923345941E+04  0.13461409488E+04 0.  0.
        1    1    3    3  502    0 -0.33542950272E+03  0.29624262200E+03 -0.69782995909E+03  0.82899897118E+03  0.50400001928E-02 0.  1.
       -1    1    3    3    0  502  0.33542950272E+03 -0.29624262200E+03  0.34216133853E+03  0.56333562288E+03  0.50400001928E-02 0. -1.
</event>
<event>
 5   0  0.9110949E-04  0.1260469E+04  0.7818609E-02  0.9061514E-01
        1   -1    0    0  501    0  0.00000000000E+00  0.00000000000E+00  0.78802027175E+03  0.78802027176E+03  0.50400001928E-02 0.  1.
       -1   -1    0    0    0  501  0.00000000000E+00  0.00000000000E+00 -0.50404251507E+03  0.50404251510E+03  0.50400001928E-02 0. -1.
    10030    2    1    2    0    0  0.00000000000E+00  0.00000000000E+00  0.28397775667E+03  0.12920627869E+04  0.12604693090E+04 0.  0.
        2    1    3    3  502    0 -0.56887950402E+03 -0.10634446380E+03  0.39776810160E+03  0.70224817389E+03  0.25500000920E-02 0.  1.
       -2    1    3    3    0  502  0.56887950402E+03  0.10634446380E+03 -0.11379034492E+03  0.58981461297E+03  0.25500000920E-02 0. -1.
</event>
<event>
 5   0  0.1623890E-03  0.1152005E+04  0.7818609E-02  0.9155936E-01
       -2   -1    0    0    0  501  0.00000000000E+00  0.00000000000E+00  0.19960461954E+03  0.19960461955E+03  0.25500000920E-02 0. -1.
        2   -1    0    0  501    0  0.00000000000E+00  0.00000000000E+00 -0.16621797861E+04  0.16621797861E+04  0.25500000920E-02 0.  1.
    10030    2    1    2    0    0  0.00000000000E+00  0.00000000000E+00 -0.14625751665E+04  0.18617844056E+04  0.11520047983E+04 0.  0.
        3    1    3    3  502    0 -0.24837784552E+03 -0.43784576301E+03 -0.11837400756E+04  0.12863285129E+04  0.10100000352E+00 0.  1.
       -3    1    3    3    0  502  0.24837784552E+03  0.43784576301E+03 -0.27883509092E+03  0.57545589271E+03  0.10100000352E+00 0. -1.
</event>
<event>
 5   0  0.9081324E-04  0.1310592E+04  0.7818609E-02  0.9021208E-01
        1   -1    0    0  501    0  0.00000000000E+00  0.00000000000E+00  0.79239717045E+03  0.79239717046E+03  0.50400001928E-02 0.  1.
       -1   -1    0    0    0  501  0.00000000000E+00  0.00000000000E+00 -0.54191600226E+03  0.54191600228E+03  0.50400001928E-02 0. -1.
    10030    2    1    2    0    0  0.00000000000E+00  0.00000000000E+00  0.25048116819E+03  0.13343131727E+04  0.13105917852E+04 0.  0.
        4    1    3    3  502    0 -0.33689639186E+03  0.56143927711E+03  0.98345533210E+02  0.66210776882E+03  0.12699999809E+01 0. -1.
       -4    1    3    3    0  502  0.33689639186E+03 -0.56143927711E+03  0.15213563498E+03  0.67220540392E+03  0.12699999809E+01 0.  1.
</event>
<event>
 5   0  0.9081324E-04  0.1281755E+04  0.7818609E-02  0.9044160E-01
        1   -1    0    0  501    0  0.00000000000E+00  0.00000000000E+00  0.72851779161E+03  0.72851779162E+03  0.50400001928E-02 0.  1.
       -1   -1    0    0    0  501  0.00000000000E+00  0.00000000000E+00 -0.56378032047E+03  0.56378032049E+03  0.50400001928E-02 0. -1.
    10030    2    1    2    0    0  0.00000000000E+00  0.00000000000E+00  0.16473747114E+03  0.12922981121E+04  0.12817550375E+04 0.  0.
        4    1    3    3  502    0 -0.57944080082E+03  0.27178465002E+03  0.11586616106E+03  0.65041918623E+03  0.12699999809E+01 0.  1.
       -4    1    3    3    0  502  0.57944080082E+03 -0.27178465002E+03  0.48871310077E+02  0.64187892588E+03  0.12699999809E+01 0. -1.
</event>
<event>
 5   0  0.1623890E-03  0.1266683E+04  0.7818609E-02  0.9056411E-01
        2   -1    0    0  501    0  0.00000000000E+00  0.00000000000E+00  0.56119796644E+03  0.56119796644E+03  0.25500000920E-02 0. -1.
       -2   -1    0    0    0  501  0.00000000000E+00  0.00000000000E+00 -0.71475922751E+03  0.71475922751E+03  0.25500000920E-02 0.  1.
    10030    2    1    2    0    0  0.00000000000E+00  0.00000000000E+00 -0.15356126107E+03  0.12759571940E+04  0.12666829516E+04 0.  0.
        3    1    3    3  502    0  0.58963968451E+03 -0.23118189947E+03 -0.75594475179E+02  0.63783584336E+03  0.10100000352E+00 0. -1.
       -3    1    3    3    0  502 -0.58963968451E+03  0.23118189947E+03 -0.77966785890E+02  0.63812135060E+03  0.10100000352E+00 0.  1.
</event>
<event>
 5   0  0.1694675E-03  0.1296256E+04  0.7818609E-02  0.9032540E-01
       -2   -1    0    0    0  501  0.00000000000E+00  0.00000000000E+00  0.32065317135E+03  0.32065317136E+03  0.25500000920E-02 0. -1.
        2   -1    0    0  501    0  0.00000000000E+00  0.00000000000E+00 -0.13100442148E+04  0.13100442148E+04  0.25500000920E-02 0.  1.
    10030    2    1    2    0    0  0.00000000000E+00  0.00000000000E+00 -0.98939104342E+03  0.16306973861E+04  0.12962558884E+04 0.  0.
        4    1    3    3  502    0  0.43209911852E+00  0.33771396255E+03 -0.11906096136E+04  0.12375798044E+04  0.12699999809E+01 0.  1.
       -4    1    3    3    0  502 -0.43209911852E+00 -0.33771396255E+03  0.20121857020E+03  0.39311758178E+03  0.12699999809E+01 0. -1.
</event>
<event>
 5   0  0.9027076E-04  0.1278340E+04  0.7818609E-02  0.9046920E-01
       -1   -1    0    0    0  501  0.00000000000E+00  0.00000000000E+00  0.27859217338E+03  0.27859217342E+03  0.50400001928E-02 0.  1.
        1   -1    0    0  501    0  0.00000000000E+00  0.00000000000E+00 -0.14664394753E+04  0.14664394753E+04  0.50400001928E-02 0. -1.
    10030    2    1    2    0    0  0.00000000000E+00  0.00000000000E+00 -0.11878473019E+04  0.17450316487E+04  0.12783404251E+04 0.  0.
        5    1    3    3  502    0 -0.23978834760E+03  0.37986955024E+02  0.21317565633E+03  0.32312135622E+03  0.46999998093E+01 0.  1.
       -5    1    3    3    0  502  0.23978834760E+03 -0.37986955024E+02 -0.14010229582E+04  0.14219102925E+04  0.46999998093E+01 0. -1.
</event>
<event>
 5   0  0.1714861E-03  0.1299384E+04  0.7818609E-02  0.9030053E-01
       -2   -1    0    0    0  501  0.00000000000E+00  0.00000000000E+00  0.61779554526E+03  0.61779554527E+03  0.25500000920E-02 0.  1.
        2   -1    0    0  501    0  0.00000000000E+00  0.00000000000E+00 -0.68323576873E+03  0.68323576873E+03  0.25500000920E-02 0. -1.
    10030    2    1    2    0    0  0.00000000000E+00  0.00000000000E+00 -0.65440223465E+02  0.13010313140E+04  0.12993844917E+04 0.  0.
        1    1    3    3  502    0  0.57664713932E+03 -0.28332905843E+03 -0.12929304217E+03  0.65537315281E+03  0.50400001928E-02 0. -1.
       -1    1    3    3    0  502 -0.57664713932E+03  0.28332905843E+03  0.63852818707E+02  0.64565816120E+03  0.50400001928E-02 0.  1.
</event>
<event>
 5   0  0.1623890E-03  0.1295685E+04  0.7818609E-02  0.9032994E-01
       -2   -1    0    0    0  501  0.00000000000E+00  0.00000000000E+00  0.31398937155E+03  0.31398937156E+03  0.25500000920E-02 0.  1.
        2   -1    0    0  501    0  0.00000000000E+00  0.00000000000E+00 -0.13366683023E+04  0.13366683023E+04  0.25500000920E-02 0. -1.
    10030    2    1    2    0    0  0.00000000000E+00  0.00000000000E+00 -0.10226789308E+04  0.16506576739E+04  0.12956845916E+04 0.  0.
        3    1    3    3  502    0 -0.39550214129E+03 -0.48408345428E+03 -0.29461212367E+03  0.69105357831E+03  0.10100000352E+00 0.  1.
       -3    1    3    3    0  502  0.39550214129E+03  0.48408345428E+03 -0.72806680712E+03  0.95960409561E+03  0.10100000352E+00 0. -1.
</event>
<event>
 5   0  0.9098192E-04  0.1303409E+04  0.7818609E-02  0.9026866E-01
        1   -1    0    0  501    0  0.00000000000E+00  0.00000000000E+00  0.85901711546E+03  0.85901711547E+03  0.50400001928E-02 0. -1.
       -1   -1    0    0    0  501  0.00000000000E+00  0.00000000000E+00 -0.49442383218E+03  0.49442383221E+03  0.50400001928E-02 0.  1.
    10030    2    1    2    0    0  0.00000000000E+00  0.00000000000E+00  0.36459328327E+03  0.13534409477E+04  0.13034086606E+04 0.  0.
        1    1    3    3  502    0 -0.15478776149E+03 -0.63140228792E+03  0.13482033539E+03  0.66393118857E+03  0.50400001928E-02 0. -1.
       -1    1    3    3    0  502  0.15478776149E+03  0.63140228792E+03  0.22977294788E+03  0.68950975911E+03  0.50400001928E-02 0.  1.
</event>
<event>
 5   0  0.9081324E-04  0.1315896E+04  0.7818609E-02  0.9017054E-01
       -1   -1    0    0    0  501  0.00000000000E+00  0.00000000000E+00  0.47663341250E+03  0.47663341253E+03  0.50400001928E-02 0. -1.
        1   -1    0    0  501    0  0.00000000000E+00  0.00000000000E+00 -0.90823529823E+03  0.90823529825E+03  0.50400001928E-02 0.  1.
    10030    2    1    2    0    0  0.00000000000E+00  0.00000000000E+00 -0.43160188573E+03  0.13848687108E+04  0.13158955727E+04 0.  0.
        4    1    3    3  502    0  0.63907832690E+03 -0.58106259866E+02 -0.36865945106E+03  0.74007354304E+03  0.12699999809E+01 0.  1.
       -4    1    3    3    0  502 -0.63907832690E+03  0.58106259866E+02 -0.62942434673E+02  0.64479516773E+03  0.12699999809E+01 0. -1.
</event>
<event>
 5   0  0.9215829E-04  0.1303365E+04  0.7818609E-02  0.9026901E-01
        1   -1    0    0  501    0  0.00000000000E+00  0.00000000000E+00  0.10544615583E+04  0.10544615583E+04  0.50400001928E-02 0. -1.
       -1   -1    0    0    0  501  0.00000000000E+00  0.00000000000E+00 -0.40275512084E+03  0.40275512087E+03  0.50400001928E-02 0.  1.
    10030    2    1    2    0    0  0.00000000000E+00  0.00000000000E+00  0.65170643744E+03  0.14572166792E+04  0.13033645574E+04 0.  0.
        3    1    3    3  502    0  0.42616886419E+03  0.73174951028E+02  0.87096654746E+03  0.97239766107E+03  0.10100000352E+00 0. -1.
       -3    1    3    3    0  502 -0.42616886419E+03 -0.73174951028E+02 -0.21926011001E+03  0.48481901810E+03  0.10100000352E+00 0.  1.
</event>
<event>
 5   0  0.9027076E-04  0.1339664E+04  0.7818609E-02  0.8998689E-01
       -1   -1    0    0    0  501  0.00000000000E+00  0.00000000000E+00  0.44994650900E+03  0.44994650903E+03  0.50400001928E-02 0.  1.
        1   -1    0    0  501    0  0.00000000000E+00  0.00000000000E+00 -0.99717409129E+03  0.99717409131E+03  0.50400001928E-02 0. -1.
    10030    2    1    2    0    0  0.00000000000E+00  0.00000000000E+00 -0.54722758230E+03  0.14471206003E+04  0.13396641389E+04 0.  0.
        5    1    3    3  502    0  0.21762011666E+03  0.47525781302E+03 -0.72604629983E+03  0.89464731795E+03  0.46999998093E+01 0. -1.
       -5    1    3    3    0  502 -0.21762011666E+03 -0.47525781302E+03  0.17881871753E+03  0.55247328239E+03  0.46999998093E+01 0.  1.
</event>
<event>
 5   0  0.9215829E-04  0.1301667E+04  0.7818609E-02  0.9028244E-01
        1   -1    0    0  501    0  0.00000000000E+00  0.00000000000E+00  0.16479500936E+04  0.16479500936E+04  0.50400001928E-02 0.  1.
       -1   -1    0    0    0  501  0.00000000000E+00  0.00000000000E+00 -0.25703721759E+03  0.25703721764E+03  0.50400001928E-02 0. -1.
    10030    2    1    2    0    0  0.00000000000E+00  0.00000000000E+00  0.13909128760E+04  0.19049873112E+04  0.13016674027E+04 0.  0.
        3    1    3    3  502    0 -0.61880975764E+03  0.17126804150E+03  0.53970398028E+03  0.83877211132E+03  0.10100000352E+00 0. -1.
       -3    1    3    3    0  502  0.61880975764E+03 -0.17126804150E+03  0.85120889572E+03  0.10662151999E+04  0.10100000352E+00 0.  1.
</event>
<event>
 5   0  0.1694675E-03  0.1300371E+04  0.7818609E-02  0.9029271E-01
        2   -1    0    0  501    0  0.00000000000E+00  0.00000000000E+00  0.99363086604E+03  0.99363086604E+03  0.25500000920E-02 0.  1.
       -2   -1    0    0    0  501  0.00000000000E+00  0.00000000000E+00 -0.42545080316E+03  0.42545080317E+03  0.25500000920E-02 0. -1.
    10030    2    1    2    0    0  0.00000000000E+00  0.00000000000E+00  0.56818006288E+03  0.14190816692E+04  0.13003707933E+04 0.  0.
        4    1    3    3  502    0  0.73532655301E+02 -0.48526184186E+03 -0.18128257259E+03  0.52321228062E+03  0.12699999809E+01 0. -1.
       -4    1    3    3    0  502 -0.73532655301E+02  0.48526184186E+03  0.74946263547E+03  0.89586938860E+03  0.12699999809E+01 0.  1.
</event>
<event>
 5   0  0.1714861E-03  0.1296492E+04  0.7818609E-02  0.9032351E-01
        2   -1    0    0  501    0  0.00000000000E+00  0.00000000000E+00  0.86813252327E+03  0.86813252327E+03  0.25500000920E-02 0. -1.
       -2   -1    0    0    0  501  0.00000000000E+00  0.00000000000E+00 -0.48405419894E+03  0.48405419895E+03  0.25500000920E-02 0.  1.
    10030    2    1    2    0    0  0.00000000000E+00  0.00000000000E+00  0.38407832433E+03  0.13521867222E+04  0.12964924884E+04 0.  0.
        1    1    3    3  502    0 -0.43679317091E+03  0.35236325337E+03 -0.14636009733E+03  0.57997363267E+03  0.50400001928E-02 0.  1.
       -1    1    3    3    0  502  0.43679317091E+03 -0.35236325337E+03  0.53043842166E+03  0.77221308955E+03  0.50400001928E-02 0. -1.
</event>
<event>
 5   0  0.9110949E-04  0.1260837E+04  0.7818609E-02  0.9061212E-01
       -1   -1    0    0    0  501  0.00000000000E+00  0.00000000000E+00  0.77636864061E+03  0.77636864063E+03  0.50400001928E-02 0. -1.
        1   -1    0    0  501    0  0.00000000000E+00  0.00000000000E+00 -0.51190524787E+03  0.51190524789E+03  0.50400001928E-02 0.  1.
    10030    2    1    2    0    0  0.00000000000E+00  0.00000000000E+00  0.26446339274E+03  0.12882738885E+04  0.12608365182E+04 0.  0.
        2    1    3    3  502    0  0.12184004873E+03  0.54689111668E+02 -0.49728541838E+03  0.51490648059E+03  0.25500000920E-02 0.  1.
       -2    1    3    3    0  502 -0.12184004873E+03 -0.54689111668E+02  0.76174881112E+03  0.77336740794E+03  0.25500000920E-02 0. -1.
</event>
<event>
 5   0  0.1667342E-03  0.1322096E+04  0.7818609E-02  0.9012224E-01
       -2   -1    0    0    0  501  0.00000000000E+00  0.00000000000E+00  0.38551443522E+03  0.38551443523E+03  0.25500000920E-02 0.  1.
        2   -1    0    0  501    0  0.00000000000E+00  0.00000000000E+00 -0.11335101171E+04  0.11335101171E+04  0.25500000920E-02 0. -1.
    10030    2    1    2    0    0  0.00000000000E+00  0.00000000000E+00 -0.74799568189E+03  0.15190245523E+04  0.13220960822E+04 0.  0.
        5    1    3    3  502    0 -0.54321181104E+03 -0.24070709311E+02 -0.80589358983E+03  0.97218570182E+03  0.46999998093E+01 0. -1.
       -5    1    3    3    0  502  0.54321181104E+03  0.24070709311E+02  0.57897907938E+02  0.54683885052E+03  0.46999998093E+01 0.  1.
</event>
<event>
 5   0  0.9110949E-04  0.1272747E+04  0.7818609E-02  0.9051461E-01
       -1   -1    0    0    0  501  0.00000000000E+00  0.00000000000E+00  0.40063012823E+03  0.40063012826E+03  0.50400001928E-02 0.  1.
        1   -1    0    0  501    0  0.00000000000E+00  0.00000000000E+00 -0.10108357572E+04  0.10108357572E+04  0.50400001928E-02 0. -1.
    10030    2    1    2    0    0  0.00000000000E+00  0.00000000000E+00 -0.61020562897E+03  0.14114658855E+04  0.12727470433E+04 0.  0.
        2    1    3    3  502    0 -0.25763661699E+03  0.58042662902E+03 -0.35082180813E+03  0.72549820065E+03  0.25500000920E-02 0.  1.
       -2    1    3    3    0  502  0.25763661699E+03 -0.58042662902E+03 -0.25938382083E+03  0.68596768481E+03  0.25500000920E-02 0. -1.
</event>
<event>
 5   0  0.1700511E-03  0.1304694E+04  0.7818609E-02  0.9025851E-01
        2   -1    0    0  501    0  0.00000000000E+00  0.00000000000E+00  0.55065855373E+03  0.55065855374E+03  0.25500000920E-02 0. -1.
       -2   -1    0    0    0  501  0.00000000000E+00  0.00000000000E+00 -0.77281440929E+03  0.77281440929E+03  0.25500000920E-02 0.  1.
    10030    2    1    2    0    0  0.00000000000E+00  0.00000000000E+00 -0.22215585555E+03  0.13234729630E+04  0.13046943932E+04 0.  0.
        2    1    3    3  502    0 -0.36163000671E+03  0.52088292347E+02  0.43713317820E+03  0.56971472461E+03  0.25500000920E-02 0. -1.
       -2    1    3    3    0  502  0.36163000671E+03 -0.52088292347E+02 -0.65928903375E+03  0.75375823842E+03  0.25500000920E-02 0.  1.
</event>
<event>
 5   0  0.1623890E-03  0.1333581E+04  0.7818609E-02  0.9003351E-01
       -2   -1    0    0    0  501  0.00000000000E+00  0.00000000000E+00  0.29546648617E+03  0.29546648618E+03  0.25500000920E-02 0. -1.
        2   -1    0    0  501    0  0.00000000000E+00  0.00000000000E+00 -0.15047726476E+04  0.15047726476E+04  0.25500000920E-02 0.  1.
    10030    2    1    2    0    0  0.00000000000E+00  0.00000000000E+00 -0.12093061614E+04  0.18002391338E+04  0.13335814736E+04 0.  0.
        3    1    3    3  502    0 -0.33131173033E+03 -0.48598658109E+03 -0.18063926774E+03  0.61528934243E+03  0.10100000352E+00 0. -1.
       -3    1    3    3    0  502  0.33131173033E+03  0.48598658109E+03 -0.10286668937E+04  0.11849497913E+04  0.10100000352E+00 0.  1.
</event>
<event>
 5   0  0.6284125E-04  0.1293888E+04  0.7818609E-02  0.9034426E-01
       -3   -1    0    0    0  501  0.00000000000E+00  0.00000000000E+00  0.68272387597E+03  0.68272388344E+03  0.10100000352E+00 0.  1.
        3   -1    0    0  501    0  0.00000000000E+00  0.00000000000E+00 -0.61303887819E+03  0.61303888651E+03  0.10100000352E+00 0. -1.
    10030    2    1    2    0    0  0.00000000000E+00  0.00000000000E+00  0.69684997782E+02  0.12957627700E+04  0.12938876138E+04 0.  0.
        1    1    3    3  502    0  0.22943017356E+03 -0.55741688453E+03 -0.20041176532E+03  0.63522961471E+03  0.50400001928E-02 0.  1.
       -1    1    3    3    0  502 -0.22943017356E+03  0.55741688453E+03  0.27009676310E+03  0.66053315524E+03  0.50400001928E-02 0. -1.
</event>
<event>
 5   0  0.1714861E-03  0.1368720E+04  0.7818609E-02  0.8976777E-01
        2   -1    0    0  501    0  0.00000000000E+00  0.00000000000E+00  0.24515121699E+04  0.24515121699E+04  0.25500000920E-02 0.  1.
       -2   -1    0    0    0  501  0.00000000000E+00  0.00000000000E+00 -0.19104489222E+03  0.19104489224E+03  0.25500000920E-02 0. -1.
    10030    2    1    2    0    0  0.00000000000E+00  0.00000000000E+00  0.22604672776E+04  0.26425570621E+04  0.13687203926E+04 0.  0.
        1    1    3    3  502    0 -0.15129531991E+03  0.19609684178E+03 -0.10147875843E+03  0.26766057540E+03  0.50400001928E-02 0. -1.
       -1    1    3    3    0  502  0.15129531991E+03 -0.19609684178E+03  0.23619460361E+04  0.23748964867E+04  0.50400001928E-02 0.  1.
</event>
<event>
 5   0  0.1694675E-03  0.1276290E+04  0.7818609E-02  0.9048581E-01
        2   -1    0    0  501    0  0.00000000000E+00  0.00000000000E+00  0.45827554878E+03  0.45827554879E+03  0.25500000920E-02 0.  1.
       -2   -1    0    0    0  501  0.00000000000E+00  0.00000000000E+00 -0.88861224762E+03  0.88861224763E+03  0.25500000920E-02 0. -1.
    10030    2    1    2    0    0  0.00000000000E+00  0.00000000000E+00 -0.43033669884E+03  0.13468877964E+04  0.12762903517E+04 0.  0.
        4    1    3    3  502    0  0.12138207434E+02  0.20761038841E+03 -0.85184605718E+03  0.87686528469E+03  0.12699999809E+01 0. -1.
       -4    1    3    3    0  502 -0.12138207434E+02 -0.20761038841E+03  0.42150935834E+03  0.47002251172E+03  0.12699999809E+01 0.  1.
</event>
<event>
 5   0  0.9027076E-04  0.1307566E+04  0.7818609E-02  0.9023587E-01
       -1   -1    0    0    0  501  0.00000000000E+00  0.00000000000E+00  0.43985139307E+03  0.43985139310E+03  0.50400001928E-02 0. -1.
        1   -1    0    0  501    0  0.00000000000E+00  0.00000000000E+00 -0.97176451550E+03  0.97176451551E+03  0.50400001928E-02 0.  1.
    10030    2    1    2    0    0  0.00000000000E+00  0.00000000000E+00 -0.53191312243E+03  0.14116159086E+04  0.13075656403E+04 0.  0.
        5    1    3    3  502    0  0.39726943040E+03  0.10984091917E+03  0.28189145436E+03  0.49937251616E+03  0.46999998093E+01 0. -1.
       -5    1    3    3    0  502 -0.39726943040E+03 -0.10984091917E+03 -0.81380457679E+03  0.91224339245E+03  0.46999998093E+01 0.  1.
</event>
<event>
 5   0  0.9081324E-04  0.1263175E+04  0.7818609E-02  0.9059289E-01
        1   -1    0    0  501    0  0.00000000000E+00  0.00000000000E+00  0.96089829708E+03  0.96089829709E+03  0.50400001928E-02 0.  1.
       -1   -1    0    0    0  501  0.00000000000E+00  0.00000000000E+00 -0.41513493951E+03  0.41513493954E+03  0.50400001928E-02 0. -1.
    10030    2    1    2    0    0  0.00000000000E+00  0.00000000000E+00  0.54576335757E+03  0.13760332366E+04  0.12631745033E+04 0.  0.
        4    1    3    3  502    0  0.58051674382E+03 -0.21604674411E+03  0.13846795109E+03  0.63470534256E+03  0.12699999809E+01 0.  1.
       -4    1    3    3    0  502 -0.58051674382E+03  0.21604674411E+03  0.40729540647E+03  0.74132789407E+03  0.12699999809E+01 0. -1.
</event>
<event>
 5   0  0.9027076E-04  0.1291043E+04  0.7818609E-02  0.9036698E-01
        1   -1    0    0  501    0  0.00000000000E+00  0.00000000000E+00  0.12936477349E+04  0.12936477349E+04  0.50400001928E-02 0.  1.
       -1   -1    0    0    0  501  0.00000000000E+00  0.00000000000E+00 -0.32211109021E+03  0.32211109025E+03  0.50400001928E-02 0. -1.
    10030    2    1    2    0    0  0.00000000000E+00  0.00000000000E+00  0.97153664472E+03  0.16157588252E+04  0.12910434265E+04 0.  0.
        5    1    3    3  502    0  0.27561309843E+03  0.27256152527E+03 -0.16021635580E+03  0.41945647658E+03  0.46999998093E+01 0. -1.
       -5    1    3    3    0  502 -0.27561309843E+03 -0.27256152527E+03  0.11317530005E+04  0.11963023486E+04  0.46999998093E+01 0.  1.
</event>
<event>
 5   0  0.1623890E-03  0.1261219E+04  0.7818609E-02  0.9060897E-01
       -2   -1    0    0    0  501  0.00000000000E+00  0.00000000000E+00  0.51459228657E+03  0.51459228658E+03  0.25500000920E-02 0. -1.
        2   -1    0    0  501    0  0.00000000000E+00  0.00000000000E+00 -0.77278358269E+03  0.77278358269E+03  0.25500000920E-02 0.  1.
    10030    2    1    2    0    0  0.00000000000E+00  0.00000000000E+00 -0.25819129612E+03  0.12873758693E+04  0.12612192051E+04 0.  0.
        3    1    3    3  502    0  0.32974625043E+03  0.52340943662E+03 -0.41710461260E+01  0.61863352305E+03  0.10100000352E+00 0. -1.
       -3    1    3    3    0  502 -0.32974625043E+03 -0.52340943662E+03 -0.25402024999E+03  0.66874234622E+03  0.10100000352E+00 0.  1.
</event>
<event>
 5   0  0.1700511E-03  0.1297404E+04  0.7818609E-02  0.9031627E-01
       -2   -1    0    0    0  501  0.00000000000E+00  0.00000000000E+00  0.82445877391E+03  0.82445877391E+03  0.25500000920E-02 0.  1.
        2   -1    0    0  501    0  0.00000000000E+00  0.00000000000E+00 -0.51041242688E+03  0.51041242688E+03  0.25500000920E-02 0. -1.
    10030    2    1    2    0    0  0.00000000000E+00  0.00000000000E+00  0.31404634703E+03  0.13348712008E+04  0.12974035666E+04 0.  0.
        2    1    3    3  502    0  0.27413689818E+03  0.38599892613E+03  0.61330261248E+03  0.77478145590E+03  0.25500000920E-02 0.  1.
       -2    1    3    3    0  502 -0.27413689818E+03 -0.38599892613E+03 -0.29925626545E+03  0.56008974490E+03  0.25500000920E-02 0. -1.
</event>
<event>
 5   0  0.1667342E-03  0.1310186E+04  0.7818609E-02  0.9021526E-01
       -2   -1    0    0    0  501  0.00000000000E+00  0.00000000000E+00  0.23791676676E+03  0.23791676677E+03  0.25500000920E-02 0.  1.
        2   -1    0    0  501    0  0.00000000000E+00  0.00000000000E+00 -0.18037696013E+04  0.18037696013E+04  0.25500000920E-02 0. -1.
    10030    2    1    2    0    0  0.00000000000E+00  0.00000000000E+00 -0.15658528345E+04  0.20416863681E+04  0.13101862944E+04 0.  0.
        5    1    3    3  502    0  0.63696338090E+03 -0.11617540082E+03 -0.93802301496E+03  0.11397931123E+04  0.46999998093E+01 0. -1.
       -5    1    3    3    0  502 -0.63696338090E+03  0.11617540082E+03 -0.62782981958E+03  0.90189325572E+03  0.46999998093E+01 0.  1.
</event>
<event>
 5   0  0.9081324E-04  0.1301087E+04  0.7818609E-02  0.9028703E-01
       -1   -1    0    0    0  501  0.00000000000E+00  0.00000000000E+00  0.44202888617E+03  0.44202888620E+03  0.50400001928E-02 0. -1.
        1   -1    0    0  501    0  0.00000000000E+00  0.00000000000E+00 -0.95741970390E+03  0.95741970391E+03  0.50400001928E-02 0.  1.
    10030    2    1    2    0    0  0.00000000000E+00  0.00000000000E+00 -0.51539081773E+03  0.13994485901E+04  0.13010874918E+04 0.  0.
        4    1    3    3  502    0  0.46239132331E+03 -0.40443170225E+03 -0.48797114939E+03  0.78453055593E+03  0.12699999809E+01 0.  1.
       -4    1    3    3    0  502 -0.46239132331E+03  0.40443170225E+03 -0.27419668337E+02  0.61491803418E+03  0.12699999809E+01 0. -1.
</event>
<event>
 5   0  0.9098192E-04  0.1320989E+04  0.7818609E-02  0.9013084E-01
        1   -1    0    0  501    0  0.00000000000E+00  0.00000000000E+00  0.21868672748E+03  0.21868672754E+03  0.50400001928E-02 0. -1.
       -1   -1    0    0    0  501  0.00000000000E+00  0.00000000000E+00 -0.19948760700E+04  0.19948760700E+04  0.50400001928E-02 0.  1.
    10030    2    1    2    0    0  0.00000000000E+00  0.00000000000E+00 -0.17761893426E+04  0.22135627976E+04  0.13209889016E+04 0.  0.
        1    1    3    3  502    0  0.40527002187E+03  0.29612152088E+03 -0.16867834066E+03  0.52951310502E+03  0.50400001928E-02 0. -1.
       -1    1    3    3    0  502 -0.40527002187E+03 -0.29612152088E+03 -0.16075110019E+04  0.16840496926E+04  0.50400001928E-02 0.  1.
</event>
<event>
 5   0  0.1700511E-03  0.1311804E+04  0.7818609E-02  0.9020256E-01
       -2   -1    0    0    0  501  0.00000000000E+00  0.00000000000E+00  0.43054007256E+03  0.43054007257E+03  0.25500000920E-02 0.  1.
        2   -1    0    0  501    0  0.00000000000E+00  0.00000000000E+00 -0.99922741922E+03  0.99922741923E+03  0.25500000920E-02 0. -1.
    10030    2    1    2    0    0  0.00000000000E+00  0.00000000000E+00 -0.56868734666E+03  0.14297674918E+04  0.13118040183E+04 0.  0.
        2    1    3    3  502    0 -0.15261300788E+03  0.32604861862E+03  0.31323826258E+03  0.47719664817E+03  0.25500000920E-02 0.  1.
       -2    1    3    3    0  502  0.15261300788E+03 -0.32604861862E+03 -0.88192560924E+03  0.95257084362E+03  0.25500000920E-02 0. -1.
</event>
<event>
 5   0  0.6284125E-04  0.1300979E+04  0.7818609E-02  0.9028789E-01
        3   -1    0    0  501    0  0.00000000000E+00  0.00000000000E+00  0.71897838630E+03  0.71897839340E+03  0.10100000352E+00 0.  1.
       -3   -1    0    0    0  501  0.00000000000E+00  0.00000000000E+00 -0.58852518632E+03  0.58852519499E+03  0.10100000352E+00 0. -1.
    10030    2    1    2    0    0  0.00000000000E+00  0.00000000000E+00  0.13045319998E+03  0.13075035884E+04  0.13009794757E+04 0.  0.
        4    1    3    3  502    0 -0.16301334564E+03 -0.17458216320E+02 -0.56741973708E+03  0.59063094323E+03  0.12699999809E+01 0. -1.
       -4    1    3    3    0  502  0.16301334564E+03  0.17458216320E+02  0.69787293706E+03  0.71687264515E+03  0.12699999809E+01 0.  1.
</event>
<event>
 5   0  0.9081324E-04  0.1301938E+04  0.7818609E-02  0.9028030E-01
        1   -1    0    0  501    0  0.00000000000E+00  0.00000000000E+00  0.11465579840E+04  0.11465579840E+04  0.50400001928E-02 0.  1.
       -1   -1    0    0    0  501  0.00000000000E+00  0.00000000000E+00 -0.36959386528E+03  0.36959386532E+03  0.50400001928E-02 0. -1.
    10030    2    1    2    0    0  0.00000000000E+00  0.00000000000E+00  0.77696411875E+03  0.15161518494E+04  0.13019382430E+04 0.  0.
        4    1    3    3  502    0 -0.12928071402E+03  0.83236695024E+02 -0.34814216872E+03  0.38058695847E+03  0.12699999809E+01 0. -1.
       -4    1    3    3    0  502  0.12928071402E+03 -0.83236695024E+02  0.11251062875E+04  0.11355648909E+04  0.12699999809E+01 0.  1.
</event>
<event>
 5   0  0.1694675E-03  0.1294100E+04  0.7818609E-02  0.9034257E-01
        2   -1    0    0  501    0  0.00000000000E+00  0.00000000000E+00  0.16524565140E+04  0.16524565140E+04  0.25500000920E-02 0. -1.
       -2   -1    0    0    0  501  0.00000000000E+00  0.00000000000E+00 -0.25336432364E+03  0.25336432365E+03  0.25500000920E-02 0.  1.
    10030    2    1    2    0    0  0.00000000000E+00  0.00000000000E+00  0.13990921903E+04  0.19058208376E+04  0.12940997288E+04 0.  0.
        4    1    3    3  502    0  0.43094067048E+03  0.88095691146E+02  0.67081906757E+00  0.43985540257E+03  0.12699999809E+01 0.  1.
       -4    1    3    3    0  502 -0.43094067048E+03 -0.88095691146E+02  0.13984213713E+04  0.14659654351E+04  0.12699999809E+01 0. -1.
</event>
<event>
 5   0  0.9027076E-04  0.1302990E+04  0.7818609E-02  0.9027198E-01
        1   -1    0    0  501    0  0.00000000000E+00  0.00000000000E+00  0.13074923107E+04  0.13074923108E+04  0.50400001928E-02 0. -1.
       -1   -1    0    0    0  501  0.00000000000E+00  0.00000000000E+00 -0.32462566889E+03  0.32462566893E+03  0.50400001928E-02 0.  1.
    10030    2    1    2    0    0  0.00000000000E+00  0.00000000000E+00  0.98286664185E+03  0.16321179797E+04  0.13029897405E+04 0.  0.
        5    1    3    3  502    0  0.19975195412E+03  0.58421577107E+03  0.23104252503E+03  0.65925082382E+03  0.46999998093E+01 0.  1.
       -5    1    3    3    0  502 -0.19975195412E+03 -0.58421577107E+03  0.75182411682E+03  0.97286715587E+03  0.46999998093E+01 0. -1.
</event>
<event>
 5   0  0.1667342E-03  0.1295123E+04  0.7818609E-02  0.9033441E-01
       -2   -1    0    0    0  501  0.00000000000E+00  0.00000000000E+00  0.21145960567E+03  0.21145960568E+03  0.25500000920E-02 0. -1.
        2   -1    0    0  501    0  0.00000000000E+00  0.00000000000E+00 -0.19830551456E+04  0.19830551456E+04  0.25500000920E-02 0.  1.
    10030    2    1    2    0    0  0.00000000000E+00  0.00000000000E+00 -0.17715955399E+04  0.21945147513E+04  0.12951232515E+04 0.  0.
        5    1    3    3  502    0 -0.43835304376E+03 -0.32670292287E+03 -0.29778448921E+03  0.62256395880E+03  0.46999998093E+01 0. -1.
       -5    1    3    3    0  502  0.43835304376E+03  0.32670292287E+03 -0.14738110507E+04  0.15719507925E+04  0.46999998093E+01 0.  1.
</event>
<event>
 5   0  0.1714861E-03  0.1308889E+04  0.7818609E-02  0.9022546E-01
       -2   -1    0    0    0  501  0.00000000000E+00  0.00000000000E+00  0.65013136149E+03  0.65013136150E+03  0.25500000920E-02 0.  1.
        2   -1    0    0  501    0  0.00000000000E+00  0.00000000000E+00 -0.65878623438E+03  0.65878623439E+03  0.25500000920E-02 0. -1.
    10030    2    1    2    0    0  0.00000000000E+00  0.00000000000E+00 -0.86548728905E+01  0.13089175959E+04  0.13088889815E+04 0.  0.
        1    1    3    3  502    0  0.31621949938E+03 -0.29535517417E+03  0.48667020219E+03  0.65121220536E+03  0.50400001928E-02 0.  1.
       -1    1    3    3    0  502 -0.31621949938E+03  0.29535517417E+03 -0.49532507508E+03  0.65770539052E+03  0.50400001928E-02 0. -1.
</event>
<event>
 5   0  0.9215829E-04  0.1307151E+04  0.7818609E-02  0.9023914E-01
       -1   -1    0    0    0  501  0.00000000000E+00  0.00000000000E+00  0.70884663314E+03  0.70884663316E+03  0.50400001928E-02 0. -1.
        1   -1    0    0  501    0  0.00000000000E+00  0.00000000000E+00 -0.60261392670E+03  0.60261392672E+03  0.50400001928E-02 0.  1.
    10030    2    1    2    0    0  0.00000000000E+00  0.00000000000E+00  0.10623270645E+03  0.13114605599E+04  0.13071508758E+04 0.  0.
        3    1    3    3  502    0 -0.30548121699E+03  0.36554810219E+03  0.50204737381E+03  0.69209519916E+03  0.10100000352E+00 0. -1.
       -3    1    3    3    0  502  0.30548121699E+03 -0.36554810219E+03 -0.39581466737E+03  0.61936536072E+03  0.10100000352E+00 0.  1.
</event>
<event>
 5   0  0.9081324E-04  0.1300973E+04  0.7818609E-02  0.9028794E-01
       -1   -1    0    0    0  501  0.00000000000E+00  0.00000000000E+00  0.10171588648E+04  0.10171588648E+04  0.50400001928E-02 0. -1.
        1   -1    0    0  501    0  0.00000000000E+00  0.00000000000E+00 -0.41599481309E+03  0.41599481312E+03  0.50400001928E-02 0.  1.
    10030    2    1    2    0    0  0.00000000000E+00  0.00000000000E+00  0.60116405171E+03  0.14331536779E+04  0.13009731925E+04 0.  0.
        4    1    3    3  502    0 -0.50816551385E+03  0.32381682447E+03  0.57051181153E+03  0.82980411259E+03  0.12699999809E+01 0. -1.
       -4    1    3    3    0  502  0.50816551385E+03 -0.32381682447E+03  0.30652240180E+02  0.60334956535E+03  0.12699999809E+01 0.  1.
</event>
<event>
 5   0  0.9081324E-04  0.1293906E+04  0.7818609E-02  0.9034412E-01
       -1   -1    0    0    0  501  0.00000000000E+00  0.00000000000E+00  0.29042520046E+03  0.29042520050E+03  0.50400001928E-02 0.  1.
        1   -1    0    0  501    0  0.00000000000E+00  0.00000000000E+00 -0.14411559486E+04  0.14411559486E+04  0.50400001928E-02 0. -1.
    10030    2    1    2    0    0  0.00000000000E+00  0.00000000000E+00 -0.11507307482E+04  0.17315811491E+04  0.12939057235E+04 0.  0.
        4    1    3    3  502    0  0.45462685078E+03 -0.43502915538E+02 -0.11885864843E+04  0.12733096720E+04  0.12699999809E+01 0. -1.
       -4    1    3    3    0  502 -0.45462685078E+03  0.43502915538E+02  0.37855736174E+02  0.45827147716E+03  0.12699999809E+01 0.  1.
</event>
<event>
 5   0  0.9081324E-04  0.1304050E+04  0.7818609E-02  0.9026359E-01
        1   -1    0    0  501    0  0.00000000000E+00  0.00000000000E+00  0.10869712184E+04  0.10869712184E+04  0.50400001928E-02 0. -1.
       -1   -1    0    0    0  501  0.00000000000E+00  0.00000000000E+00 -0.39112063513E+03  0.39112063516E+03  0.50400001928E-02 0.  1.
    10030    2    1    2    0    0  0.00000000000E+00  0.00000000000E+00  0.69585058323E+03  0.14780918535E+04  0.13040504182E+04 0.  0.
        4    1    3    3  502    0 -0.48140102807E+02  0.69398313701E+02 -0.38489257040E+03  0.39405266030E+03  0.12699999809E+01 0.  1.
       -4    1    3    3    0  502  0.48140102807E+02 -0.69398313701E+02  0.10807431536E+04  0.10840391932E+04  0.12699999809E+01 0. -1.
</event>
<event>
 5   0  0.9098192E-04  0.1308641E+04  0.7818609E-02  0.9022741E-01
        1   -1    0    0  501    0  0.00000000000E+00  0.00000000000E+00  0.12996780287E+04  0.12996780287E+04  0.50400001928E-02 0. -1.
       -1   -1    0    0    0  501  0.00000000000E+00  0.00000000000E+00 -0.32941634838E+03  0.32941634842E+03  0.50400001928E-02 0.  1.
    10030    2    1    2    0    0  0.00000000000E+00  0.00000000000E+00  0.97026168030E+03  0.16290943771E+04  0.13086408068E+04 0.  0.
        1    1    3    3  502    0  0.19027107346E+03 -0.60754554483E+03  0.29707425188E+03  0.70254379337E+03  0.50400001928E-02 0.  1.
       -1    1    3    3    0  502 -0.19027107346E+03  0.60754554483E+03  0.67318742842E+03  0.92655058375E+03  0.50400001928E-02 0. -1.
</event>
<event>
 5   0  0.1667342E-03  0.1302338E+04  0.7818609E-02  0.9027713E-01
        2   -1    0    0  501    0  0.00000000000E+00  0.00000000000E+00  0.52204514839E+03  0.52204514840E+03  0.25500000920E-02 0. -1.
       -2   -1    0    0    0  501  0.00000000000E+00  0.00000000000E+00 -0.81223113008E+03  0.81223113008E+03  0.25500000920E-02 0.  1.
    10030    2    1    2    0    0  0.00000000000E+00  0.00000000000E+00 -0.29018598169E+03  0.13342762785E+04  0.13023383905E+04 0.  0.
        5    1    3    3  502    0  0.29629225638E+03 -0.21635788941E+03 -0.69624415644E+03  0.78700562443E+03  0.46999998093E+01 0.  1.
       -5    1    3    3    0  502 -0.29629225638E+03  0.21635788941E+03  0.40605817475E+03  0.54727065405E+03  0.46999998093E+01 0. -1.
</event>
<event>
 5   0  0.1700511E-03  0.1238078E+04  0.7818609E-02  0.9080165E-01
       -2   -1    0    0    0  501  0.00000000000E+00  0.00000000000E+00  0.23806669130E+03  0.23806669131E+03  0.25500000920E-02 0. -1.
        2   -1    0    0  501    0  0.00000000000E+00  0.00000000000E+00 -0.16096720207E+04  0.16096720207E+04  0.25500000920E-02 0.  1.
    10030    2    1    2    0    0  0.00000000000E+00  0.00000000000E+00 -0.13716053294E+04  0.18477387120E+04  0.12380780138E+04 0.  0.
        2    1    3    3  502    0 -0.29831736361E+03  0.16172293943E+02  0.12335397587E+03  0.32321973314E+03  0.25500000920E-02 0. -1.
       -2    1    3    3    0  502  0.29831736361E+03 -0.16172293943E+02 -0.14949593053E+04  0.15245189789E+04  0.25500000920E-02 0.  1.
</event>
<event>
 5   0  0.9110949E-04  0.1309113E+04  0.7818609E-02  0.9022369E-01
        1   -1    0    0  501    0  0.00000000000E+00  0.00000000000E+00  0.25022609886E+04  0.25022609886E+04  0.50400001928E-02 0.  1.
       -1   -1    0    0    0  501  0.00000000000E+00  0.00000000000E+00 -0.17122285926E+03  0.17122285933E+03  0.50400001928E-02 0. -1.
    10030    2    1    2    0    0  0.00000000000E+00  0.00000000000E+00  0.23310381294E+04  0.26734838480E+04  0.13091131062E+04 0.  0.
        2    1    3    3  502    0 -0.24780410442E+03 -0.77258653387E+02 -0.61624005442E+02  0.26678322988E+03  0.25500000920E-02 0. -1.
       -2    1    3    3    0  502  0.24780410442E+03  0.77258653387E+02  0.23926621348E+04  0.24067006181E+04  0.25500000920E-02 0.  1.
</event>
<event>
 5   0  0.9098192E-04  0.1303024E+04  0.7818609E-02  0.9027170E-01
        1   -1    0    0  501    0  0.00000000000E+00  0.00000000000E+00  0.67780820747E+03  0.67780820749E+03  0.50400001928E-02 0. -1.
       -1   -1    0    0    0  501  0.00000000000E+00  0.00000000000E+00 -0.62623630523E+03  0.62623630526E+03  0.50400001928E-02 0.  1.
    10030    2    1    2    0    0  0.00000000000E+00  0.00000000000E+00  0.51571902236E+02  0.13040445127E+04  0.13030243398E+04 0.  0.
        1    1    3    3  502    0  0.16896309881E+03  0.35916675441E+03  0.54283231344E+03  0.67247022743E+03  0.50400001928E-02 0. -1.
       -1    1    3    3    0  502 -0.16896309881E+03 -0.35916675441E+03 -0.49126041120E+03  0.63157428532E+03  0.50400001928E-02 0.  1.
</event>
<event>
 5   0  0.9215829E-04  0.1293544E+04  0.7818609E-02  0.9034700E-01
       -1   -1    0    0    0  501  0.00000000000E+00  0.00000000000E+00  0.51670069282E+03  0.51670069285E+03  0.50400001928E-02 0. -1.
        1   -1    0    0  501    0  0.00000000000E+00  0.00000000000E+00 -0.80958709174E+03  0.80958709176E+03  0.50400001928E-02 0.  1.
    10030    2    1    2    0    0  0.00000000000E+00  0.00000000000E+00 -0.29288639892E+03  0.13262877846E+04  0.12935442957E+04 0.  0.
        3    1    3    3  502    0 -0.47011756490E+03  0.30804503819E+03  0.18167607403E+03  0.59068475218E+03  0.10100000352E+00 0. -1.
       -3    1    3    3    0  502  0.47011756490E+03 -0.30804503819E+03 -0.47456247295E+03  0.73560303242E+03  0.10100000352E+00 0.  1.
</event>
<event>
 5   0  0.9098192E-04  0.1331614E+04  0.7818609E-02  0.9004864E-01
       -1   -1    0    0    0  501  0.00000000000E+00  0.00000000000E+00  0.42351078536E+03  0.42351078539E+03  0.50400001928E-02 0. -1.
        1   -1    0    0  501    0  0.00000000000E+00  0.00000000000E+00 -0.10467233798E+04  0.10467233798E+04  0.50400001928E-02 0.  1.
    10030    2    1    2    0    0  0.00000000000E+00  0.00000000000E+00 -0.62321259443E+03  0.14702341652E+04  0.13316135185E+04 0.  0.
        1    1    3    3  502    0  0.41628120634E+03  0.43629389375E+03 -0.62322119045E+03  0.86720646718E+03  0.50400001928E-02 0. -1.
       -1    1    3    3    0  502 -0.41628120634E+03 -0.43629389375E+03  0.85960143848E-02  0.60302769802E+03  0.50400001928E-02 0.  1.
</event>
<event>
 5   0  0.9081324E-04  0.1215104E+04  0.7818609E-02  0.9099738E-01
        1   -1    0    0  501    0  0.00000000000E+00  0.00000000000E+00  0.79339845974E+03  0.79339845975E+03  0.50400001928E-02 0.  1.
       -1   -1    0    0    0  501  0.00000000000E+00  0.00000000000E+00 -0.46523849071E+03  0.46523849073E+03  0.50400001928E-02 0. -1.
    10030    2    1    2    0    0  0.00000000000E+00  0.00000000000E+00  0.32815996903E+03  0.12586369505E+04  0.12151041140E+04 0.  0.
        4    1    3    3  502    0  0.33622416974E+02  0.56889481825E+03 -0.54049684749E+02  0.57244629659E+03  0.12699999809E+01 0. -1.
       -4    1    3    3    0  502 -0.33622416974E+02 -0.56889481825E+03  0.38220965378E+03  0.68619065390E+03  0.12699999809E+01 0.  1.
</event>
<event>
 5   0  0.9081324E-04  0.1295864E+04  0.7818609E-02  0.9032851E-01
        1   -1    0    0  501    0  0.00000000000E+00  0.00000000000E+00  0.13010023749E+04  0.13010023750E+04  0.50400001928E-02 0. -1.
       -1   -1    0    0    0  501  0.00000000000E+00  0.00000000000E+00 -0.32268661009E+03  0.32268661013E+03  0.50400001928E-02 0.  1.
    10030    2    1    2    0    0  0.00000000000E+00  0.00000000000E+00  0.97831576486E+03  0.16236889851E+04  0.12958642616E+04 0.  0.
        4    1    3    3  502    0  0.32215625117E+03 -0.33351876504E+03  0.10561839486E+04  0.11534927667E+04  0.12699999809E+01 0. -1.
       -4    1    3    3    0  502 -0.32215625117E+03  0.33351876504E+03 -0.77868183722E+02  0.47019621834E+03  0.12699999809E+01 0.  1.
</event>
<event>
 5   0  0.9215829E-04  0.1300223E+04  0.7818609E-02  0.9029388E-01
        1   -1    0    0  501    0  0.00000000000E+00  0.00000000000E+00  0.40671803397E+03  0.40671803400E+03  0.50400001928E-02 0. -1.
       -1   -1    0    0    0  501  0.00000000000E+00  0.00000000000E+00 -0.10391600955E+04  0.10391600955E+04  0.50400001928E-02 0.  1.
    10030    2    1    2    0    0  0.00000000000E+00  0.00000000000E+00 -0.63244206156E+03  0.14458781295E+04  0.13002232901E+04 0.  0.
        3    1    3    3  502    0 -0.11628752339E+02  0.64922033659E+03 -0.28065597907E+03  0.70738254298E+03  0.10100000352E+00 0. -1.
       -3    1    3    3    0  502  0.11628752339E+02 -0.64922033659E+03 -0.35178608249E+03  0.73849558655E+03  0.10100000352E+00 0.  1.
</event>
<event>
 5   0  0.1700511E-03  0.1314388E+04  0.7818609E-02  0.9018232E-01
        2   -1    0    0  501    0  0.00000000000E+00  0.00000000000E+00  0.10854124256E+04  0.10854124256E+04  0.25500000920E-02 0.  1.
       -2   -1    0    0    0  501  0.00000000000E+00  0.00000000000E+00 -0.39791700068E+03  0.39791700069E+03  0.25500000920E-02 0. -1.
    10030    2    1    2    0    0  0.00000000000E+00  0.00000000000E+00  0.68749542490E+03  0.14833294263E+04  0.13143881571E+04 0.  0.
        2    1    3    3  502    0  0.64420730346E+02  0.33910594435E+03  0.97488000207E+03  0.10341827162E+04  0.25500000920E-02 0.  1.
       -2    1    3    3    0  502 -0.64420730346E+02 -0.33910594435E+03 -0.28738457717E+03  0.44914671010E+03  0.25500000920E-02 0. -1.
</event>
<event>
 5   0  0.9027076E-04  0.1301376E+04  0.7818609E-02  0.9028475E-01
       -1   -1    0    0    0  501  0.00000000000E+00  0.00000000000E+00  0.38488214061E+03  0.38488214064E+03  0.50400001928E-02 0. -1.
        1   -1    0    0  501    0  0.00000000000E+00  0.00000000000E+00 -0.11000634374E+04  0.11000634374E+04  0.50400001928E-02 0.  1.
    10030    2    1    2    0    0  0.00000000000E+00  0.00000000000E+00 -0.71518129679E+03  0.14849455781E+04  0.13013758421E+04 0.  0.
        5    1    3    3  502    0 -0.33475911754E+02 -0.11959383214E+03  0.37121364867E+03  0.39146517637E+03  0.46999998093E+01 0. -1.
       -5    1    3    3    0  502  0.33475911754E+02  0.11959383214E+03 -0.10863949455E+04  0.10934804017E+04  0.46999998093E+01 0.  1.
</event>
<event>
 5   0  0.1714861E-03  0.1360468E+04  0.7818609E-02  0.8982942E-01
       -2   -1    0    0    0  501  0.00000000000E+00  0.00000000000E+00  0.94453942350E+03  0.94453942351E+03  0.25500000920E-02 0.  1.
        2   -1    0    0  501    0  0.00000000000E+00  0.00000000000E+00 -0.48988763056E+03  0.48988763056E+03  0.25500000920E-02 0. -1.
    10030    2    1    2    0    0  0.00000000000E+00  0.00000000000E+00  0.45465179295E+03  0.14344270541E+04  0.13604678315E+04 0.  0.
        1    1    3    3  502    0 -0.27264511992E+03  0.29867578625E+03  0.80403030451E+03  0.90000406516E+03  0.50400001928E-02 0.  1.
       -1    1    3    3    0  502  0.27264511992E+03 -0.29867578625E+03 -0.34937851156E+03  0.53442298891E+03  0.50400001928E-02 0. -1.
</event>
<event>
 5   0  0.9215829E-04  0.1367846E+04  0.7818609E-02  0.8977428E-01
       -1   -1    0    0    0  501  0.00000000000E+00  0.00000000000E+00  0.28310074250E+03  0.28310074255E+03  0.50400001928E-02 0. -1.
        1   -1    0    0  501    0  0.00000000000E+00  0.00000000000E+00 -0.16522407327E+04  0.16522407327E+04  0.50400001928E-02 0.  1.
    10030    2    1    2    0    0  0.00000000000E+00  0.00000000000E+00 -0.13691399902E+04  0.19353414753E+04  0.13678458660E+04 0.  0.
        3    1    3    3  502    0  0.42342251986E+03 -0.52847381996E+03 -0.54901153461E+03  0.87177111907E+03  0.10100000352E+00 0. -1.
       -3    1    3    3    0  502 -0.42342251986E+03  0.52847381996E+03 -0.82012845561E+03  0.10635703562E+04  0.10100000352E+00 0.  1.
</event>
<event>
 5   0  0.1714861E-03  0.1284936E+04  0.7818609E-02  0.9041597E-01
        2   -1    0    0  501    0  0.00000000000E+00  0.00000000000E+00  0.34910494798E+03  0.34910494799E+03  0.25500000920E-02 0. -1.
       -2   -1    0    0    0  501  0.00000000000E+00  0.00000000000E+00 -0.11823529120E+04  0.11823529120E+04  0.25500000920E-02 0.  1.
    10030    2    1    2    0    0  0.00000000000E+00  0.00000000000E+00 -0.83324796398E+03  0.15314578599E+04  0.12849361880E+04 0.  0.
        1    1    3    3  502    0  0.57540710712E+02  0.62048380191E+03 -0.60300425946E+03  0.86713621697E+03  0.50400001928E-02 0.  1.
       -1    1    3    3    0  502 -0.57540710712E+02 -0.62048380191E+03 -0.23024370452E+03  0.66432164297E+03  0.50400001928E-02 0. -1.
</event>
<event>
 5   0  0.9098192E-04  0.1297327E+04  0.7818609E-02  0.9031688E-01
        1   -1    0    0  501    0  0.00000000000E+00  0.00000000000E+00  0.12913063055E+04  0.12913063055E+04  0.50400001928E-02 0. -1.
       -1   -1    0    0    0  501  0.00000000000E+00  0.00000000000E+00 -0.32584369538E+03  0.32584369542E+03  0.50400001928E-02 0.  1.
    10030    2    1    2    0    0  0.00000000000E+00  0.00000000000E+00  0.96546261012E+03  0.16171500009E+04  0.12973265102E+04 0.  0.
        1    1    3    3  502    0 -0.26050980149E+03 -0.41875247496E+03 -0.42505641778E+02  0.49500072885E+03  0.50400001928E-02 0.  1.
       -1    1    3    3    0  502  0.26050980149E+03  0.41875247496E+03  0.10079682519E+04  0.11221492721E+04  0.50400001928E-02 0. -1.
</event>
<event>
 5   0  0.1667342E-03  0.1300262E+04  0.7818609E-02  0.9029357E-01
        2   -1    0    0  501    0  0.00000000000E+00  0.00000000000E+00  0.74350432471E+03  0.74350432472E+03  0.25500000920E-02 0.  1.
       -2   -1    0    0    0  501  0.00000000000E+00  0.00000000000E+00 -0.56848419207E+03  0.56848419207E+03  0.25500000920E-02 0. -1.
    10030    2    1    2    0    0  0.00000000000E+00  0.00000000000E+00  0.17502013265E+03  0.13119885168E+04  0.13002622125E+04 0.  0.
        5    1    3    3  502    0  0.20429205956E+02 -0.39910574973E+03  0.60491677733E+03  0.72501665458E+03  0.46999998093E+01 0.  1.
       -5    1    3    3    0  502 -0.20429205956E+02  0.39910574973E+03 -0.42989664468E+03  0.58697186221E+03  0.46999998093E+01 0. -1.
</event>
<event>
 5   0  0.9110949E-04  0.1281584E+04  0.7818609E-02  0.9044298E-01
       -1   -1    0    0    0  501  0.00000000000E+00  0.00000000000E+00  0.63096817107E+03  0.63096817109E+03  0.50400001928E-02 0.  1.
        1   -1    0    0  501    0  0.00000000000E+00  0.00000000000E+00 -0.65076875795E+03  0.65076875797E+03  0.50400001928E-02 0. -1.
    10030    2    1    2    0    0  0.00000000000E+00  0.00000000000E+00 -0.19800586878E+02  0.12817369291E+04  0.12815839778E+04 0.  0.
        2    1    3    3  502    0 -0.59691710655E+03 -0.11236672221E+03  0.19427612398E+03  0.63771429709E+03  0.25500000920E-02 0. -1.
       -2    1    3    3    0  502  0.59691710655E+03  0.11236672221E+03 -0.21407671086E+03  0.64402263197E+03  0.25500000920E-02 0.  1.
</event>
<event>
 5   0  0.1623890E-03  0.1302944E+04  0.7818609E-02  0.9027234E-01
       -2   -1    0    0    0  501  0.00000000000E+00  0.00000000000E+00  0.20408813604E+03  0.20408813606E+03  0.25500000920E-02 0. -1.
        2   -1    0    0  501    0  0.00000000000E+00  0.00000000000E+00 -0.20795694418E+04  0.20795694418E+04  0.25500000920E-02 0.  1.
    10030    2    1    2    0    0  0.00000000000E+00  0.00000000000E+00 -0.18754813057E+04  0.22836575778E+04  0.13029435155E+04 0.  0.
        3    1    3    3  502    0 -0.25537101553E+03  0.99004434835E+02 -0.19737563918E+04  0.19926691993E+04  0.10100000352E+00 0.  1.
       -3    1    3    3    0  502  0.25537101553E+03 -0.99004434835E+02  0.98275086035E+02  0.29098837851E+03  0.10100000352E+00 0. -1.
</event>
<event>
 5   0  0.1700511E-03  0.1277876E+04  0.7818609E-02  0.9047296E-01
        2   -1    0    0  501    0  0.00000000000E+00  0.00000000000E+00  0.52957480612E+03  0.52957480613E+03  0.25500000920E-02 0.  1.
       -2   -1    0    0    0  501  0.00000000000E+00  0.00000000000E+00 -0.77088583091E+03  0.77088583092E+03  0.25500000920E-02 0. -1.
    10030    2    1    2    0    0  0.00000000000E+00  0.00000000000E+00 -0.24131102479E+03  0.13004606370E+04  0.12778759164E+04 0.  0.
        2    1    3    3  502    0 -0.20391356047E+03  0.30499318639E+03  0.41169591211E+03  0.55144819153E+03  0.25500000920E-02 0.  1.
       -2    1    3    3    0  502  0.20391356047E+03 -0.30499318639E+03 -0.65300693690E+03  0.74901244552E+03  0.25500000920E-02 0. -1.
</event>
<event>
 5   0  0.9110949E-04  0.1254656E+04  0.7818609E-02  0.9066317E-01
       -1   -1    0    0    0  501  0.00000000000E+00  0.00000000000E+00  0.40706677381E+03  0.40706677384E+03  0.50400001928E-02 0.  1.
        1   -1    0    0  501    0  0.00000000000E+00  0.00000000000E+00 -0.96677069674E+03  0.96677069675E+03  0.50400001928E-02 0. -1.
    10030    2    1    2    0    0  0.00000000000E+00  0.00000000000E+00 -0.55970392294E+03  0.13738374706E+04  0.12546556955E+04 0.  0.
        2    1    3    3  502    0  0.62578519413E+03 -0.72403824901E+01 -0.23236546584E+03  0.66757264927E+03  0.25500000920E-02 0.  1.
       -2    1    3    3    0  502 -0.62578519413E+03  0.72403824901E+01 -0.32733845710E+03  0.70626482132E+03  0.25500000920E-02 0. -1.
</event>
<event>
 5   0  0.1667342E-03  0.1214006E+04  0.7818609E-02  0.9100685E-01
       -2   -1    0    0    0  501  0.00000000000E+00  0.00000000000E+00  0.46741731391E+03  0.46741731392E+03  0.25500000920E-02 0.  1.
        2   -1    0    0  501    0  0.00000000000E+00  0.00000000000E+00 -0.78827315308E+03  0.78827315308E+03  0.25500000920E-02 0. -1.
    10030    2    1    2    0    0  0.00000000000E+00  0.00000000000E+00 -0.32085583916E+03  0.12556904670E+04  0.12140057987E+04 0.  0.
        5    1    3    3  502    0 -0.20716892359E+03  0.21181460533E+03  0.38752253962E+03  0.48783214187E+03  0.46999998093E+01 0.  1.
       -5    1    3    3    0  502  0.20716892359E+03 -0.21181460533E+03 -0.70837837878E+03  0.76785832512E+03  0.46999998093E+01 0. -1.
</event>
<event>
 5   0  0.1667342E-03  0.1302063E+04  0.7818609E-02  0.9027931E-01
        2   -1    0    0  501    0  0.00000000000E+00  0.00000000000E+00  0.11878962855E+04  0.11878962855E+04  0.25500000920E-02 0. -1.
       -2   -1    0    0    0  501  0.00000000000E+00  0.00000000000E+00 -0.35680066808E+03  0.35680066809E+03  0.25500000920E-02 0.  1.
    10030    2    1    2    0    0  0.00000000000E+00  0.00000000000E+00  0.83109561746E+03  0.15446969536E+04  0.13020632677E+04 0.  0.
        5    1    3    3  502    0 -0.62073649826E+03  0.19461595737E+03  0.44534674893E+03  0.78838124528E+03  0.46999998093E+01 0. -1.
       -5    1    3    3    0  502  0.62073649826E+03 -0.19461595737E+03  0.38574886853E+03  0.75631570835E+03  0.46999998093E+01 0.  1.
</event>
<event>
 5   0  0.1623890E-03  0.1298675E+04  0.7818609E-02  0.9030616E-01
       -2   -1    0    0    0  501  0.00000000000E+00  0.00000000000E+00  0.51336172011E+03  0.51336172011E+03  0.25500000920E-02 0.  1.
        2   -1    0    0  501    0  0.00000000000E+00  0.00000000000E+00 -0.82132994213E+03  0.82132994214E+03  0.25500000920E-02 0. -1.
    10030    2    1    2    0    0  0.00000000000E+00  0.00000000000E+00 -0.30796822202E+03  0.13346916623E+04  0.12986752510E+04 0.  0.
        3    1    3    3  502    0 -0.26536828896E+03  0.41673724419E+03 -0.58703566270E+03  0.76726862243E+03  0.10100000352E+00 0. -1.
       -3    1    3    3    0  502  0.26536828896E+03 -0.41673724419E+03  0.27906744068E+03  0.56742303982E+03  0.10100000352E+00 0.  1.
</event>
<event>
 5   0  0.1714861E-03  0.1059435E+04  0.7818609E-02  0.9245657E-01
       -2   -1    0    0    0  501  0.00000000000E+00  0.00000000000E+00  0.30854623735E+03  0.30854623736E+03  0.25500000920E-02 0.  1.
        2   -1    0    0  501    0  0.00000000000E+00  0.00000000000E+00 -0.90942729831E+03  0.90942729831E+03  0.25500000920E-02 0. -1.
    10030    2    1    2    0    0  0.00000000000E+00  0.00000000000E+00 -0.60088106096E+03  0.12179735357E+04  0.10594345115E+04 0.  0.
        1    1    3    3  502    0  0.83428035382E+02 -0.38115322749E+02  0.29934738227E+03  0.31308444582E+03  0.50400001928E-02 0.  1.
       -1    1    3    3    0  502 -0.83428035382E+02  0.38115322749E+02 -0.90022844323E+03  0.90488908986E+03  0.50400001928E-02 0. -1.
</event>
<event>
 5   0  0.9027076E-04  0.1302209E+04  0.7818609E-02  0.9027815E-01
        1   -1    0    0  501    0  0.00000000000E+00  0.00000000000E+00  0.86864929387E+03  0.86864929389E+03  0.50400001928E-02 0. -1.
       -1   -1    0    0    0  501  0.00000000000E+00  0.00000000000E+00 -0.48804160934E+03  0.48804160937E+03  0.50400001928E-02 0.  1.
    10030    2    1    2    0    0  0.00000000000E+00  0.00000000000E+00  0.38060768453E+03  0.13566909033E+04  0.13022088916E+04 0.  0.
        5    1    3    3  502    0  0.31891605821E+03  0.10481632215E+03 -0.39090832928E+03  0.51529149564E+03  0.46999998093E+01 0.  1.
       -5    1    3    3    0  502 -0.31891605821E+03 -0.10481632215E+03  0.77151601381E+03  0.84139940762E+03  0.46999998093E+01 0. -1.
</event>
<event>
 5   0  0.9098192E-04  0.1299056E+04  0.7818609E-02  0.9030314E-01
        1   -1    0    0  501    0  0.00000000000E+00  0.00000000000E+00  0.44514830040E+03  0.44514830043E+03  0.50400001928E-02 0.  1.
       -1   -1    0    0    0  501  0.00000000000E+00  0.00000000000E+00 -0.94774402878E+03  0.94774402880E+03  0.50400001928E-02 0. -1.
    10030    2    1    2    0    0  0.00000000000E+00  0.00000000000E+00 -0.50259572839E+03  0.13928923292E+04  0.12990560321E+04 0.  0.
        1    1    3    3  502    0  0.51390680521E+03  0.38641628990E+03 -0.34997190446E+03  0.73205060445E+03  0.50400001928E-02 0. -1.
       -1    1    3    3    0  502 -0.51390680521E+03 -0.38641628990E+03 -0.15262382392E+03  0.66084172477E+03  0.50400001928E-02 0.  1.
</event>
<event>
 5   0  0.6284125E-04  0.1287901E+04  0.7818609E-02  0.9039215E-01
        3   -1    0    0  501    0  0.00000000000E+00  0.00000000000E+00  0.22960674799E+03  0.22960677020E+03  0.10100000352E+00 0.  1.
       -3   -1    0    0    0  501  0.00000000000E+00  0.00000000000E+00 -0.18060107774E+04  0.18060107802E+04  0.10100000352E+00 0. -1.
    10030    2    1    2    0    0  0.00000000000E+00  0.00000000000E+00 -0.15764040294E+04  0.20356175505E+04  0.12879010628E+04 0.  0.
        5    1    3    3  502    0  0.60868568268E+03 -0.90936894604E+02 -0.10876039026E+04  0.12496688033E+04  0.46999998093E+01 0. -1.
       -5    1    3    3    0  502 -0.60868568268E+03  0.90936894604E+02 -0.48880012685E+03  0.78594874712E+03  0.46999998093E+01 0.  1.
</event>
<event>
 5   0  0.1700511E-03  0.1296533E+04  0.7818609E-02  0.9032319E-01
       -2   -1    0    0    0  501  0.00000000000E+00  0.00000000000E+00  0.29023772760E+03  0.29023772761E+03  0.25500000920E-02 0. -1.
        2   -1    0    0  501    0  0.00000000000E+00  0.00000000000E+00 -0.14479482983E+04  0.14479482983E+04  0.25500000920E-02 0.  1.
    10030    2    1    2    0    0  0.00000000000E+00  0.00000000000E+00 -0.11577105707E+04  0.17381860259E+04  0.12965326433E+04 0.  0.
        2    1    3    3  502    0  0.36232065551E+03  0.28921625085E+03  0.28629984515E+02  0.46448032594E+03  0.25500000920E-02 0.  1.
       -2    1    3    3    0  502 -0.36232065551E+03 -0.28921625085E+03 -0.11863405552E+04  0.12737056999E+04  0.25500000920E-02 0. -1.
</event>
<event>
 5   0  0.9110949E-04  0.1300513E+04  0.7818609E-02  0.9029158E-01
        1   -1    0    0  501    0  0.00000000000E+00  0.00000000000E+00  0.96741303177E+03  0.96741303178E+03  0.50400001928E-02 0.  1.
       -1   -1    0    0    0  501  0.00000000000E+00  0.00000000000E+00 -0.43707677363E+03  0.43707677366E+03  0.50400001928E-02 0. -1.
    10030    2    1    2    0    0  0.00000000000E+00  0.00000000000E+00  0.53033625814E+03  0.14044898054E+04  0.13005133859E+04 0.  0.
        2    1    3    3  502    0 -0.51361943071E+03  0.36239705019E+03  0.85437582493E+02  0.63437853219E+03  0.25500000920E-02 0. -1.
       -2    1    3    3    0  502  0.51361943071E+03 -0.36239705019E+03  0.44489867564E+03  0.77011127325E+03  0.25500000920E-02 0.  1.
</event>
<event>
 5   0  0.1623890E-03  0.1288646E+04  0.7818609E-02  0.9038618E-01
       -2   -1    0    0    0  501  0.00000000000E+00  0.00000000000E+00  0.56355715524E+03  0.56355715525E+03  0.25500000920E-02 0.  1.
        2   -1    0    0  501    0  0.00000000000E+00  0.00000000000E+00 -0.73666387675E+03  0.73666387675E+03  0.25500000920E-02 0. -1.
    10030    2    1    2    0    0  0.00000000000E+00  0.00000000000E+00 -0.17310672150E+03  0.13002210320E+04  0.12886461093E+04 0.  0.
        3    1    3    3  502    0 -0.34535522920E+03 -0.40330970166E+03  0.28172272084E+03  0.60107957163E+03  0.10100000352E+00 0.  1.
       -3    1    3    3    0  502  0.34535522920E+03  0.40330970166E+03 -0.45482944234E+03  0.69914146037E+03  0.10100000352E+00 0. -1.
</event>
<event>
 5   0  0.1667342E-03  0.1302656E+04  0.7818609E-02  0.9027462E-01
       -2   -1    0    0    0  501  0.00000000000E+00  0.00000000000E+00  0.25434495036E+03  0.25434495038E+03  0.25500000920E-02 0.  1.
        2   -1    0    0  501    0  0.00000000000E+00  0.00000000000E+00 -0.16679233553E+04  0.16679233553E+04  0.25500000920E-02 0. -1.
    10030    2    1    2    0    0  0.00000000000E+00  0.00000000000E+00 -0.14135784049E+04  0.19222683056E+04  0.13026555692E+04 0.  0.
        5    1    3    3  502    0 -0.79851394929E+02  0.27325554258E+03  0.15764778159E+03  0.32545314542E+03  0.46999998093E+01 0.  1.
       -5    1    3    3    0  502  0.79851394929E+02 -0.27325554258E+03 -0.15712261865E+04  0.15968151602E+04  0.46999998093E+01 0. -1.
</event>
<event>
 5   0  0.6284125E-04  0.1278345E+04  0.7818609E-02  0.9046916E-01
       -3   -1    0    0    0  501  0.00000000000E+00  0.00000000000E+00  0.10968945329E+04  0.10968945376E+04  0.10100000352E+00 0.  1.
        3   -1    0    0  501    0  0.00000000000E+00  0.00000000000E+00 -0.37245306901E+03  0.37245308270E+03  0.10100000352E+00 0. -1.
    10030    2    1    2    0    0  0.00000000000E+00  0.00000000000E+00  0.72444146391E+03  0.14693476203E+04  0.12783454129E+04 0.  0.
        5    1    3    3  502    0 -0.63580904222E+03  0.62333105619E+02  0.33978199917E+03  0.72361070417E+03  0.46999998093E+01 0. -1.
       -5    1    3    3    0  502  0.63580904222E+03 -0.62333105619E+02  0.38465946474E+03  0.74573691610E+03  0.46999998093E+01 0.  1.
</event>
<event>
 5   0  0.9215829E-04  0.1300735E+04  0.7818609E-02  0.9028983E-01
        1   -1    0    0  501    0  0.00000000000E+00  0.00000000000E+00  0.19703544285E+04  0.19703544285E+04  0.50400001928E-02 0. -1.
       -1   -1    0    0    0  501  0.00000000000E+00  0.00000000000E+00 -0.21467083581E+03  0.21467083587E+03  0.50400001928E-02 0.  1.
    10030    2    1    2    0    0  0.00000000000E+00  0.00000000000E+00  0.17556835927E+04  0.21850252644E+04  0.13007346110E+04 0.  0.
        3    1    3    3  502    0 -0.60636010435E+03 -0.43668562342E+02  0.48966401067E+03  0.78060897576E+03  0.10100000352E+00 0.  1.
       -3    1    3    3    0  502  0.60636010435E+03  0.43668562342E+02  0.12660195820E+04  0.14044162886E+04  0.10100000352E+00 0. -1.
</event>
<event>
 5   0  0.9027076E-04  0.1309873E+04  0.7818609E-02  0.9021772E-01
       -1   -1    0    0    0  501  0.00000000000E+00  0.00000000000E+00  0.34061125828E+03  0.34061125832E+03  0.50400001928E-02 0.  1.
        1   -1    0    0  501    0  0.00000000000E+00  0.00000000000E+00 -0.12593290553E+04  0.12593290553E+04  0.50400001928E-02 0. -1.
    10030    2    1    2    0    0  0.00000000000E+00  0.00000000000E+00 -0.91871779698E+03  0.15999403136E+04  0.13098727482E+04 0.  0.
        5    1    3    3  502    0 -0.27931488875E+03  0.55049083056E+03 -0.19213651736E+03  0.64652570939E+03  0.46999998093E+01 0. -1.
       -5    1    3    3    0  502  0.27931488875E+03 -0.55049083056E+03 -0.72658127963E+03  0.95341460420E+03  0.46999998093E+01 0.  1.
</event>
<event>
 5   0  0.1714861E-03  0.1321986E+04  0.7818609E-02  0.9012309E-01
       -2   -1    0    0    0  501  0.00000000000E+00  0.00000000000E+00  0.23521342536E+03  0.23521342537E+03  0.25500000920E-02 0. -1.
        2   -1    0    0  501    0  0.00000000000E+00  0.00000000000E+00 -0.18575132764E+04  0.18575132764E+04  0.25500000920E-02 0.  1.
    10030    2    1    2    0    0  0.00000000000E+00  0.00000000000E+00 -0.16222998510E+04  0.20927267017E+04  0.13219864756E+04 0.  0.
        1    1    3    3  502    0 -0.16448008191E+03 -0.31768101404E+01  0.20228777684E+03  0.26073767306E+03  0.50400001928E-02 0. -1.
       -1    1    3    3    0  502  0.16448008191E+03  0.31768101404E+01 -0.18245876278E+04  0.18319890287E+04  0.50400001928E-02 0.  1.
</event>
<event>
 5   0  0.1694675E-03  0.1288020E+04  0.7818609E-02  0.9039120E-01
       -2   -1    0    0    0  501  0.00000000000E+00  0.00000000000E+00  0.83825855258E+03  0.83825855258E+03  0.25500000920E-02 0. -1.
        2   -1    0    0  501    0  0.00000000000E+00  0.00000000000E+00 -0.49477440659E+03  0.49477440660E+03  0.25500000920E-02 0.  1.
    10030    2    1    2    0    0  0.00000000000E+00  0.00000000000E+00  0.34348414599E+03  0.13330329592E+04  0.12880199966E+04 0.  0.
        4    1    3    3  502    0 -0.18056670613E+03  0.48444278801E+03  0.56916472821E+03  0.76892083530E+03  0.12699999809E+01 0. -1.
       -4    1    3    3    0  502  0.18056670613E+03 -0.48444278801E+03 -0.22568058222E+03  0.56411212388E+03  0.12699999809E+01 0.  1.
</event>
<event>
 5   0  0.6284125E-04  0.1302860E+04  0.7818609E-02  0.9027300E-01
       -4   -1    0    0    0  501  0.00000000000E+00  0.00000000000E+00  0.88557759490E+03  0.88557850555E+03  0.12699999809E+01 0. -1.
        4   -1    0    0  501    0  0.00000000000E+00  0.00000000000E+00 -0.47918957110E+03  0.47919125404E+03  0.12699999809E+01 0.  1.
    10030    2    1    2    0    0  0.00000000000E+00  0.00000000000E+00  0.40638802381E+03  0.13647697596E+04  0.13028604188E+04 0.  0.
        5    1    3    3  502    0 -0.22299648751E+02  0.84612318681E+02 -0.47298897581E+03  0.48103760772E+03  0.46999998093E+01 0.  1.
       -5    1    3    3    0  502  0.22299648751E+02 -0.84612318681E+02  0.87937699961E+03  0.88373215187E+03  0.46999998093E+01 0. -1.
</event>
<event>
 5   0  0.9081324E-04  0.1279482E+04  0.7818609E-02  0.9045997E-01
       -1   -1    0    0    0  501  0.00000000000E+00  0.00000000000E+00  0.39750847121E+03  0.39750847125E+03  0.50400001928E-02 0.  1.
        1   -1    0    0  501    0  0.00000000000E+00  0.00000000000E+00 -0.10295838286E+04  0.10295838286E+04  0.50400001928E-02 0. -1.
    10030    2    1    2    0    0  0.00000000000E+00  0.00000000000E+00 -0.63207535740E+03  0.14270922999E+04  0.12794816040E+04 0.  0.
        4    1    3    3  502    0 -0.39230570710E+03  0.30743809675E+03  0.13128553290E+03  0.51542162858E+03  0.12699999809E+01 0.  1.
       -4    1    3    3    0  502  0.39230570710E+03 -0.30743809675E+03 -0.76336089031E+03  0.91167067130E+03  0.12699999809E+01 0. -1.
</event>
<event>
 5   0  0.1667342E-03  0.1250187E+04  0.7818609E-02  0.9070027E-01
       -2   -1    0    0    0  501  0.00000000000E+00  0.00000000000E+00  0.37229363720E+03  0.37229363721E+03  0.25500000920E-02 0.  1.
        2   -1    0    0  501    0  0.00000000000E+00  0.00000000000E+00 -0.10495535901E+04  0.10495535901E+04  0.25500000920E-02 0. -1.
    10030    2    1    2    0    0  0.00000000000E+00  0.00000000000E+00 -0.67725995290E+03  0.14218472273E+04  0.12501873836E+04 0.  0.
        5    1    3    3  502    0 -0.10357368756E+03  0.56387222365E+03 -0.62191000580E+03  0.84585668920E+03  0.46999998093E+01 0. -1.
       -5    1    3    3    0  502  0.10357368756E+03 -0.56387222365E+03 -0.55349947098E+02  0.57599053811E+03  0.46999998093E+01 0.  1.
</event>
<event>
 5   0  0.9098192E-04  0.1299510E+04  0.7818609E-02  0.9029954E-01
        1   -1    0    0  501    0  0.00000000000E+00  0.00000000000E+00  0.84719859526E+03  0.84719859528E+03  0.50400001928E-02 0.  1.
       -1   -1    0    0    0  501  0.00000000000E+00  0.00000000000E+00 -0.49832629892E+03  0.49832629895E+03  0.50400001928E-02 0. -1.
    10030    2    1    2    0    0  0.00000000000E+00  0.00000000000E+00  0.34887229634E+03  0.13455248942E+04  0.12995096621E+04 0.  0.
        1    1    3    3  502    0 -0.13992414116E+03  0.33550099868E+03  0.73206137343E+03  0.81734542262E+03  0.50400001928E-02 0.  1.
       -1    1    3    3    0  502  0.13992414116E+03 -0.33550099868E+03 -0.38318907709E+03  0.52817947160E+03  0.50400001928E-02 0. -1.
</event>
<event>
 5   0  0.1667342E-03  0.1297514E+04  0.7818609E-02  0.9031539E-01
       -2   -1    0    0    0  501  0.00000000000E+00  0.00000000000E+00  0.20667307707E+03  0.20667307709E+03  0.25500000920E-02 0.  1.
        2   -1    0    0  501    0  0.00000000000E+00  0.00000000000E+00 -0.20364792541E+04  0.20364792541E+04  0.25500000920E-02 0. -1.
    10030    2    1    2    0    0  0.00000000000E+00  0.00000000000E+00 -0.18298061770E+04  0.22431523312E+04  0.12975136745E+04 0.  0.
        5    1    3    3  502    0 -0.55719348740E+03  0.23136852296E+03 -0.50263626413E+03  0.78527783607E+03  0.46999998093E+01 0. -1.
       -5    1    3    3    0  502  0.55719348740E+03 -0.23136852296E+03 -0.13271699129E+04  0.14578744951E+04  0.46999998093E+01 0.  1.
</event>
<event>
 5   0  0.9110949E-04  0.1298946E+04  0.7818609E-02  0.9030401E-01
        1   -1    0    0  501    0  0.00000000000E+00  0.00000000000E+00  0.57682993069E+03  0.57682993071E+03  0.50400001928E-02 0.  1.
       -1   -1    0    0    0  501  0.00000000000E+00  0.00000000000E+00 -0.73126448782E+03  0.73126448783E+03  0.50400001928E-02 0. -1.
    10030    2    1    2    0    0  0.00000000000E+00  0.00000000000E+00 -0.15443455712E+03  0.13080944185E+04  0.12989461018E+04 0.  0.
        2    1    3    3  502    0 -0.36979796737E+03  0.37115047984E+03  0.30929835666E+03  0.60841489856E+03  0.25500000920E-02 0.  1.
       -2    1    3    3    0  502  0.36979796737E+03 -0.37115047984E+03 -0.46373291378E+03  0.69967951999E+03  0.25500000920E-02 0. -1.
</event>
<event>
 5   0  0.1714861E-03  0.1181342E+04  0.7818609E-02  0.9129347E-01
       -2   -1    0    0    0  501  0.00000000000E+00  0.00000000000E+00  0.16239216878E+03  0.16239216880E+03  0.25500000920E-02 0.  1.
        2   -1    0    0  501    0  0.00000000000E+00  0.00000000000E+00 -0.21484533620E+04  0.21484533620E+04  0.25500000920E-02 0. -1.
    10030    2    1    2    0    0  0.00000000000E+00  0.00000000000E+00 -0.19860611932E+04  0.23108455308E+04  0.11813416119E+04 0.  0.
        1    1    3    3  502    0 -0.44994195118E+03 -0.25163625075E+03 -0.42905908729E+03  0.67071623101E+03  0.50400001928E-02 0.  1.
       -1    1    3    3    0  502  0.44994195118E+03  0.25163625075E+03 -0.15570021059E+04  0.16401292998E+04  0.50400001928E-02 0. -1.
</event>
<event>
 5   0  0.1700511E-03  0.1316018E+04  0.7818609E-02  0.9016958E-01
       -2   -1    0    0    0  501  0.00000000000E+00  0.00000000000E+00  0.20643125131E+03  0.20643125132E+03  0.25500000920E-02 0. -1.
        2   -1    0    0  501    0  0.00000000000E+00  0.00000000000E+00 -0.20974336575E+04  0.20974336575E+04  0.25500000920E-02 0.  1.
    10030    2    1    2    0    0  0.00000000000E+00  0.00000000000E+00 -0.18910024062E+04  0.23038649088E+04  0.13160180158E+04 0.  0.
        2    1    3    3  502    0  0.11638463218E+03  0.32875933843E+03  0.31326694839E+02  0.35015631799E+03  0.25500000920E-02 0. -1.
       -2    1    3    3    0  502 -0.11638463218E+03 -0.32875933843E+03 -0.19223291010E+04  0.19537085908E+04  0.25500000920E-02 0.  1.
</event>
<event>
 5   0  0.6284125E-04  0.1285062E+04  0.7818609E-02  0.9041495E-01
       -3   -1    0    0    0  501  0.00000000000E+00  0.00000000000E+00  0.32751221000E+03  0.32751222557E+03  0.10100000352E+00 0.  1.
        3   -1    0    0  501    0  0.00000000000E+00  0.00000000000E+00 -0.12605523417E+04  0.12605523458E+04  0.10100000352E+00 0. -1.
    10030    2    1    2    0    0  0.00000000000E+00  0.00000000000E+00 -0.93304013171E+03  0.15880645713E+04  0.12850623313E+04 0.  0.
        2    1    3    3  502    0 -0.29724815870E+03  0.38448440557E+03  0.52895559256E+02  0.48885853390E+03  0.25500000920E-02 0.  1.
       -2    1    3    3    0  502  0.29724815870E+03 -0.38448440557E+03 -0.98593569097E+03  0.10992060374E+04  0.25500000920E-02 0. -1.
</event>
<event>
 5   0  0.9081324E-04  0.1276152E+04  0.7818609E-02  0.9048693E-01
        1   -1    0    0  501    0  0.00000000000E+00  0.00000000000E+00  0.15357718277E+04  0.15357718277E+04  0.50400001928E-02 0.  1.
       -1   -1    0    0    0  501  0.00000000000E+00  0.00000000000E+00 -0.26510526846E+03  0.26510526851E+03  0.50400001928E-02 0. -1.
    10030    2    1    2    0    0  0.00000000000E+00  0.00000000000E+00  0.12706665592E+04  0.18008770962E+04  0.12761523463E+04 0.  0.
        4    1    3    3  502    0 -0.17250044876E+03 -0.46970730391E+03  0.11940565143E+04  0.12946636352E+04  0.12699999809E+01 0. -1.
       -4    1    3    3    0  502  0.17250044876E+03  0.46970730391E+03  0.76610044903E+02  0.50621346095E+03  0.12699999809E+01 0.  1.
</event>
<event>
 5   0  0.6284125E-04  0.1294974E+04  0.7818609E-02  0.9033560E-01
        3   -1    0    0  501    0  0.00000000000E+00  0.00000000000E+00  0.11568774371E+04  0.11568774415E+04  0.10100000352E+00 0.  1.
       -3   -1    0    0    0  501  0.00000000000E+00  0.00000000000E+00 -0.36238902695E+03  0.36238904102E+03  0.10100000352E+00 0. -1.
    10030    2    1    2    0    0  0.00000000000E+00  0.00000000000E+00  0.79448841016E+03  0.15192664825E+04  0.12949744442E+04 0.  0.
        3    1    3    3  502    0 -0.27875123787E+03  0.52512861545E+03  0.69813647806E+03  0.91698247943E+03  0.10100000352E+00 0.  1.
       -3    1    3    3    0  502  0.27875123787E+03 -0.52512861545E+03  0.96351932099E+02  0.60228400311E+03  0.10100000352E+00 0. -1.
</event>
<event>
 5   0  0.1694675E-03  0.1246256E+04  0.7818609E-02  0.9073305E-01
        2   -1    0    0  501    0  0.00000000000E+00  0.00000000000E+00  0.67090682298E+03  0.67090682298E+03  0.25500000920E-02 0. -1.
       -2   -1    0    0    0  501  0.00000000000E+00  0.00000000000E+00 -0.57875192159E+03  0.57875192160E+03  0.25500000920E-02 0.  1.
    10030    2    1    2    0    0  0.00000000000E+00  0.00000000000E+00  0.92154901387E+02  0.12496587446E+04  0.12462561743E+04 0.  0.
        4    1    3    3  502    0  0.43972548436E+03  0.10038709141E+03 -0.38503933242E+03  0.59303707315E+03  0.12699999809E+01 0.  1.
       -4    1    3    3    0  502 -0.43972548436E+03 -0.10038709141E+03  0.47719423380E+03  0.65662167143E+03  0.12699999809E+01 0. -1.
</event>
<event>
 5   0  0.1667342E-03  0.1302582E+04  0.7818609E-02  0.9027520E-01
        2   -1    0    0  501    0  0.00000000000E+00  0.00000000000E+00  0.93878821246E+03  0.93878821246E+03  0.25500000920E-02 0.  1.
       -2   -1    0    0    0  501  0.00000000000E+00  0.00000000000E+00 -0.45183805605E+03  0.45183805606E+03  0.25500000920E-02 0. -1.
    10030    2    1    2    0    0  0.00000000000E+00  0.00000000000E+00  0.48695015641E+03  0.13906262685E+04  0.13025824211E+04 0.  0.
        5    1    3    3  502    0  0.40010859298E+03  0.32097835899E+03 -0.18495278050E+03  0.54529222819E+03  0.46999998093E+01 0.  1.
       -5    1    3    3    0  502 -0.40010859298E+03 -0.32097835899E+03  0.67190293691E+03  0.84533404033E+03  0.46999998093E+01 0. -1.
</event>
<event>
 5   0  0.9098192E-04  0.1316540E+04  0.7818609E-02  0.9016550E-01
       -1   -1    0    0    0  501  0.00000000000E+00  0.00000000000E+00  0.11415112602E+04  0.11415112602E+04  0.50400001928E-02 0.  1.
        1   -1    0    0  501    0  0.00000000000E+00  0.00000000000E+00 -0.37960174179E+03  0.37960174182E+03  0.50400001928E-02 0. -1.
    10030    2    1    2    0    0  0.00000000000E+00  0.00000000000E+00  0.76190951844E+03  0.15211130021E+04  0.13165404098E+04 0.  0.
        1    1    3    3  502    0 -0.27472171130E+03 -0.43468117871E+03  0.85578897136E+03  0.99839596820E+03  0.50400001928E-02 0.  1.
       -1    1    3    3    0  502  0.27472171130E+03  0.43468117871E+03 -0.93879452923E+02  0.52271703386E+03  0.50400001928E-02 0. -1.
</event>
<event>
 5   0  0.1694675E-03  0.1292272E+04  0.7818609E-02  0.9035716E-01
        2   -1    0    0  501    0  0.00000000000E+00  0.00000000000E+00  0.14851067249E+04  0.14851067249E+04  0.25500000920E-02 0.  1.
       -2   -1    0    0    0  501  0.00000000000E+00  0.00000000000E+00 -0.28111884827E+03  0.28111884828E+03  0.25500000920E-02 0. -1.
    10030    2    1    2    0    0  0.00000000000E+00  0.00000000000E+00  0.12039878766E+04  0.17662255731E+04  0.12922716310E+04 0.  0.
        4    1    3    3  502    0 -0.34863274020E+03 -0.19593951639E+03  0.12956201459E+04  0.13559388840E+04  0.12699999809E+01 0.  1.
       -4    1    3    3    0  502  0.34863274020E+03  0.19593951639E+03 -0.91632269346E+02  0.41028668917E+03  0.12699999809E+01 0. -1.
</event>
<event>
 5   0  0.6284125E-04  0.1292548E+04  0.7818609E-02  0.9035496E-01
        3   -1    0    0  501    0  0.00000000000E+00  0.00000000000E+00  0.35228348923E+03  0.35228350371E+03  0.10100000352E+00 0.  1.
       -3   -1    0    0    0  501  0.00000000000E+00  0.00000000000E+00 -0.11856079903E+04  0.11856079946E+04  0.10100000352E+00 0. -1.
    10030    2    1    2    0    0  0.00000000000E+00  0.00000000000E+00 -0.83332450107E+03  0.15378914983E+04  0.12925480790E+04 0.  0.
        1    1    3    3  502    0  0.12341379420E+03  0.38430478334E+03 -0.10171929809E+04  0.10943503514E+04  0.50400001928E-02 0. -1.
       -1    1    3    3    0  502 -0.12341379420E+03 -0.38430478334E+03  0.18386847986E+03  0.44354114692E+03  0.50400001928E-02 0.  1.
</event>
<event>
 5   0  0.9215829E-04  0.1300501E+04  0.7818609E-02  0.9029168E-01
       -1   -1    0    0    0  501  0.00000000000E+00  0.00000000000E+00  0.61061437782E+03  0.61061437784E+03  0.50400001928E-02 0.  1.
        1   -1    0    0  501    0  0.00000000000E+00  0.00000000000E+00 -0.69245981022E+03  0.69245981024E+03  0.50400001928E-02 0. -1.
    10030    2    1    2    0    0  0.00000000000E+00  0.00000000000E+00 -0.81845432397E+02  0.13030741881E+04  0.13005013129E+04 0.  0.
        3    1    3    3  502    0  0.21046588125E+03  0.45965167500E+03  0.36884890058E+03  0.62579954550E+03  0.10100000352E+00 0.  1.
       -3    1    3    3    0  502 -0.21046588125E+03 -0.45965167500E+03 -0.45069433297E+03  0.67727464257E+03  0.10100000352E+00 0. -1.
</event>
<event>
 5   0  0.9110949E-04  0.1098372E+04  0.7818609E-02  0.9206780E-01
        1   -1    0    0  501    0  0.00000000000E+00  0.00000000000E+00  0.43585408648E+03  0.43585408651E+03  0.50400001928E-02 0.  1.
       -1   -1    0    0    0  501  0.00000000000E+00  0.00000000000E+00 -0.69198711615E+03  0.69198711617E+03  0.50400001928E-02 0. -1.
    10030    2    1    2    0    0  0.00000000000E+00  0.00000000000E+00 -0.25613302967E+03  0.11278412027E+04  0.10983722728E+04 0.  0.
        2    1    3    3  502    0  0.45147706276E+03 -0.18242895415E+03  0.13270283231E+03  0.50469981496E+03  0.25500000920E-02 0.  1.
       -2    1    3    3    0  502 -0.45147706276E+03  0.18242895415E+03 -0.38883586198E+03  0.62314138772E+03  0.25500000920E-02 0. -1.
</event>
<event>
 5   0  0.9110949E-04  0.1302465E+04  0.7818609E-02  0.9027612E-01
        1   -1    0    0  501    0  0.00000000000E+00  0.00000000000E+00  0.56980772239E+03  0.56980772242E+03  0.50400001928E-02 0. -1.
       -1   -1    0    0    0  501  0.00000000000E+00  0.00000000000E+00 -0.74429330144E+03  0.74429330146E+03  0.50400001928E-02 0.  1.
    10030    2    1    2    0    0  0.00000000000E+00  0.00000000000E+00 -0.17448557904E+03  0.13141010239E+04  0.13024654635E+04 0.  0.
        2    1    3    3  502    0  0.79932556736E+02 -0.48454877903E+03 -0.51876369923E+03  0.71434761043E+03  0.25500000920E-02 0.  1.
       -2    1    3    3    0  502 -0.79932556736E+02  0.48454877903E+03  0.34427812019E+03  0.59975341344E+03  0.25500000920E-02 0. -1.
</event>
<event>
 5   0  0.9098192E-04  0.1300626E+04  0.7818609E-02  0.9029069E-01
       -1   -1    0    0    0  501  0.00000000000E+00  0.00000000000E+00  0.24142021277E+03  0.24142021282E+03  0.50400001928E-02 0. -1.
        1   -1    0    0  501    0  0.00000000000E+00  0.00000000000E+00 -0.17517466192E+04  0.17517466193E+04  0.50400001928E-02 0.  1.
    10030    2    1    2    0    0  0.00000000000E+00  0.00000000000E+00 -0.15103264065E+04  0.19931668321E+04  0.13006260671E+04 0.  0.
        1    1    3    3  502    0 -0.11453898812E+02 -0.27039976112E+03  0.15101593936E+03  0.30992424329E+03  0.50400001928E-02 0. -1.
       -1    1    3    3    0  502  0.11453898812E+02  0.27039976112E+03 -0.16613423458E+04  0.16832425888E+04  0.50400001928E-02 0.  1.
</event>
<event>
 5   0  0.9027076E-04  0.1300235E+04  0.7818609E-02  0.9029379E-01
        1   -1    0    0  501    0  0.00000000000E+00  0.00000000000E+00  0.79397527758E+03  0.79397527759E+03  0.50400001928E-02 0.  1.
       -1   -1    0    0    0  501  0.00000000000E+00  0.00000000000E+00 -0.53232475768E+03  0.53232475770E+03  0.50400001928E-02 0. -1.
    10030    2    1    2    0    0  0.00000000000E+00  0.00000000000E+00  0.26165051990E+03  0.13263000353E+04  0.13002348977E+04 0.  0.
        5    1    3    3  502    0  0.13221110281E+03  0.16526571039E+03 -0.49618236742E+03  0.53945487529E+03  0.46999998093E+01 0. -1.
       -5    1    3    3    0  502 -0.13221110281E+03 -0.16526571039E+03  0.75783288731E+03  0.78684516001E+03  0.46999998093E+01 0.  1.
</event>
<event>
 5   0  0.9110949E-04  0.1252770E+04  0.7818609E-02  0.9067881E-01
        1   -1    0    0  501    0  0.00000000000E+00  0.00000000000E+00  0.50073103004E+03  0.50073103007E+03  0.50400001928E-02 0.  1.
       -1   -1    0    0    0  501  0.00000000000E+00  0.00000000000E+00 -0.78357109004E+03  0.78357109005E+03  0.50400001928E-02 0. -1.
    10030    2    1    2    0    0  0.00000000000E+00  0.00000000000E+00 -0.28284006000E+03  0.12843021201E+04  0.12527703046E+04 0.  0.
        2    1    3    3  502    0 -0.55823988170E+03 -0.50393391119E+02 -0.42807752454E+03  0.70528123923E+03  0.25500000920E-02 0.  1.
       -2    1    3    3    0  502  0.55823988170E+03  0.50393391119E+02  0.14523746454E+03  0.57902088089E+03  0.25500000920E-02 0. -1.
</event>
<event>
 5   0  0.1694675E-03  0.1306592E+04  0.7818609E-02  0.9024354E-01
       -2   -1    0    0    0  501  0.00000000000E+00  0.00000000000E+00  0.55767188582E+03  0.55767188583E+03  0.25500000920E-02 0. -1.
        2   -1    0    0  501    0  0.00000000000E+00  0.00000000000E+00 -0.76531650377E+03  0.76531650378E+03  0.25500000920E-02 0.  1.
    10030    2    1    2    0    0  0.00000000000E+00  0.00000000000E+00 -0.20764461795E+03  0.13229883896E+04  0.13065917464E+04 0.  0.
        4    1    3    3  502    0  0.46529818252E+03 -0.44728235823E+03 -0.14096881020E+01  0.64542041086E+03  0.12699999809E+01 0.  1.
       -4    1    3    3    0  502 -0.46529818252E+03  0.44728235823E+03 -0.20623492985E+03  0.67756797875E+03  0.12699999809E+01 0. -1.
</event>
<event>
 5   0  0.1694675E-03  0.1285463E+04  0.7818609E-02  0.9041173E-01
        2   -1    0    0  501    0  0.00000000000E+00  0.00000000000E+00  0.82083857655E+03  0.82083857655E+03  0.25500000920E-02 0.  1.
       -2   -1    0    0    0  501  0.00000000000E+00  0.00000000000E+00 -0.50327050784E+03  0.50327050785E+03  0.25500000920E-02 0. -1.
    10030    2    1    2    0    0  0.00000000000E+00  0.00000000000E+00  0.31756806870E+03  0.13241090844E+04  0.12854631030E+04 0.  0.
        4    1    3    3  502    0 -0.37279074717E+03 -0.12858476739E+03 -0.36401295219E+03  0.53666938225E+03  0.12699999809E+01 0. -1.
       -4    1    3    3    0  502  0.37279074717E+03  0.12858476739E+03  0.68158102089E+03  0.78743970215E+03  0.12699999809E+01 0.  1.
</event>
<event>
 5   0  0.1714861E-03  0.1430246E+04  0.7818609E-02  0.8932212E-01
        2   -1    0    0  501    0  0.00000000000E+00  0.00000000000E+00  0.16625115352E+04  0.16625115352E+04  0.25500000920E-02 0. -1.
       -2   -1    0    0    0  501  0.00000000000E+00  0.00000000000E+00 -0.30760731872E+03  0.30760731873E+03  0.25500000920E-02 0.  1.
    10030    2    1    2    0    0  0.00000000000E+00  0.00000000000E+00  0.13549042165E+04  0.19701188540E+04  0.14302457351E+04 0.  0.
        1    1    3    3  502    0  0.22819178863E+03 -0.64124426077E+03  0.97966455716E+03  0.11928991319E+04  0.50400001928E-02 0. -1.
       -1    1    3    3    0  502 -0.22819178863E+03  0.64124426077E+03  0.37523965937E+03  0.77721972206E+03  0.50400001928E-02 0.  1.
</event>
<event>
 5   0  0.9081324E-04  0.1324550E+04  0.7818609E-02  0.9010320E-01
       -1   -1    0    0    0  501  0.00000000000E+00  0.00000000000E+00  0.51987855377E+03  0.51987855379E+03  0.50400001928E-02 0. -1.
        1   -1    0    0  501    0  0.00000000000E+00  0.00000000000E+00 -0.84367426989E+03  0.84367426991E+03  0.50400001928E-02 0.  1.
    10030    2    1    2    0    0  0.00000000000E+00  0.00000000000E+00 -0.32379571612E+03  0.13635528237E+04  0.13245499754E+04 0.  0.
        4    1    3    3  502    0 -0.36313111542E+03 -0.78945956348E+02 -0.72622766864E+03  0.81578484333E+03  0.12699999809E+01 0.  1.
       -4    1    3    3    0  502  0.36313111542E+03  0.78945956348E+02  0.40243195252E+03  0.54776798037E+03  0.12699999809E+01 0. -1.
</event>
<event>
 5   0  0.9081324E-04  0.1315285E+04  0.7818609E-02  0.9017531E-01
       -1   -1    0    0    0  501  0.00000000000E+00  0.00000000000E+00  0.19271579666E+03  0.19271579673E+03  0.50400001928E-02 0.  1.
        1   -1    0    0  501    0  0.00000000000E+00  0.00000000000E+00 -0.22442055903E+04  0.22442055903E+04  0.50400001928E-02 0. -1.
    10030    2    1    2    0    0  0.00000000000E+00  0.00000000000E+00 -0.20514897936E+04  0.24369213870E+04  0.13152853201E+04 0.  0.
        4    1    3    3  502    0 -0.52652828460E+03 -0.32621374662E+03 -0.61626671186E+03  0.87374694049E+03  0.12699999809E+01 0. -1.
       -4    1    3    3    0  502  0.52652828460E+03  0.32621374662E+03 -0.14352230818E+04  0.15631744465E+04  0.12699999809E+01 0.  1.
</event>
<event>
 5   0  0.1667342E-03  0.1305973E+04  0.7818609E-02  0.9024842E-01
       -2   -1    0    0    0  501  0.00000000000E+00  0.00000000000E+00  0.45754540126E+03  0.45754540127E+03  0.25500000920E-02 0. -1.
        2   -1    0    0  501    0  0.00000000000E+00  0.00000000000E+00 -0.93191100563E+03  0.93191100563E+03  0.25500000920E-02 0.  1.
    10030    2    1    2    0    0  0.00000000000E+00  0.00000000000E+00 -0.47436560436E+03  0.13894564069E+04  0.13059733459E+04 0.  0.
        5    1    3    3  502    0  0.56974772797E+03 -0.11768715776E+03  0.78260826471E+02  0.58703457103E+03  0.46999998093E+01 0. -1.
       -5    1    3    3    0  502 -0.56974772797E+03  0.11768715776E+03 -0.55262643083E+03  0.80242183587E+03  0.46999998093E+01 0.  1.
</event>
<event>
 5   0  0.9027076E-04  0.1300399E+04  0.7818609E-02  0.9029249E-01
        1   -1    0    0  501    0  0.00000000000E+00  0.00000000000E+00  0.96841300152E+03  0.96841300153E+03  0.50400001928E-02 0.  1.
       -1   -1    0    0    0  501  0.00000000000E+00  0.00000000000E+00 -0.43654876161E+03  0.43654876164E+03  0.50400001928E-02 0. -1.
    10030    2    1    2    0    0  0.00000000000E+00  0.00000000000E+00  0.53186423991E+03  0.14049617632E+04  0.13003991642E+04 0.  0.
        5    1    3    3  502    0 -0.34748497096E+03  0.21768069087E+03  0.81109057585E+03  0.90885680966E+03  0.46999998093E+01 0.  1.
       -5    1    3    3    0  502  0.34748497096E+03 -0.21768069087E+03 -0.27922633594E+03  0.49610495352E+03  0.46999998093E+01 0. -1.
</event>
<event>
 5   0  0.9027076E-04  0.1303348E+04  0.7818609E-02  0.9026914E-01
        1   -1    0    0  501    0  0.00000000000E+00  0.00000000000E+00  0.83666219528E+03  0.83666219529E+03  0.50400001928E-02 0.  1.
       -1   -1    0    0    0  501  0.00000000000E+00  0.00000000000E+00 -0.50758734086E+03  0.50758734089E+03  0.50400001928E-02 0. -1.
    10030    2    1    2    0    0  0.00000000000E+00  0.00000000000E+00  0.32907485442E+03  0.13442495362E+04  0.13033482097E+04 0.  0.
        5    1    3    3  502    0  0.48421098472E+03  0.42538399342E+03  0.26370696295E+03  0.69640165989E+03  0.46999998093E+01 0.  1.
       -5    1    3    3    0  502 -0.48421098472E+03 -0.42538399342E+03  0.65367891466E+02  0.64784787629E+03  0.46999998093E+01 0. -1.
</event>
<event>
 5   0  0.1700511E-03  0.1307944E+04  0.7818609E-02  0.9023289E-01
       -2   -1    0    0    0  501  0.00000000000E+00  0.00000000000E+00  0.38946507185E+03  0.38946507186E+03  0.25500000920E-02 0. -1.
        2   -1    0    0  501    0  0.00000000000E+00  0.00000000000E+00 -0.10981197792E+04  0.10981197792E+04  0.25500000920E-02 0.  1.
    10030    2    1    2    0    0  0.00000000000E+00  0.00000000000E+00 -0.70865470736E+03  0.14875848511E+04  0.13079438806E+04 0.  0.
        2    1    3    3  502    0  0.55873740749E+03 -0.20381859407E+02 -0.74014825180E+03  0.92758953496E+03  0.25500000920E-02 0.  1.
       -2    1    3    3    0  502 -0.55873740749E+03  0.20381859407E+02  0.31493544434E+02  0.55999531611E+03  0.25500000920E-02 0. -1.
</event>
<event>
 5   0  0.9215829E-04  0.1311462E+04  0.7818609E-02  0.9020525E-01
        1   -1    0    0  501    0  0.00000000000E+00  0.00000000000E+00  0.18516518361E+04  0.18516518361E+04  0.50400001928E-02 0.  1.
       -1   -1    0    0    0  501  0.00000000000E+00  0.00000000000E+00 -0.23221603164E+03  0.23221603169E+03  0.50400001928E-02 0. -1.
    10030    2    1    2    0    0  0.00000000000E+00  0.00000000000E+00  0.16194358044E+04  0.20838678678E+04  0.13114621480E+04 0.  0.
        3    1    3    3  502    0 -0.10124018418E+03 -0.43226602989E+03  0.42921144998E+02  0.44603332878E+03  0.10100000352E+00 0. -1.
       -3    1    3    3    0  502  0.10124018418E+03  0.43226602989E+03  0.15765146594E+04  0.16378345390E+04  0.10100000352E+00 0.  1.
</event>
<event>
 5   0  0.1623890E-03  0.1294645E+04  0.7818609E-02  0.9033822E-01
        2   -1    0    0  501    0  0.00000000000E+00  0.00000000000E+00  0.11376845499E+04  0.11376845499E+04  0.25500000920E-02 0.  1.
       -2   -1    0    0    0  501  0.00000000000E+00  0.00000000000E+00 -0.36831532689E+03  0.36831532690E+03  0.25500000920E-02 0. -1.
    10030    2    1    2    0    0  0.00000000000E+00  0.00000000000E+00  0.76936922297E+03  0.15059998768E+04  0.12946453675E+04 0.  0.
        3    1    3    3  502    0  0.43403640365E+03 -0.50101338719E+02 -0.17091799001E+03  0.46915958196E+03  0.10100000352E+00 0. -1.
       -3    1    3    3    0  502 -0.43403640365E+03  0.50101338719E+02  0.94028721298E+03  0.10368402948E+04  0.10100000352E+00 0.  1.
</event>
<event>
 5   0  0.6284125E-04  0.1153808E+04  0.7818609E-02  0.9154278E-01
        3   -1    0    0  501    0  0.00000000000E+00  0.00000000000E+00  0.86192487861E+03  0.86192488453E+03  0.10100000352E+00 0.  1.
       -3   -1    0    0    0  501  0.00000000000E+00  0.00000000000E+00 -0.38613369880E+03  0.38613371201E+03  0.10100000352E+00 0. -1.
    10030    2    1    2    0    0  0.00000000000E+00  0.00000000000E+00  0.47579117981E+03  0.12480585965E+04  0.11538080489E+04 0.  0.
        3    1    3    3  502    0 -0.37630769648E+03 -0.29652401048E+03 -0.10973541841E+03  0.49150365561E+03  0.10100000352E+00 0. -1.
       -3    1    3    3    0  502  0.37630769648E+03  0.29652401048E+03  0.58552659823E+03  0.75655494093E+03  0.10100000352E+00 0.  1.
</event>
<event>
 5   0  0.1694675E-03  0.1298087E+04  0.7818609E-02  0.9031084E-01
        2   -1    0    0  501    0  0.00000000000E+00  0.00000000000E+00  0.29943293595E+03  0.29943293596E+03  0.25500000920E-02 0. -1.
       -2   -1    0    0    0  501  0.00000000000E+00  0.00000000000E+00 -0.14068506957E+04  0.14068506957E+04  0.25500000920E-02 0.  1.
    10030    2    1    2    0    0  0.00000000000E+00  0.00000000000E+00 -0.11074177597E+04  0.17062836316E+04  0.12980869528E+04 0.  0.
        4    1    3    3  502    0 -0.30494582728E+03 -0.73375674079E+02 -0.13006182839E+04  0.13379033898E+04  0.12699999809E+01 0.  1.
       -4    1    3    3    0  502  0.30494582728E+03  0.73375674079E+02  0.19320052419E+03  0.36838024183E+03  0.12699999809E+01 0. -1.
</event>
<event>
 5   0  0.1694675E-03  0.1296558E+04  0.7818609E-02  0.9032299E-01
        2   -1    0    0  501    0  0.00000000000E+00  0.00000000000E+00  0.35722799268E+03  0.35722799269E+03  0.25500000920E-02 0.  1.
       -2   -1    0    0    0  501  0.00000000000E+00  0.00000000000E+00 -0.11764627459E+04  0.11764627459E+04  0.25500000920E-02 0. -1.
    10030    2    1    2    0    0  0.00000000000E+00  0.00000000000E+00 -0.81923475327E+03  0.15336907386E+04  0.12965576350E+04 0.  0.
        4    1    3    3  502    0 -0.38154541183E+03  0.15775923503E+03 -0.10008266794E+04  0.10826451555E+04  0.12699999809E+01 0. -1.
       -4    1    3    3    0  502  0.38154541183E+03 -0.15775923503E+03  0.18159192617E+03  0.45104558315E+03  0.12699999809E+01 0.  1.
</event>
<event>
 5   0  0.9110949E-04  0.1296914E+04  0.7818609E-02  0.9032016E-01
       -1   -1    0    0    0  501  0.00000000000E+00  0.00000000000E+00  0.48453834808E+03  0.48453834810E+03  0.50400001928E-02 0.  1.
        1   -1    0    0  501    0  0.00000000000E+00  0.00000000000E+00 -0.86782843739E+03  0.86782843740E+03  0.50400001928E-02 0. -1.
    10030    2    1    2    0    0  0.00000000000E+00  0.00000000000E+00 -0.38329008931E+03  0.13523667855E+04  0.12969135013E+04 0.  0.
        2    1    3    3  502    0  0.52061024649E+02 -0.57701802946E+03  0.11207508623E+03  0.59010251784E+03  0.25500000920E-02 0. -1.
       -2    1    3    3    0  502 -0.52061024649E+02  0.57701802946E+03 -0.49536517554E+03  0.76226426766E+03  0.25500000920E-02 0.  1.
</event>
<event>
 5   0  0.1714861E-03  0.1297828E+04  0.7818609E-02  0.9031290E-01
       -2   -1    0    0    0  501  0.00000000000E+00  0.00000000000E+00  0.50862924508E+03  0.50862924508E+03  0.25500000920E-02 0.  1.
        2   -1    0    0  501    0  0.00000000000E+00  0.00000000000E+00 -0.82789013118E+03  0.82789013119E+03  0.25500000920E-02 0. -1.
    10030    2    1    2    0    0  0.00000000000E+00  0.00000000000E+00 -0.31926088610E+03  0.13365193763E+04  0.12978276194E+04 0.  0.
        1    1    3    3  502    0 -0.48163910593E+03  0.14201284709E+03 -0.58291385265E+03  0.76937145563E+03  0.50400001928E-02 0. -1.
       -1    1    3    3    0  502  0.48163910593E+03 -0.14201284709E+03  0.26365296654E+03  0.56714792064E+03  0.50400001928E-02 0.  1.
</event>
<event>
 5   0  0.9098192E-04  0.1292046E+04  0.7818609E-02  0.9035897E-01
        1   -1    0    0  501    0  0.00000000000E+00  0.00000000000E+00  0.11508453470E+04  0.11508453470E+04  0.50400001928E-02 0. -1.
       -1   -1    0    0    0  501  0.00000000000E+00  0.00000000000E+00 -0.36264258415E+03  0.36264258419E+03  0.50400001928E-02 0.  1.
    10030    2    1    2    0    0  0.00000000000E+00  0.00000000000E+00  0.78820276281E+03  0.15134879312E+04  0.12920457122E+04 0.  0.
        1    1    3    3  502    0  0.55798716443E+03 -0.37556486168E+02  0.77292455825E+03  0.95402963167E+03  0.50400001928E-02 0. -1.
       -1    1    3    3    0  502 -0.55798716443E+03  0.37556486168E+02  0.15278204560E+02  0.55945829950E+03  0.50400001928E-02 0.  1.
</event>
<event>
 5   0  0.9027076E-04  0.1290005E+04  0.7818609E-02  0.9037529E-01
       -1   -1    0    0    0  501  0.00000000000E+00  0.00000000000E+00  0.35731819296E+03  0.35731819299E+03  0.50400001928E-02 0.  1.
        1   -1    0    0  501    0  0.00000000000E+00  0.00000000000E+00 -0.11643067048E+04  0.11643067048E+04  0.50400001928E-02 0. -1.
    10030    2    1    2    0    0  0.00000000000E+00  0.00000000000E+00 -0.80698851184E+03  0.15216248978E+04  0.12900046013E+04 0.  0.
        5    1    3    3  502    0  0.20229523623E+03 -0.35195772219E+03 -0.99469274966E+03  0.10743525292E+04  0.46999998093E+01 0. -1.
       -5    1    3    3    0  502 -0.20229523623E+03  0.35195772219E+03  0.18770423782E+03  0.44727236859E+03  0.46999998093E+01 0.  1.
</event>
<event>
 5   0  0.1714861E-03  0.1299847E+04  0.7818609E-02  0.9029687E-01
        2   -1    0    0  501    0  0.00000000000E+00  0.00000000000E+00  0.24032343952E+03  0.24032343954E+03  0.25500000920E-02 0.  1.
       -2   -1    0    0    0  501  0.00000000000E+00  0.00000000000E+00 -0.17576332170E+04  0.17576332170E+04  0.25500000920E-02 0. -1.
    10030    2    1    2    0    0  0.00000000000E+00  0.00000000000E+00 -0.15173097775E+04  0.19979566566E+04  0.12998468528E+04 0.  0.
        1    1    3    3  502    0 -0.34071518119E+03 -0.34212331092E+03 -0.14273518270E+04  0.15068073642E+04  0.50400001928E-02 0. -1.
       -1    1    3    3    0  502  0.34071518119E+03  0.34212331092E+03 -0.89957950499E+02  0.49114929242E+03  0.50400001928E-02 0.  1.
</event>
<event>
 5   0  0.9027076E-04  0.1324754E+04  0.7818609E-02  0.9010162E-01
        1   -1    0    0  501    0  0.00000000000E+00  0.00000000000E+00  0.74395097257E+03  0.74395097259E+03  0.50400001928E-02 0.  1.
       -1   -1    0    0    0  501  0.00000000000E+00  0.00000000000E+00 -0.58974736862E+03  0.58974736864E+03  0.50400001928E-02 0. -1.
    10030    2    1    2    0    0  0.00000000000E+00  0.00000000000E+00  0.15420360396E+03  0.13336983412E+04  0.13247537560E+04 0.  0.
        5    1    3    3  502    0 -0.22373308905E+03  0.43899447635E+02  0.70318280729E+03  0.73923731447E+03  0.46999998093E+01 0.  1.
       -5    1    3    3    0  502  0.22373308905E+03 -0.43899447635E+02 -0.54897920333E+03  0.59446102676E+03  0.46999998093E+01 0. -1.
</event>
<event>
 5   0  0.9215829E-04  0.1298731E+04  0.7818609E-02  0.9030572E-01
       -1   -1    0    0    0  501  0.00000000000E+00  0.00000000000E+00  0.12297717258E+04  0.12297717259E+04  0.50400001928E-02 0. -1.
        1   -1    0    0  501    0  0.00000000000E+00  0.00000000000E+00 -0.34288925067E+03  0.34288925071E+03  0.50400001928E-02 0.  1.
    10030    2    1    2    0    0  0.00000000000E+00  0.00000000000E+00  0.88688247518E+03  0.15726609766E+04  0.12987309276E+04 0.  0.
        3    1    3    3  502    0 -0.33583333808E+03 -0.27257664534E+03  0.10299491245E+04  0.11170842707E+04  0.10100000352E+00 0. -1.
       -3    1    3    3    0  502  0.33583333808E+03  0.27257664534E+03 -0.14306664936E+03  0.45557670584E+03  0.10100000352E+00 0.  1.
</event>
<event>
 5   0  0.9081324E-04  0.1247326E+04  0.7818609E-02  0.9072412E-01
       -1   -1    0    0    0  501  0.00000000000E+00  0.00000000000E+00  0.18016451217E+04  0.18016451217E+04  0.50400001928E-02 0. -1.
        1   -1    0    0  501    0  0.00000000000E+00  0.00000000000E+00 -0.21588909473E+03  0.21588909478E+03  0.50400001928E-02 0.  1.
    10030    2    1    2    0    0  0.00000000000E+00  0.00000000000E+00  0.15857560270E+04  0.20175342165E+04  0.12473259949E+04 0.  0.
        4    1    3    3  502    0  0.44567597946E+03 -0.43155746158E+03  0.68949790678E+03  0.92751166983E+03  0.12699999809E+01 0. -1.
       -4    1    3    3    0  502 -0.44567597946E+03  0.43155746158E+03  0.89625812020E+03  0.10900225467E+04  0.12699999809E+01 0.  1.
</event>
<event>
 5   0  0.1667342E-03  0.1312291E+04  0.7818609E-02  0.9019875E-01
        2   -1    0    0  501    0  0.00000000000E+00  0.00000000000E+00  0.55936158785E+03  0.55936158785E+03  0.25500000920E-02 0. -1.
       -2   -1    0    0    0  501  0.00000000000E+00  0.00000000000E+00 -0.76967510997E+03  0.76967510998E+03  0.25500000920E-02 0.  1.
    10030    2    1    2    0    0  0.00000000000E+00  0.00000000000E+00 -0.21031352212E+03  0.13290366978E+04  0.13122906563E+04 0.  0.
        5    1    3    3  502    0  0.46936423071E+03 -0.15106481870E+03  0.33324268023E+03  0.59514379308E+03  0.46999998093E+01 0. -1.
       -5    1    3    3    0  502 -0.46936423071E+03  0.15106481870E+03 -0.54355620235E+03  0.73389290475E+03  0.46999998093E+01 0.  1.
</event>
<event>
 5   0  0.1714861E-03  0.1296043E+04  0.7818609E-02  0.9032709E-01
        2   -1    0    0  501    0  0.00000000000E+00  0.00000000000E+00  0.88973733194E+03  0.88973733194E+03  0.25500000920E-02 0.  1.
       -2   -1    0    0    0  501  0.00000000000E+00  0.00000000000E+00 -0.47197258316E+03  0.47197258317E+03  0.25500000920E-02 0. -1.
    10030    2    1    2    0    0  0.00000000000E+00  0.00000000000E+00  0.41776474877E+03  0.13617099151E+04  0.12960426334E+04 0.  0.
        1    1    3    3  502    0  0.11366902695E+03  0.53595424242E+03  0.57248625621E+03  0.79240653154E+03  0.50400001928E-02 0.  1.
       -1    1    3    3    0  502 -0.11366902695E+03 -0.53595424242E+03 -0.15472150744E+03  0.56930338357E+03  0.50400001928E-02 0. -1.
</event>
<event>
 5   0  0.9110949E-04  0.1289377E+04  0.7818609E-02  0.9038032E-01
       -1   -1    0    0    0  501  0.00000000000E+00  0.00000000000E+00  0.24586223289E+03  0.24586223294E+03  0.50400001928E-02 0. -1.
        1   -1    0    0  501    0  0.00000000000E+00  0.00000000000E+00 -0.16904732334E+04  0.16904732334E+04  0.50400001928E-02 0.  1.
    10030    2    1    2    0    0  0.00000000000E+00  0.00000000000E+00 -0.14446110005E+04  0.19363354663E+04  0.12893774061E+04 0.  0.
        2    1    3    3  502    0 -0.31939273165E+03  0.46978647305E+03 -0.11800652073E+04  0.13096812363E+04  0.25500000920E-02 0.  1.
       -2    1    3    3    0  502  0.31939273165E+03 -0.46978647305E+03 -0.26454579321E+03  0.62665423002E+03  0.25500000920E-02 0. -1.
</event>
<event>
 5   0  0.9027076E-04  0.1297409E+04  0.7818609E-02  0.9031622E-01
        1   -1    0    0  501    0  0.00000000000E+00  0.00000000000E+00  0.53266637831E+03  0.53266637833E+03  0.50400001928E-02 0.  1.
       -1   -1    0    0    0  501  0.00000000000E+00  0.00000000000E+00 -0.79002084834E+03  0.79002084836E+03  0.50400001928E-02 0. -1.
    10030    2    1    2    0    0  0.00000000000E+00  0.00000000000E+00 -0.25735447003E+03  0.13226872267E+04  0.12974090243E+04 0.  0.
        5    1    3    3  502    0  0.39879465464E+02  0.19722496441E+03  0.50002880216E+03  0.53901665219E+03  0.46999998093E+01 0.  1.
       -5    1    3    3    0  502 -0.39879465464E+02 -0.19722496441E+03 -0.75738327219E+03  0.78367057450E+03  0.46999998093E+01 0. -1.
</event>
<event>
 5   0  0.1623890E-03  0.1275940E+04  0.7818609E-02  0.9048866E-01
        2   -1    0    0  501    0  0.00000000000E+00  0.00000000000E+00  0.11834764490E+04  0.11834764490E+04  0.25500000920E-02 0. -1.
       -2   -1    0    0    0  501  0.00000000000E+00  0.00000000000E+00 -0.34390672053E+03  0.34390672054E+03  0.25500000920E-02 0.  1.
    10030    2    1    2    0    0  0.00000000000E+00  0.00000000000E+00  0.83956972843E+03  0.15273831695E+04  0.12759396606E+04 0.  0.
        3    1    3    3  502    0  0.38138510821E+03  0.22479291256E+03 -0.13010876104E+03  0.46142686766E+03  0.10100000352E+00 0.  1.
       -3    1    3    3    0  502 -0.38138510821E+03 -0.22479291256E+03  0.96967848948E+03  0.10659563018E+04  0.10100000352E+00 0. -1.
</event>
<event>
 5   0  0.1714861E-03  0.1301169E+04  0.7818609E-02  0.9028639E-01
        2   -1    0    0  501    0  0.00000000000E+00  0.00000000000E+00  0.59482602348E+03  0.59482602348E+03  0.25500000920E-02 0.  1.
       -2   -1    0    0    0  501  0.00000000000E+00  0.00000000000E+00 -0.71156969237E+03  0.71156969238E+03  0.25500000920E-02 0. -1.
    10030    2    1    2    0    0  0.00000000000E+00  0.00000000000E+00 -0.11674366890E+03  0.13063957159E+04  0.13011689676E+04 0.  0.
        1    1    3    3  502    0 -0.26145205906E+03 -0.21278606094E+03 -0.61704668179E+03  0.70312281605E+03  0.50400001928E-02 0. -1.
       -1    1    3    3    0  502  0.26145205906E+03  0.21278606094E+03  0.50030301289E+03  0.60327289981E+03  0.50400001928E-02 0.  1.
</event>
<event>
 5   0  0.9027076E-04  0.1272165E+04  0.7818609E-02  0.9051934E-01
        1   -1    0    0  501    0  0.00000000000E+00  0.00000000000E+00  0.73733014031E+03  0.73733014032E+03  0.50400001928E-02 0. -1.
       -1   -1    0    0    0  501  0.00000000000E+00  0.00000000000E+00 -0.54873803375E+03  0.54873803377E+03  0.50400001928E-02 0.  1.
    10030    2    1    2    0    0  0.00000000000E+00  0.00000000000E+00  0.18859210656E+03  0.12860681741E+04  0.12721652274E+04 0.  0.
        5    1    3    3  502    0  0.32772679274E+03  0.37961641575E+03 -0.30121549332E+03  0.58503532987E+03  0.46999998093E+01 0.  1.
       -5    1    3    3    0  502 -0.32772679274E+03 -0.37961641575E+03  0.48980759987E+03  0.70103284422E+03  0.46999998093E+01 0. -1.
</event>
<event>
 5   0  0.9110949E-04  0.1338438E+04  0.7818609E-02  0.8999627E-01
        1   -1    0    0  501    0  0.00000000000E+00  0.00000000000E+00  0.17979586222E+04  0.17979586222E+04  0.50400001928E-02 0.  1.
       -1   -1    0    0    0  501  0.00000000000E+00  0.00000000000E+00 -0.24909028005E+03  0.24909028010E+03  0.50400001928E-02 0. -1.
    10030    2    1    2    0    0  0.00000000000E+00  0.00000000000E+00  0.15488683421E+04  0.20470489023E+04  0.13384379205E+04 0.  0.
        2    1    3    3  502    0 -0.34756926576E+03  0.23958576077E+03  0.15686322218E+04  0.16244422977E+04  0.25500000920E-02 0.  1.
       -2    1    3    3    0  502  0.34756926576E+03 -0.23958576077E+03 -0.19763879702E+02  0.42260660455E+03  0.25500000920E-02 0. -1.
</event>
<event>
 5   0  0.9027076E-04  0.1274265E+04  0.7818609E-02  0.9050226E-01
        1   -1    0    0  501    0  0.00000000000E+00  0.00000000000E+00  0.34812234464E+03  0.34812234468E+03  0.50400001928E-02 0. -1.
       -1   -1    0    0    0  501  0.00000000000E+00  0.00000000000E+00 -0.11660782976E+04  0.11660782976E+04  0.50400001928E-02 0.  1.
    10030    2    1    2    0    0  0.00000000000E+00  0.00000000000E+00 -0.81795595295E+03  0.15142006423E+04  0.12742651389E+04 0.  0.
        5    1    3    3  502    0  0.35079337594E+03 -0.52364533889E+03 -0.29842590577E+03  0.69738120478E+03  0.46999998093E+01 0.  1.
       -5    1    3    3    0  502 -0.35079337594E+03  0.52364533889E+03 -0.51953004718E+03  0.81681943750E+03  0.46999998093E+01 0. -1.
</event>
<event>
 5   0  0.9110949E-04  0.1305913E+04  0.7818609E-02  0.9024889E-01
        1   -1    0    0  501    0  0.00000000000E+00  0.00000000000E+00  0.11398452506E+04  0.11398452506E+04  0.50400001928E-02 0. -1.
       -1   -1    0    0    0  501  0.00000000000E+00  0.00000000000E+00 -0.37404393238E+03  0.37404393241E+03  0.50400001928E-02 0.  1.
    10030    2    1    2    0    0  0.00000000000E+00  0.00000000000E+00  0.76580131820E+03  0.15138891830E+04  0.13059130137E+04 0.  0.
        2    1    3    3  502    0  0.57226525704E+03 -0.17383208918E+03  0.68663288379E+03  0.91058763265E+03  0.25500000920E-02 0. -1.
       -2    1    3    3    0  502 -0.57226525704E+03  0.17383208918E+03  0.79168434412E+02  0.60330155035E+03  0.25500000920E-02 0.  1.
</event>
<event>
 5   0  0.9027076E-04  0.1301181E+04  0.7818609E-02  0.9028629E-01
       -1   -1    0    0    0  501  0.00000000000E+00  0.00000000000E+00  0.22536341286E+04  0.22536341286E+04  0.50400001928E-02 0. -1.
        1   -1    0    0  501    0  0.00000000000E+00  0.00000000000E+00 -0.18781585235E+03  0.18781585241E+03  0.50400001928E-02 0.  1.
    10030    2    1    2    0    0  0.00000000000E+00  0.00000000000E+00  0.20658182763E+04  0.24414499810E+04  0.13011813322E+04 0.  0.
        5    1    3    3  502    0 -0.60046846023E+03  0.22311401791E+03  0.81976651728E+03  0.10403756387E+04  0.46999998093E+01 0.  1.
       -5    1    3    3    0  502  0.60046846023E+03 -0.22311401791E+03  0.12460517590E+04  0.14010743424E+04  0.46999998093E+01 0. -1.
</event>
<event>
 5   0  0.9110949E-04  0.1296169E+04  0.7818609E-02  0.9032609E-01
        1   -1    0    0  501    0  0.00000000000E+00  0.00000000000E+00  0.18412938420E+04  0.18412938420E+04  0.50400001928E-02 0.  1.
       -1   -1    0    0    0  501  0.00000000000E+00  0.00000000000E+00 -0.22810777206E+03  0.22810777211E+03  0.50400001928E-02 0. -1.
    10030    2    1    2    0    0  0.00000000000E+00  0.00000000000E+00  0.16131860699E+04  0.20694016141E+04  0.12961688718E+04 0.  0.
        2    1    3    3  502    0 -0.14345063526E+03  0.35414690022E+03  0.16423319439E+04  0.16861946287E+04  0.25500000920E-02 0.  1.
       -2    1    3    3    0  502  0.14345063526E+03 -0.35414690022E+03 -0.29145874026E+02  0.38320698542E+03  0.25500000920E-02 0. -1.
</event>
<event>
 5   0  0.1623890E-03  0.1266120E+04  0.7818609E-02  0.9056872E-01
       -2   -1    0    0    0  501  0.00000000000E+00  0.00000000000E+00  0.29958241822E+03  0.29958241823E+03  0.25500000920E-02 0. -1.
        2   -1    0    0  501    0  0.00000000000E+00  0.00000000000E+00 -0.13377461456E+04  0.13377461456E+04  0.25500000920E-02 0.  1.
    10030    2    1    2    0    0  0.00000000000E+00  0.00000000000E+00 -0.10381637274E+04  0.16373285639E+04  0.12661204134E+04 0.  0.
        3    1    3    3  502    0  0.50889737663E+03 -0.18461292275E+03 -0.94675120226E+02  0.54956515517E+03  0.10100000352E+00 0. -1.
       -3    1    3    3    0  502 -0.50889737663E+03  0.18461292275E+03 -0.94348860720E+03  0.10877634087E+04  0.10100000352E+00 0.  1.
</event>
<event>
 5   0  0.1700511E-03  0.1307159E+04  0.7818609E-02  0.9023907E-01
       -2   -1    0    0    0  501  0.00000000000E+00  0.00000000000E+00  0.32104329139E+03  0.32104329140E+03  0.25500000920E-02 0.  1.
        2   -1    0    0  501    0  0.00000000000E+00  0.00000000000E+00 -0.13305572158E+04  0.13305572158E+04  0.25500000920E-02 0. -1.
    10030    2    1    2    0    0  0.00000000000E+00  0.00000000000E+00 -0.10095139244E+04  0.16516005072E+04  0.13071594668E+04 0.  0.
        2    1    3    3  502    0 -0.52085825324E+03  0.18522286121E+03 -0.64220505056E+02  0.55652951545E+03  0.25500000920E-02 0.  1.
       -2    1    3    3    0  502  0.52085825324E+03 -0.18522286121E+03 -0.94529341934E+03  0.10950709917E+04  0.25500000920E-02 0. -1.
</event>
<event>
 5   0  0.1714861E-03  0.1294613E+04  0.7818609E-02  0.9033848E-01
        2   -1    0    0  501    0  0.00000000000E+00  0.00000000000E+00  0.15133525675E+04  0.15133525675E+04  0.25500000920E-02 0.  1.
       -2   -1    0    0    0  501  0.00000000000E+00  0.00000000000E+00 -0.27687259795E+03  0.27687259796E+03  0.25500000920E-02 0. -1.
    10030    2    1    2    0    0  0.00000000000E+00  0.00000000000E+00  0.12364799695E+04  0.17902251654E+04  0.12946132349E+04 0.  0.
        1    1    3    3  502    0  0.25351029107E+03 -0.59456913417E+03  0.66665735031E+03  0.92855368489E+03  0.50400001928E-02 0. -1.
       -1    1    3    3    0  502 -0.25351029107E+03  0.59456913417E+03  0.56982261922E+03  0.86167148055E+03  0.50400001928E-02 0.  1.
</event>
<event>
 5   0  0.9110949E-04  0.1296459E+04  0.7818609E-02  0.9032378E-01
       -1   -1    0    0    0  501  0.00000000000E+00  0.00000000000E+00  0.45927143555E+03  0.45927143558E+03  0.50400001928E-02 0.  1.
        1   -1    0    0  501    0  0.00000000000E+00  0.00000000000E+00 -0.91493032160E+03  0.91493032161E+03  0.50400001928E-02 0. -1.
    10030    2    1    2    0    0  0.00000000000E+00  0.00000000000E+00 -0.45565888604E+03  0.13742017572E+04  0.12964588112E+04 0.  0.
        2    1    3    3  502    0  0.62313863875E+03 -0.17494005765E+03 -0.26598195331E+03  0.69975151759E+03  0.25500000920E-02 0. -1.
       -2    1    3    3    0  502 -0.62313863875E+03  0.17494005765E+03 -0.18967693273E+03  0.67445023960E+03  0.25500000920E-02 0.  1.
</event>
<event>
 5   0  0.1694675E-03  0.1314687E+04  0.7818609E-02  0.9017999E-01
        2   -1    0    0  501    0  0.00000000000E+00  0.00000000000E+00  0.12375707632E+04  0.12375707632E+04  0.25500000920E-02 0. -1.
       -2   -1    0    0    0  501  0.00000000000E+00  0.00000000000E+00 -0.34915192252E+03  0.34915192253E+03  0.25500000920E-02 0.  1.
    10030    2    1    2    0    0  0.00000000000E+00  0.00000000000E+00  0.88841884063E+03  0.15867226857E+04  0.13146865957E+04 0.  0.
        4    1    3    3  502    0 -0.15611747530E+02 -0.19182573170E+03 -0.31438404041E+03  0.36861874039E+03  0.12699999809E+01 0.  1.
       -4    1    3    3    0  502  0.15611747530E+02  0.19182573170E+03  0.12028028810E+04  0.12181039453E+04  0.12699999809E+01 0. -1.
</event>
<event>
 5   0  0.9098192E-04  0.1307008E+04  0.7818609E-02  0.9024026E-01
        1   -1    0    0  501    0  0.00000000000E+00  0.00000000000E+00  0.43429190662E+03  0.43429190665E+03  0.50400001928E-02 0. -1.
       -1   -1    0    0    0  501  0.00000000000E+00  0.00000000000E+00 -0.98336547571E+03  0.98336547573E+03  0.50400001928E-02 0.  1.
    10030    2    1    2    0    0  0.00000000000E+00  0.00000000000E+00 -0.54907356910E+03  0.14176573824E+04  0.13070082898E+04 0.  0.
        1    1    3    3  502    0  0.42457125721E+03  0.69639365415E+02 -0.80807100856E+03  0.91547209054E+03  0.50400001928E-02 0.  1.
       -1    1    3    3    0  502 -0.42457125721E+03 -0.69639365415E+02  0.25899743946E+03  0.50218529183E+03  0.50400001928E-02 0. -1.
</event>
<event>
 5   0  0.9081324E-04  0.1300990E+04  0.7818609E-02  0.9028780E-01
        1   -1    0    0  501    0  0.00000000000E+00  0.00000000000E+00  0.12568155680E+04  0.12568155680E+04  0.50400001928E-02 0. -1.
       -1   -1    0    0    0  501  0.00000000000E+00  0.00000000000E+00 -0.33667932635E+03  0.33667932638E+03  0.50400001928E-02 0.  1.
    10030    2    1    2    0    0  0.00000000000E+00  0.00000000000E+00  0.92013624168E+03  0.15934948944E+04  0.13009901134E+04 0.  0.
        4    1    3    3  502    0 -0.36058841101E+03 -0.51272267128E+03  0.67303991346E+03  0.91972434882E+03  0.12699999809E+01 0. -1.
       -4    1    3    3    0  502  0.36058841101E+03  0.51272267128E+03  0.24709632822E+03  0.67377054560E+03  0.12699999809E+01 0.  1.
</event>
<event>
 5   0  0.1623890E-03  0.1274783E+04  0.7818609E-02  0.9049805E-01
       -2   -1    0    0    0  501  0.00000000000E+00  0.00000000000E+00  0.32324999359E+03  0.32324999360E+03  0.25500000920E-02 0.  1.
        2   -1    0    0  501    0  0.00000000000E+00  0.00000000000E+00 -0.12568236087E+04  0.12568236087E+04  0.25500000920E-02 0. -1.
    10030    2    1    2    0    0  0.00000000000E+00  0.00000000000E+00 -0.93357361516E+03  0.15800736023E+04  0.12747834694E+04 0.  0.
        3    1    3    3  502    0  0.21503281044E+03 -0.84605263591E+02  0.26950320774E+03  0.35500584414E+03  0.10100000352E+00 0.  1.
       -3    1    3    3    0  502 -0.21503281044E+03  0.84605263591E+02 -0.12030768229E+04  0.12250677582E+04  0.10100000352E+00 0. -1.
</event>
<event>
 5   0  0.9027076E-04  0.1304915E+04  0.7818609E-02  0.9025677E-01
        1   -1    0    0  501    0  0.00000000000E+00  0.00000000000E+00  0.94108337195E+03  0.94108337196E+03  0.50400001928E-02 0. -1.
       -1   -1    0    0    0  501  0.00000000000E+00  0.00000000000E+00 -0.45235181197E+03  0.45235181200E+03  0.50400001928E-02 0.  1.
    10030    2    1    2    0    0  0.00000000000E+00  0.00000000000E+00  0.48873155997E+03  0.13934351840E+04  0.13049149682E+04 0.  0.
        5    1    3    3  502    0 -0.52649984321E+02  0.63438001525E+03  0.39713969260E+03  0.75030130617E+03  0.46999998093E+01 0. -1.
       -5    1    3    3    0  502  0.52649984321E+02 -0.63438001525E+03  0.91591867369E+02  0.64313387779E+03  0.46999998093E+01 0.  1.
</event>
<event>
 5   0  0.1623890E-03  0.1341513E+04  0.7818609E-02  0.8997277E-01
        2   -1    0    0  501    0  0.00000000000E+00  0.00000000000E+00  0.11962517572E+04  0.11962517573E+04  0.25500000920E-02 0.  1.
       -2   -1    0    0    0  501  0.00000000000E+00  0.00000000000E+00 -0.37610350151E+03  0.37610350152E+03  0.25500000920E-02 0. -1.
    10030    2    1    2    0    0  0.00000000000E+00  0.00000000000E+00  0.82014825574E+03  0.15723552588E+04  0.13415132867E+04 0.  0.
        3    1    3    3  502    0 -0.80595098870E+02 -0.66366237866E+03  0.47396184547E+03  0.81950177790E+03  0.10100000352E+00 0.  1.
       -3    1    3    3    0  502  0.80595098870E+02  0.66366237866E+03  0.34618641026E+03  0.75285348087E+03  0.10100000352E+00 0. -1.
</event>
<event>
 5   0  0.9081324E-04  0.1307742E+04  0.7818609E-02  0.9023448E-01
        1   -1    0    0  501    0  0.00000000000E+00  0.00000000000E+00  0.14227294913E+04  0.14227294913E+04  0.50400001928E-02 0.  1.
       -1   -1    0    0    0  501  0.00000000000E+00  0.00000000000E+00 -0.30051201201E+03  0.30051201206E+03  0.50400001928E-02 0. -1.
    10030    2    1    2    0    0  0.00000000000E+00  0.00000000000E+00  0.11222174793E+04  0.17232415034E+04  0.13077420266E+04 0.  0.
        4    1    3    3  502    0  0.56438088250E+03 -0.31594446389E+03  0.68749343231E+03  0.94392558879E+03  0.12699999809E+01 0.  1.
       -4    1    3    3    0  502 -0.56438088250E+03  0.31594446389E+03  0.43472404697E+03  0.77931591457E+03  0.12699999809E+01 0. -1.
</event>
<event>
 5   0  0.9027076E-04  0.1299170E+04  0.7818609E-02  0.9030223E-01
        1   -1    0    0  501    0  0.00000000000E+00  0.00000000000E+00  0.58623385680E+03  0.58623385682E+03  0.50400001928E-02 0. -1.
       -1   -1    0    0    0  501  0.00000000000E+00  0.00000000000E+00 -0.71978260566E+03  0.71978260568E+03  0.50400001928E-02 0.  1.
    10030    2    1    2    0    0  0.00000000000E+00  0.00000000000E+00 -0.13354874886E+03  0.13060164625E+04  0.12991704014E+04 0.  0.
        5    1    3    3  502    0 -0.16131819663E+03 -0.49545306672E+03  0.32313746325E+03  0.61313718859E+03  0.46999998093E+01 0. -1.
       -5    1    3    3    0  502  0.16131819663E+03  0.49545306672E+03 -0.45668621211E+03  0.69287927391E+03  0.46999998093E+01 0.  1.
</event>
<event>
 5   0  0.1667342E-03  0.1261669E+04  0.7818609E-02  0.9060527E-01
       -2   -1    0    0    0  501  0.00000000000E+00  0.00000000000E+00  0.34371701386E+03  0.34371701387E+03  0.25500000920E-02 0. -1.
        2   -1    0    0  501    0  0.00000000000E+00  0.00000000000E+00 -0.11577892244E+04  0.11577892244E+04  0.25500000920E-02 0.  1.
    10030    2    1    2    0    0  0.00000000000E+00  0.00000000000E+00 -0.81407221051E+03  0.15015062382E+04  0.12616685062E+04 0.  0.
        5    1    3    3  502    0  0.13558929744E+03  0.61465846830E+03 -0.45668284986E+03  0.77767011360E+03  0.46999998093E+01 0.  1.
       -5    1    3    3    0  502 -0.13558929744E+03 -0.61465846830E+03 -0.35738936065E+03  0.72383612464E+03  0.46999998093E+01 0. -1.
</event>
<event>
 5   0  0.9098192E-04  0.1326369E+04  0.7818609E-02  0.9008912E-01
       -1   -1    0    0    0  501  0.00000000000E+00  0.00000000000E+00  0.35896122560E+03  0.35896122564E+03  0.50400001928E-02 0.  1.
        1   -1    0    0  501    0  0.00000000000E+00  0.00000000000E+00 -0.12252393870E+04  0.12252393870E+04  0.50400001928E-02 0. -1.
    10030    2    1    2    0    0  0.00000000000E+00  0.00000000000E+00 -0.86627816136E+03  0.15842006126E+04  0.13263686245E+04 0.  0.
        1    1    3    3  502    0  0.63113151926E+03 -0.11241229823E+03 -0.63600924824E+03  0.90303448620E+03  0.50400001928E-02 0. -1.
       -1    1    3    3    0  502 -0.63113151926E+03  0.11241229823E+03 -0.23026891313E+03  0.68116612641E+03  0.50400001928E-02 0.  1.
</event>
<event>
 5   0  0.1667342E-03  0.1298116E+04  0.7818609E-02  0.9031061E-01
       -2   -1    0    0    0  501  0.00000000000E+00  0.00000000000E+00  0.69896517533E+03  0.69896517533E+03  0.25500000920E-02 0. -1.
        2   -1    0    0  501    0  0.00000000000E+00  0.00000000000E+00 -0.60271402024E+03  0.60271402024E+03  0.25500000920E-02 0.  1.
    10030    2    1    2    0    0  0.00000000000E+00  0.00000000000E+00  0.96251155091E+02  0.13016791956E+04  0.12981157280E+04 0.  0.
        5    1    3    3  502    0 -0.63796960156E+03  0.59329087541E+02  0.15199016412E+03  0.65851974391E+03  0.46999998093E+01 0. -1.
       -5    1    3    3    0  502  0.63796960156E+03 -0.59329087541E+02 -0.55739009031E+02  0.64315945166E+03  0.46999998093E+01 0.  1.
</event>
<event>
 5   0  0.9110949E-04  0.1299898E+04  0.7818609E-02  0.9029646E-01
        1   -1    0    0  501    0  0.00000000000E+00  0.00000000000E+00  0.31530513640E+03  0.31530513644E+03  0.50400001928E-02 0. -1.
       -1   -1    0    0    0  501  0.00000000000E+00  0.00000000000E+00 -0.13397611630E+04  0.13397611630E+04  0.50400001928E-02 0.  1.
    10030    2    1    2    0    0  0.00000000000E+00  0.00000000000E+00 -0.10244560266E+04  0.16550662994E+04  0.12998978056E+04 0.  0.
        2    1    3    3  502    0  0.43866756692E+03 -0.58892947813E+02  0.93774971397E+02  0.45242829137E+03  0.25500000920E-02 0. -1.
       -2    1    3    3    0  502 -0.43866756692E+03  0.58892947813E+02 -0.11182309980E+04  0.12026380080E+04  0.25500000920E-02 0.  1.
</event>
<event>
 5   0  0.9215829E-04  0.1294246E+04  0.7818609E-02  0.9034141E-01
       -1   -1    0    0    0  501  0.00000000000E+00  0.00000000000E+00  0.36388948221E+03  0.36388948224E+03  0.50400001928E-02 0. -1.
        1   -1    0    0  501    0  0.00000000000E+00  0.00000000000E+00 -0.11508111118E+04  0.11508111119E+04  0.50400001928E-02 0.  1.
    10030    2    1    2    0    0  0.00000000000E+00  0.00000000000E+00 -0.78692162964E+03  0.15147005941E+04  0.12942458184E+04 0.  0.
        3    1    3    3  502    0  0.39845379562E+02  0.11212363604E+02  0.36233855202E+03  0.36469522597E+03  0.10100000352E+00 0. -1.
       -3    1    3    3    0  502 -0.39845379562E+02 -0.11212363604E+02 -0.11492601817E+04  0.11500053681E+04  0.10100000352E+00 0.  1.
</event>
<event>
 5   0  0.9027076E-04  0.1285629E+04  0.7818609E-02  0.9041040E-01
        1   -1    0    0  501    0  0.00000000000E+00  0.00000000000E+00  0.14364201027E+04  0.14364201027E+04  0.50400001928E-02 0.  1.
       -1   -1    0    0    0  501  0.00000000000E+00  0.00000000000E+00 -0.28766671802E+03  0.28766671807E+03  0.50400001928E-02 0. -1.
    10030    2    1    2    0    0  0.00000000000E+00  0.00000000000E+00  0.11487533847E+04  0.17240868207E+04  0.12856286504E+04 0.  0.
        5    1    3    3  502    0  0.54094450435E+03 -0.18251104015E+03  0.97051200155E+03  0.11259870655E+04  0.46999998093E+01 0.  1.
       -5    1    3    3    0  502 -0.54094450435E+03  0.18251104015E+03  0.17824138311E+03  0.59809975524E+03  0.46999998093E+01 0. -1.
</event>
<event>
 5   0  0.1700511E-03  0.1304724E+04  0.7818609E-02  0.9025827E-01
       -2   -1    0    0    0  501  0.00000000000E+00  0.00000000000E+00  0.10389298725E+04  0.10389298725E+04  0.25500000920E-02 0. -1.
        2   -1    0    0  501    0  0.00000000000E+00  0.00000000000E+00 -0.40962942603E+03  0.40962942604E+03  0.25500000920E-02 0.  1.
    10030    2    1    2    0    0  0.00000000000E+00  0.00000000000E+00  0.62930044651E+03  0.14485592986E+04  0.13047241048E+04 0.  0.
        2    1    3    3  502    0  0.10203864904E+03 -0.26617048295E+03  0.96612443019E+03  0.10073008620E+04  0.25500000920E-02 0. -1.
       -2    1    3    3    0  502 -0.10203864904E+03  0.26617048295E+03 -0.33682398369E+03  0.44125843662E+03  0.25500000920E-02 0.  1.
</event>
<event>
 5   0  0.1714861E-03  0.1298149E+04  0.7818609E-02  0.9031034E-01
        2   -1    0    0  501    0  0.00000000000E+00  0.00000000000E+00  0.23899839656E+04  0.23899839656E+04  0.25500000920E-02 0.  1.
       -2   -1    0    0    0  501  0.00000000000E+00  0.00000000000E+00 -0.17627642604E+03  0.17627642606E+03  0.25500000920E-02 0. -1.
    10030    2    1    2    0    0  0.00000000000E+00  0.00000000000E+00  0.22137075396E+04  0.25662603917E+04  0.12981491929E+04 0.  0.
        1    1    3    3  502    0 -0.43906251465E+03  0.40072594091E+03  0.16221310513E+04  0.17276186845E+04  0.50400001928E-02 0.  1.
       -1    1    3    3    0  502  0.43906251465E+03 -0.40072594091E+03  0.59157648829E+03  0.83864170718E+03  0.50400001928E-02 0. -1.
</event>
<event>
 5   0  0.9098192E-04  0.1263002E+04  0.7818609E-02  0.9059431E-01
       -1   -1    0    0    0  501  0.00000000000E+00  0.00000000000E+00  0.68200552832E+03  0.68200552834E+03  0.50400001928E-02 0. -1.
        1   -1    0    0  501    0  0.00000000000E+00  0.00000000000E+00 -0.58473622039E+03  0.58473622041E+03  0.50400001928E-02 0.  1.
    10030    2    1    2    0    0  0.00000000000E+00  0.00000000000E+00  0.97269307931E+02  0.12667417488E+04  0.12630017180E+04 0.  0.
        1    1    3    3  502    0  0.46994586952E+03 -0.38136411110E+02 -0.37271630207E+03  0.60101659543E+03  0.50400001928E-02 0.  1.
       -1    1    3    3    0  502 -0.46994586952E+03  0.38136411110E+02  0.46998561000E+03  0.66572515332E+03  0.50400001928E-02 0. -1.
</event>
<event>
 5   0  0.9215829E-04  0.1309430E+04  0.7818609E-02  0.9022121E-01
        1   -1    0    0  501    0  0.00000000000E+00  0.00000000000E+00  0.72900273327E+03  0.72900273329E+03  0.50400001928E-02 0.  1.
       -1   -1    0    0    0  501  0.00000000000E+00  0.00000000000E+00 -0.58799720540E+03  0.58799720542E+03  0.50400001928E-02 0. -1.
    10030    2    1    2    0    0  0.00000000000E+00  0.00000000000E+00  0.14100552788E+03  0.13169999387E+04  0.13094297536E+04 0.  0.
        3    1    3    3  502    0  0.55774541025E+03  0.31270821523E+02 -0.27292957712E+03  0.62173014339E+03  0.10100000352E+00 0. -1.
       -3    1    3    3    0  502 -0.55774541025E+03 -0.31270821523E+02  0.41393510500E+03  0.69526979532E+03  0.10100000352E+00 0.  1.
</event>
<event>
 5   0  0.9215829E-04  0.1290185E+04  0.7818609E-02  0.9037385E-01
        1   -1    0    0  501    0  0.00000000000E+00  0.00000000000E+00  0.10401294512E+04  0.10401294513E+04  0.50400001928E-02 0.  1.
       -1   -1    0    0    0  501  0.00000000000E+00  0.00000000000E+00 -0.40008871928E+03  0.40008871931E+03  0.50400001928E-02 0. -1.
    10030    2    1    2    0    0  0.00000000000E+00  0.00000000000E+00  0.64004073197E+03  0.14402181706E+04  0.12901845760E+04 0.  0.
        3    1    3    3  502    0  0.20147593689E+03 -0.50955475734E+03 -0.60018804495E+02  0.55121762577E+03  0.10100000352E+00 0. -1.
       -3    1    3    3    0  502 -0.20147593689E+03  0.50955475734E+03  0.70005953646E+03  0.88900054480E+03  0.10100000352E+00 0.  1.
</event>
<event>
 5   0  0.9110949E-04  0.1289952E+04  0.7818609E-02  0.9037571E-01
       -1   -1    0    0    0  501  0.00000000000E+00  0.00000000000E+00  0.28198955835E+03  0.28198955839E+03  0.50400001928E-02 0. -1.
        1   -1    0    0  501    0  0.00000000000E+00  0.00000000000E+00 -0.14752108591E+04  0.14752108591E+04  0.50400001928E-02 0.  1.
    10030    2    1    2    0    0  0.00000000000E+00  0.00000000000E+00 -0.11932213008E+04  0.17572004175E+04  0.12899520281E+04 0.  0.
        2    1    3    3  502    0  0.10548489121E+03  0.42625104602E+03 -0.12401461319E+04  0.13155909110E+04  0.25500000920E-02 0.  1.
       -2    1    3    3    0  502 -0.10548489121E+03 -0.42625104602E+03  0.46924831136E+02  0.44160950656E+03  0.25500000920E-02 0. -1.
</event>
<event>
 5   0  0.1714861E-03  0.1252944E+04  0.7818609E-02  0.9067736E-01
        2   -1    0    0  501    0  0.00000000000E+00  0.00000000000E+00  0.71651727170E+03  0.71651727170E+03  0.25500000920E-02 0.  1.
       -2   -1    0    0    0  501  0.00000000000E+00  0.00000000000E+00 -0.54774318944E+03  0.54774318945E+03  0.25500000920E-02 0. -1.
    10030    2    1    2    0    0  0.00000000000E+00  0.00000000000E+00  0.16877408225E+03  0.12642604611E+04  0.12529444612E+04 0.  0.
        1    1    3    3  502    0 -0.40874853597E+03 -0.42383971706E+03  0.30021599332E+03  0.66094259515E+03  0.50400001928E-02 0.  1.
       -1    1    3    3    0  502  0.40874853597E+03  0.42383971706E+03 -0.13144191107E+03  0.60331786600E+03  0.50400001928E-02 0. -1.
</event>
<event>
 5   0  0.1623890E-03  0.1304642E+04  0.7818609E-02  0.9025892E-01
        2   -1    0    0  501    0  0.00000000000E+00  0.00000000000E+00  0.30834622510E+03  0.30834622511E+03  0.25500000920E-02 0. -1.
       -2   -1    0    0    0  501  0.00000000000E+00  0.00000000000E+00 -0.13800148961E+04  0.13800148961E+04  0.25500000920E-02 0.  1.
    10030    2    1    2    0    0  0.00000000000E+00  0.00000000000E+00 -0.10716686710E+04  0.16883611212E+04  0.13046415351E+04 0.  0.
        3    1    3    3  502    0 -0.78187300195E+02 -0.56492150910E+03 -0.94562846352E+03  0.11042928808E+04  0.10100000352E+00 0.  1.
       -3    1    3    3    0  502  0.78187300195E+02  0.56492150910E+03 -0.12604020748E+03  0.58406824041E+03  0.10100000352E+00 0. -1.
</event>
<event>
 5   0  0.9215829E-04  0.1301210E+04  0.7818609E-02  0.9028606E-01
       -1   -1    0    0    0  501  0.00000000000E+00  0.00000000000E+00  0.37970183822E+03  0.37970183826E+03  0.50400001928E-02 0. -1.
        1   -1    0    0  501    0  0.00000000000E+00  0.00000000000E+00 -0.11147873636E+04  0.11147873636E+04  0.50400001928E-02 0.  1.
    10030    2    1    2    0    0  0.00000000000E+00  0.00000000000E+00 -0.73508552541E+03  0.14944892019E+04  0.13012099158E+04 0.  0.
        3    1    3    3  502    0 -0.14269040529E+03  0.50863722407E+03  0.68621186596E+02  0.53271123033E+03  0.10100000352E+00 0. -1.
       -3    1    3    3    0  502  0.14269040529E+03 -0.50863722407E+03 -0.80370671201E+03  0.96177797157E+03  0.10100000352E+00 0.  1.
</event>
<event>
 5   0  0.1694675E-03  0.1293772E+04  0.7818609E-02  0.9034518E-01
        2   -1    0    0  501    0  0.00000000000E+00  0.00000000000E+00  0.11207430849E+04  0.11207430849E+04  0.25500000920E-02 0.  1.
       -2   -1    0    0    0  501  0.00000000000E+00  0.00000000000E+00 -0.37337877854E+03  0.37337877855E+03  0.25500000920E-02 0. -1.
    10030    2    1    2    0    0  0.00000000000E+00  0.00000000000E+00  0.74736430634E+03  0.14941218634E+04  0.12937722892E+04 0.  0.
        4    1    3    3  502    0  0.28936843263E+03  0.36115202285E+03  0.89566622991E+03  0.10081589566E+04  0.12699999809E+01 0.  1.
       -4    1    3    3    0  502 -0.28936843263E+03 -0.36115202285E+03 -0.14830192358E+03  0.48596290686E+03  0.12699999809E+01 0. -1.
</event>
<event>
 5   0  0.9215829E-04  0.1267973E+04  0.7818609E-02  0.9055356E-01
        1   -1    0    0  501    0  0.00000000000E+00  0.00000000000E+00  0.14365711830E+04  0.14365711830E+04  0.50400001928E-02 0. -1.
       -1   -1    0    0    0  501  0.00000000000E+00  0.00000000000E+00 -0.27979034677E+03  0.27979034681E+03  0.50400001928E-02 0.  1.
    10030    2    1    2    0    0  0.00000000000E+00  0.00000000000E+00  0.11567808362E+04  0.17163615298E+04  0.12679727907E+04 0.  0.
        3    1    3    3  502    0  0.21886169163E+03  0.49032154742E+03  0.10346711349E+04  0.11657015174E+04  0.10100000352E+00 0. -1.
       -3    1    3    3    0  502 -0.21886169163E+03 -0.49032154742E+03  0.12210970126E+03  0.55066001241E+03  0.10100000352E+00 0.  1.
</event>
<event>
 5   0  0.9215829E-04  0.1291929E+04  0.7818609E-02  0.9035990E-01
       -1   -1    0    0    0  501  0.00000000000E+00  0.00000000000E+00  0.68514941583E+03  0.68514941585E+03  0.50400001928E-02 0. -1.
        1   -1    0    0  501    0  0.00000000000E+00  0.00000000000E+00 -0.60902038833E+03  0.60902038835E+03  0.50400001928E-02 0.  1.
    10030    2    1    2    0    0  0.00000000000E+00  0.00000000000E+00  0.76129027497E+02  0.12941698042E+04  0.12919287338E+04 0.  0.
        3    1    3    3  502    0  0.24133697026E+03  0.23202149275E+03 -0.51533604795E+03  0.61453133267E+03  0.10100000352E+00 0.  1.
       -3    1    3    3    0  502 -0.24133697026E+03 -0.23202149275E+03  0.59146507545E+03  0.67963847153E+03  0.10100000352E+00 0. -1.
</event>
<event>
 5   0  0.1667342E-03  0.1315991E+04  0.7818609E-02  0.9016979E-01
        2   -1    0    0  501    0  0.00000000000E+00  0.00000000000E+00  0.10551772900E+04  0.10551772900E+04  0.25500000920E-02 0. -1.
       -2   -1    0    0    0  501  0.00000000000E+00  0.00000000000E+00 -0.41031802790E+03  0.41031802791E+03  0.25500000920E-02 0.  1.
    10030    2    1    2    0    0  0.00000000000E+00  0.00000000000E+00  0.64485926213E+03  0.14654953179E+04  0.13159912838E+04 0.  0.
        5    1    3    3  502    0  0.12544852133E+02 -0.25225008924E+03  0.99902978232E+03  0.10304708035E+04  0.46999998093E+01 0. -1.
       -5    1    3    3    0  502 -0.12544852133E+02  0.25225008924E+03 -0.35417052019E+03  0.43502451449E+03  0.46999998093E+01 0.  1.
</event>
<event>
 5   0  0.9081324E-04  0.1302267E+04  0.7818609E-02  0.9027770E-01
       -1   -1    0    0    0  501  0.00000000000E+00  0.00000000000E+00  0.57095470146E+03  0.57095470148E+03  0.50400001928E-02 0. -1.
        1   -1    0    0  501    0  0.00000000000E+00  0.00000000000E+00 -0.74257146835E+03  0.74257146837E+03  0.50400001928E-02 0.  1.
    10030    2    1    2    0    0  0.00000000000E+00  0.00000000000E+00 -0.17161676689E+03  0.13135261698E+04  0.13022667485E+04 0.  0.
        4    1    3    3  502    0  0.18059620375E+03 -0.13470695504E+03  0.53038444474E+03  0.57625534676E+03  0.12699999809E+01 0. -1.
       -4    1    3    3    0  502 -0.18059620375E+03  0.13470695504E+03 -0.70200121164E+03  0.73727082309E+03  0.12699999809E+01 0.  1.
</event>
<event>
 5   0  0.9215829E-04  0.1291631E+04  0.7818609E-02  0.9036228E-01
       -1   -1    0    0    0  501  0.00000000000E+00  0.00000000000E+00  0.57721110694E+03  0.57721110696E+03  0.50400001928E-02 0. -1.
        1   -1    0    0  501    0  0.00000000000E+00  0.00000000000E+00 -0.72257363268E+03  0.72257363269E+03  0.50400001928E-02 0.  1.
    10030    2    1    2    0    0  0.00000000000E+00  0.00000000000E+00 -0.14536252573E+03  0.12997847397E+04  0.12916307931E+04 0.  0.
        3    1    3    3  502    0 -0.33847297754E+03  0.36821335599E+02  0.47956154001E+03  0.58813182888E+03  0.10100000352E+00 0. -1.
       -3    1    3    3    0  502  0.33847297754E+03 -0.36821335599E+02 -0.62492406574E+03  0.71165291078E+03  0.10100000352E+00 0.  1.
</event>
<event>
 5   0  0.1700511E-03  0.1297449E+04  0.7818609E-02  0.9031591E-01
        2   -1    0    0  501    0  0.00000000000E+00  0.00000000000E+00  0.81812952488E+03  0.81812952489E+03  0.25500000920E-02 0. -1.
       -2   -1    0    0    0  501  0.00000000000E+00  0.00000000000E+00 -0.51439684902E+03  0.51439684903E+03  0.25500000920E-02 0.  1.
    10030    2    1    2    0    0  0.00000000000E+00  0.00000000000E+00  0.30373267586E+03  0.13325263739E+04  0.12974486498E+04 0.  0.
        2    1    3    3  502    0 -0.51242644062E+03  0.36213270479E+03  0.32100732741E+03  0.70481675433E+03  0.25500000920E-02 0. -1.
       -2    1    3    3    0  502  0.51242644062E+03 -0.36213270479E+03 -0.17274651544E+02  0.62770961959E+03  0.25500000920E-02 0.  1.
</event>
<event>
 5   0  0.9081324E-04  0.1301359E+04  0.7818609E-02  0.9028489E-01
        1   -1    0    0  501    0  0.00000000000E+00  0.00000000000E+00  0.14927504728E+04  0.14927504728E+04  0.50400001928E-02 0.  1.
       -1   -1    0    0    0  501  0.00000000000E+00  0.00000000000E+00 -0.28362644412E+03  0.28362644416E+03  0.50400001928E-02 0. -1.
    10030    2    1    2    0    0  0.00000000000E+00  0.00000000000E+00  0.12091240287E+04  0.17763769170E+04  0.13013585342E+04 0.  0.
        4    1    3    3  502    0  0.36111297073E+03 -0.24348998582E+03  0.12644345121E+04  0.13373429624E+04  0.12699999809E+01 0.  1.
       -4    1    3    3    0  502 -0.36111297073E+03  0.24348998582E+03 -0.55310483380E+02  0.43903395460E+03  0.12699999809E+01 0. -1.
</event>
<event>
 5   0  0.1714861E-03  0.1297158E+04  0.7818609E-02  0.9031822E-01
        2   -1    0    0  501    0  0.00000000000E+00  0.00000000000E+00  0.20042095101E+04  0.20042095101E+04  0.25500000920E-02 0.  1.
       -2   -1    0    0    0  501  0.00000000000E+00  0.00000000000E+00 -0.20988547260E+03  0.20988547262E+03  0.25500000920E-02 0. -1.
    10030    2    1    2    0    0  0.00000000000E+00  0.00000000000E+00  0.17943240375E+04  0.22140949827E+04  0.12971576006E+04 0.  0.
        1    1    3    3  502    0  0.51702082127E+03 -0.37167280327E+03  0.68670091954E+03  0.93648777634E+03  0.50400001928E-02 0.  1.
       -1    1    3    3    0  502 -0.51702082127E+03  0.37167280327E+03  0.11076231179E+04  0.12776072063E+04  0.50400001928E-02 0. -1.
</event>
<event>
 5   0  0.9110949E-04  0.1306416E+04  0.7818609E-02  0.9024492E-01
        1   -1    0    0  501    0  0.00000000000E+00  0.00000000000E+00  0.22704329395E+03  0.22704329401E+03  0.50400001928E-02 0.  1.
       -1   -1    0    0    0  501  0.00000000000E+00  0.00000000000E+00 -0.18792931738E+04  0.18792931738E+04  0.50400001928E-02 0. -1.
    10030    2    1    2    0    0  0.00000000000E+00  0.00000000000E+00 -0.16522498798E+04  0.21063364678E+04  0.13064163388E+04 0.  0.
        2    1    3    3  502    0 -0.25045659350E+03 -0.16809190597E+03 -0.17602826639E+04  0.17859390949E+04  0.25500000920E-02 0. -1.
       -2    1    3    3    0  502  0.25045659350E+03  0.16809190597E+03  0.10803278407E+03  0.32039737284E+03  0.25500000920E-02 0.  1.
</event>
<event>
 5   0  0.9081324E-04  0.1296730E+04  0.7818609E-02  0.9032162E-01
       -1   -1    0    0    0  501  0.00000000000E+00  0.00000000000E+00  0.43990407504E+03  0.43990407507E+03  0.50400001928E-02 0. -1.
        1   -1    0    0  501    0  0.00000000000E+00  0.00000000000E+00 -0.95561090853E+03  0.95561090854E+03  0.50400001928E-02 0.  1.
    10030    2    1    2    0    0  0.00000000000E+00  0.00000000000E+00 -0.51570683349E+03  0.13955149836E+04  0.12967299377E+04 0.  0.
        4    1    3    3  502    0  0.43850122841E+03 -0.76642366983E+02 -0.76516493234E+03  0.88523237984E+03  0.12699999809E+01 0.  1.
       -4    1    3    3    0  502 -0.43850122841E+03  0.76642366983E+02  0.24945809885E+03  0.51028260378E+03  0.12699999809E+01 0. -1.
</event>
<event>
 5   0  0.1623890E-03  0.1266305E+04  0.7818609E-02  0.9056720E-01
        2   -1    0    0  501    0  0.00000000000E+00  0.00000000000E+00  0.22374679429E+04  0.22374679429E+04  0.25500000920E-02 0.  1.
       -2   -1    0    0    0  501  0.00000000000E+00  0.00000000000E+00 -0.17916788618E+03  0.17916788620E+03  0.25500000920E-02 0. -1.
    10030    2    1    2    0    0  0.00000000000E+00  0.00000000000E+00  0.20583000567E+04  0.24166358291E+04  0.12663054951E+04 0.  0.
        3    1    3    3  502    0 -0.25713996602E+03  0.57754425388E+03  0.96292875244E+03  0.11519158475E+04  0.10100000352E+00 0.  1.
       -3    1    3    3    0  502  0.25713996602E+03 -0.57754425388E+03  0.10953713042E+04  0.12647199815E+04  0.10100000352E+00 0. -1.
</event>
<event>
 5   0  0.9215829E-04  0.1458677E+04  0.7818609E-02  0.8912407E-01
       -1   -1    0    0    0  501  0.00000000000E+00  0.00000000000E+00  0.10773559794E+04  0.10773559794E+04  0.50400001928E-02 0.  1.
        1   -1    0    0  501    0  0.00000000000E+00  0.00000000000E+00 -0.49374082647E+03  0.49374082650E+03  0.50400001928E-02 0. -1.
    10030    2    1    2    0    0  0.00000000000E+00  0.00000000000E+00  0.58361515295E+03  0.15710968059E+04  0.14586769782E+04 0.  0.
        3    1    3    3  502    0  0.38075571961E+03 -0.48443216210E+03 -0.12850524959E+03  0.62941484497E+03  0.10100000352E+00 0. -1.
       -3    1    3    3    0  502 -0.38075571961E+03  0.48443216210E+03  0.71212040254E+03  0.94168196097E+03  0.10100000352E+00 0.  1.
</event>
<event>
 5   0  0.1700511E-03  0.1302055E+04  0.7818609E-02  0.9027937E-01
       -2   -1    0    0    0  501  0.00000000000E+00  0.00000000000E+00  0.13668055272E+04  0.13668055272E+04  0.25500000920E-02 0.  1.
        2   -1    0    0  501    0  0.00000000000E+00  0.00000000000E+00 -0.31009286596E+03  0.31009286597E+03  0.25500000920E-02 0. -1.
    10030    2    1    2    0    0  0.00000000000E+00  0.00000000000E+00  0.10567126613E+04  0.16768983932E+04  0.13020547502E+04 0.  0.
        2    1    3    3  502    0 -0.11495445340E+03 -0.47185569858E+02  0.13513908491E+04  0.13570918286E+04  0.25500000920E-02 0.  1.
       -2    1    3    3    0  502  0.11495445340E+03  0.47185569858E+02 -0.29467818781E+03  0.31980656456E+03  0.25500000920E-02 0. -1.
</event>
<event>
 5   0  0.1623890E-03  0.1273266E+04  0.7818609E-02  0.9051039E-01
        2   -1    0    0  501    0  0.00000000000E+00  0.00000000000E+00  0.92685668384E+03  0.92685668384E+03  0.25500000920E-02 0. -1.
       -2   -1    0    0    0  501  0.00000000000E+00  0.00000000000E+00 -0.43728591726E+03  0.43728591727E+03  0.25500000920E-02 0.  1.
    10030    2    1    2    0    0  0.00000000000E+00  0.00000000000E+00  0.48957076658E+03  0.13641426011E+04  0.12732656835E+04 0.  0.
        3    1    3    3  502    0 -0.39315844411E+03  0.27544615249E+03 -0.20321926705E+03  0.52128900410E+03  0.10100000352E+00 0.  1.
       -3    1    3    3    0  502  0.39315844411E+03 -0.27544615249E+03  0.69279003362E+03  0.84285359701E+03  0.10100000352E+00 0. -1.
</event>
<event>
 5   0  0.1700511E-03  0.1254557E+04  0.7818609E-02  0.9066399E-01
       -2   -1    0    0    0  501  0.00000000000E+00  0.00000000000E+00  0.29272230933E+03  0.29272230934E+03  0.25500000920E-02 0. -1.
        2   -1    0    0  501    0  0.00000000000E+00  0.00000000000E+00 -0.13442030010E+04  0.13442030010E+04  0.25500000920E-02 0.  1.
    10030    2    1    2    0    0  0.00000000000E+00  0.00000000000E+00 -0.10514806917E+04  0.16369253104E+04  0.12545568248E+04 0.  0.
        2    1    3    3  502    0 -0.32791411002E+02  0.51573629626E+03 -0.98966206660E+03  0.11164632596E+04  0.25500000920E-02 0.  1.
       -2    1    3    3    0  502  0.32791411002E+02 -0.51573629626E+03 -0.61818625104E+02  0.52046205081E+03  0.25500000920E-02 0. -1.
</event>
<event>
 5   0  0.1694675E-03  0.1276257E+04  0.7818609E-02  0.9048609E-01
        2   -1    0    0  501    0  0.00000000000E+00  0.00000000000E+00  0.11225400221E+04  0.11225400221E+04  0.25500000920E-02 0.  1.
       -2   -1    0    0    0  501  0.00000000000E+00  0.00000000000E+00 -0.36275566542E+03  0.36275566543E+03  0.25500000920E-02 0. -1.
    10030    2    1    2    0    0  0.00000000000E+00  0.00000000000E+00  0.75978435668E+03  0.14852956875E+04  0.12762566399E+04 0.  0.
        4    1    3    3  502    0  0.12180012581E+03 -0.61149796329E+03  0.53793269295E+03  0.82349148435E+03  0.12699999809E+01 0.  1.
       -4    1    3    3    0  502 -0.12180012581E+03  0.61149796329E+03  0.22185166372E+03  0.66180420318E+03  0.12699999809E+01 0. -1.
</event>
<event>
 5   0  0.9027076E-04  0.1289708E+04  0.7818609E-02  0.9037767E-01
        1   -1    0    0  501    0  0.00000000000E+00  0.00000000000E+00  0.63677819000E+03  0.63677819002E+03  0.50400001928E-02 0.  1.
       -1   -1    0    0    0  501  0.00000000000E+00  0.00000000000E+00 -0.65303179859E+03  0.65303179861E+03  0.50400001928E-02 0. -1.
    10030    2    1    2    0    0  0.00000000000E+00  0.00000000000E+00 -0.16253608582E+02  0.12898099886E+04  0.12897075742E+04 0.  0.
        5    1    3    3  502    0 -0.48673897633E+03 -0.19241217658E+03 -0.38482240222E+03  0.64965194376E+03  0.46999998093E+01 0. -1.
       -5    1    3    3    0  502  0.48673897633E+03  0.19241217658E+03  0.36856879364E+03  0.64015804488E+03  0.46999998093E+01 0.  1.
</event>
<event>
 5   0  0.9081324E-04  0.1321780E+04  0.7818609E-02  0.9012469E-01
        1   -1    0    0  501    0  0.00000000000E+00  0.00000000000E+00  0.12159522881E+04  0.12159522881E+04  0.50400001928E-02 0. -1.
       -1   -1    0    0    0  501  0.00000000000E+00  0.00000000000E+00 -0.35920468675E+03  0.35920468678E+03  0.50400001928E-02 0.  1.
    10030    2    1    2    0    0  0.00000000000E+00  0.00000000000E+00  0.85674760132E+03  0.15751569749E+04  0.13217802552E+04 0.  0.
        4    1    3    3  502    0 -0.15814372497E+03  0.62863042555E+03  0.27488803131E+03  0.70409565567E+03  0.12699999809E+01 0.  1.
       -4    1    3    3    0  502  0.15814372497E+03 -0.62863042555E+03  0.58185957000E+03  0.87106131918E+03  0.12699999809E+01 0. -1.
</event>
<event>
 5   0  0.1700511E-03  0.1281766E+04  0.7818609E-02  0.9044151E-01
       -2   -1    0    0    0  501  0.00000000000E+00  0.00000000000E+00  0.91318094805E+03  0.91318094805E+03  0.25500000920E-02 0.  1.
        2   -1    0    0  501    0  0.00000000000E+00  0.00000000000E+00 -0.44978046028E+03  0.44978046029E+03  0.25500000920E-02 0. -1.
    10030    2    1    2    0    0  0.00000000000E+00  0.00000000000E+00  0.46340048777E+03  0.13629614083E+04  0.12817658868E+04 0.  0.
        2    1    3    3  502    0  0.17906043472E+03 -0.58756790041E+03  0.37272702383E+02  0.61537625175E+03  0.25500000920E-02 0. -1.
       -2    1    3    3    0  502 -0.17906043472E+03  0.58756790041E+03  0.42612778538E+03  0.74758515659E+03  0.25500000920E-02 0.  1.
</event>
<event>
 5   0  0.1700511E-03  0.1301062E+04  0.7818609E-02  0.9028724E-01
        2   -1    0    0  501    0  0.00000000000E+00  0.00000000000E+00  0.10787203163E+04  0.10787203163E+04  0.25500000920E-02 0.  1.
       -2   -1    0    0    0  501  0.00000000000E+00  0.00000000000E+00 -0.39230790454E+03  0.39230790454E+03  0.25500000920E-02 0. -1.
    10030    2    1    2    0    0  0.00000000000E+00  0.00000000000E+00  0.68641241179E+03  0.14710282209E+04  0.13010618846E+04 0.  0.
        2    1    3    3  502    0 -0.23048077483E+03 -0.16957860143E+03  0.10037459706E+04  0.10437357248E+04  0.25500000920E-02 0.  1.
       -2    1    3    3    0  502  0.23048077483E+03  0.16957860143E+03 -0.31733355885E+03  0.42729249608E+03  0.25500000920E-02 0. -1.
</event>
<event>
 5   0  0.6284125E-04  0.1313340E+04  0.7818609E-02  0.9019053E-01
       -3   -1    0    0    0  501  0.00000000000E+00  0.00000000000E+00  0.33206759991E+03  0.33206761527E+03  0.10100000352E+00 0.  1.
        3   -1    0    0  501    0  0.00000000000E+00  0.00000000000E+00 -0.12985774635E+04  0.12985774674E+04  0.10100000352E+00 0. -1.
    10030    2    1    2    0    0  0.00000000000E+00  0.00000000000E+00 -0.96650986357E+03  0.16306450827E+04  0.13133400433E+04 0.  0.
        1    1    3    3  502    0 -0.49160022481E+03  0.38298250428E+03 -0.22618301662E+03  0.66295183584E+03  0.50400001928E-02 0.  1.
       -1    1    3    3    0  502  0.49160022481E+03 -0.38298250428E+03 -0.74032684695E+03  0.96769324683E+03  0.50400001928E-02 0. -1.
</event>
<event>
 5   0  0.1623890E-03  0.1316799E+04  0.7818609E-02  0.9016348E-01
       -2   -1    0    0    0  501  0.00000000000E+00  0.00000000000E+00  0.39156754770E+03  0.39156754771E+03  0.25500000920E-02 0. -1.
        2   -1    0    0  501    0  0.00000000000E+00  0.00000000000E+00 -0.11070629262E+04  0.11070629263E+04  0.25500000920E-02 0.  1.
    10030    2    1    2    0    0  0.00000000000E+00  0.00000000000E+00 -0.71549537855E+03  0.14986304740E+04  0.13167990206E+04 0.  0.
        3    1    3    3  502    0 -0.33213591932E+03  0.45349090446E+03 -0.74789981575E+03  0.93558666831E+03  0.10100000352E+00 0.  1.
       -3    1    3    3    0  502  0.33213591932E+03 -0.45349090446E+03  0.32404437200E+02  0.56304380565E+03  0.10100000352E+00 0. -1.
</event>
<event>
 5   0  0.9110949E-04  0.1285636E+04  0.7818609E-02  0.9041034E-01
        1   -1    0    0  501    0  0.00000000000E+00  0.00000000000E+00  0.64829689638E+03  0.64829689640E+03  0.50400001928E-02 0.  1.
       -1   -1    0    0    0  501  0.00000000000E+00  0.00000000000E+00 -0.63738501770E+03  0.63738501772E+03  0.50400001928E-02 0. -1.
    10030    2    1    2    0    0  0.00000000000E+00  0.00000000000E+00  0.10911878680E+02  0.12856819141E+04  0.12856356075E+04 0.  0.
        2    1    3    3  502    0 -0.25595551258E+03  0.55255546160E+03  0.21133702029E+03  0.64458831723E+03  0.25500000920E-02 0.  1.
       -2    1    3    3    0  502  0.25595551258E+03 -0.55255546160E+03 -0.20042514161E+03  0.64109359688E+03  0.25500000920E-02 0. -1.
</event>
<event>
 5   0  0.9098192E-04  0.1277254E+04  0.7818609E-02  0.9047800E-01
       -1   -1    0    0    0  501  0.00000000000E+00  0.00000000000E+00  0.41452889608E+03  0.41452889612E+03  0.50400001928E-02 0.  1.
        1   -1    0    0  501    0  0.00000000000E+00  0.00000000000E+00 -0.98387403473E+03  0.98387403475E+03  0.50400001928E-02 0. -1.
    10030    2    1    2    0    0  0.00000000000E+00  0.00000000000E+00 -0.56934513865E+03  0.13984029309E+04  0.12772536436E+04 0.  0.
        1    1    3    3  502    0  0.55398489266E+03  0.28191076001E+03 -0.12424310291E+03  0.63388428482E+03  0.50400001928E-02 0. -1.
       -1    1    3    3    0  502 -0.55398489266E+03 -0.28191076001E+03 -0.44510203574E+03  0.76451864604E+03  0.50400001928E-02 0.  1.
</event>
<event>
 5   0  0.1700511E-03  0.1308803E+04  0.7818609E-02  0.9022613E-01
       -2   -1    0    0    0  501  0.00000000000E+00  0.00000000000E+00  0.22203243104E+03  0.22203243106E+03  0.25500000920E-02 0.  1.
        2   -1    0    0  501    0  0.00000000000E+00  0.00000000000E+00 -0.19287324589E+04  0.19287324589E+04  0.25500000920E-02 0. -1.
    10030    2    1    2    0    0  0.00000000000E+00  0.00000000000E+00 -0.17067000278E+04  0.21507648899E+04  0.13088027456E+04 0.  0.
        2    1    3    3  502    0  0.37927359518E+03 -0.22952322543E+03 -0.16443797378E+04  0.17030895728E+04  0.25500000920E-02 0. -1.
       -2    1    3    3    0  502 -0.37927359518E+03  0.22952322543E+03 -0.62320290067E+02  0.44767531713E+03  0.25500000920E-02 0.  1.
</event>
<event>
 5   0  0.1667342E-03  0.1298215E+04  0.7818609E-02  0.9030982E-01
        2   -1    0    0  501    0  0.00000000000E+00  0.00000000000E+00  0.12450472098E+04  0.12450472098E+04  0.25500000920E-02 0.  1.
       -2   -1    0    0    0  501  0.00000000000E+00  0.00000000000E+00 -0.33841341200E+03  0.33841341201E+03  0.25500000920E-02 0. -1.
    10030    2    1    2    0    0  0.00000000000E+00  0.00000000000E+00  0.90663379782E+03  0.15834606218E+04  0.12982151969E+04 0.  0.
        5    1    3    3  502    0 -0.16890783028E+03  0.62568123363E+03  0.49749241864E+03  0.81702365807E+03  0.46999998093E+01 0. -1.
       -5    1    3    3    0  502  0.16890783028E+03 -0.62568123363E+03  0.40914137919E+03  0.76643696376E+03  0.46999998093E+01 0.  1.
</event>
<event>
 5   0  0.6284125E-04  0.1302723E+04  0.7818609E-02  0.9027409E-01
        4   -1    0    0  501    0  0.00000000000E+00  0.00000000000E+00  0.12272227093E+04  0.12272233665E+04  0.12699999809E+01 0. -1.
       -4   -1    0    0    0  501  0.00000000000E+00  0.00000000000E+00 -0.34571516573E+03  0.34571749842E+03  0.12699999809E+01 0.  1.
    10030    2    1    2    0    0  0.00000000000E+00  0.00000000000E+00  0.88150754359E+03  0.15729408649E+04  0.13027230769E+04 0.  0.
        5    1    3    3  502    0 -0.99765000891E+02 -0.29510849223E+03  0.11314260700E+04  0.11735370124E+04  0.46999998093E+01 0. -1.
       -5    1    3    3    0  502  0.99765000891E+02  0.29510849223E+03 -0.24991852637E+03  0.39940385252E+03  0.46999998093E+01 0.  1.
</event>
<event>
 5   0  0.9027076E-04  0.1298361E+04  0.7818609E-02  0.9030866E-01
        1   -1    0    0  501    0  0.00000000000E+00  0.00000000000E+00  0.78364677463E+03  0.78364677464E+03  0.50400001928E-02 0.  1.
       -1   -1    0    0    0  501  0.00000000000E+00  0.00000000000E+00 -0.53778725094E+03  0.53778725096E+03  0.50400001928E-02 0. -1.
    10030    2    1    2    0    0  0.00000000000E+00  0.00000000000E+00  0.24585952369E+03  0.13214340256E+04  0.12983608815E+04 0.  0.
        5    1    3    3  502    0 -0.15891897918E+03 -0.41572609238E+03 -0.35804615643E+03  0.57122899608E+03  0.46999998093E+01 0. -1.
       -5    1    3    3    0  502  0.15891897918E+03  0.41572609238E+03  0.60390568012E+03  0.75020502952E+03  0.46999998093E+01 0.  1.
</event>
<event>
 5   0  0.1694675E-03  0.1288740E+04  0.7818609E-02  0.9038542E-01
        2   -1    0    0  501    0  0.00000000000E+00  0.00000000000E+00  0.10972997868E+04  0.10972997868E+04  0.25500000920E-02 0. -1.
       -2   -1    0    0    0  501  0.00000000000E+00  0.00000000000E+00 -0.37839517232E+03  0.37839517233E+03  0.25500000920E-02 0.  1.
    10030    2    1    2    0    0  0.00000000000E+00  0.00000000000E+00  0.71890461449E+03  0.14756949591E+04  0.12887403803E+04 0.  0.
        4    1    3    3  502    0  0.33712096076E+03  0.18059999404E+03 -0.23437810210E+03  0.44855502190E+03  0.12699999809E+01 0.  1.
       -4    1    3    3    0  502 -0.33712096076E+03 -0.18059999404E+03  0.95328271659E+03  0.10271399372E+04  0.12699999809E+01 0. -1.
</event>
<event>
 5   0  0.9215829E-04  0.1289948E+04  0.7818609E-02  0.9037575E-01
       -1   -1    0    0    0  501  0.00000000000E+00  0.00000000000E+00  0.12592267122E+04  0.12592267122E+04  0.50400001928E-02 0.  1.
        1   -1    0    0  501    0  0.00000000000E+00  0.00000000000E+00 -0.33035462219E+03  0.33035462223E+03  0.50400001928E-02 0. -1.
    10030    2    1    2    0    0  0.00000000000E+00  0.00000000000E+00  0.92887208999E+03  0.15895813344E+04  0.12899478513E+04 0.  0.
        3    1    3    3  502    0  0.10395338264E+03  0.63344960715E+03  0.54165454614E+03  0.83991330988E+03  0.10100000352E+00 0.  1.
       -3    1    3    3    0  502 -0.10395338264E+03 -0.63344960715E+03  0.38721754386E+03  0.74966802455E+03  0.10100000352E+00 0. -1.
</event>
<event>
 5   0  0.9110949E-04  0.1300824E+04  0.7818609E-02  0.9028912E-01
       -1   -1    0    0    0  501  0.00000000000E+00  0.00000000000E+00  0.49942777974E+03  0.49942777977E+03  0.50400001928E-02 0.  1.
        1   -1    0    0  501    0  0.00000000000E+00  0.00000000000E+00 -0.84704068215E+03  0.84704068217E+03  0.50400001928E-02 0. -1.
    10030    2    1    2    0    0  0.00000000000E+00  0.00000000000E+00 -0.34761290241E+03  0.13464684619E+04  0.13008238117E+04 0.  0.
        2    1    3    3  502    0  0.58259884038E+03 -0.11096517091E+03 -0.45019842306E+03  0.74458934864E+03  0.25500000920E-02 0. -1.
       -2    1    3    3    0  502 -0.58259884038E+03  0.11096517091E+03  0.10258552066E+03  0.60187911330E+03  0.25500000920E-02 0.  1.
</event>
<event>
 5   0  0.1700511E-03  0.1269170E+04  0.7818609E-02  0.9054377E-01
       -2   -1    0    0    0  501  0.00000000000E+00  0.00000000000E+00  0.31330954059E+03  0.31330954060E+03  0.25500000920E-02 0. -1.
        2   -1    0    0  501    0  0.00000000000E+00  0.00000000000E+00 -0.12853053602E+04  0.12853053602E+04  0.25500000920E-02 0.  1.
    10030    2    1    2    0    0  0.00000000000E+00  0.00000000000E+00 -0.97199581965E+03  0.15986149008E+04  0.12691704881E+04 0.  0.
        2    1    3    3  502    0 -0.19024367858E+03 -0.47732113881E+03 -0.95504411585E+03  0.10844986814E+04  0.25500000920E-02 0.  1.
       -2    1    3    3    0  502  0.19024367858E+03  0.47732113881E+03 -0.16951703803E+02  0.51411621941E+03  0.25500000920E-02 0. -1.
</event>
<event>
 5   0  0.1667342E-03  0.1374138E+04  0.7818609E-02  0.8972754E-01
        2   -1    0    0  501    0  0.00000000000E+00  0.00000000000E+00  0.80543150928E+03  0.80543150929E+03  0.25500000920E-02 0. -1.
       -2   -1    0    0    0  501  0.00000000000E+00  0.00000000000E+00 -0.58610063396E+03  0.58610063396E+03  0.25500000920E-02 0.  1.
    10030    2    1    2    0    0  0.00000000000E+00  0.00000000000E+00  0.21933087532E+03  0.13915321432E+04  0.13741381564E+04 0.  0.
        5    1    3    3  502    0  0.23711569997E+03 -0.13002643732E+03  0.74925431609E+03  0.79657695784E+03  0.46999998093E+01 0. -1.
       -5    1    3    3    0  502 -0.23711569997E+03  0.13002643732E+03 -0.52992344077E+03  0.59495518541E+03  0.46999998093E+01 0.  1.
</event>
<event>
 5   0  0.9081324E-04  0.1292571E+04  0.7818609E-02  0.9035477E-01
        1   -1    0    0  501    0  0.00000000000E+00  0.00000000000E+00  0.12535982806E+04  0.12535982806E+04  0.50400001928E-02 0.  1.
       -1   -1    0    0    0  501  0.00000000000E+00  0.00000000000E+00 -0.33318898140E+03  0.33318898143E+03  0.50400001928E-02 0. -1.
    10030    2    1    2    0    0  0.00000000000E+00  0.00000000000E+00  0.92040929920E+03  0.15867872620E+04  0.12925712889E+04 0.  0.
        4    1    3    3  502    0 -0.14032538360E+03 -0.27428439385E+03 -0.23723126732E+03  0.38884885121E+03  0.12699999809E+01 0. -1.
       -4    1    3    3    0  502  0.14032538360E+03  0.27428439385E+03  0.11576405665E+04  0.11979384108E+04  0.12699999809E+01 0.  1.
</event>
<event>
 5   0  0.1667342E-03  0.1293254E+04  0.7818609E-02  0.9034932E-01
       -2   -1    0    0    0  501  0.00000000000E+00  0.00000000000E+00  0.48738651028E+03  0.48738651029E+03  0.25500000920E-02 0.  1.
        2   -1    0    0  501    0  0.00000000000E+00  0.00000000000E+00 -0.85789537092E+03  0.85789537093E+03  0.25500000920E-02 0. -1.
    10030    2    1    2    0    0  0.00000000000E+00  0.00000000000E+00 -0.37050886064E+03  0.13452818812E+04  0.12932542380E+04 0.  0.
        5    1    3    3  502    0  0.19906418011E+03 -0.39414707388E+03  0.30611094255E+03  0.53731225819E+03  0.46999998093E+01 0.  1.
       -5    1    3    3    0  502 -0.19906418011E+03  0.39414707388E+03 -0.67661980320E+03  0.80796962302E+03  0.46999998093E+01 0. -1.
</event>
<event>
 5   0  0.9215829E-04  0.1299190E+04  0.7818609E-02  0.9030207E-01
        1   -1    0    0  501    0  0.00000000000E+00  0.00000000000E+00  0.11114162718E+04  0.11114162719E+04  0.50400001928E-02 0.  1.
       -1   -1    0    0    0  501  0.00000000000E+00  0.00000000000E+00 -0.37967224029E+03  0.37967224032E+03  0.50400001928E-02 0. -1.
    10030    2    1    2    0    0  0.00000000000E+00  0.00000000000E+00  0.73174403156E+03  0.14910885122E+04  0.12991903723E+04 0.  0.
        3    1    3    3  502    0  0.16474435278E+01  0.64568600050E+03  0.28422525760E+03  0.70547652871E+03  0.10100000352E+00 0. -1.
       -3    1    3    3    0  502 -0.16474435278E+01 -0.64568600050E+03  0.44751877396E+03  0.78561198346E+03  0.10100000352E+00 0.  1.
</event>
<event>
 5   0  0.1700511E-03  0.1303397E+04  0.7818609E-02  0.9026876E-01
       -2   -1    0    0    0  501  0.00000000000E+00  0.00000000000E+00  0.37642534062E+03  0.37642534063E+03  0.25500000920E-02 0. -1.
        2   -1    0    0  501    0  0.00000000000E+00  0.00000000000E+00 -0.11282739129E+04  0.11282739129E+04  0.25500000920E-02 0.  1.
    10030    2    1    2    0    0  0.00000000000E+00  0.00000000000E+00 -0.75184857228E+03  0.15046992535E+04  0.13033969341E+04 0.  0.
        2    1    3    3  502    0 -0.50138931511E+01 -0.98038726844E+02 -0.11196894954E+04  0.11239845627E+04  0.25500000920E-02 0.  1.
       -2    1    3    3    0  502  0.50138931511E+01  0.98038726844E+02  0.36784092312E+03  0.38071469083E+03  0.25500000920E-02 0. -1.
</event>
<event>
 5   0  0.1623890E-03  0.1296674E+04  0.7818609E-02  0.9032207E-01
       -2   -1    0    0    0  501  0.00000000000E+00  0.00000000000E+00  0.93963259231E+03  0.93963259232E+03  0.25500000920E-02 0. -1.
        2   -1    0    0  501    0  0.00000000000E+00  0.00000000000E+00 -0.44734621303E+03  0.44734621304E+03  0.25500000920E-02 0.  1.
    10030    2    1    2    0    0  0.00000000000E+00  0.00000000000E+00  0.49228637928E+03  0.13869788054E+04  0.12966743336E+04 0.  0.
        3    1    3    3  502    0  0.12462969840E+03  0.36564679455E+03 -0.31080195827E+03  0.49581045527E+03  0.10100000352E+00 0.  1.
       -3    1    3    3    0  502 -0.12462969840E+03 -0.36564679455E+03  0.80308833755E+03  0.89116835009E+03  0.10100000352E+00 0. -1.
</event>
<event>
 5   0  0.1714861E-03  0.1304812E+04  0.7818609E-02  0.9025758E-01
        2   -1    0    0  501    0  0.00000000000E+00  0.00000000000E+00  0.10716144627E+04  0.10716144627E+04  0.25500000920E-02 0.  1.
       -2   -1    0    0    0  501  0.00000000000E+00  0.00000000000E+00 -0.39718912242E+03  0.39718912242E+03  0.25500000920E-02 0. -1.
    10030    2    1    2    0    0  0.00000000000E+00  0.00000000000E+00  0.67442534024E+03  0.14688035851E+04  0.13048120294E+04 0.  0.
        1    1    3    3  502    0 -0.77360151245E+02  0.61149468246E+03  0.57791727851E+03  0.84492527510E+03  0.50400001928E-02 0. -1.
       -1    1    3    3    0  502  0.77360151245E+02 -0.61149468246E+03  0.96508061731E+02  0.62387830999E+03  0.50400001928E-02 0.  1.
</event>
<event>
 5   0  0.9098192E-04  0.1293035E+04  0.7818609E-02  0.9035107E-01
        1   -1    0    0  501    0  0.00000000000E+00  0.00000000000E+00  0.94247226778E+03  0.94247226780E+03  0.50400001928E-02 0. -1.
       -1   -1    0    0    0  501  0.00000000000E+00  0.00000000000E+00 -0.44349830458E+03  0.44349830461E+03  0.50400001928E-02 0.  1.
    10030    2    1    2    0    0  0.00000000000E+00  0.00000000000E+00  0.49897396320E+03  0.13859705724E+04  0.12930349615E+04 0.  0.
        1    1    3    3  502    0  0.54230555668E+03 -0.19674112474E+03  0.56232450971E+03  0.80561233929E+03  0.50400001928E-02 0.  1.
       -1    1    3    3    0  502 -0.54230555668E+03  0.19674112474E+03 -0.63350546503E+02  0.58035823311E+03  0.50400001928E-02 0. -1.
</event>
<event>
 5   0  0.1623890E-03  0.1281191E+04  0.7818609E-02  0.9044615E-01
       -2   -1    0    0    0  501  0.00000000000E+00  0.00000000000E+00  0.43625712527E+03  0.43625712527E+03  0.25500000920E-02 0.  1.
        2   -1    0    0  501    0  0.00000000000E+00  0.00000000000E+00 -0.94064403098E+03  0.94064403099E+03  0.25500000920E-02 0. -1.
    10030    2    1    2    0    0  0.00000000000E+00  0.00000000000E+00 -0.50438690572E+03  0.13769011563E+04  0.12811911034E+04 0.  0.
        3    1    3    3  502    0  0.42505819331E+03 -0.25934600177E+03  0.18093735683E+03  0.52978595077E+03  0.10100000352E+00 0.  1.
       -3    1    3    3    0  502 -0.42505819331E+03  0.25934600177E+03 -0.68532426255E+03  0.84711520549E+03  0.10100000352E+00 0. -1.
</event>
<event>
 5   0  0.9081324E-04  0.1296962E+04  0.7818609E-02  0.9031978E-01
        1   -1    0    0  501    0  0.00000000000E+00  0.00000000000E+00  0.23299776225E+04  0.23299776225E+04  0.50400001928E-02 0. -1.
       -1   -1    0    0    0  501  0.00000000000E+00  0.00000000000E+00 -0.18048565898E+03  0.18048565905E+03  0.50400001928E-02 0.  1.
    10030    2    1    2    0    0  0.00000000000E+00  0.00000000000E+00  0.21494919635E+04  0.25104632816E+04  0.12969619065E+04 0.  0.
        4    1    3    3  502    0  0.77881308807E+02 -0.22829370911E+03  0.22399077938E+04  0.22528586404E+04  0.12699999809E+01 0. -1.
       -4    1    3    3    0  502 -0.77881308807E+02  0.22829370911E+03 -0.90415830299E+02  0.25760464116E+03  0.12699999809E+01 0.  1.
</event>
<event>
 5   0  0.1667342E-03  0.1283249E+04  0.7818609E-02  0.9042955E-01
        2   -1    0    0  501    0  0.00000000000E+00  0.00000000000E+00  0.94247938398E+03  0.94247938399E+03  0.25500000920E-02 0. -1.
       -2   -1    0    0    0  501  0.00000000000E+00  0.00000000000E+00 -0.43680749752E+03  0.43680749752E+03  0.25500000920E-02 0.  1.
    10030    2    1    2    0    0  0.00000000000E+00  0.00000000000E+00  0.50567188647E+03  0.13792868815E+04  0.12832490969E+04 0.  0.
        5    1    3    3  502    0  0.36916444328E+03 -0.21500579793E+03 -0.26168570970E+03  0.50101035916E+03  0.46999998093E+01 0.  1.
       -5    1    3    3    0  502 -0.36916444328E+03  0.21500579793E+03  0.76735759616E+03  0.87827652235E+03  0.46999998093E+01 0. -1.
</event>
<event>
 5   0  0.9081324E-04  0.1301574E+04  0.7818609E-02  0.9028318E-01
        1   -1    0    0  501    0  0.00000000000E+00  0.00000000000E+00  0.16404082594E+04  0.16404082594E+04  0.50400001928E-02 0.  1.
       -1   -1    0    0    0  501  0.00000000000E+00  0.00000000000E+00 -0.25818192624E+03  0.25818192629E+03  0.50400001928E-02 0. -1.
    10030    2    1    2    0    0  0.00000000000E+00  0.00000000000E+00  0.13822263332E+04  0.18985901857E+04  0.13015740690E+04 0.  0.
        4    1    3    3  502    0  0.12213144574E+03  0.51834554566E+03  0.12367559084E+04  0.13465381482E+04  0.12699999809E+01 0.  1.
       -4    1    3    3    0  502 -0.12213144574E+03 -0.51834554566E+03  0.14547042480E+03  0.55205203753E+03  0.12699999809E+01 0. -1.
</event>
<event>
 5   0  0.9215829E-04  0.1306018E+04  0.7818609E-02  0.9024806E-01
       -1   -1    0    0    0  501  0.00000000000E+00  0.00000000000E+00  0.48200601783E+03  0.48200601786E+03  0.50400001928E-02 0. -1.
        1   -1    0    0  501    0  0.00000000000E+00  0.00000000000E+00 -0.88467962863E+03  0.88467962864E+03  0.50400001928E-02 0.  1.
    10030    2    1    2    0    0  0.00000000000E+00  0.00000000000E+00 -0.40267361080E+03  0.13666856465E+04  0.13060182309E+04 0.  0.
        3    1    3    3  502    0 -0.35885785495E+03  0.45736110242E+03  0.10990621998E+03  0.59163969226E+03  0.10100000352E+00 0. -1.
       -3    1    3    3    0  502  0.35885785495E+03 -0.45736110242E+03 -0.51257983078E+03  0.77504595424E+03  0.10100000352E+00 0.  1.
</event>
<event>
 5   0  0.1714861E-03  0.1299473E+04  0.7818609E-02  0.9029983E-01
       -2   -1    0    0    0  501  0.00000000000E+00  0.00000000000E+00  0.25344601750E+03  0.25344601751E+03  0.25500000920E-02 0.  1.
        2   -1    0    0  501    0  0.00000000000E+00  0.00000000000E+00 -0.16656698741E+04  0.16656698742E+04  0.25500000920E-02 0. -1.
    10030    2    1    2    0    0  0.00000000000E+00  0.00000000000E+00 -0.14122238566E+04  0.19191158917E+04  0.12994728102E+04 0.  0.
        1    1    3    3  502    0  0.12673265413E+03 -0.50564378589E+03 -0.13333218305E+03  0.53806530727E+03  0.50400001928E-02 0.  1.
       -1    1    3    3    0  502 -0.12673265413E+03  0.50564378589E+03 -0.12788916736E+04  0.13810505844E+04  0.50400001928E-02 0. -1.
</event>
<event>
 5   0  0.1694675E-03  0.1296030E+04  0.7818609E-02  0.9032720E-01
       -2   -1    0    0    0  501  0.00000000000E+00  0.00000000000E+00  0.26562362048E+03  0.26562362049E+03  0.25500000920E-02 0.  1.
        2   -1    0    0  501    0  0.00000000000E+00  0.00000000000E+00 -0.15808954275E+04  0.15808954275E+04  0.25500000920E-02 0. -1.
    10030    2    1    2    0    0  0.00000000000E+00  0.00000000000E+00 -0.13152718070E+04  0.18465190480E+04  0.12960295785E+04 0.  0.
        4    1    3    3  502    0  0.31313562736E+03  0.53070720951E+03 -0.94335966861E+03  0.11267799877E+04  0.12699999809E+01 0. -1.
       -4    1    3    3    0  502 -0.31313562736E+03 -0.53070720951E+03 -0.37191213839E+03  0.71973906030E+03  0.12699999809E+01 0.  1.
</event>
<event>
 5   0  0.1623890E-03  0.1292395E+04  0.7818609E-02  0.9035618E-01
        2   -1    0    0  501    0  0.00000000000E+00  0.00000000000E+00  0.92047061647E+03  0.92047061647E+03  0.25500000920E-02 0. -1.
       -2   -1    0    0    0  501  0.00000000000E+00  0.00000000000E+00 -0.45364955030E+03  0.45364955030E+03  0.25500000920E-02 0.  1.
    10030    2    1    2    0    0  0.00000000000E+00  0.00000000000E+00  0.46682106618E+03  0.13741201668E+04  0.12923948023E+04 0.  0.
        3    1    3    3  502    0  0.50367736284E+03 -0.37924072349E+03  0.82833476217E+02  0.63590550177E+03  0.10100000352E+00 0. -1.
       -3    1    3    3    0  502 -0.50367736284E+03  0.37924072349E+03  0.38398758996E+03  0.73821466501E+03  0.10100000352E+00 0.  1.
</event>
<event>
 5   0  0.9110949E-04  0.1295555E+04  0.7818609E-02  0.9033098E-01
        1   -1    0    0  501    0  0.00000000000E+00  0.00000000000E+00  0.47971096549E+03  0.47971096552E+03  0.50400001928E-02 0.  1.
       -1   -1    0    0    0  501  0.00000000000E+00  0.00000000000E+00 -0.87472558361E+03  0.87472558362E+03  0.50400001928E-02 0. -1.
    10030    2    1    2    0    0  0.00000000000E+00  0.00000000000E+00 -0.39501461811E+03  0.13544365491E+04  0.12955546369E+04 0.  0.
        2    1    3    3  502    0 -0.41973747247E+03  0.47606943333E+03 -0.33298801798E+03  0.71673054300E+03  0.25500000920E-02 0. -1.
       -2    1    3    3    0  502  0.41973747247E+03 -0.47606943333E+03 -0.62026600131E+02  0.63770600614E+03  0.25500000920E-02 0.  1.
</event>
<event>
 5   0  0.9110949E-04  0.1289832E+04  0.7818609E-02  0.9037667E-01
        1   -1    0    0  501    0  0.00000000000E+00  0.00000000000E+00  0.45084098790E+03  0.45084098793E+03  0.50400001928E-02 0. -1.
       -1   -1    0    0    0  501  0.00000000000E+00  0.00000000000E+00 -0.92253540168E+03  0.92253540169E+03  0.50400001928E-02 0.  1.
    10030    2    1    2    0    0  0.00000000000E+00  0.00000000000E+00 -0.47169441378E+03  0.13733763896E+04  0.12898321936E+04 0.  0.
        2    1    3    3  502    0  0.51189621277E+03 -0.28721800732E+03  0.48637815703E+02  0.58898009601E+03  0.25500000920E-02 0. -1.
       -2    1    3    3    0  502 -0.51189621277E+03  0.28721800732E+03 -0.52033222948E+03  0.78439629360E+03  0.25500000920E-02 0.  1.
</event>
<event>
 5   0  0.1667342E-03  0.1310781E+04  0.7818609E-02  0.9021059E-01
       -2   -1    0    0    0  501  0.00000000000E+00  0.00000000000E+00  0.93865856036E+03  0.93865856036E+03  0.25500000920E-02 0. -1.
        2   -1    0    0  501    0  0.00000000000E+00  0.00000000000E+00 -0.45760713709E+03  0.45760713709E+03  0.25500000920E-02 0.  1.
    10030    2    1    2    0    0  0.00000000000E+00  0.00000000000E+00  0.48105142327E+03  0.13962656975E+04  0.13107812274E+04 0.  0.
        5    1    3    3  502    0 -0.14411337980E+03 -0.63609507355E+03  0.30897494520E+03  0.72171546720E+03  0.46999998093E+01 0.  1.
       -5    1    3    3    0  502  0.14411337980E+03  0.63609507355E+03  0.17207647807E+03  0.67455023026E+03  0.46999998093E+01 0. -1.
</event>
<event>
 5   0  0.9098192E-04  0.1301977E+04  0.7818609E-02  0.9027999E-01
       -1   -1    0    0    0  501  0.00000000000E+00  0.00000000000E+00  0.49369689771E+03  0.49369689773E+03  0.50400001928E-02 0.  1.
        1   -1    0    0  501    0  0.00000000000E+00  0.00000000000E+00 -0.85839312606E+03  0.85839312608E+03  0.50400001928E-02 0. -1.
    10030    2    1    2    0    0  0.00000000000E+00  0.00000000000E+00 -0.36469622836E+03  0.13520900238E+04  0.13019769942E+04 0.  0.
        1    1    3    3  502    0  0.26850614377E+03  0.59264506016E+03 -0.16001920919E+03  0.67002228613E+03  0.50400001928E-02 0. -1.
       -1    1    3    3    0  502 -0.26850614377E+03 -0.59264506016E+03 -0.20467701917E+03  0.68206773768E+03  0.50400001928E-02 0.  1.
</event>
<event>
 5   0  0.1623890E-03  0.1312763E+04  0.7818609E-02  0.9019505E-01
        2   -1    0    0  501    0  0.00000000000E+00  0.00000000000E+00  0.26794425798E+03  0.26794425800E+03  0.25500000920E-02 0.  1.
       -2   -1    0    0    0  501  0.00000000000E+00  0.00000000000E+00 -0.16079334910E+04  0.16079334910E+04  0.25500000920E-02 0. -1.
    10030    2    1    2    0    0  0.00000000000E+00  0.00000000000E+00 -0.13399892331E+04  0.18758777490E+04  0.13127628059E+04 0.  0.
        3    1    3    3  502    0 -0.58229147665E+03 -0.30263867907E+03 -0.65066397307E+03  0.92413048316E+03  0.10100000352E+00 0.  1.
       -3    1    3    3    0  502  0.58229147665E+03  0.30263867907E+03 -0.68932525998E+03  0.95174726587E+03  0.10100000352E+00 0. -1.
</event>
<event>
 5   0  0.9110949E-04  0.1300960E+04  0.7818609E-02  0.9028804E-01
        1   -1    0    0  501    0  0.00000000000E+00  0.00000000000E+00  0.13441692468E+04  0.13441692468E+04  0.50400001928E-02 0.  1.
       -1   -1    0    0    0  501  0.00000000000E+00  0.00000000000E+00 -0.31478478926E+03  0.31478478930E+03  0.50400001928E-02 0. -1.
    10030    2    1    2    0    0  0.00000000000E+00  0.00000000000E+00  0.10293844576E+04  0.16589540361E+04  0.13009596967E+04 0.  0.
        2    1    3    3  502    0 -0.31169934896E+03 -0.98115982432E+02  0.12319051700E+04  0.12745091518E+04  0.25500000920E-02 0.  1.
       -2    1    3    3    0  502  0.31169934896E+03  0.98115982432E+02 -0.20252071240E+03  0.38444488436E+03  0.25500000920E-02 0. -1.
</event>
<event>
 5   0  0.9081324E-04  0.1315681E+04  0.7818609E-02  0.9017222E-01
       -1   -1    0    0    0  501  0.00000000000E+00  0.00000000000E+00  0.30623787565E+03  0.30623787569E+03  0.50400001928E-02 0.  1.
        1   -1    0    0  501    0  0.00000000000E+00  0.00000000000E+00 -0.14131307969E+04  0.14131307969E+04  0.50400001928E-02 0. -1.
    10030    2    1    2    0    0  0.00000000000E+00  0.00000000000E+00 -0.11068929212E+04  0.17193686726E+04  0.13156810758E+04 0.  0.
        4    1    3    3  502    0  0.22634701013E+03  0.58382398315E+03 -0.28990380422E+03  0.69002118873E+03  0.12699999809E+01 0.  1.
       -4    1    3    3    0  502 -0.22634701013E+03 -0.58382398315E+03 -0.81698911701E+03  0.10293474839E+04  0.12699999809E+01 0. -1.
</event>
<event>
 5   0  0.9027076E-04  0.1312067E+04  0.7818609E-02  0.9020050E-01
        1   -1    0    0  501    0  0.00000000000E+00  0.00000000000E+00  0.81743337827E+03  0.81743337828E+03  0.50400001928E-02 0.  1.
       -1   -1    0    0    0  501  0.00000000000E+00  0.00000000000E+00 -0.52650176247E+03  0.52650176250E+03  0.50400001928E-02 0. -1.
    10030    2    1    2    0    0  0.00000000000E+00  0.00000000000E+00  0.29093161580E+03  0.13439351408E+04  0.13120672458E+04 0.  0.
        5    1    3    3  502    0 -0.38467580805E+03  0.36011942978E+03  0.54572085678E+03  0.75861375187E+03  0.46999998093E+01 0. -1.
       -5    1    3    3    0  502  0.38467580805E+03 -0.36011942978E+03 -0.25478924098E+03  0.58532138891E+03  0.46999998093E+01 0.  1.
</event>
<event>
 5   0  0.1694675E-03  0.1303217E+04  0.7818609E-02  0.9027018E-01
       -2   -1    0    0    0  501  0.00000000000E+00  0.00000000000E+00  0.48449672796E+03  0.48449672796E+03  0.25500000920E-02 0.  1.
        2   -1    0    0  501    0  0.00000000000E+00  0.00000000000E+00 -0.87635960727E+03  0.87635960727E+03  0.25500000920E-02 0. -1.
    10030    2    1    2    0    0  0.00000000000E+00  0.00000000000E+00 -0.39186287931E+03  0.13608563352E+04  0.13032165779E+04 0.  0.
        4    1    3    3  502    0  0.25749929804E+03  0.32946967953E+03  0.32590680385E+03  0.53016319744E+03  0.12699999809E+01 0.  1.
       -4    1    3    3    0  502 -0.25749929804E+03 -0.32946967953E+03 -0.71776968316E+03  0.83069313780E+03  0.12699999809E+01 0. -1.
</event>
<event>
 5   0  0.9027076E-04  0.1270097E+04  0.7818609E-02  0.9053621E-01
       -1   -1    0    0    0  501  0.00000000000E+00  0.00000000000E+00  0.87091693432E+03  0.87091693433E+03  0.50400001928E-02 0. -1.
        1   -1    0    0  501    0  0.00000000000E+00  0.00000000000E+00 -0.46305967583E+03  0.46305967586E+03  0.50400001928E-02 0.  1.
    10030    2    1    2    0    0  0.00000000000E+00  0.00000000000E+00  0.40785725849E+03  0.13339766102E+04  0.12700968677E+04 0.  0.
        5    1    3    3  502    0  0.53579980414E+03 -0.24807022487E+03 -0.41589312132E+02  0.59192231540E+03  0.46999998093E+01 0.  1.
       -5    1    3    3    0  502 -0.53579980414E+03  0.24807022487E+03  0.44944657062E+03  0.74205429479E+03  0.46999998093E+01 0. -1.
</event>
<event>
 5   0  0.1700511E-03  0.1297610E+04  0.7818609E-02  0.9031462E-01
        2   -1    0    0  501    0  0.00000000000E+00  0.00000000000E+00  0.69747724756E+03  0.69747724757E+03  0.25500000920E-02 0. -1.
       -2   -1    0    0    0  501  0.00000000000E+00  0.00000000000E+00 -0.60352959019E+03  0.60352959020E+03  0.25500000920E-02 0.  1.
    10030    2    1    2    0    0  0.00000000000E+00  0.00000000000E+00  0.93947657371E+02  0.13010068378E+04  0.12976103535E+04 0.  0.
        2    1    3    3  502    0 -0.14167995054E+03  0.21645587893E+03 -0.54958088396E+03  0.60742530728E+03  0.25500000920E-02 0.  1.
       -2    1    3    3    0  502  0.14167995054E+03 -0.21645587893E+03  0.64352854133E+03  0.69358153048E+03  0.25500000920E-02 0. -1.
</event>
<event>
 5   0  0.9110949E-04  0.1301041E+04  0.7818609E-02  0.9028740E-01
       -1   -1    0    0    0  501  0.00000000000E+00  0.00000000000E+00  0.59789557435E+03  0.59789557437E+03  0.50400001928E-02 0.  1.
        1   -1    0    0  501    0  0.00000000000E+00  0.00000000000E+00 -0.70777729939E+03  0.70777729941E+03  0.50400001928E-02 0. -1.
    10030    2    1    2    0    0  0.00000000000E+00  0.00000000000E+00 -0.10988172504E+03  0.13056728738E+04  0.13010409908E+04 0.  0.
        2    1    3    3  502    0  0.52946805369E+02 -0.20903219900E+03 -0.67086774325E+03  0.70467109587E+03  0.25500000920E-02 0. -1.
       -2    1    3    3    0  502 -0.52946805369E+02  0.20903219900E+03  0.56098601821E+03  0.60100177791E+03  0.25500000920E-02 0.  1.
</event>
<event>
 5   0  0.9098192E-04  0.1280997E+04  0.7818609E-02  0.9044772E-01
       -1   -1    0    0    0  501  0.00000000000E+00  0.00000000000E+00  0.79549639070E+03  0.79549639072E+03  0.50400001928E-02 0. -1.
        1   -1    0    0  501    0  0.00000000000E+00  0.00000000000E+00 -0.51570084861E+03  0.51570084864E+03  0.50400001928E-02 0.  1.
    10030    2    1    2    0    0  0.00000000000E+00  0.00000000000E+00  0.27979554209E+03  0.13111972394E+04  0.12809967428E+04 0.  0.
        1    1    3    3  502    0 -0.62314023630E+03 -0.12900092430E+03  0.65428351153E+02  0.63970763769E+03  0.50400001928E-02 0.  1.
       -1    1    3    3    0  502  0.62314023630E+03  0.12900092430E+03  0.21436719094E+03  0.67148960166E+03  0.50400001928E-02 0. -1.
</event>
<event>
 5   0  0.1700511E-03  0.1299943E+04  0.7818609E-02  0.9029611E-01
        2   -1    0    0  501    0  0.00000000000E+00  0.00000000000E+00  0.63983431713E+03  0.63983431713E+03  0.25500000920E-02 0. -1.
       -2   -1    0    0    0  501  0.00000000000E+00  0.00000000000E+00 -0.66026908514E+03  0.66026908514E+03  0.25500000920E-02 0.  1.
    10030    2    1    2    0    0  0.00000000000E+00  0.00000000000E+00 -0.20434768010E+02  0.13001034023E+04  0.12999427975E+04 0.  0.
        2    1    3    3  502    0  0.27216357372E+03 -0.41025473546E+03  0.41419439744E+03  0.64338088074E+03  0.25500000920E-02 0. -1.
       -2    1    3    3    0  502 -0.27216357372E+03  0.41025473546E+03 -0.43462916545E+03  0.65672252154E+03  0.25500000920E-02 0.  1.
</event>
<event>
 5   0  0.1714861E-03  0.1305106E+04  0.7818609E-02  0.9025526E-01
       -2   -1    0    0    0  501  0.00000000000E+00  0.00000000000E+00  0.42977039886E+03  0.42977039886E+03  0.25500000920E-02 0. -1.
        2   -1    0    0  501    0  0.00000000000E+00  0.00000000000E+00 -0.99082047529E+03  0.99082047529E+03  0.25500000920E-02 0.  1.
    10030    2    1    2    0    0  0.00000000000E+00  0.00000000000E+00 -0.56105007643E+03  0.14205908742E+04  0.13051058361E+04 0.  0.
        1    1    3    3  502    0  0.50166130612E+03  0.82663609707E+02 -0.72577876478E+03  0.88614454456E+03  0.50400001928E-02 0.  1.
       -1    1    3    3    0  502 -0.50166130612E+03 -0.82663609707E+02  0.16472868835E+03  0.53444632959E+03  0.50400001928E-02 0. -1.
</event>
<event>
 5   0  0.9110949E-04  0.1298929E+04  0.7818609E-02  0.9030415E-01
        1   -1    0    0  501    0  0.00000000000E+00  0.00000000000E+00  0.15309560445E+04  0.15309560445E+04  0.50400001928E-02 0.  1.
       -1   -1    0    0    0  501  0.00000000000E+00  0.00000000000E+00 -0.27551668909E+03  0.27551668914E+03  0.50400001928E-02 0. -1.
    10030    2    1    2    0    0  0.00000000000E+00  0.00000000000E+00  0.12554393554E+04  0.18064727336E+04  0.12989286979E+04 0.  0.
        2    1    3    3  502    0 -0.44578042933E+03  0.42297384657E+03  0.33540973208E+03  0.70009053303E+03  0.25500000920E-02 0. -1.
       -2    1    3    3    0  502  0.44578042933E+03 -0.42297384657E+03  0.92002962332E+03  0.11063822006E+04  0.25500000920E-02 0.  1.
</event>
<event>
 5   0  0.9098192E-04  0.1308190E+04  0.7818609E-02  0.9023096E-01
       -1   -1    0    0    0  501  0.00000000000E+00  0.00000000000E+00  0.34447279297E+03  0.34447279300E+03  0.50400001928E-02 0. -1.
        1   -1    0    0  501    0  0.00000000000E+00  0.00000000000E+00 -0.12420140351E+04  0.12420140351E+04  0.50400001928E-02 0.  1.
    10030    2    1    2    0    0  0.00000000000E+00  0.00000000000E+00 -0.89754124209E+03  0.15864868281E+04  0.13081896554E+04 0.  0.
        1    1    3    3  502    0 -0.33645539690E+03 -0.19954037097E+03 -0.10845275078E+04  0.11529173903E+04  0.50400001928E-02 0.  1.
       -1    1    3    3    0  502  0.33645539690E+03  0.19954037097E+03  0.18698626571E+03  0.43356943773E+03  0.50400001928E-02 0. -1.
</event>
<event>
 5   0  0.9081324E-04  0.1290288E+04  0.7818609E-02  0.9037303E-01
        1   -1    0    0  501    0  0.00000000000E+00  0.00000000000E+00  0.13505382548E+04  0.13505382548E+04  0.50400001928E-02 0. -1.
       -1   -1    0    0    0  501  0.00000000000E+00  0.00000000000E+00 -0.30818138339E+03  0.30818138343E+03  0.50400001928E-02 0.  1.
    10030    2    1    2    0    0  0.00000000000E+00  0.00000000000E+00  0.10423568714E+04  0.16587196383E+04  0.12902879488E+04 0.  0.
        4    1    3    3  502    0  0.54682465596E+03  0.24203830326E+03  0.20995668106E+03  0.63378479426E+03  0.12699999809E+01 0.  1.
       -4    1    3    3    0  502 -0.54682465596E+03 -0.24203830326E+03  0.83240019039E+03  0.10249348440E+04  0.12699999809E+01 0. -1.
</event>
<event>
 5   0  0.1694675E-03  0.1301039E+04  0.7818609E-02  0.9028741E-01
        2   -1    0    0  501    0  0.00000000000E+00  0.00000000000E+00  0.12668836455E+04  0.12668836455E+04  0.25500000920E-02 0.  1.
       -2   -1    0    0    0  501  0.00000000000E+00  0.00000000000E+00 -0.33402889952E+03  0.33402889953E+03  0.25500000920E-02 0. -1.
    10030    2    1    2    0    0  0.00000000000E+00  0.00000000000E+00  0.93285474599E+03  0.16009125450E+04  0.13010391999E+04 0.  0.
        4    1    3    3  502    0  0.10722923827E+03  0.63325496838E+03  0.33935802335E+03  0.72641272389E+03  0.12699999809E+01 0. -1.
       -4    1    3    3    0  502 -0.10722923827E+03 -0.63325496838E+03  0.59349672264E+03  0.87449982115E+03  0.12699999809E+01 0.  1.
</event>
<event>
 5   0  0.9215829E-04  0.1307731E+04  0.7818609E-02  0.9023457E-01
       -1   -1    0    0    0  501  0.00000000000E+00  0.00000000000E+00  0.37325915994E+03  0.37325915998E+03  0.50400001928E-02 0. -1.
        1   -1    0    0  501    0  0.00000000000E+00  0.00000000000E+00 -0.11454241166E+04  0.11454241166E+04  0.50400001928E-02 0.  1.
    10030    2    1    2    0    0  0.00000000000E+00  0.00000000000E+00 -0.77216495669E+03  0.15186832766E+04  0.13077309258E+04 0.  0.
        3    1    3    3  502    0  0.20463815829E+03 -0.56647549472E+03 -0.90532014011E+02  0.60907086428E+03  0.10100000352E+00 0. -1.
       -3    1    3    3    0  502 -0.20463815829E+03  0.56647549472E+03 -0.68163294268E+03  0.90961241234E+03  0.10100000352E+00 0.  1.
</event>
<event>
 5   0  0.9098192E-04  0.1306019E+04  0.7818609E-02  0.9024805E-01
       -1   -1    0    0    0  501  0.00000000000E+00  0.00000000000E+00  0.33760124026E+03  0.33760124030E+03  0.50400001928E-02 0. -1.
        1   -1    0    0  501    0  0.00000000000E+00  0.00000000000E+00 -0.12630926582E+04  0.12630926582E+04  0.50400001928E-02 0.  1.
    10030    2    1    2    0    0  0.00000000000E+00  0.00000000000E+00 -0.92549141792E+03  0.16006938985E+04  0.13060193689E+04 0.  0.
        1    1    3    3  502    0  0.30442098482E+03  0.38233801219E+03 -0.99355323140E+03  0.11072499786E+04  0.50400001928E-02 0.  1.
       -1    1    3    3    0  502 -0.30442098482E+03 -0.38233801219E+03  0.68061813474E+02  0.49344391985E+03  0.50400001928E-02 0. -1.
</event>
<event>
 5   0  0.9098192E-04  0.1302371E+04  0.7818609E-02  0.9027687E-01
       -1   -1    0    0    0  501  0.00000000000E+00  0.00000000000E+00  0.67849339544E+03  0.67849339546E+03  0.50400001928E-02 0. -1.
        1   -1    0    0  501    0  0.00000000000E+00  0.00000000000E+00 -0.62497652161E+03  0.62497652163E+03  0.50400001928E-02 0.  1.
    10030    2    1    2    0    0  0.00000000000E+00  0.00000000000E+00  0.53516873832E+02  0.13034699171E+04  0.13023708262E+04 0.  0.
        1    1    3    3  502    0 -0.11846493938E+03  0.42591103693E+03 -0.45177505609E+03  0.63208769532E+03  0.50400001928E-02 0.  1.
       -1    1    3    3    0  502  0.11846493938E+03 -0.42591103693E+03  0.50529192993E+03  0.67138222178E+03  0.50400001928E-02 0. -1.
</event>
<event>
 5   0  0.1694675E-03  0.1308519E+04  0.7818609E-02  0.9022837E-01
       -2   -1    0    0    0  501  0.00000000000E+00  0.00000000000E+00  0.62612991172E+03  0.62612991172E+03  0.25500000920E-02 0. -1.
        2   -1    0    0  501    0  0.00000000000E+00  0.00000000000E+00 -0.68365235566E+03  0.68365235566E+03  0.25500000920E-02 0.  1.
    10030    2    1    2    0    0  0.00000000000E+00  0.00000000000E+00 -0.57522443941E+02  0.13097822674E+04  0.13085185350E+04 0.  0.
        4    1    3    3  502    0  0.60176434121E+03  0.19891779482E+03 -0.19129095619E+03  0.66202904337E+03  0.12699999809E+01 0. -1.
       -4    1    3    3    0  502 -0.60176434121E+03 -0.19891779482E+03  0.13376851225E+03  0.64775322401E+03  0.12699999809E+01 0.  1.
</event>
<event>
 5   0  0.1623890E-03  0.1298836E+04  0.7818609E-02  0.9030489E-01
        2   -1    0    0  501    0  0.00000000000E+00  0.00000000000E+00  0.40542958749E+03  0.40542958749E+03  0.25500000920E-02 0. -1.
       -2   -1    0    0    0  501  0.00000000000E+00  0.00000000000E+00 -0.10402389795E+04  0.10402389795E+04  0.25500000920E-02 0.  1.
    10030    2    1    2    0    0  0.00000000000E+00  0.00000000000E+00 -0.63480939197E+03  0.14456685670E+04  0.12988358793E+04 0.  0.
        3    1    3    3  502    0 -0.72171555914E+02  0.88535389958E+02 -0.10289701709E+04  0.10352907184E+04  0.10100000352E+00 0.  1.
       -3    1    3    3    0  502  0.72171555914E+02 -0.88535389958E+02  0.39416077893E+03  0.41037784858E+03  0.10100000352E+00 0. -1.
</event>
<event>
 5   0  0.1667342E-03  0.1264961E+04  0.7818609E-02  0.9057823E-01
        2   -1    0    0  501    0  0.00000000000E+00  0.00000000000E+00  0.98048141604E+03  0.98048141604E+03  0.25500000920E-02 0.  1.
       -2   -1    0    0    0  501  0.00000000000E+00  0.00000000000E+00 -0.40799480141E+03  0.40799480142E+03  0.25500000920E-02 0. -1.
    10030    2    1    2    0    0  0.00000000000E+00  0.00000000000E+00  0.57248661463E+03  0.13884762175E+04  0.12649605854E+04 0.  0.
        5    1    3    3  502    0  0.18725828188E+03 -0.36384442401E+03  0.81557720886E+03  0.91248928905E+03  0.46999998093E+01 0.  1.
       -5    1    3    3    0  502 -0.18725828188E+03  0.36384442401E+03 -0.24309059424E+03  0.47598692842E+03  0.46999998093E+01 0. -1.
</event>
<event>
 5   0  0.1623890E-03  0.1313998E+04  0.7818609E-02  0.9018538E-01
        2   -1    0    0  501    0  0.00000000000E+00  0.00000000000E+00  0.19329627439E+04  0.19329627439E+04  0.25500000920E-02 0. -1.
       -2   -1    0    0    0  501  0.00000000000E+00  0.00000000000E+00 -0.22330891147E+03  0.22330891148E+03  0.25500000920E-02 0.  1.
    10030    2    1    2    0    0  0.00000000000E+00  0.00000000000E+00  0.17096538324E+04  0.21562716554E+04  0.13139981830E+04 0.  0.
        3    1    3    3  502    0 -0.17957120830E+02 -0.16421689672E+03 -0.18867153572E+03  0.25077201987E+03  0.10100000352E+00 0.  1.
       -3    1    3    3    0  502  0.17957120830E+02  0.16421689672E+03  0.18983253681E+04  0.19054996355E+04  0.10100000352E+00 0. -1.
</event>
<event>
 5   0  0.9027076E-04  0.1290029E+04  0.7818609E-02  0.9037509E-01
       -1   -1    0    0    0  501  0.00000000000E+00  0.00000000000E+00  0.18926597696E+03  0.18926597703E+03  0.50400001928E-02 0. -1.
        1   -1    0    0  501    0  0.00000000000E+00  0.00000000000E+00 -0.21981975874E+04  0.21981975874E+04  0.50400001928E-02 0.  1.
    10030    2    1    2    0    0  0.00000000000E+00  0.00000000000E+00 -0.20089316104E+04  0.23874635644E+04  0.12900294788E+04 0.  0.
        5    1    3    3  502    0  0.43727911997E+02 -0.58808301627E+03 -0.52091042945E+03  0.78684403145E+03  0.46999998093E+01 0. -1.
       -5    1    3    3    0  502 -0.43727911997E+02  0.58808301627E+03 -0.14880211810E+04  0.16006195330E+04  0.46999998093E+01 0.  1.
</event>
<event>
 5   0  0.1667342E-03  0.1309339E+04  0.7818609E-02  0.9022192E-01
        2   -1    0    0  501    0  0.00000000000E+00  0.00000000000E+00  0.27488622610E+03  0.27488622611E+03  0.25500000920E-02 0.  1.
       -2   -1    0    0    0  501  0.00000000000E+00  0.00000000000E+00 -0.15591628645E+04  0.15591628645E+04  0.25500000920E-02 0. -1.
    10030    2    1    2    0    0  0.00000000000E+00  0.00000000000E+00 -0.12842766384E+04  0.18340490906E+04  0.13093393688E+04 0.  0.
        5    1    3    3  502    0 -0.30165210213E+03  0.49916062207E+03 -0.22563192158E+03  0.62536962781E+03  0.46999998093E+01 0.  1.
       -5    1    3    3    0  502  0.30165210213E+03 -0.49916062207E+03 -0.10586447168E+04  0.12086794628E+04  0.46999998093E+01 0. -1.
</event>
<event>
 5   0  0.1700511E-03  0.1282642E+04  0.7818609E-02  0.9043445E-01
       -2   -1    0    0    0  501  0.00000000000E+00  0.00000000000E+00  0.44767986636E+03  0.44767986636E+03  0.25500000920E-02 0.  1.
        2   -1    0    0  501    0  0.00000000000E+00  0.00000000000E+00 -0.91871988386E+03  0.91871988387E+03  0.25500000920E-02 0. -1.
    10030    2    1    2    0    0  0.00000000000E+00  0.00000000000E+00 -0.47104001751E+03  0.13663997502E+04  0.12826416410E+04 0.  0.
        2    1    3    3  502    0 -0.47868438515E+03 -0.25625523431E+03  0.12806921229E+03  0.55785948844E+03  0.25500000920E-02 0.  1.
       -2    1    3    3    0  502  0.47868438515E+03  0.25625523431E+03 -0.59910922980E+03  0.80854026179E+03  0.25500000920E-02 0. -1.
</event>
<event>
 5   0  0.1667342E-03  0.1301427E+04  0.7818609E-02  0.9028435E-01
        2   -1    0    0  501    0  0.00000000000E+00  0.00000000000E+00  0.21719391572E+04  0.21719391572E+04  0.25500000920E-02 0.  1.
       -2   -1    0    0    0  501  0.00000000000E+00  0.00000000000E+00 -0.19495377700E+03  0.19495377701E+03  0.25500000920E-02 0. -1.
    10030    2    1    2    0    0  0.00000000000E+00  0.00000000000E+00  0.19769853802E+04  0.23668929342E+04  0.13014265129E+04 0.  0.
        5    1    3    3  502    0 -0.15602375648E+03 -0.49875804706E+03  0.16935789995E+04  0.17723811440E+04  0.46999998093E+01 0.  1.
       -5    1    3    3    0  502  0.15602375648E+03  0.49875804706E+03  0.28340638074E+03  0.59451179024E+03  0.46999998093E+01 0. -1.
</event>
<event>
 5   0  0.9098192E-04  0.1327229E+04  0.7818609E-02  0.9008247E-01
        1   -1    0    0  501    0  0.00000000000E+00  0.00000000000E+00  0.29334309875E+03  0.29334309880E+03  0.50400001928E-02 0.  1.
       -1   -1    0    0    0  501  0.00000000000E+00  0.00000000000E+00 -0.15012601973E+04  0.15012601973E+04  0.50400001928E-02 0. -1.
    10030    2    1    2    0    0  0.00000000000E+00  0.00000000000E+00 -0.12079170986E+04  0.17946032961E+04  0.13272291714E+04 0.  0.
        1    1    3    3  502    0 -0.12218927490E+03  0.52952274400E+03 -0.88971835997E+02  0.55067280934E+03  0.50400001928E-02 0. -1.
       -1    1    3    3    0  502  0.12218927490E+03 -0.52952274400E+03 -0.11189452626E+04  0.12439304868E+04  0.50400001928E-02 0.  1.
</event>
<event>
 5   0  0.1700511E-03  0.1279465E+04  0.7818609E-02  0.9046010E-01
       -2   -1    0    0    0  501  0.00000000000E+00  0.00000000000E+00  0.34167571982E+03  0.34167571983E+03  0.25500000920E-02 0. -1.
        2   -1    0    0  501    0  0.00000000000E+00  0.00000000000E+00 -0.11977959855E+04  0.11977959855E+04  0.25500000920E-02 0.  1.
    10030    2    1    2    0    0  0.00000000000E+00  0.00000000000E+00 -0.85612026567E+03  0.15394717053E+04  0.12794652095E+04 0.  0.
        2    1    3    3  502    0 -0.59507434981E+03  0.23479521221E+03 -0.42331817404E+03  0.76709878762E+03  0.25500000920E-02 0. -1.
       -2    1    3    3    0  502  0.59507434981E+03 -0.23479521221E+03 -0.43280209163E+03  0.77237291771E+03  0.25500000920E-02 0.  1.
</event>
<event>
 5   0  0.9027076E-04  0.1301599E+04  0.7818609E-02  0.9028298E-01
        1   -1    0    0  501    0  0.00000000000E+00  0.00000000000E+00  0.35767868592E+03  0.35767868595E+03  0.50400001928E-02 0. -1.
       -1   -1    0    0    0  501  0.00000000000E+00  0.00000000000E+00 -0.11841349646E+04  0.11841349646E+04  0.50400001928E-02 0.  1.
    10030    2    1    2    0    0  0.00000000000E+00  0.00000000000E+00 -0.82645627872E+03  0.15418136506E+04  0.13015987679E+04 0.  0.
        5    1    3    3  502    0 -0.74740983286E+02 -0.56002158047E+03 -0.30656968086E+02  0.56583771955E+03  0.46999998093E+01 0. -1.
       -5    1    3    3    0  502  0.74740983286E+02  0.56002158047E+03 -0.79579931063E+03  0.97597593104E+03  0.46999998093E+01 0.  1.
</event>
<event>
 5   0  0.9215829E-04  0.1303882E+04  0.7818609E-02  0.9026492E-01
        1   -1    0    0  501    0  0.00000000000E+00  0.00000000000E+00  0.11080177414E+04  0.11080177414E+04  0.50400001928E-02 0.  1.
       -1   -1    0    0    0  501  0.00000000000E+00  0.00000000000E+00 -0.38359256481E+03  0.38359256484E+03  0.50400001928E-02 0. -1.
    10030    2    1    2    0    0  0.00000000000E+00  0.00000000000E+00  0.72442517661E+03  0.14916103063E+04  0.13038824599E+04 0.  0.
        3    1    3    3  502    0 -0.33795626359E+03 -0.44699087797E+03 -0.18942783205E+02  0.56069075284E+03  0.10100000352E+00 0. -1.
       -3    1    3    3    0  502  0.33795626359E+03  0.44699087797E+03  0.74336795981E+03  0.93091955343E+03  0.10100000352E+00 0.  1.
</event>
<event>
 5   0  0.1694675E-03  0.1313798E+04  0.7818609E-02  0.9018695E-01
       -2   -1    0    0    0  501  0.00000000000E+00  0.00000000000E+00  0.33291362515E+03  0.33291362516E+03  0.25500000920E-02 0.  1.
        2   -1    0    0  501    0  0.00000000000E+00  0.00000000000E+00 -0.12961802379E+04  0.12961802379E+04  0.25500000920E-02 0. -1.
    10030    2    1    2    0    0  0.00000000000E+00  0.00000000000E+00 -0.96326661275E+03  0.16290938631E+04  0.13137976433E+04 0.  0.
        4    1    3    3  502    0 -0.26236522908E+03 -0.21007333058E+03  0.21821700481E+03  0.40073256885E+03  0.12699999809E+01 0.  1.
       -4    1    3    3    0  502  0.26236522908E+03  0.21007333058E+03 -0.11814836176E+04  0.12283612942E+04  0.12699999809E+01 0. -1.
</event>
<event>
 5   0  0.9215829E-04  0.1241394E+04  0.7818609E-02  0.9077377E-01
        1   -1    0    0  501    0  0.00000000000E+00  0.00000000000E+00  0.64178818587E+03  0.64178818589E+03  0.50400001928E-02 0.  1.
       -1   -1    0    0    0  501  0.00000000000E+00  0.00000000000E+00 -0.60029868523E+03  0.60029868525E+03  0.50400001928E-02 0. -1.
    10030    2    1    2    0    0  0.00000000000E+00  0.00000000000E+00  0.41489500633E+02  0.12420868711E+04  0.12413937396E+04 0.  0.
        3    1    3    3  502    0  0.41175373280E+03  0.24753469022E+03 -0.37247599812E+03  0.60790865984E+03  0.10100000352E+00 0. -1.
       -3    1    3    3    0  502 -0.41175373280E+03 -0.24753469022E+03  0.41396549875E+03  0.63417821130E+03  0.10100000352E+00 0.  1.
</event>
<event>
 5   0  0.9081324E-04  0.1311508E+04  0.7818609E-02  0.9020489E-01
       -1   -1    0    0    0  501  0.00000000000E+00  0.00000000000E+00  0.17165627623E+03  0.17165627631E+03  0.50400001928E-02 0.  1.
        1   -1    0    0  501    0  0.00000000000E+00  0.00000000000E+00 -0.25050839566E+04  0.25050839566E+04  0.50400001928E-02 0. -1.
    10030    2    1    2    0    0  0.00000000000E+00  0.00000000000E+00 -0.23334276804E+04  0.26767402329E+04  0.13115081147E+04 0.  0.
        4    1    3    3  502    0  0.57379871092E+03 -0.16370921580E+03 -0.61163890977E+03  0.85448782135E+03  0.12699999809E+01 0.  1.
       -4    1    3    3    0  502 -0.57379871092E+03  0.16370921580E+03 -0.17217887706E+04  0.18222524116E+04  0.12699999809E+01 0. -1.
</event>
<event>
 5   0  0.9215829E-04  0.1293930E+04  0.7818609E-02  0.9034393E-01
       -1   -1    0    0    0  501  0.00000000000E+00  0.00000000000E+00  0.10567740816E+04  0.10567740816E+04  0.50400001928E-02 0.  1.
        1   -1    0    0  501    0  0.00000000000E+00  0.00000000000E+00 -0.39607682713E+03  0.39607682717E+03  0.50400001928E-02 0. -1.
    10030    2    1    2    0    0  0.00000000000E+00  0.00000000000E+00  0.66069725449E+03  0.14528509088E+04  0.12939300217E+04 0.  0.
        3    1    3    3  502    0 -0.31552965419E+03 -0.28607377138E+03 -0.21646203933E+03  0.47775829665E+03  0.10100000352E+00 0. -1.
       -3    1    3    3    0  502  0.31552965419E+03  0.28607377138E+03  0.87715929382E+03  0.97509261215E+03  0.10100000352E+00 0.  1.
</event>
<event>
 5   0  0.1667342E-03  0.1299899E+04  0.7818609E-02  0.9029646E-01
        2   -1    0    0  501    0  0.00000000000E+00  0.00000000000E+00  0.13041598488E+04  0.13041598488E+04  0.25500000920E-02 0. -1.
       -2   -1    0    0    0  501  0.00000000000E+00  0.00000000000E+00 -0.32391283140E+03  0.32391283141E+03  0.25500000920E-02 0.  1.
    10030    2    1    2    0    0  0.00000000000E+00  0.00000000000E+00  0.98024701741E+03  0.16280726802E+04  0.12998986257E+04 0.  0.
        5    1    3    3  502    0  0.33041437266E+03  0.42112482518E+03  0.28421633999E+02  0.53605004926E+03  0.46999998093E+01 0.  1.
       -5    1    3    3    0  502 -0.33041437266E+03 -0.42112482518E+03  0.95182538341E+03  0.10920226310E+04  0.46999998093E+01 0. -1.
</event>
<event>
 5   0  0.9081324E-04  0.1312057E+04  0.7818609E-02  0.9020058E-01
       -1   -1    0    0    0  501  0.00000000000E+00  0.00000000000E+00  0.28554621680E+03  0.28554621685E+03  0.50400001928E-02 0.  1.
        1   -1    0    0  501    0  0.00000000000E+00  0.00000000000E+00 -0.15071928304E+04  0.15071928304E+04  0.50400001928E-02 0. -1.
    10030    2    1    2    0    0  0.00000000000E+00  0.00000000000E+00 -0.12216466136E+04  0.17927390473E+04  0.13120567225E+04 0.  0.
        4    1    3    3  502    0 -0.22611143128E+03 -0.22347151135E+03  0.17326340275E+03  0.36206037532E+03  0.12699999809E+01 0.  1.
       -4    1    3    3    0  502  0.22611143128E+03  0.22347151135E+03 -0.13949100164E+04  0.14306786720E+04  0.12699999809E+01 0. -1.
</event>
<event>
 5   0  0.9027076E-04  0.1287212E+04  0.7818609E-02  0.9039768E-01
        1   -1    0    0  501    0  0.00000000000E+00  0.00000000000E+00  0.20736936123E+03  0.20736936129E+03  0.50400001928E-02 0. -1.
       -1   -1    0    0    0  501  0.00000000000E+00  0.00000000000E+00 -0.19975401213E+04  0.19975401213E+04  0.50400001928E-02 0.  1.
    10030    2    1    2    0    0  0.00000000000E+00  0.00000000000E+00 -0.17901707601E+04  0.22049094826E+04  0.12872119003E+04 0.  0.
        5    1    3    3  502    0  0.63481002541E+03 -0.92374624088E+02 -0.98392195284E+03  0.11745813462E+04  0.46999998093E+01 0. -1.
       -5    1    3    3    0  502 -0.63481002541E+03  0.92374624088E+02 -0.80624880725E+03  0.10303281364E+04  0.46999998093E+01 0.  1.
</event>
<event>
 5   0  0.1667342E-03  0.1283423E+04  0.7818609E-02  0.9042815E-01
       -2   -1    0    0    0  501  0.00000000000E+00  0.00000000000E+00  0.49689358036E+03  0.49689358036E+03  0.25500000920E-02 0.  1.
        2   -1    0    0  501    0  0.00000000000E+00  0.00000000000E+00 -0.82873663822E+03  0.82873663822E+03  0.25500000920E-02 0. -1.
    10030    2    1    2    0    0  0.00000000000E+00  0.00000000000E+00 -0.33184305786E+03  0.13256302186E+04  0.12834234147E+04 0.  0.
        5    1    3    3  502    0  0.14060482414E+03  0.47662954278E+03 -0.58526106244E+03  0.76778775636E+03  0.46999998093E+01 0. -1.
       -5    1    3    3    0  502 -0.14060482414E+03 -0.47662954278E+03  0.25341800458E+03  0.55784246222E+03  0.46999998093E+01 0.  1.
</event>
<event>
 5   0  0.9027076E-04  0.1223280E+04  0.7818609E-02  0.9092720E-01
       -1   -1    0    0    0  501  0.00000000000E+00  0.00000000000E+00  0.44345540011E+03  0.44345540014E+03  0.50400001928E-02 0.  1.
        1   -1    0    0  501    0  0.00000000000E+00  0.00000000000E+00 -0.84360981735E+03  0.84360981737E+03  0.50400001928E-02 0. -1.
    10030    2    1    2    0    0  0.00000000000E+00  0.00000000000E+00 -0.40015441724E+03  0.12870652175E+04  0.12232797376E+04 0.  0.
        5    1    3    3  502    0 -0.38197805191E+03 -0.43862929182E+03 -0.10626105354E+01  0.58165806702E+03  0.46999998093E+01 0.  1.
       -5    1    3    3    0  502  0.38197805191E+03  0.43862929182E+03 -0.39909180671E+03  0.70540715049E+03  0.46999998093E+01 0. -1.
</event>
<event>
 5   0  0.1694675E-03  0.1291880E+04  0.7818609E-02  0.9036029E-01
       -2   -1    0    0    0  501  0.00000000000E+00  0.00000000000E+00  0.43911154060E+03  0.43911154060E+03  0.25500000920E-02 0. -1.
        2   -1    0    0  501    0  0.00000000000E+00  0.00000000000E+00 -0.95018770642E+03  0.95018770643E+03  0.25500000920E-02 0.  1.
    10030    2    1    2    0    0  0.00000000000E+00  0.00000000000E+00 -0.51107616583E+03  0.13892992470E+04  0.12918798514E+04 0.  0.
        4    1    3    3  502    0 -0.37898937472E+03 -0.54105801542E+02  0.30396033645E+03  0.48882909380E+03  0.12699999809E+01 0. -1.
       -4    1    3    3    0  502  0.37898937472E+03  0.54105801542E+02 -0.81503650228E+03  0.90047015323E+03  0.12699999809E+01 0.  1.
</event>
<event>
 5   0  0.9081324E-04  0.1297599E+04  0.7818609E-02  0.9031471E-01
       -1   -1    0    0    0  501  0.00000000000E+00  0.00000000000E+00  0.16831637325E+04  0.16831637325E+04  0.50400001928E-02 0. -1.
        1   -1    0    0  501    0  0.00000000000E+00  0.00000000000E+00 -0.25008897774E+03  0.25008897779E+03  0.50400001928E-02 0.  1.
    10030    2    1    2    0    0  0.00000000000E+00  0.00000000000E+00  0.14330747548E+04  0.19332527103E+04  0.12975988552E+04 0.  0.
        4    1    3    3  502    0 -0.52386532221E+03  0.15297761977E+03  0.12392714728E+04  0.13541168428E+04  0.12699999809E+01 0. -1.
       -4    1    3    3    0  502  0.52386532221E+03 -0.15297761977E+03  0.19380328202E+03  0.57913586747E+03  0.12699999809E+01 0.  1.
</event>
<event>
 5   0  0.9110949E-04  0.1295038E+04  0.7818609E-02  0.9033509E-01
       -1   -1    0    0    0  501  0.00000000000E+00  0.00000000000E+00  0.17526089500E+03  0.17526089507E+03  0.50400001928E-02 0.  1.
        1   -1    0    0  501    0  0.00000000000E+00  0.00000000000E+00 -0.23923255812E+04  0.23923255812E+04  0.50400001928E-02 0. -1.
    10030    2    1    2    0    0  0.00000000000E+00  0.00000000000E+00 -0.22170646862E+04  0.25675864762E+04  0.12950384127E+04 0.  0.
        2    1    3    3  502    0  0.18876775023E+03 -0.27356652698E+03 -0.22102937469E+04  0.22351443703E+04  0.25500000920E-02 0. -1.
       -2    1    3    3    0  502 -0.18876775023E+03  0.27356652698E+03 -0.67709392568E+01  0.33244210600E+03  0.25500000920E-02 0.  1.
</event>
<event>
 5   0  0.9215829E-04  0.1299315E+04  0.7818609E-02  0.9030109E-01
        1   -1    0    0  501    0  0.00000000000E+00  0.00000000000E+00  0.11375342168E+04  0.11375342168E+04  0.50400001928E-02 0. -1.
       -1   -1    0    0    0  501  0.00000000000E+00  0.00000000000E+00 -0.37102598518E+03  0.37102598521E+03  0.50400001928E-02 0.  1.
    10030    2    1    2    0    0  0.00000000000E+00  0.00000000000E+00  0.76650823158E+03  0.15085602020E+04  0.12993148248E+04 0.  0.
        3    1    3    3  502    0  0.46236853767E+03 -0.91683397853E+02 -0.13580376997E+03  0.49054376380E+03  0.10100000352E+00 0.  1.
       -3    1    3    3    0  502 -0.46236853767E+03  0.91683397853E+02  0.90231200155E+03  0.10180164382E+04  0.10100000352E+00 0. -1.
</event>
<event>
 5   0  0.1623890E-03  0.1270752E+04  0.7818609E-02  0.9053086E-01
       -2   -1    0    0    0  501  0.00000000000E+00  0.00000000000E+00  0.26503512040E+03  0.26503512042E+03  0.25500000920E-02 0.  1.
        2   -1    0    0  501    0  0.00000000000E+00  0.00000000000E+00 -0.15232040932E+04  0.15232040932E+04  0.25500000920E-02 0. -1.
    10030    2    1    2    0    0  0.00000000000E+00  0.00000000000E+00 -0.12581689728E+04  0.17882392137E+04  0.12707518723E+04 0.  0.
        3    1    3    3  502    0 -0.59051980006E+03 -0.16255287218E+02 -0.95828200755E+03  0.11257363301E+04  0.10100000352E+00 0. -1.
       -3    1    3    3    0  502  0.59051980006E+03  0.16255287218E+02 -0.29988696529E+03  0.66250288360E+03  0.10100000352E+00 0.  1.
</event>
<event>
 5   0  0.9110949E-04  0.1306197E+04  0.7818609E-02  0.9024666E-01
       -1   -1    0    0    0  501  0.00000000000E+00  0.00000000000E+00  0.88488810035E+03  0.88488810036E+03  0.50400001928E-02 0. -1.
        1   -1    0    0  501    0  0.00000000000E+00  0.00000000000E+00 -0.48202403287E+03  0.48202403289E+03  0.50400001928E-02 0.  1.
    10030    2    1    2    0    0  0.00000000000E+00  0.00000000000E+00  0.40286406748E+03  0.13669121333E+04  0.13061965102E+04 0.  0.
        2    1    3    3  502    0 -0.25501088221E+03 -0.51339422043E+03 -0.12605714395E+03  0.58693660574E+03  0.25500000920E-02 0.  1.
       -2    1    3    3    0  502  0.25501088221E+03  0.51339422043E+03  0.52892121143E+03  0.77997552751E+03  0.25500000920E-02 0. -1.
</event>
<event>
 5   0  0.9110949E-04  0.1296703E+04  0.7818609E-02  0.9032184E-01
        1   -1    0    0  501    0  0.00000000000E+00  0.00000000000E+00  0.12134645511E+04  0.12134645511E+04  0.50400001928E-02 0.  1.
       -1   -1    0    0    0  501  0.00000000000E+00  0.00000000000E+00 -0.34641278910E+03  0.34641278913E+03  0.50400001928E-02 0. -1.
    10030    2    1    2    0    0  0.00000000000E+00  0.00000000000E+00  0.86705176202E+03  0.15598773403E+04  0.12967029570E+04 0.  0.
        2    1    3    3  502    0  0.27349870372E+03  0.19110246648E+03  0.11022636507E+04  0.11516539624E+04  0.25500000920E-02 0.  1.
       -2    1    3    3    0  502 -0.27349870372E+03 -0.19110246648E+03 -0.23521188864E+03  0.40822337782E+03  0.25500000920E-02 0. -1.
</event>
<event>
 5   0  0.1667342E-03  0.1311736E+04  0.7818609E-02  0.9020310E-01
       -2   -1    0    0    0  501  0.00000000000E+00  0.00000000000E+00  0.30665795501E+03  0.30665795502E+03  0.25500000920E-02 0.  1.
        2   -1    0    0  501    0  0.00000000000E+00  0.00000000000E+00 -0.14027452524E+04  0.14027452524E+04  0.25500000920E-02 0. -1.
    10030    2    1    2    0    0  0.00000000000E+00  0.00000000000E+00 -0.10960872974E+04  0.17094032074E+04  0.13117362395E+04 0.  0.
        5    1    3    3  502    0 -0.56448468161E+03  0.19970230175E+03 -0.89678694168E+03  0.10783194674E+04  0.46999998093E+01 0. -1.
       -5    1    3    3    0  502  0.56448468161E+03 -0.19970230175E+03 -0.19930035571E+03  0.63108373999E+03  0.46999998093E+01 0.  1.
</event>
<event>
 5   0  0.1694675E-03  0.1301800E+04  0.7818609E-02  0.9028139E-01
       -2   -1    0    0    0  501  0.00000000000E+00  0.00000000000E+00  0.15337356818E+04  0.15337356818E+04  0.25500000920E-02 0.  1.
        2   -1    0    0  501    0  0.00000000000E+00  0.00000000000E+00 -0.27623448985E+03  0.27623448986E+03  0.25500000920E-02 0. -1.
    10030    2    1    2    0    0  0.00000000000E+00  0.00000000000E+00  0.12575011920E+04  0.18099701717E+04  0.13017998212E+04 0.  0.
        4    1    3    3  502    0 -0.41224628719E+02 -0.55255895041E+03  0.11036113335E+04  0.12349009888E+04  0.12699999809E+01 0.  1.
       -4    1    3    3    0  502  0.41224628719E+02  0.55255895041E+03  0.15388985845E+03  0.57506918290E+03  0.12699999809E+01 0. -1.
</event>
<event>
 5   0  0.9110949E-04  0.1282096E+04  0.7818609E-02  0.9043885E-01
        1   -1    0    0  501    0  0.00000000000E+00  0.00000000000E+00  0.21832574516E+04  0.21832574516E+04  0.50400001928E-02 0.  1.
       -1   -1    0    0    0  501  0.00000000000E+00  0.00000000000E+00 -0.18822453220E+03  0.18822453227E+03  0.50400001928E-02 0. -1.
    10030    2    1    2    0    0  0.00000000000E+00  0.00000000000E+00  0.19950329193E+04  0.23714819838E+04  0.12820961159E+04 0.  0.
        2    1    3    3  502    0  0.29965349695E+03  0.37127698498E+03  0.17894431370E+04  0.18519572236E+04  0.25500000920E-02 0.  1.
       -2    1    3    3    0  502 -0.29965349695E+03 -0.37127698498E+03  0.20558978240E+03  0.51952476018E+03  0.25500000920E-02 0. -1.
</event>
<event>
 5   0  0.9098192E-04  0.1305262E+04  0.7818609E-02  0.9025403E-01
       -1   -1    0    0    0  501  0.00000000000E+00  0.00000000000E+00  0.11184233381E+04  0.11184233381E+04  0.50400001928E-02 0. -1.
        1   -1    0    0  501    0  0.00000000000E+00  0.00000000000E+00 -0.38082807048E+03  0.38082807051E+03  0.50400001928E-02 0.  1.
    10030    2    1    2    0    0  0.00000000000E+00  0.00000000000E+00  0.73759526764E+03  0.14992514086E+04  0.13052616625E+04 0.  0.
        1    1    3    3  502    0 -0.14633393192E+03  0.83811583628E+02 -0.35537055111E+03  0.39335255154E+03  0.50400001928E-02 0.  1.
       -1    1    3    3    0  502  0.14633393192E+03 -0.83811583628E+02  0.10929658187E+04  0.11058988571E+04  0.50400001928E-02 0. -1.
</event>
<event>
 5   0  0.9215829E-04  0.1297749E+04  0.7818609E-02  0.9031352E-01
        1   -1    0    0  501    0  0.00000000000E+00  0.00000000000E+00  0.48056672576E+03  0.48056672579E+03  0.50400001928E-02 0.  1.
       -1   -1    0    0    0  501  0.00000000000E+00  0.00000000000E+00 -0.87612897905E+03  0.87612897907E+03  0.50400001928E-02 0. -1.
    10030    2    1    2    0    0  0.00000000000E+00  0.00000000000E+00 -0.39556225329E+03  0.13566957049E+04  0.12977494902E+04 0.  0.
        3    1    3    3  502    0 -0.13257766433E+03 -0.39036903028E+03  0.32605098129E+03  0.52561779792E+03  0.10100000352E+00 0.  1.
       -3    1    3    3    0  502  0.13257766433E+03  0.39036903028E+03 -0.72161323458E+03  0.83107790694E+03  0.10100000352E+00 0. -1.
</event>
<event>
 5   0  0.1700511E-03  0.1288182E+04  0.7818609E-02  0.9038990E-01
        2   -1    0    0  501    0  0.00000000000E+00  0.00000000000E+00  0.13577921364E+04  0.13577921364E+04  0.25500000920E-02 0.  1.
       -2   -1    0    0    0  501  0.00000000000E+00  0.00000000000E+00 -0.30553523836E+03  0.30553523837E+03  0.25500000920E-02 0. -1.
    10030    2    1    2    0    0  0.00000000000E+00  0.00000000000E+00  0.10522568980E+04  0.16633273748E+04  0.12881821984E+04 0.  0.
        2    1    3    3  502    0  0.11398693638E+02  0.10321885661E+03  0.13469114618E+04  0.13509087861E+04  0.25500000920E-02 0.  1.
       -2    1    3    3    0  502 -0.11398693638E+02 -0.10321885661E+03 -0.29465456375E+03  0.31241858863E+03  0.25500000920E-02 0. -1.
</event>
<event>
 5   0  0.9098192E-04  0.1297340E+04  0.7818609E-02  0.9031677E-01
       -1   -1    0    0    0  501  0.00000000000E+00  0.00000000000E+00  0.65706469105E+03  0.65706469107E+03  0.50400001928E-02 0.  1.
        1   -1    0    0  501    0  0.00000000000E+00  0.00000000000E+00 -0.64038250968E+03  0.64038250970E+03  0.50400001928E-02 0. -1.
    10030    2    1    2    0    0  0.00000000000E+00  0.00000000000E+00  0.16682181376E+02  0.12974472008E+04  0.12973399491E+04 0.  0.
        1    1    3    3  502    0 -0.66727174786E+02 -0.17240219283E+03 -0.61348012716E+03  0.64072841235E+03  0.50400001928E-02 0. -1.
       -1    1    3    3    0  502  0.66727174786E+02  0.17240219283E+03  0.63016230853E+03  0.65671878842E+03  0.50400001928E-02 0.  1.
</event>
<event>
 5   0  0.1667342E-03  0.1330022E+04  0.7818609E-02  0.9006091E-01
        2   -1    0    0  501    0  0.00000000000E+00  0.00000000000E+00  0.75780290331E+03  0.75780290332E+03  0.25500000920E-02 0. -1.
       -2   -1    0    0    0  501  0.00000000000E+00  0.00000000000E+00 -0.58358117071E+03  0.58358117072E+03  0.25500000920E-02 0.  1.
    10030    2    1    2    0    0  0.00000000000E+00  0.00000000000E+00  0.17422173260E+03  0.13413840740E+04  0.13300218126E+04 0.  0.
        5    1    3    3  502    0 -0.47741293751E+03 -0.90859622881E+02 -0.37068189511E+03  0.61123296813E+03  0.46999998093E+01 0.  1.
       -5    1    3    3    0  502  0.47741293751E+03  0.90859622881E+02  0.54490362771E+03  0.73015110591E+03  0.46999998093E+01 0. -1.
</event>
<event>
 5   0  0.9215829E-04  0.1284220E+04  0.7818609E-02  0.9042173E-01
       -1   -1    0    0    0  501  0.00000000000E+00  0.00000000000E+00  0.23740711006E+03  0.23740711011E+03  0.50400001928E-02 0. -1.
        1   -1    0    0  501    0  0.00000000000E+00  0.00000000000E+00 -0.17367022753E+04  0.17367022753E+04  0.50400001928E-02 0.  1.
    10030    2    1    2    0    0  0.00000000000E+00  0.00000000000E+00 -0.14992951653E+04  0.19741093854E+04  0.12842203367E+04 0.  0.
        3    1    3    3  502    0 -0.58955393053E+02  0.21893598448E+03 -0.16731183630E+04  0.16884116117E+04  0.10100000352E+00 0.  1.
       -3    1    3    3    0  502  0.58955393053E+02 -0.21893598448E+03  0.17382319772E+03  0.28569777377E+03  0.10100000352E+00 0. -1.
</event>
<event>
 5   0  0.1700511E-03  0.1455271E+04  0.7818609E-02  0.8914754E-01
       -2   -1    0    0    0  501  0.00000000000E+00  0.00000000000E+00  0.16141288314E+03  0.16141288316E+03  0.25500000920E-02 0.  1.
        2   -1    0    0  501    0  0.00000000000E+00  0.00000000000E+00 -0.32801198525E+04  0.32801198525E+04  0.25500000920E-02 0. -1.
    10030    2    1    2    0    0  0.00000000000E+00  0.00000000000E+00 -0.31187069694E+04  0.34415327357E+04  0.14552712496E+04 0.  0.
        2    1    3    3  502    0 -0.58287084809E+03  0.72494971671E+02 -0.25750375817E+04  0.26411763466E+04  0.25500000920E-02 0. -1.
       -2    1    3    3    0  502  0.58287084809E+03 -0.72494971671E+02 -0.54366938764E+03  0.80035638907E+03  0.25500000920E-02 0.  1.
</event>
<event>
 5   0  0.6284125E-04  0.1305502E+04  0.7818609E-02  0.9025213E-01
       -3   -1    0    0    0  501  0.00000000000E+00  0.00000000000E+00  0.24369140478E+03  0.24369142571E+03  0.10100000352E+00 0.  1.
        3   -1    0    0  501    0  0.00000000000E+00  0.00000000000E+00 -0.17484572477E+04  0.17484572507E+04  0.10100000352E+00 0. -1.
    10030    2    1    2    0    0  0.00000000000E+00  0.00000000000E+00 -0.15047658430E+04  0.19921486764E+04  0.13055022431E+04 0.  0.
        4    1    3    3  502    0  0.20893459304E+03  0.42422844687E+03 -0.65768942419E+02  0.47744173047E+03  0.12699999809E+01 0.  1.
       -4    1    3    3    0  502 -0.20893459304E+03 -0.42422844687E+03 -0.14389969005E+04  0.15147069459E+04  0.12699999809E+01 0. -1.
</event>
<event>
 5   0  0.1667342E-03  0.1297636E+04  0.7818609E-02  0.9031442E-01
        2   -1    0    0  501    0  0.00000000000E+00  0.00000000000E+00  0.39205712017E+03  0.39205712018E+03  0.25500000920E-02 0.  1.
       -2   -1    0    0    0  501  0.00000000000E+00  0.00000000000E+00 -0.10737340116E+04  0.10737340116E+04  0.25500000920E-02 0. -1.
    10030    2    1    2    0    0  0.00000000000E+00  0.00000000000E+00 -0.68167689139E+03  0.14657911317E+04  0.12976364120E+04 0.  0.
        5    1    3    3  502    0  0.31055374567E+03 -0.52641752017E+03 -0.94951965113E+02  0.61854425886E+03  0.46999998093E+01 0. -1.
       -5    1    3    3    0  502 -0.31055374567E+03  0.52641752017E+03 -0.58672492627E+03  0.84724687288E+03  0.46999998093E+01 0.  1.
</event>
<event>
 5   0  0.9098192E-04  0.1282177E+04  0.7818609E-02  0.9043820E-01
        1   -1    0    0  501    0  0.00000000000E+00  0.00000000000E+00  0.13532221560E+04  0.13532221560E+04  0.50400001928E-02 0.  1.
       -1   -1    0    0    0  501  0.00000000000E+00  0.00000000000E+00 -0.30371538053E+03  0.30371538057E+03  0.50400001928E-02 0. -1.
    10030    2    1    2    0    0  0.00000000000E+00  0.00000000000E+00  0.10495067755E+04  0.16569375366E+04  0.12821768709E+04 0.  0.
        1    1    3    3  502    0  0.86115199662E+02 -0.37839206619E+03 -0.13468924284E+03  0.41077679527E+03  0.50400001928E-02 0. -1.
       -1    1    3    3    0  502 -0.86115199662E+02  0.37839206619E+03  0.11841960183E+04  0.12461607413E+04  0.50400001928E-02 0.  1.
</event>
<event>
 5   0  0.9081324E-04  0.1427630E+04  0.7818609E-02  0.8934058E-01
       -1   -1    0    0    0  501  0.00000000000E+00  0.00000000000E+00  0.11186600476E+04  0.11186600476E+04  0.50400001928E-02 0.  1.
        1   -1    0    0  501    0  0.00000000000E+00  0.00000000000E+00 -0.45548389711E+03  0.45548389714E+03  0.50400001928E-02 0. -1.
    10030    2    1    2    0    0  0.00000000000E+00  0.00000000000E+00  0.66317615049E+03  0.15741439448E+04  0.14276296972E+04 0.  0.
        4    1    3    3  502    0  0.17582288474E+03 -0.88137994737E+02 -0.42501699889E+03  0.46831939439E+03  0.12699999809E+01 0. -1.
       -4    1    3    3    0  502 -0.17582288474E+03  0.88137994737E+02  0.10881931494E+04  0.11058245504E+04  0.12699999809E+01 0.  1.
</event>
<event>
 5   0  0.1623890E-03  0.1301746E+04  0.7818609E-02  0.9028182E-01
       -2   -1    0    0    0  501  0.00000000000E+00  0.00000000000E+00  0.53639123934E+03  0.53639123935E+03  0.25500000920E-02 0.  1.
        2   -1    0    0  501    0  0.00000000000E+00  0.00000000000E+00 -0.78978874556E+03  0.78978874557E+03  0.25500000920E-02 0. -1.
    10030    2    1    2    0    0  0.00000000000E+00  0.00000000000E+00 -0.25339750622E+03  0.13261799849E+04  0.13017461566E+04 0.  0.
        3    1    3    3  502    0 -0.35493694911E+03  0.27315729105E+03  0.35443756171E+03  0.57115771802E+03  0.10100000352E+00 0.  1.
       -3    1    3    3    0  502  0.35493694911E+03 -0.27315729105E+03 -0.60783506793E+03  0.75502226690E+03  0.10100000352E+00 0. -1.
</event>
<event>
 5   0  0.9027076E-04  0.1294250E+04  0.7818609E-02  0.9034138E-01
       -1   -1    0    0    0  501  0.00000000000E+00  0.00000000000E+00  0.67887103986E+03  0.67887103988E+03  0.50400001928E-02 0. -1.
        1   -1    0    0  501    0  0.00000000000E+00  0.00000000000E+00 -0.61686310462E+03  0.61686310464E+03  0.50400001928E-02 0.  1.
    10030    2    1    2    0    0  0.00000000000E+00  0.00000000000E+00  0.62007935238E+02  0.12957341445E+04  0.12942495854E+04 0.  0.
        5    1    3    3  502    0 -0.31353147528E+03  0.46068126802E+03 -0.29834022468E+03  0.63210615909E+03  0.46999998093E+01 0.  1.
       -5    1    3    3    0  502  0.31353147528E+03 -0.46068126802E+03  0.36034815992E+03  0.66362798544E+03  0.46999998093E+01 0. -1.
</event>
<event>
 5   0  0.1714861E-03  0.1301419E+04  0.7818609E-02  0.9028440E-01
        2   -1    0    0  501    0  0.00000000000E+00  0.00000000000E+00  0.38486082515E+03  0.38486082516E+03  0.25500000920E-02 0.  1.
       -2   -1    0    0    0  501  0.00000000000E+00  0.00000000000E+00 -0.11001978191E+04  0.11001978191E+04  0.25500000920E-02 0. -1.
    10030    2    1    2    0    0  0.00000000000E+00  0.00000000000E+00 -0.71533699397E+03  0.14850586443E+04  0.13014192875E+04 0.  0.
        1    1    3    3  502    0  0.61935401221E+03 -0.18535019478E+02 -0.13093510084E+03  0.63331425063E+03  0.50400001928E-02 0.  1.
       -1    1    3    3    0  502 -0.61935401221E+03  0.18535019478E+02 -0.58440189313E+03  0.85174439365E+03  0.50400001928E-02 0. -1.
</event>
<event>
 5   0  0.9098192E-04  0.1302243E+04  0.7818609E-02  0.9027789E-01
       -1   -1    0    0    0  501  0.00000000000E+00  0.00000000000E+00  0.56271082531E+03  0.56271082533E+03  0.50400001928E-02 0. -1.
        1   -1    0    0  501    0  0.00000000000E+00  0.00000000000E+00 -0.75342248118E+03  0.75342248120E+03  0.50400001928E-02 0.  1.
    10030    2    1    2    0    0  0.00000000000E+00  0.00000000000E+00 -0.19071165587E+03  0.13161333065E+04  0.13022426598E+04 0.  0.
        1    1    3    3  502    0  0.47289723369E+03  0.26570777189E+03  0.26866181517E+03  0.60531940712E+03  0.50400001928E-02 0. -1.
       -1    1    3    3    0  502 -0.47289723369E+03 -0.26570777189E+03 -0.45937347104E+03  0.71081389941E+03  0.50400001928E-02 0.  1.
</event>
<event>
 5   0  0.1700511E-03  0.1263708E+04  0.7818609E-02  0.9058851E-01
        2   -1    0    0  501    0  0.00000000000E+00  0.00000000000E+00  0.12416313759E+04  0.12416313759E+04  0.25500000920E-02 0. -1.
       -2   -1    0    0    0  501  0.00000000000E+00  0.00000000000E+00 -0.32154433950E+03  0.32154433951E+03  0.25500000920E-02 0.  1.
    10030    2    1    2    0    0  0.00000000000E+00  0.00000000000E+00  0.92008703643E+03  0.15631757154E+04  0.12637081003E+04 0.  0.
        2    1    3    3  502    0  0.54484301798E+03 -0.26988160520E+03  0.24740769461E+03  0.65643016569E+03  0.25500000920E-02 0.  1.
       -2    1    3    3    0  502 -0.54484301798E+03  0.26988160520E+03  0.67267934182E+03  0.90674554975E+03  0.25500000920E-02 0. -1.
</event>
<event>
 5   0  0.9215829E-04  0.1314904E+04  0.7818609E-02  0.9017829E-01
       -1   -1    0    0    0  501  0.00000000000E+00  0.00000000000E+00  0.31029147433E+03  0.31029147437E+03  0.50400001928E-02 0. -1.
        1   -1    0    0  501    0  0.00000000000E+00  0.00000000000E+00 -0.13930231365E+04  0.13930231365E+04  0.50400001928E-02 0.  1.
    10030    2    1    2    0    0  0.00000000000E+00  0.00000000000E+00 -0.10827316622E+04  0.17033146109E+04  0.13149041073E+04 0.  0.
        3    1    3    3  502    0  0.32247239956E+03 -0.52168965122E+03 -0.84817018523E+03  0.10466810469E+04  0.10100000352E+00 0.  1.
       -3    1    3    3    0  502 -0.32247239956E+03  0.52168965122E+03 -0.23456147698E+03  0.65663356399E+03  0.10100000352E+00 0. -1.
</event>
<event>
 5   0  0.1694675E-03  0.1304367E+04  0.7818609E-02  0.9026109E-01
       -2   -1    0    0    0  501  0.00000000000E+00  0.00000000000E+00  0.35800120062E+03  0.35800120063E+03  0.25500000920E-02 0. -1.
        2   -1    0    0  501    0  0.00000000000E+00  0.00000000000E+00 -0.11881059305E+04  0.11881059305E+04  0.25500000920E-02 0.  1.
    10030    2    1    2    0    0  0.00000000000E+00  0.00000000000E+00 -0.83010472992E+03  0.15461071312E+04  0.13043670490E+04 0.  0.
        4    1    3    3  502    0 -0.32490416248E+03  0.71444125519E+02 -0.10799743890E+04  0.11300501191E+04  0.12699999809E+01 0.  1.
       -4    1    3    3    0  502  0.32490416248E+03 -0.71444125519E+02  0.24986965908E+03  0.41605701208E+03  0.12699999809E+01 0. -1.
</event>
<event>
 5   0  0.1714861E-03  0.1304433E+04  0.7818609E-02  0.9026057E-01
        2   -1    0    0  501    0  0.00000000000E+00  0.00000000000E+00  0.15023698921E+04  0.15023698921E+04  0.25500000920E-02 0. -1.
       -2   -1    0    0    0  501  0.00000000000E+00  0.00000000000E+00 -0.28314359976E+03  0.28314359977E+03  0.25500000920E-02 0.  1.
    10030    2    1    2    0    0  0.00000000000E+00  0.00000000000E+00  0.12192262923E+04  0.17855134918E+04  0.13044330867E+04 0.  0.
        1    1    3    3  502    0  0.21624240343E+03 -0.65849728434E+02 -0.22781031979E+03  0.32092757065E+03  0.50400001928E-02 0.  1.
       -1    1    3    3    0  502 -0.21624240343E+03  0.65849728434E+02  0.14470366121E+04  0.14645859212E+04  0.50400001928E-02 0. -1.
</event>
<event>
 5   0  0.9215829E-04  0.1290180E+04  0.7818609E-02  0.9037389E-01
        1   -1    0    0  501    0  0.00000000000E+00  0.00000000000E+00  0.51857141423E+03  0.51857141426E+03  0.50400001928E-02 0. -1.
       -1   -1    0    0    0  501  0.00000000000E+00  0.00000000000E+00 -0.80247622835E+03  0.80247622836E+03  0.50400001928E-02 0.  1.
    10030    2    1    2    0    0  0.00000000000E+00  0.00000000000E+00 -0.28390481412E+03  0.13210476426E+04  0.12901801931E+04 0.  0.
        3    1    3    3  502    0  0.16912646908E+03 -0.37914836431E+03 -0.64751006077E+03  0.76917262932E+03  0.10100000352E+00 0.  1.
       -3    1    3    3    0  502 -0.16912646908E+03  0.37914836431E+03  0.36360524665E+03  0.55187501329E+03  0.10100000352E+00 0. -1.
</event>
<event>
 5   0  0.9027076E-04  0.1298350E+04  0.7818609E-02  0.9030875E-01
       -1   -1    0    0    0  501  0.00000000000E+00  0.00000000000E+00  0.23057774616E+03  0.23057774622E+03  0.50400001928E-02 0.  1.
        1   -1    0    0  501    0  0.00000000000E+00  0.00000000000E+00 -0.18277055070E+04  0.18277055070E+04  0.50400001928E-02 0. -1.
    10030    2    1    2    0    0  0.00000000000E+00  0.00000000000E+00 -0.15971277608E+04  0.20582832532E+04  0.12983500553E+04 0.  0.
        5    1    3    3  502    0 -0.33809496680E+03 -0.50643588628E+03 -0.11552424694E+04  0.13059068752E+04  0.46999998093E+01 0. -1.
       -5    1    3    3    0  502  0.33809496680E+03  0.50643588628E+03 -0.44188529146E+03  0.75237637808E+03  0.46999998093E+01 0.  1.
</event>
<event>
 5   0  0.9215829E-04  0.1315611E+04  0.7818609E-02  0.9017276E-01
       -1   -1    0    0    0  501  0.00000000000E+00  0.00000000000E+00  0.22727733353E+04  0.22727733353E+04  0.50400001928E-02 0.  1.
        1   -1    0    0  501    0  0.00000000000E+00  0.00000000000E+00 -0.19038773439E+03  0.19038773445E+03  0.50400001928E-02 0. -1.
    10030    2    1    2    0    0  0.00000000000E+00  0.00000000000E+00  0.20823856010E+04  0.24631610698E+04  0.13156111374E+04 0.  0.
        3    1    3    3  502    0  0.74362781454E+02  0.53185329313E+03  0.17524293998E+04  0.18328683969E+04  0.10100000352E+00 0.  1.
       -3    1    3    3    0  502 -0.74362781454E+02 -0.53185329313E+03  0.32995620112E+03  0.63029267292E+03  0.10100000352E+00 0. -1.
</event>
<event>
 5   0  0.9027076E-04  0.1303250E+04  0.7818609E-02  0.9026992E-01
       -1   -1    0    0    0  501  0.00000000000E+00  0.00000000000E+00  0.23379499269E+03  0.23379499275E+03  0.50400001928E-02 0. -1.
        1   -1    0    0  501    0  0.00000000000E+00  0.00000000000E+00 -0.18161868445E+04  0.18161868445E+04  0.50400001928E-02 0.  1.
    10030    2    1    2    0    0  0.00000000000E+00  0.00000000000E+00 -0.15823918518E+04  0.20499818373E+04  0.13032503829E+04 0.  0.
        5    1    3    3  502    0 -0.41008425174E+03 -0.15205196060E+03 -0.31423331607E+02  0.43851842381E+03  0.46999998093E+01 0. -1.
       -5    1    3    3    0  502  0.41008425174E+03  0.15205196060E+03 -0.15509685202E+04  0.16114634135E+04  0.46999998093E+01 0.  1.
</event>
<event>
 5   0  0.1700511E-03  0.1305803E+04  0.7818609E-02  0.9024976E-01
        2   -1    0    0  501    0  0.00000000000E+00  0.00000000000E+00  0.73980045592E+03  0.73980045592E+03  0.25500000920E-02 0. -1.
       -2   -1    0    0    0  501  0.00000000000E+00  0.00000000000E+00 -0.57620967804E+03  0.57620967805E+03  0.25500000920E-02 0.  1.
    10030    2    1    2    0    0  0.00000000000E+00  0.00000000000E+00  0.16359077788E+03  0.13160101340E+04  0.13058027148E+04 0.  0.
        2    1    3    3  502    0  0.10140925356E+01 -0.20656738407E+03 -0.54240796790E+03  0.58041150591E+03  0.25500000920E-02 0.  1.
       -2    1    3    3    0  502 -0.10140925356E+01  0.20656738407E+03  0.70599874578E+03  0.73559862806E+03  0.25500000920E-02 0. -1.
</event>
<event>
 5   0  0.9215829E-04  0.1282137E+04  0.7818609E-02  0.9043852E-01
        1   -1    0    0  501    0  0.00000000000E+00  0.00000000000E+00  0.60156754623E+03  0.60156754625E+03  0.50400001928E-02 0.  1.
       -1   -1    0    0    0  501  0.00000000000E+00  0.00000000000E+00 -0.68316313707E+03  0.68316313709E+03  0.50400001928E-02 0. -1.
    10030    2    1    2    0    0  0.00000000000E+00  0.00000000000E+00 -0.81595590844E+02  0.12847306833E+04  0.12821369226E+04 0.  0.
        3    1    3    3  502    0 -0.19324603252E+03 -0.25480867028E+02  0.57115485144E+03  0.60349911201E+03  0.10100000352E+00 0.  1.
       -3    1    3    3    0  502  0.19324603252E+03  0.25480867028E+02 -0.65275044229E+03  0.68123157133E+03  0.10100000352E+00 0. -1.
</event>
<event>
 5   0  0.1714861E-03  0.1299559E+04  0.7818609E-02  0.9029915E-01
       -2   -1    0    0    0  501  0.00000000000E+00  0.00000000000E+00  0.89786709609E+03  0.89786709609E+03  0.25500000920E-02 0.  1.
        2   -1    0    0  501    0  0.00000000000E+00  0.00000000000E+00 -0.47024052047E+03  0.47024052048E+03  0.25500000920E-02 0. -1.
    10030    2    1    2    0    0  0.00000000000E+00  0.00000000000E+00  0.42762657562E+03  0.13681076166E+04  0.12995591415E+04 0.  0.
        1    1    3    3  502    0  0.55783609007E+03 -0.28708208878E+03  0.35726926720E+02  0.62838972175E+03  0.50400001928E-02 0. -1.
       -1    1    3    3    0  502 -0.55783609007E+03  0.28708208878E+03  0.39189964890E+03  0.73971789482E+03  0.50400001928E-02 0.  1.
</event>
<event>
 5   0  0.1694675E-03  0.1304245E+04  0.7818609E-02  0.9026206E-01
        2   -1    0    0  501    0  0.00000000000E+00  0.00000000000E+00  0.86214955629E+03  0.86214955629E+03  0.25500000920E-02 0. -1.
       -2   -1    0    0    0  501  0.00000000000E+00  0.00000000000E+00 -0.49325985619E+03  0.49325985620E+03  0.25500000920E-02 0.  1.
    10030    2    1    2    0    0  0.00000000000E+00  0.00000000000E+00  0.36888970010E+03  0.13554094125E+04  0.13042450171E+04 0.  0.
        4    1    3    3  502    0  0.54364429317E+03  0.14229373314E+03 -0.15939008577E+03  0.58412621610E+03  0.12699999809E+01 0.  1.
       -4    1    3    3    0  502 -0.54364429317E+03 -0.14229373314E+03  0.52827978586E+03  0.77128319639E+03  0.12699999809E+01 0. -1.
</event>
<event>
 5   0  0.9215829E-04  0.1323697E+04  0.7818609E-02  0.9010981E-01
       -1   -1    0    0    0  501  0.00000000000E+00  0.00000000000E+00  0.43227053100E+03  0.43227053103E+03  0.50400001928E-02 0.  1.
        1   -1    0    0  501    0  0.00000000000E+00  0.00000000000E+00 -0.10133553891E+04  0.10133553891E+04  0.50400001928E-02 0. -1.
    10030    2    1    2    0    0  0.00000000000E+00  0.00000000000E+00 -0.58108485812E+03  0.14456259202E+04  0.13236973554E+04 0.  0.
        3    1    3    3  502    0  0.27044210831E+03 -0.39181648785E+03 -0.79265820262E+03  0.92464378573E+03  0.10100000352E+00 0. -1.
       -3    1    3    3    0  502 -0.27044210831E+03  0.39181648785E+03  0.21157334450E+03  0.52098213444E+03  0.10100000352E+00 0.  1.
</event>
<event>
 5   0  0.1623890E-03  0.1297701E+04  0.7818609E-02  0.9031390E-01
       -2   -1    0    0    0  501  0.00000000000E+00  0.00000000000E+00  0.16154549745E+03  0.16154549747E+03  0.25500000920E-02 0.  1.
        2   -1    0    0  501    0  0.00000000000E+00  0.00000000000E+00 -0.26061210695E+04  0.26061210695E+04  0.25500000920E-02 0. -1.
    10030    2    1    2    0    0  0.00000000000E+00  0.00000000000E+00 -0.24445755721E+04  0.27676665670E+04  0.12977012362E+04 0.  0.
        3    1    3    3  502    0  0.52667950329E+03  0.26277999902E+03 -0.18046581187E+04  0.18982190502E+04  0.10100000352E+00 0. -1.
       -3    1    3    3    0  502 -0.52667950329E+03 -0.26277999902E+03 -0.63991745338E+03  0.86944751676E+03  0.10100000352E+00 0.  1.
</event>
<event>
 5   0  0.1623890E-03  0.1306448E+04  0.7818609E-02  0.9024467E-01
       -2   -1    0    0    0  501  0.00000000000E+00  0.00000000000E+00  0.59737127663E+03  0.59737127664E+03  0.25500000920E-02 0. -1.
        2   -1    0    0  501    0  0.00000000000E+00  0.00000000000E+00 -0.71429876468E+03  0.71429876468E+03  0.25500000920E-02 0.  1.
    10030    2    1    2    0    0  0.00000000000E+00  0.00000000000E+00 -0.11692748805E+03  0.13116700413E+04  0.13064479553E+04 0.  0.
        3    1    3    3  502    0  0.42351258072E+03  0.31209427717E+03  0.33029947743E+03  0.62117911979E+03  0.10100000352E+00 0. -1.
       -3    1    3    3    0  502 -0.42351258072E+03 -0.31209427717E+03 -0.44722696548E+03  0.69049092153E+03  0.10100000352E+00 0.  1.
</event>
<event>
 5   0  0.9110949E-04  0.1290154E+04  0.7818609E-02  0.9037409E-01
       -1   -1    0    0    0  501  0.00000000000E+00  0.00000000000E+00  0.35474064217E+03  0.35474064221E+03  0.50400001928E-02 0. -1.
        1   -1    0    0  501    0  0.00000000000E+00  0.00000000000E+00 -0.11730391288E+04  0.11730391288E+04  0.50400001928E-02 0.  1.
    10030    2    1    2    0    0  0.00000000000E+00  0.00000000000E+00 -0.81829848660E+03  0.15277797710E+04  0.12901544929E+04 0.  0.
        2    1    3    3  502    0  0.36600255900E+03  0.81111123612E+02 -0.10308036314E+04  0.10968559678E+04  0.25500000920E-02 0.  1.
       -2    1    3    3    0  502 -0.36600255900E+03 -0.81111123612E+02  0.21250514482E+03  0.43092380318E+03  0.25500000920E-02 0. -1.
</event>
<event>
 5   0  0.9027076E-04  0.1309368E+04  0.7818609E-02  0.9022169E-01
       -1   -1    0    0    0  501  0.00000000000E+00  0.00000000000E+00  0.38625616337E+03  0.38625616340E+03  0.50400001928E-02 0. -1.
        1   -1    0    0  501    0  0.00000000000E+00  0.00000000000E+00 -0.11096545749E+04  0.11096545750E+04  0.50400001928E-02 0.  1.
    10030    2    1    2    0    0  0.00000000000E+00  0.00000000000E+00 -0.72339841157E+03  0.14959107384E+04  0.13093676624E+04 0.  0.
        5    1    3    3  502    0  0.82858724205E+02 -0.51822367093E+03 -0.80882256878E+03  0.96417704757E+03  0.46999998093E+01 0.  1.
       -5    1    3    3    0  502 -0.82858724205E+02  0.51822367093E+03  0.85424157208E+02  0.53173369079E+03  0.46999998093E+01 0. -1.
</event>
<event>
 5   0  0.9098192E-04  0.1307311E+04  0.7818609E-02  0.9023788E-01
       -1   -1    0    0    0  501  0.00000000000E+00  0.00000000000E+00  0.71641269922E+03  0.71641269924E+03  0.50400001928E-02 0.  1.
        1   -1    0    0  501    0  0.00000000000E+00  0.00000000000E+00 -0.59639542425E+03  0.59639542427E+03  0.50400001928E-02 0. -1.
    10030    2    1    2    0    0  0.00000000000E+00  0.00000000000E+00  0.12001727498E+03  0.13128081235E+04  0.13073106069E+04 0.  0.
        1    1    3    3  502    0 -0.13012137513E+03  0.57182559208E+03 -0.22990799070E+03  0.62989980492E+03  0.50400001928E-02 0. -1.
       -1    1    3    3    0  502  0.13012137513E+03 -0.57182559208E+03  0.34992526568E+03  0.68290831859E+03  0.50400001928E-02 0.  1.
</event>
<event>
 5   0  0.1667342E-03  0.1304798E+04  0.7818609E-02  0.9025769E-01
        2   -1    0    0  501    0  0.00000000000E+00  0.00000000000E+00  0.11738884109E+04  0.11738884109E+04  0.25500000920E-02 0. -1.
       -2   -1    0    0    0  501  0.00000000000E+00  0.00000000000E+00 -0.36257676604E+03  0.36257676605E+03  0.25500000920E-02 0.  1.
    10030    2    1    2    0    0  0.00000000000E+00  0.00000000000E+00  0.81131164488E+03  0.15364651770E+04  0.13047983196E+04 0.  0.
        5    1    3    3  502    0 -0.17650110720E+03  0.33119904447E+03  0.10340275454E+04  0.11000365915E+04  0.46999998093E+01 0. -1.
       -5    1    3    3    0  502  0.17650110720E+03 -0.33119904447E+03 -0.22271590054E+03  0.43642858551E+03  0.46999998093E+01 0.  1.
</event>
<event>
 5   0  0.1623890E-03  0.1307004E+04  0.7818609E-02  0.9024029E-01
        2   -1    0    0  501    0  0.00000000000E+00  0.00000000000E+00  0.90668357600E+03  0.90668357601E+03  0.25500000920E-02 0. -1.
       -2   -1    0    0    0  501  0.00000000000E+00  0.00000000000E+00 -0.47101889758E+03  0.47101889759E+03  0.25500000920E-02 0.  1.
    10030    2    1    2    0    0  0.00000000000E+00  0.00000000000E+00  0.43566467842E+03  0.13777024736E+04  0.13070043587E+04 0.  0.
        3    1    3    3  502    0  0.50510077088E+02  0.44380641557E+03 -0.28499226726E+03  0.52984526513E+03  0.10100000352E+00 0.  1.
       -3    1    3    3    0  502 -0.50510077088E+02 -0.44380641557E+03  0.72065694568E+03  0.84785720846E+03  0.10100000352E+00 0. -1.
</event>
<event>
 5   0  0.1694675E-03  0.1383740E+04  0.7818609E-02  0.8965673E-01
       -2   -1    0    0    0  501  0.00000000000E+00  0.00000000000E+00  0.78278150087E+03  0.78278150087E+03  0.25500000920E-02 0. -1.
        2   -1    0    0  501    0  0.00000000000E+00  0.00000000000E+00 -0.61151678436E+03  0.61151678436E+03  0.25500000920E-02 0.  1.
    10030    2    1    2    0    0  0.00000000000E+00  0.00000000000E+00  0.17126471651E+03  0.13942982852E+04  0.13837398979E+04 0.  0.
        4    1    3    3  502    0 -0.25522224354E+02  0.27324058416E+03  0.72559313565E+03  0.77575692854E+03  0.12699999809E+01 0. -1.
       -4    1    3    3    0  502  0.25522224354E+02 -0.27324058416E+03 -0.55432841915E+03  0.61854135669E+03  0.12699999809E+01 0.  1.
</event>
<event>
 5   0  0.1623890E-03  0.1273690E+04  0.7818609E-02  0.9050693E-01
        2   -1    0    0  501    0  0.00000000000E+00  0.00000000000E+00  0.23318794029E+04  0.23318794029E+04  0.25500000920E-02 0. -1.
       -2   -1    0    0    0  501  0.00000000000E+00  0.00000000000E+00 -0.17392472566E+03  0.17392472567E+03  0.25500000920E-02 0.  1.
    10030    2    1    2    0    0  0.00000000000E+00  0.00000000000E+00  0.21579546773E+04  0.25058041286E+04  0.12736898923E+04 0.  0.
        3    1    3    3  502    0  0.15659262693E+03 -0.12679415637E+02 -0.13520215506E+03  0.20727192604E+03  0.10100000352E+00 0.  1.
       -3    1    3    3    0  502 -0.15659262693E+03  0.12679415637E+02  0.22931568323E+04  0.22985322026E+04  0.10100000352E+00 0. -1.
</event>
<event>
 5   0  0.9027076E-04  0.1290545E+04  0.7818609E-02  0.9037097E-01
       -1   -1    0    0    0  501  0.00000000000E+00  0.00000000000E+00  0.64309324077E+03  0.64309324079E+03  0.50400001928E-02 0. -1.
        1   -1    0    0  501    0  0.00000000000E+00  0.00000000000E+00 -0.64745905453E+03  0.64745905455E+03  0.50400001928E-02 0.  1.
    10030    2    1    2    0    0  0.00000000000E+00  0.00000000000E+00 -0.43658137685E+01  0.12905522953E+04  0.12905449108E+04 0.  0.
        5    1    3    3  502    0 -0.49000037353E+03 -0.17798401093E+03  0.37805048462E+03  0.64398985483E+03  0.46999998093E+01 0. -1.
       -5    1    3    3    0  502  0.49000037353E+03  0.17798401093E+03 -0.38241629839E+03  0.64656244051E+03  0.46999998093E+01 0.  1.
</event>
<event>
 5   0  0.9081324E-04  0.1288797E+04  0.7818609E-02  0.9038497E-01
        1   -1    0    0  501    0  0.00000000000E+00  0.00000000000E+00  0.15458096147E+04  0.15458096147E+04  0.50400001928E-02 0. -1.
       -1   -1    0    0    0  501  0.00000000000E+00  0.00000000000E+00 -0.26862911515E+03  0.26862911520E+03  0.50400001928E-02 0.  1.
    10030    2    1    2    0    0  0.00000000000E+00  0.00000000000E+00  0.12771804995E+04  0.18144387299E+04  0.12887970655E+04 0.  0.
        4    1    3    3  502    0 -0.26026921963E+03 -0.82067343748E+02 -0.18325527080E+03  0.32872362673E+03  0.12699999809E+01 0.  1.
       -4    1    3    3    0  502  0.26026921963E+03  0.82067343748E+02  0.14604357703E+04  0.14857151031E+04  0.12699999809E+01 0. -1.
</event>
<event>
 5   0  0.9027076E-04  0.1286657E+04  0.7818609E-02  0.9040213E-01
        1   -1    0    0  501    0  0.00000000000E+00  0.00000000000E+00  0.49755113676E+03  0.49755113678E+03  0.50400001928E-02 0. -1.
       -1   -1    0    0    0  501  0.00000000000E+00  0.00000000000E+00 -0.83181751897E+03  0.83181751898E+03  0.50400001928E-02 0.  1.
    10030    2    1    2    0    0  0.00000000000E+00  0.00000000000E+00 -0.33426638221E+03  0.13293686558E+04  0.12866573004E+04 0.  0.
        5    1    3    3  502    0  0.59598936036E+03 -0.21542444558E+03 -0.28143401277E+03  0.69342498005E+03  0.46999998093E+01 0.  1.
       -5    1    3    3    0  502 -0.59598936036E+03  0.21542444558E+03 -0.52832369444E+02  0.63594367571E+03  0.46999998093E+01 0. -1.
</event>
<event>
 5   0  0.9081324E-04  0.1313635E+04  0.7818609E-02  0.9018822E-01
        1   -1    0    0  501    0  0.00000000000E+00  0.00000000000E+00  0.78431590641E+03  0.78431590642E+03  0.50400001928E-02 0.  1.
       -1   -1    0    0    0  501  0.00000000000E+00  0.00000000000E+00 -0.55004558485E+03  0.55004558487E+03  0.50400001928E-02 0. -1.
    10030    2    1    2    0    0  0.00000000000E+00  0.00000000000E+00  0.23427032156E+03  0.13343614913E+04  0.13136354159E+04 0.  0.
        4    1    3    3  502    0  0.60694071267E+02 -0.38502400706E+03 -0.41986511656E+03  0.57290102575E+03  0.12699999809E+01 0. -1.
       -4    1    3    3    0  502 -0.60694071267E+02  0.38502400706E+03  0.65413543812E+03  0.76146046555E+03  0.12699999809E+01 0.  1.
</event>
<event>
 5   0  0.1623890E-03  0.1304234E+04  0.7818609E-02  0.9026214E-01
        2   -1    0    0  501    0  0.00000000000E+00  0.00000000000E+00  0.12208361466E+04  0.12208361466E+04  0.25500000920E-02 0. -1.
       -2   -1    0    0    0  501  0.00000000000E+00  0.00000000000E+00 -0.34833225036E+03  0.34833225037E+03  0.25500000920E-02 0.  1.
    10030    2    1    2    0    0  0.00000000000E+00  0.00000000000E+00  0.87250389628E+03  0.15691683970E+04  0.13042340316E+04 0.  0.
        3    1    3    3  502    0 -0.47569451571E+03 -0.13213572255E+03 -0.76333251818E+02  0.49957171356E+03  0.10100000352E+00 0.  1.
       -3    1    3    3    0  502  0.47569451571E+03  0.13213572255E+03  0.94883714809E+03  0.10695966835E+04  0.10100000352E+00 0. -1.
</event>
<event>
 5   0  0.9215829E-04  0.1286172E+04  0.7818609E-02  0.9040604E-01
       -1   -1    0    0    0  501  0.00000000000E+00  0.00000000000E+00  0.20991913049E+03  0.20991913055E+03  0.50400001928E-02 0. -1.
        1   -1    0    0  501    0  0.00000000000E+00  0.00000000000E+00 -0.19700892831E+04  0.19700892831E+04  0.50400001928E-02 0.  1.
    10030    2    1    2    0    0  0.00000000000E+00  0.00000000000E+00 -0.17601701526E+04  0.21800084137E+04  0.12861717294E+04 0.  0.
        3    1    3    3  502    0 -0.19259606643E+03 -0.21458107783E+02 -0.19194221966E+04  0.19291799486E+04  0.10100000352E+00 0.  1.
       -3    1    3    3    0  502  0.19259606643E+03  0.21458107783E+02  0.15925204394E+03  0.25082846508E+03  0.10100000352E+00 0. -1.
</event>
<event>
 5   0  0.6284125E-04  0.1220147E+04  0.7818609E-02  0.9095402E-01
       -4   -1    0    0    0  501  0.00000000000E+00  0.00000000000E+00  0.60673055853E+03  0.60673188770E+03  0.12699999809E+01 0. -1.
        4   -1    0    0  501    0  0.00000000000E+00  0.00000000000E+00 -0.61343213413E+03  0.61343344878E+03  0.12699999809E+01 0.  1.
    10030    2    1    2    0    0  0.00000000000E+00  0.00000000000E+00 -0.67015756022E+01  0.12201653365E+04  0.12201469326E+04 0.  0.
        4    1    3    3  502    0 -0.42187536580E+03 -0.41782195529E+03  0.13677274023E+03  0.60931306072E+03  0.12699999809E+01 0. -1.
       -4    1    3    3    0  502  0.42187536580E+03  0.41782195529E+03 -0.14347431583E+03  0.61085227576E+03  0.12699999809E+01 0.  1.
</event>
<event>
 5   0  0.1623890E-03  0.1264816E+04  0.7818609E-02  0.9057941E-01
       -2   -1    0    0    0  501  0.00000000000E+00  0.00000000000E+00  0.71370510373E+03  0.71370510373E+03  0.25500000920E-02 0.  1.
        2   -1    0    0  501    0  0.00000000000E+00  0.00000000000E+00 -0.56037135297E+03  0.56037135298E+03  0.25500000920E-02 0. -1.
    10030    2    1    2    0    0  0.00000000000E+00  0.00000000000E+00  0.15333375076E+03  0.12740764567E+04  0.12648160255E+04 0.  0.
        3    1    3    3  502    0  0.17902597713E+03 -0.60552734117E+03  0.41393025381E+02  0.63279305791E+03  0.10100000352E+00 0. -1.
       -3    1    3    3    0  502 -0.17902597713E+03  0.60552734117E+03  0.11194072537E+03  0.64128339881E+03  0.10100000352E+00 0.  1.
</event>
<event>
 5   0  0.9215829E-04  0.1258974E+04  0.7818609E-02  0.9062747E-01
        1   -1    0    0  501    0  0.00000000000E+00  0.00000000000E+00  0.17267888702E+04  0.17267888702E+04  0.50400001928E-02 0. -1.
       -1   -1    0    0    0  501  0.00000000000E+00  0.00000000000E+00 -0.22947426854E+03  0.22947426860E+03  0.50400001928E-02 0.  1.
    10030    2    1    2    0    0  0.00000000000E+00  0.00000000000E+00  0.14973146016E+04  0.19562631388E+04  0.12589735708E+04 0.  0.
        3    1    3    3  502    0 -0.28336221168E+03 -0.21576596180E+03  0.15551734893E+04  0.15954352652E+04  0.10100000352E+00 0. -1.
       -3    1    3    3    0  502  0.28336221168E+03  0.21576596180E+03 -0.57858887693E+02  0.36082787360E+03  0.10100000352E+00 0.  1.
</event>
<event>
 5   0  0.1694675E-03  0.1300492E+04  0.7818609E-02  0.9029175E-01
        2   -1    0    0  501    0  0.00000000000E+00  0.00000000000E+00  0.64027414945E+03  0.64027414946E+03  0.25500000920E-02 0. -1.
       -2   -1    0    0    0  501  0.00000000000E+00  0.00000000000E+00 -0.66037363266E+03  0.66037363267E+03  0.25500000920E-02 0.  1.
    10030    2    1    2    0    0  0.00000000000E+00  0.00000000000E+00 -0.20099483213E+02  0.13006477821E+04  0.13004924698E+04 0.  0.
        4    1    3    3  502    0  0.99081187638E+01 -0.25409136396E+03  0.58848472919E+03  0.64107447418E+03  0.12699999809E+01 0. -1.
       -4    1    3    3    0  502 -0.99081187638E+01  0.25409136396E+03 -0.60858421241E+03  0.65957330794E+03  0.12699999809E+01 0.  1.
</event>
<event>
 5   0  0.6284125E-04  0.1424810E+04  0.7818609E-02  0.8936053E-01
       -4   -1    0    0    0  501  0.00000000000E+00  0.00000000000E+00  0.65912767593E+03  0.65912889944E+03  0.12699999809E+01 0.  1.
        4   -1    0    0  501    0  0.00000000000E+00  0.00000000000E+00 -0.76998596912E+03  0.76998701648E+03  0.12699999809E+01 0. -1.
    10030    2    1    2    0    0  0.00000000000E+00  0.00000000000E+00 -0.11085829319E+03  0.14291159159E+04  0.14248097206E+04 0.  0.
        1    1    3    3  502    0  0.42556840247E+03 -0.52697634101E+03  0.16593711448E+03  0.69738630267E+03  0.50400001928E-02 0.  1.
       -1    1    3    3    0  502 -0.42556840247E+03  0.52697634101E+03 -0.27679540768E+03  0.73172961324E+03  0.50400001928E-02 0. -1.
</event>
<event>
 5   0  0.9110949E-04  0.1298339E+04  0.7818609E-02  0.9030883E-01
       -1   -1    0    0    0  501  0.00000000000E+00  0.00000000000E+00  0.33411899261E+03  0.33411899265E+03  0.50400001928E-02 0. -1.
        1   -1    0    0  501    0  0.00000000000E+00  0.00000000000E+00 -0.12612903109E+04  0.12612903109E+04  0.50400001928E-02 0.  1.
    10030    2    1    2    0    0  0.00000000000E+00  0.00000000000E+00 -0.92717131826E+03  0.15954093035E+04  0.12983390129E+04 0.  0.
        2    1    3    3  502    0 -0.62530129429E+03 -0.15976795514E+03 -0.37762582223E+03  0.74774913557E+03  0.25500000920E-02 0. -1.
       -2    1    3    3    0  502  0.62530129429E+03  0.15976795514E+03 -0.54954549602E+03  0.84766016795E+03  0.25500000920E-02 0.  1.
</event>
<event>
 5   0  0.9081324E-04  0.1312169E+04  0.7818609E-02  0.9019970E-01
       -1   -1    0    0    0  501  0.00000000000E+00  0.00000000000E+00  0.31950764413E+03  0.31950764417E+03  0.50400001928E-02 0. -1.
        1   -1    0    0  501    0  0.00000000000E+00  0.00000000000E+00 -0.13472192974E+04  0.13472192974E+04  0.50400001928E-02 0.  1.
    10030    2    1    2    0    0  0.00000000000E+00  0.00000000000E+00 -0.10277116533E+04  0.16667269416E+04  0.13121689889E+04 0.  0.
        4    1    3    3  502    0  0.11977788769E+03  0.53834316442E+02 -0.13303536652E+04  0.13368198695E+04  0.12699999809E+01 0.  1.
       -4    1    3    3    0  502 -0.11977788769E+03 -0.53834316442E+02  0.30264201188E+03  0.32990707216E+03  0.12699999809E+01 0. -1.
</event>
<event>
 5   0  0.9215829E-04  0.1314548E+04  0.7818609E-02  0.9018107E-01
       -1   -1    0    0    0  501  0.00000000000E+00  0.00000000000E+00  0.36000903817E+03  0.36000903821E+03  0.50400001928E-02 0. -1.
        1   -1    0    0  501    0  0.00000000000E+00  0.00000000000E+00 -0.11999949537E+04  0.11999949537E+04  0.50400001928E-02 0.  1.
    10030    2    1    2    0    0  0.00000000000E+00  0.00000000000E+00 -0.83998591556E+03  0.15600039920E+04  0.13145478753E+04 0.  0.
        3    1    3    3  502    0 -0.31932374721E+03 -0.44549241820E+03 -0.85046081242E+03  0.10117878996E+04  0.10100000352E+00 0.  1.
       -3    1    3    3    0  502  0.31932374721E+03  0.44549241820E+03  0.10474896856E+02  0.54821609231E+03  0.10100000352E+00 0. -1.
</event>
<event>
 5   0  0.9027076E-04  0.1226097E+04  0.7818609E-02  0.9090315E-01
        1   -1    0    0  501    0  0.00000000000E+00  0.00000000000E+00  0.91524340924E+03  0.91524340926E+03  0.50400001928E-02 0. -1.
       -1   -1    0    0    0  501  0.00000000000E+00  0.00000000000E+00 -0.41063256852E+03  0.41063256855E+03  0.50400001928E-02 0.  1.
    10030    2    1    2    0    0  0.00000000000E+00  0.00000000000E+00  0.50461084073E+03  0.13258759778E+04  0.12260974708E+04 0.  0.
        5    1    3    3  502    0 -0.56146816876E+03 -0.24507910981E+03  0.22821256472E+03  0.65376856707E+03  0.46999998093E+01 0.  1.
       -5    1    3    3    0  502  0.56146816876E+03  0.24507910981E+03  0.27639827601E+03  0.67210741074E+03  0.46999998093E+01 0. -1.
</event>
<event>
 5   0  0.1623890E-03  0.1290779E+04  0.7818609E-02  0.9036910E-01
        2   -1    0    0  501    0  0.00000000000E+00  0.00000000000E+00  0.99179822273E+03  0.99179822274E+03  0.25500000920E-02 0.  1.
       -2   -1    0    0    0  501  0.00000000000E+00  0.00000000000E+00 -0.41997205296E+03  0.41997205296E+03  0.25500000920E-02 0. -1.
    10030    2    1    2    0    0  0.00000000000E+00  0.00000000000E+00  0.57182616978E+03  0.14117702757E+04  0.12907788900E+04 0.  0.
        3    1    3    3  502    0 -0.46512503874E+03  0.13141365256E+03 -0.18186387785E+03  0.51641584988E+03  0.10100000352E+00 0. -1.
       -3    1    3    3    0  502  0.46512503874E+03 -0.13141365256E+03  0.75369004762E+03  0.89535442582E+03  0.10100000352E+00 0.  1.
</event>
<event>
 5   0  0.9098192E-04  0.1291390E+04  0.7818609E-02  0.9036421E-01
        1   -1    0    0  501    0  0.00000000000E+00  0.00000000000E+00  0.97470425865E+03  0.97470425866E+03  0.50400001928E-02 0. -1.
       -1   -1    0    0    0  501  0.00000000000E+00  0.00000000000E+00 -0.42774219723E+03  0.42774219726E+03  0.50400001928E-02 0.  1.
    10030    2    1    2    0    0  0.00000000000E+00  0.00000000000E+00  0.54696206142E+03  0.14024464559E+04  0.12913901676E+04 0.  0.
        1    1    3    3  502    0 -0.17331780483E+02  0.25517863129E+03 -0.37038416283E+03  0.45011215556E+03  0.50400001928E-02 0.  1.
       -1    1    3    3    0  502  0.17331780483E+02 -0.25517863129E+03  0.91734622425E+03  0.95233430036E+03  0.50400001928E-02 0. -1.
</event>
<event>
 5   0  0.1714861E-03  0.1301313E+04  0.7818609E-02  0.9028525E-01
        2   -1    0    0  501    0  0.00000000000E+00  0.00000000000E+00  0.93178157985E+03  0.93178157985E+03  0.25500000920E-02 0.  1.
       -2   -1    0    0    0  501  0.00000000000E+00  0.00000000000E+00 -0.45434851099E+03  0.45434851099E+03  0.25500000920E-02 0. -1.
    10030    2    1    2    0    0  0.00000000000E+00  0.00000000000E+00  0.47743306886E+03  0.13861300908E+04  0.13013125272E+04 0.  0.
        1    1    3    3  502    0  0.38687978887E+02  0.29520659035E+03  0.85496613203E+03  0.90532357621E+03  0.50400001928E-02 0.  1.
       -1    1    3    3    0  502 -0.38687978887E+02 -0.29520659035E+03 -0.37753306317E+03  0.48080651463E+03  0.50400001928E-02 0. -1.
</event>
<event>
 5   0  0.9215829E-04  0.1296071E+04  0.7818609E-02  0.9032687E-01
        1   -1    0    0  501    0  0.00000000000E+00  0.00000000000E+00  0.48555264307E+03  0.48555264310E+03  0.50400001928E-02 0.  1.
       -1   -1    0    0    0  501  0.00000000000E+00  0.00000000000E+00 -0.86489099693E+03  0.86489099695E+03  0.50400001928E-02 0. -1.
    10030    2    1    2    0    0  0.00000000000E+00  0.00000000000E+00 -0.37933835386E+03  0.13504436400E+04  0.12960711548E+04 0.  0.
        3    1    3    3  502    0  0.43476081091E+03  0.47214368958E+03 -0.96395733755E+02  0.64902139718E+03  0.10100000352E+00 0. -1.
       -3    1    3    3    0  502 -0.43476081091E+03 -0.47214368958E+03 -0.28294262011E+03  0.70142224287E+03  0.10100000352E+00 0.  1.
</event>
<event>
 5   0  0.9110949E-04  0.1299266E+04  0.7818609E-02  0.9030147E-01
       -1   -1    0    0    0  501  0.00000000000E+00  0.00000000000E+00  0.41469334533E+03  0.41469334536E+03  0.50400001928E-02 0. -1.
        1   -1    0    0  501    0  0.00000000000E+00  0.00000000000E+00 -0.10176751795E+04  0.10176751795E+04  0.50400001928E-02 0.  1.
    10030    2    1    2    0    0  0.00000000000E+00  0.00000000000E+00 -0.60298183417E+03  0.14323685249E+04  0.12992661385E+04 0.  0.
        2    1    3    3  502    0  0.35256249099E+03  0.15540694177E+03  0.27513223082E+03  0.47344415937E+03  0.25500000920E-02 0. -1.
       -2    1    3    3    0  502 -0.35256249099E+03 -0.15540694177E+03 -0.87811406500E+03  0.95892436550E+03  0.25500000920E-02 0.  1.
</event>
<event>
 5   0  0.9027076E-04  0.1306289E+04  0.7818609E-02  0.9024593E-01
       -1   -1    0    0    0  501  0.00000000000E+00  0.00000000000E+00  0.35422970991E+03  0.35422970995E+03  0.50400001928E-02 0.  1.
        1   -1    0    0  501    0  0.00000000000E+00  0.00000000000E+00 -0.12042962757E+04  0.12042962757E+04  0.50400001928E-02 0. -1.
    10030    2    1    2    0    0  0.00000000000E+00  0.00000000000E+00 -0.85006656575E+03  0.15585259856E+04  0.13062886670E+04 0.  0.
        5    1    3    3  502    0 -0.32573495561E+02  0.58395637327E+03 -0.77187176288E+03  0.96843904652E+03  0.46999998093E+01 0. -1.
       -5    1    3    3    0  502  0.32573495561E+02 -0.58395637327E+03 -0.78194802870E+02  0.59008693910E+03  0.46999998093E+01 0.  1.
</event>
<event>
 5   0  0.1667342E-03  0.1331959E+04  0.7818609E-02  0.9004599E-01
        2   -1    0    0  501    0  0.00000000000E+00  0.00000000000E+00  0.28235639472E+04  0.28235639472E+04  0.25500000920E-02 0. -1.
       -2   -1    0    0    0  501  0.00000000000E+00  0.00000000000E+00 -0.15708106789E+03  0.15708106791E+03  0.25500000920E-02 0.  1.
    10030    2    1    2    0    0  0.00000000000E+00  0.00000000000E+00  0.26664828793E+04  0.29806450151E+04  0.13319586181E+04 0.  0.
        5    1    3    3  502    0 -0.46142538898E+03 -0.47419703095E+03  0.11638458877E+04  0.13387813690E+04  0.46999998093E+01 0.  1.
       -5    1    3    3    0  502  0.46142538898E+03  0.47419703095E+03  0.15026369917E+04  0.16418636461E+04  0.46999998093E+01 0. -1.
</event>
<event>
 5   0  0.1667342E-03  0.1304242E+04  0.7818609E-02  0.9026208E-01
        2   -1    0    0  501    0  0.00000000000E+00  0.00000000000E+00  0.18601285753E+04  0.18601285753E+04  0.25500000920E-02 0.  1.
       -2   -1    0    0    0  501  0.00000000000E+00  0.00000000000E+00 -0.22861973280E+03  0.22861973281E+03  0.25500000920E-02 0. -1.
    10030    2    1    2    0    0  0.00000000000E+00  0.00000000000E+00  0.16315088425E+04  0.20887483081E+04  0.13042424589E+04 0.  0.
        5    1    3    3  502    0 -0.23061737500E+03 -0.44294927404E+02 -0.15852506971E+03  0.28337025598E+03  0.46999998093E+01 0. -1.
       -5    1    3    3    0  502  0.23061737500E+03  0.44294927404E+02  0.17900339122E+04  0.18053780521E+04  0.46999998093E+01 0.  1.
</event>
<event>
 5   0  0.1667342E-03  0.1269030E+04  0.7818609E-02  0.9054492E-01
        2   -1    0    0  501    0  0.00000000000E+00  0.00000000000E+00  0.25146772428E+04  0.25146772428E+04  0.25500000920E-02 0. -1.
       -2   -1    0    0    0  501  0.00000000000E+00  0.00000000000E+00 -0.16010380345E+03  0.16010380347E+03  0.25500000920E-02 0.  1.
    10030    2    1    2    0    0  0.00000000000E+00  0.00000000000E+00  0.23545734394E+04  0.26747810463E+04  0.12690301668E+04 0.  0.
        5    1    3    3  502    0  0.63152006652E+03 -0.57366416400E+02  0.12234071955E+04  0.13779897519E+04  0.46999998093E+01 0.  1.
       -5    1    3    3    0  502 -0.63152006652E+03  0.57366416400E+02  0.11311662438E+04  0.12967912944E+04  0.46999998093E+01 0. -1.
</event>
<event>
 5   0  0.9081324E-04  0.1081174E+04  0.7818609E-02  0.9223738E-01
       -1   -1    0    0    0  501  0.00000000000E+00  0.00000000000E+00  0.17885080724E+03  0.17885080731E+03  0.50400001928E-02 0. -1.
        1   -1    0    0  501    0  0.00000000000E+00  0.00000000000E+00 -0.16339553929E+04  0.16339553929E+04  0.50400001928E-02 0.  1.
    10030    2    1    2    0    0  0.00000000000E+00  0.00000000000E+00 -0.14551045857E+04  0.18128062002E+04  0.10811738826E+04 0.  0.
        4    1    3    3  502    0 -0.34272207050E+03  0.36372414615E+03 -0.10731276373E+04  0.11837897663E+04  0.12699999809E+01 0.  1.
       -4    1    3    3    0  502  0.34272207050E+03 -0.36372414615E+03 -0.38197694840E+03  0.62901643390E+03  0.12699999809E+01 0. -1.
</event>
<event>
 5   0  0.1700511E-03  0.1348592E+04  0.7818609E-02  0.8991894E-01
       -2   -1    0    0    0  501  0.00000000000E+00  0.00000000000E+00  0.45333235422E+03  0.45333235423E+03  0.25500000920E-02 0. -1.
        2   -1    0    0  501    0  0.00000000000E+00  0.00000000000E+00 -0.10029621839E+04  0.10029621839E+04  0.25500000920E-02 0.  1.
    10030    2    1    2    0    0  0.00000000000E+00  0.00000000000E+00 -0.54962982964E+03  0.14562945381E+04  0.13485921667E+04 0.  0.
        2    1    3    3  502    0  0.25579193909E+03 -0.56823939969E+03  0.33408037150E+01  0.62316666506E+03  0.25500000920E-02 0. -1.
       -2    1    3    3    0  502 -0.25579193909E+03  0.56823939969E+03 -0.55297063336E+03  0.83312787303E+03  0.25500000920E-02 0.  1.
</event>
<event>
 5   0  0.1623890E-03  0.1292761E+04  0.7818609E-02  0.9035325E-01
       -2   -1    0    0    0  501  0.00000000000E+00  0.00000000000E+00  0.23380794474E+03  0.23380794476E+03  0.25500000920E-02 0.  1.
        2   -1    0    0  501    0  0.00000000000E+00  0.00000000000E+00 -0.17869711036E+04  0.17869711036E+04  0.25500000920E-02 0. -1.
    10030    2    1    2    0    0  0.00000000000E+00  0.00000000000E+00 -0.15531631588E+04  0.20207790483E+04  0.12927614491E+04 0.  0.
        3    1    3    3  502    0  0.39375503480E+03 -0.50850289527E+03 -0.67540091038E+03  0.93262244337E+03  0.10100000352E+00 0. -1.
       -3    1    3    3    0  502 -0.39375503480E+03  0.50850289527E+03 -0.87776224843E+03  0.10881566049E+04  0.10100000352E+00 0.  1.
</event>
<event>
 5   0  0.9098192E-04  0.1324096E+04  0.7818609E-02  0.9010672E-01
       -1   -1    0    0    0  501  0.00000000000E+00  0.00000000000E+00  0.85434980927E+03  0.85434980929E+03  0.50400001928E-02 0.  1.
        1   -1    0    0  501    0  0.00000000000E+00  0.00000000000E+00 -0.51303016994E+03  0.51303016997E+03  0.50400001928E-02 0. -1.
    10030    2    1    2    0    0  0.00000000000E+00  0.00000000000E+00  0.34131963933E+03  0.13673799793E+04  0.13240955069E+04 0.  0.
        1    1    3    3  502    0 -0.38874575385E+03  0.43804125627E+03  0.48946477960E+03  0.76326874286E+03  0.50400001928E-02 0.  1.
       -1    1    3    3    0  502  0.38874575385E+03 -0.43804125627E+03 -0.14814514027E+03  0.60411123640E+03  0.50400001928E-02 0. -1.
</event>
<event>
 5   0  0.1623890E-03  0.1293819E+04  0.7818609E-02  0.9034481E-01
        2   -1    0    0  501    0  0.00000000000E+00  0.00000000000E+00  0.12365366777E+04  0.12365366777E+04  0.25500000920E-02 0.  1.
       -2   -1    0    0    0  501  0.00000000000E+00  0.00000000000E+00 -0.33843854839E+03  0.33843854840E+03  0.25500000920E-02 0. -1.
    10030    2    1    2    0    0  0.00000000000E+00  0.00000000000E+00  0.89809812931E+03  0.15749752261E+04  0.12938186554E+04 0.  0.
        3    1    3    3  502    0 -0.14545303412E+03  0.16241633753E+03  0.11904643364E+04  0.12102648464E+04  0.10100000352E+00 0.  1.
       -3    1    3    3    0  502  0.14545303412E+03 -0.16241633753E+03 -0.29236620711E+03  0.36471037974E+03  0.10100000352E+00 0. -1.
</event>
<event>
 5   0  0.9081324E-04  0.1298620E+04  0.7818609E-02  0.9030660E-01
        1   -1    0    0  501    0  0.00000000000E+00  0.00000000000E+00  0.73504593428E+03  0.73504593430E+03  0.50400001928E-02 0. -1.
       -1   -1    0    0    0  501  0.00000000000E+00  0.00000000000E+00 -0.57357471590E+03  0.57357471592E+03  0.50400001928E-02 0.  1.
    10030    2    1    2    0    0  0.00000000000E+00  0.00000000000E+00  0.16147121839E+03  0.13086206502E+04  0.12986204418E+04 0.  0.
        4    1    3    3  502    0 -0.36312593440E+03  0.45211129142E+03 -0.21363906161E+03  0.61798731832E+03  0.12699999809E+01 0.  1.
       -4    1    3    3    0  502  0.36312593440E+03 -0.45211129142E+03  0.37511028000E+03  0.69063333190E+03  0.12699999809E+01 0. -1.
</event>
<event>
 5   0  0.1667342E-03  0.1309888E+04  0.7818609E-02  0.9021761E-01
        2   -1    0    0  501    0  0.00000000000E+00  0.00000000000E+00  0.86717325293E+03  0.86717325293E+03  0.25500000920E-02 0. -1.
       -2   -1    0    0    0  501  0.00000000000E+00  0.00000000000E+00 -0.49465499733E+03  0.49465499733E+03  0.25500000920E-02 0.  1.
    10030    2    1    2    0    0  0.00000000000E+00  0.00000000000E+00  0.37251825560E+03  0.13618282503E+04  0.13098879084E+04 0.  0.
        5    1    3    3  502    0 -0.58718635801E+03  0.23489927698E+03  0.93225987479E+01  0.63251441897E+03  0.46999998093E+01 0.  1.
       -5    1    3    3    0  502  0.58718635801E+03 -0.23489927698E+03  0.36319565685E+03  0.72931383129E+03  0.46999998093E+01 0. -1.
</event>
<event>
 5   0  0.9215829E-04  0.1286651E+04  0.7818609E-02  0.9040219E-01
        1   -1    0    0  501    0  0.00000000000E+00  0.00000000000E+00  0.25083757974E+04  0.25083757974E+04  0.50400001928E-02 0.  1.
       -1   -1    0    0    0  501  0.00000000000E+00  0.00000000000E+00 -0.16499422941E+03  0.16499422948E+03  0.50400001928E-02 0. -1.
    10030    2    1    2    0    0  0.00000000000E+00  0.00000000000E+00  0.23433815680E+04  0.26733700269E+04  0.12866507403E+04 0.  0.
        3    1    3    3  502    0 -0.34833307044E+03 -0.53007387519E+03  0.13950228378E+04  0.15324499892E+04  0.10100000352E+00 0.  1.
       -3    1    3    3    0  502  0.34833307044E+03  0.53007387519E+03  0.94835873015E+03  0.11409200377E+04  0.10100000352E+00 0. -1.
</event>
<event>
 5   0  0.1700511E-03  0.1301474E+04  0.7818609E-02  0.9028397E-01
       -2   -1    0    0    0  501  0.00000000000E+00  0.00000000000E+00  0.59093614410E+03  0.59093614411E+03  0.25500000920E-02 0.  1.
        2   -1    0    0  501    0  0.00000000000E+00  0.00000000000E+00 -0.71658918896E+03  0.71658918897E+03  0.25500000920E-02 0. -1.
    10030    2    1    2    0    0  0.00000000000E+00  0.00000000000E+00 -0.12565304486E+03  0.13075253331E+04  0.13014737066E+04 0.  0.
        2    1    3    3  502    0 -0.54323130277E+03  0.35427038424E+03 -0.11646672106E+03  0.65891748390E+03  0.25500000920E-02 0. -1.
       -2    1    3    3    0  502  0.54323130277E+03 -0.35427038424E+03 -0.91863237969E+01  0.64860784918E+03  0.25500000920E-02 0.  1.
</event>
<event>
 5   0  0.9027076E-04  0.1289503E+04  0.7818609E-02  0.9037931E-01
       -1   -1    0    0    0  501  0.00000000000E+00  0.00000000000E+00  0.35283416114E+03  0.35283416117E+03  0.50400001928E-02 0.  1.
        1   -1    0    0  501    0  0.00000000000E+00  0.00000000000E+00 -0.11781871108E+04  0.11781871108E+04  0.50400001928E-02 0. -1.
    10030    2    1    2    0    0  0.00000000000E+00  0.00000000000E+00 -0.82535294962E+03  0.15310212719E+04  0.12895032546E+04 0.  0.
        5    1    3    3  502    0  0.43000589391E+03 -0.32590298192E+03 -0.83171732282E+03  0.99140991396E+03  0.46999998093E+01 0. -1.
       -5    1    3    3    0  502 -0.43000589391E+03  0.32590298192E+03  0.63643732032E+01  0.53961135798E+03  0.46999998093E+01 0.  1.
</event>
<event>
 5   0  0.9110949E-04  0.1298945E+04  0.7818609E-02  0.9030402E-01
       -1   -1    0    0    0  501  0.00000000000E+00  0.00000000000E+00  0.18995021762E+03  0.18995021768E+03  0.50400001928E-02 0.  1.
        1   -1    0    0  501    0  0.00000000000E+00  0.00000000000E+00 -0.22206589396E+04  0.22206589396E+04  0.50400001928E-02 0. -1.
    10030    2    1    2    0    0  0.00000000000E+00  0.00000000000E+00 -0.20307087220E+04  0.24106091573E+04  0.12989451858E+04 0.  0.
        2    1    3    3  502    0  0.41133944828E+03  0.26203306668E+03 -0.21939732465E+03  0.53478655164E+03  0.25500000920E-02 0.  1.
       -2    1    3    3    0  502 -0.41133944828E+03 -0.26203306668E+03 -0.18113113973E+04  0.18758226056E+04  0.25500000920E-02 0. -1.
</event>
<event>
 5   0  0.9027076E-04  0.1317604E+04  0.7818609E-02  0.9015720E-01
        1   -1    0    0  501    0  0.00000000000E+00  0.00000000000E+00  0.78427326636E+03  0.78427326638E+03  0.50400001928E-02 0.  1.
       -1   -1    0    0    0  501  0.00000000000E+00  0.00000000000E+00 -0.55340454126E+03  0.55340454129E+03  0.50400001928E-02 0. -1.
    10030    2    1    2    0    0  0.00000000000E+00  0.00000000000E+00  0.23086872510E+03  0.13376778077E+04  0.13176044736E+04 0.  0.
        5    1    3    3  502    0  0.53960506834E+03  0.35387252082E+03 -0.19247558656E+02  0.64559426057E+03  0.46999998093E+01 0. -1.
       -5    1    3    3    0  502 -0.53960506834E+03 -0.35387252082E+03  0.25011628376E+03  0.69208354710E+03  0.46999998093E+01 0.  1.
</event>
<event>
 5   0  0.1667342E-03  0.1306847E+04  0.7818609E-02  0.9024153E-01
       -2   -1    0    0    0  501  0.00000000000E+00  0.00000000000E+00  0.25505711557E+03  0.25505711558E+03  0.25500000920E-02 0.  1.
        2   -1    0    0  501    0  0.00000000000E+00  0.00000000000E+00 -0.16739871519E+04  0.16739871519E+04  0.25500000920E-02 0. -1.
    10030    2    1    2    0    0  0.00000000000E+00  0.00000000000E+00 -0.14189300363E+04  0.19290442675E+04  0.13068470981E+04 0.  0.
        5    1    3    3  502    0 -0.33391152728E+03 -0.44764280745E+03 -0.20876432597E+03  0.59622615249E+03  0.46999998093E+01 0.  1.
       -5    1    3    3    0  502  0.33391152728E+03  0.44764280745E+03 -0.12101657103E+04  0.13328181150E+04  0.46999998093E+01 0. -1.
</event>
<event>
 5   0  0.9027076E-04  0.1309819E+04  0.7818609E-02  0.9021814E-01
       -1   -1    0    0    0  501  0.00000000000E+00  0.00000000000E+00  0.33395314372E+03  0.33395314376E+03  0.50400001928E-02 0. -1.
        1   -1    0    0  501    0  0.00000000000E+00  0.00000000000E+00 -0.12843316623E+04  0.12843316623E+04  0.50400001928E-02 0.  1.
    10030    2    1    2    0    0  0.00000000000E+00  0.00000000000E+00 -0.95037851861E+03  0.16182848061E+04  0.13098192185E+04 0.  0.
        5    1    3    3  502    0  0.34722910626E+03 -0.36049598522E+03  0.46595311361E+02  0.50271126965E+03  0.46999998093E+01 0. -1.
       -5    1    3    3    0  502 -0.34722910626E+03  0.36049598522E+03 -0.99697382998E+03  0.11155735365E+04  0.46999998093E+01 0.  1.
</event>
<event>
 5   0  0.1714861E-03  0.1263815E+04  0.7818609E-02  0.9058763E-01
        2   -1    0    0  501    0  0.00000000000E+00  0.00000000000E+00  0.70551147478E+03  0.70551147478E+03  0.25500000920E-02 0.  1.
       -2   -1    0    0    0  501  0.00000000000E+00  0.00000000000E+00 -0.56598243759E+03  0.56598243759E+03  0.25500000920E-02 0. -1.
    10030    2    1    2    0    0  0.00000000000E+00  0.00000000000E+00  0.13952903719E+03  0.12714939124E+04  0.12638150248E+04 0.  0.
        1    1    3    3  502    0  0.29528900500E+03 -0.47177945767E+03 -0.23127864486E+03  0.60271159334E+03  0.50400001928E-02 0.  1.
       -1    1    3    3    0  502 -0.29528900500E+03  0.47177945767E+03  0.37080768205E+03  0.66878231903E+03  0.50400001928E-02 0. -1.
</event>
<event>
 5   0  0.1667342E-03  0.1300765E+04  0.7818609E-02  0.9028958E-01
       -2   -1    0    0    0  501  0.00000000000E+00  0.00000000000E+00  0.29426368802E+03  0.29426368803E+03  0.25500000920E-02 0. -1.
        2   -1    0    0  501    0  0.00000000000E+00  0.00000000000E+00 -0.14374784702E+04  0.14374784702E+04  0.25500000920E-02 0.  1.
    10030    2    1    2    0    0  0.00000000000E+00  0.00000000000E+00 -0.11432147822E+04  0.17317421582E+04  0.13007654917E+04 0.  0.
        5    1    3    3  502    0  0.89846558050E+02  0.10768130606E+03 -0.14170859895E+04  0.14240163129E+04  0.46999998093E+01 0.  1.
       -5    1    3    3    0  502 -0.89846558050E+02 -0.10768130606E+03  0.27387120735E+03  0.30772584533E+03  0.46999998093E+01 0. -1.
</event>
<event>
 5   0  0.1667342E-03  0.1309631E+04  0.7818609E-02  0.9021962E-01
        2   -1    0    0  501    0  0.00000000000E+00  0.00000000000E+00  0.12014113128E+04  0.12014113128E+04  0.25500000920E-02 0.  1.
       -2   -1    0    0    0  501  0.00000000000E+00  0.00000000000E+00 -0.35689994826E+03  0.35689994826E+03  0.25500000920E-02 0. -1.
    10030    2    1    2    0    0  0.00000000000E+00  0.00000000000E+00  0.84451136454E+03  0.15583112611E+04  0.13096314526E+04 0.  0.
        5    1    3    3  502    0 -0.23187818351E+03  0.55986127413E+03  0.71745615549E+03  0.93913660524E+03  0.46999998093E+01 0.  1.
       -5    1    3    3    0  502  0.23187818351E+03 -0.55986127413E+03  0.12705520905E+03  0.61917465582E+03  0.46999998093E+01 0. -1.
</event>
<event>
 5   0  0.9027076E-04  0.1304785E+04  0.7818609E-02  0.9025779E-01
       -1   -1    0    0    0  501  0.00000000000E+00  0.00000000000E+00  0.35683352847E+03  0.35683352850E+03  0.50400001928E-02 0. -1.
        1   -1    0    0  501    0  0.00000000000E+00  0.00000000000E+00 -0.11927580666E+04  0.11927580666E+04  0.50400001928E-02 0.  1.
    10030    2    1    2    0    0  0.00000000000E+00  0.00000000000E+00 -0.83592453812E+03  0.15495915951E+04  0.13047851464E+04 0.  0.
        5    1    3    3  502    0 -0.48926668835E+03 -0.37259738869E+03 -0.15944427528E+03  0.63533870755E+03  0.46999998093E+01 0. -1.
       -5    1    3    3    0  502  0.48926668835E+03  0.37259738869E+03 -0.67648026284E+03  0.91425288755E+03  0.46999998093E+01 0.  1.
</event>
<event>
 5   0  0.9027076E-04  0.1300279E+04  0.7818609E-02  0.9029344E-01
       -1   -1    0    0    0  501  0.00000000000E+00  0.00000000000E+00  0.55232939523E+03  0.55232939526E+03  0.50400001928E-02 0. -1.
        1   -1    0    0  501    0  0.00000000000E+00  0.00000000000E+00 -0.76526990800E+03  0.76526990802E+03  0.50400001928E-02 0.  1.
    10030    2    1    2    0    0  0.00000000000E+00  0.00000000000E+00 -0.21294051277E+03  0.13175993033E+04  0.13002785325E+04 0.  0.
        5    1    3    3  502    0 -0.62170432162E+03  0.62937219726E+02 -0.28825226766E+03  0.68817789630E+03  0.46999998093E+01 0. -1.
       -5    1    3    3    0  502  0.62170432162E+03 -0.62937219726E+02  0.75311754886E+02  0.62942140698E+03  0.46999998093E+01 0.  1.
</event>
<event>
 5   0  0.1667342E-03  0.1316967E+04  0.7818609E-02  0.9016218E-01
        2   -1    0    0  501    0  0.00000000000E+00  0.00000000000E+00  0.75768722370E+03  0.75768722371E+03  0.25500000920E-02 0.  1.
       -2   -1    0    0    0  501  0.00000000000E+00  0.00000000000E+00 -0.57226831534E+03  0.57226831534E+03  0.25500000920E-02 0. -1.
    10030    2    1    2    0    0  0.00000000000E+00  0.00000000000E+00  0.18541890837E+03  0.13299555390E+04  0.13169668045E+04 0.  0.
        5    1    3    3  502    0 -0.13770125334E+03  0.84460544918E+02  0.73734921005E+03  0.75485175126E+03  0.46999998093E+01 0.  1.
       -5    1    3    3    0  502  0.13770125334E+03 -0.84460544918E+02 -0.55193030168E+03  0.57510378779E+03  0.46999998093E+01 0. -1.
</event>
<event>
 5   0  0.9081324E-04  0.1246009E+04  0.7818609E-02  0.9073511E-01
        1   -1    0    0  501    0  0.00000000000E+00  0.00000000000E+00  0.97037288998E+03  0.97037288999E+03  0.50400001928E-02 0. -1.
       -1   -1    0    0    0  501  0.00000000000E+00  0.00000000000E+00 -0.39998519322E+03  0.39998519325E+03  0.50400001928E-02 0.  1.
    10030    2    1    2    0    0  0.00000000000E+00  0.00000000000E+00  0.57038769676E+03  0.13703580832E+04  0.12460092904E+04 0.  0.
        4    1    3    3  502    0  0.24794568379E+03 -0.52863827810E+03  0.46262502862E+02  0.58572802840E+03  0.12699999809E+01 0. -1.
       -4    1    3    3    0  502 -0.24794568379E+03  0.52863827810E+03  0.52412519390E+03  0.78463005484E+03  0.12699999809E+01 0.  1.
</event>
<event>
 5   0  0.1714861E-03  0.1302052E+04  0.7818609E-02  0.9027939E-01
       -2   -1    0    0    0  501  0.00000000000E+00  0.00000000000E+00  0.96534582404E+03  0.96534582404E+03  0.25500000920E-02 0. -1.
        2   -1    0    0  501    0  0.00000000000E+00  0.00000000000E+00 -0.43904990566E+03  0.43904990567E+03  0.25500000920E-02 0.  1.
    10030    2    1    2    0    0  0.00000000000E+00  0.00000000000E+00  0.52629591837E+03  0.14043957297E+04  0.13020522155E+04 0.  0.
        1    1    3    3  502    0 -0.54286473475E+03  0.35617990501E+03  0.31452324237E+03  0.72145070170E+03  0.50400001928E-02 0.  1.
       -1    1    3    3    0  502  0.54286473475E+03 -0.35617990501E+03  0.21177267601E+03  0.68294502802E+03  0.50400001928E-02 0. -1.
</event>
<event>
 5   0  0.9027076E-04  0.1350985E+04  0.7818609E-02  0.8990083E-01
       -1   -1    0    0    0  501  0.00000000000E+00  0.00000000000E+00  0.82160261229E+03  0.82160261230E+03  0.50400001928E-02 0. -1.
        1   -1    0    0  501    0  0.00000000000E+00  0.00000000000E+00 -0.55536594167E+03  0.55536594169E+03  0.50400001928E-02 0.  1.
    10030    2    1    2    0    0  0.00000000000E+00  0.00000000000E+00  0.26623667062E+03  0.13769685540E+04  0.13509849866E+04 0.  0.
        5    1    3    3  502    0  0.51885139763E+03  0.40698162821E+03  0.28231400244E+03  0.71733123764E+03  0.46999998093E+01 0. -1.
       -5    1    3    3    0  502 -0.51885139763E+03 -0.40698162821E+03 -0.16077331815E+02  0.65963731635E+03  0.46999998093E+01 0.  1.
</event>
<event>
 5   0  0.9098192E-04  0.1304114E+04  0.7818609E-02  0.9026309E-01
        1   -1    0    0  501    0  0.00000000000E+00  0.00000000000E+00  0.59749567947E+03  0.59749567949E+03  0.50400001928E-02 0.  1.
       -1   -1    0    0    0  501  0.00000000000E+00  0.00000000000E+00 -0.71160057036E+03  0.71160057037E+03  0.50400001928E-02 0. -1.
    10030    2    1    2    0    0  0.00000000000E+00  0.00000000000E+00 -0.11410489089E+03  0.13090962499E+04  0.13041139004E+04 0.  0.
        1    1    3    3  502    0 -0.52330599946E+03 -0.31687703477E+03 -0.28356480413E+03  0.67429164492E+03  0.50400001928E-02 0. -1.
       -1    1    3    3    0  502  0.52330599946E+03  0.31687703477E+03  0.16945991325E+03  0.63480460495E+03  0.50400001928E-02 0.  1.
</event>
<event>
 5   0  0.9098192E-04  0.1260230E+04  0.7818609E-02  0.9061712E-01
       -1   -1    0    0    0  501  0.00000000000E+00  0.00000000000E+00  0.61931302531E+03  0.61931302533E+03  0.50400001928E-02 0.  1.
        1   -1    0    0  501    0  0.00000000000E+00  0.00000000000E+00 -0.64110533764E+03  0.64110533766E+03  0.50400001928E-02 0. -1.
    10030    2    1    2    0    0  0.00000000000E+00  0.00000000000E+00 -0.21792312338E+02  0.12604183630E+04  0.12602299571E+04 0.  0.
        1    1    3    3  502    0 -0.25774658389E+03  0.57202063440E+03 -0.69248503076E+02  0.63121807870E+03  0.50400001928E-02 0. -1.
       -1    1    3    3    0  502  0.25774658389E+03 -0.57202063440E+03  0.47456190738E+02  0.62920028429E+03  0.50400001928E-02 0.  1.
</event>
<event>
 5   0  0.9081324E-04  0.1275847E+04  0.7818609E-02  0.9048941E-01
        1   -1    0    0  501    0  0.00000000000E+00  0.00000000000E+00  0.43078286752E+03  0.43078286755E+03  0.50400001928E-02 0.  1.
       -1   -1    0    0    0  501  0.00000000000E+00  0.00000000000E+00 -0.94466764632E+03  0.94466764633E+03  0.50400001928E-02 0. -1.
    10030    2    1    2    0    0  0.00000000000E+00  0.00000000000E+00 -0.51388477879E+03  0.13754505139E+04  0.12758473852E+04 0.  0.
        4    1    3    3  502    0 -0.45509958651E+03 -0.38009616204E+02  0.22323342971E+03  0.50832582229E+03  0.12699999809E+01 0.  1.
       -4    1    3    3    0  502  0.45509958651E+03  0.38009616204E+02 -0.73711820850E+03  0.86712469159E+03  0.12699999809E+01 0. -1.
</event>
<event>
 5   0  0.1694675E-03  0.1265136E+04  0.7818609E-02  0.9057679E-01
        2   -1    0    0  501    0  0.00000000000E+00  0.00000000000E+00  0.16750136155E+04  0.16750136155E+04  0.25500000920E-02 0. -1.
       -2   -1    0    0    0  501  0.00000000000E+00  0.00000000000E+00 -0.23888897851E+03  0.23888897852E+03  0.25500000920E-02 0.  1.
    10030    2    1    2    0    0  0.00000000000E+00  0.00000000000E+00  0.14361246370E+04  0.19139025940E+04  0.12651360269E+04 0.  0.
        4    1    3    3  502    0  0.36736072094E+02  0.63104683634E+03  0.75421263440E+03  0.98407721213E+03  0.12699999809E+01 0.  1.
       -4    1    3    3    0  502 -0.36736072094E+02 -0.63104683634E+03  0.68191200259E+03  0.92982538190E+03  0.12699999809E+01 0. -1.
</event>
<event>
 5   0  0.1623890E-03  0.1342462E+04  0.7818609E-02  0.8996554E-01
       -2   -1    0    0    0  501  0.00000000000E+00  0.00000000000E+00  0.32378106475E+03  0.32378106476E+03  0.25500000920E-02 0.  1.
        2   -1    0    0  501    0  0.00000000000E+00  0.00000000000E+00 -0.13915299072E+04  0.13915299072E+04  0.25500000920E-02 0. -1.
    10030    2    1    2    0    0  0.00000000000E+00  0.00000000000E+00 -0.10677488425E+04  0.17153109720E+04  0.13424619697E+04 0.  0.
        3    1    3    3  502    0 -0.60803163750E+03 -0.26525335492E+03 -0.66473603469E+03  0.93911438095E+03  0.10100000352E+00 0.  1.
       -3    1    3    3    0  502  0.60803163750E+03  0.26525335492E+03 -0.40301280780E+03  0.77619659105E+03  0.10100000352E+00 0. -1.
</event>
<event>
 5   0  0.9081324E-04  0.1304205E+04  0.7818609E-02  0.9026237E-01
        1   -1    0    0  501    0  0.00000000000E+00  0.00000000000E+00  0.45165797848E+03  0.45165797850E+03  0.50400001928E-02 0.  1.
       -1   -1    0    0    0  501  0.00000000000E+00  0.00000000000E+00 -0.94150427821E+03  0.94150427822E+03  0.50400001928E-02 0. -1.
    10030    2    1    2    0    0  0.00000000000E+00  0.00000000000E+00 -0.48984629973E+03  0.13931622567E+04  0.13042053811E+04 0.  0.
        4    1    3    3  502    0  0.11217746576E+03  0.18237589305E+03  0.41303692702E+03  0.46523742990E+03  0.12699999809E+01 0.  1.
       -4    1    3    3    0  502 -0.11217746576E+03 -0.18237589305E+03 -0.90288322676E+03  0.92792482683E+03  0.12699999809E+01 0. -1.
</event>
<event>
 5   0  0.1667342E-03  0.1358161E+04  0.7818609E-02  0.8984673E-01
        2   -1    0    0  501    0  0.00000000000E+00  0.00000000000E+00  0.16577530705E+04  0.16577530705E+04  0.25500000920E-02 0.  1.
       -2   -1    0    0    0  501  0.00000000000E+00  0.00000000000E+00 -0.27817813628E+03  0.27817813629E+03  0.25500000920E-02 0. -1.
    10030    2    1    2    0    0  0.00000000000E+00  0.00000000000E+00  0.13795749342E+04  0.19359312068E+04  0.13581614920E+04 0.  0.
        5    1    3    3  502    0  0.65421040277E+03  0.53612132199E+02  0.93775505152E+03  0.11446711923E+04  0.46999998093E+01 0.  1.
       -5    1    3    3    0  502 -0.65421040277E+03 -0.53612132199E+02  0.44181988272E+03  0.79126001452E+03  0.46999998093E+01 0. -1.
</event>
<event>
 5   0  0.1623890E-03  0.1312799E+04  0.7818609E-02  0.9019476E-01
        2   -1    0    0  501    0  0.00000000000E+00  0.00000000000E+00  0.98595871520E+03  0.98595871520E+03  0.25500000920E-02 0. -1.
       -2   -1    0    0    0  501  0.00000000000E+00  0.00000000000E+00 -0.43699645028E+03  0.43699645028E+03  0.25500000920E-02 0.  1.
    10030    2    1    2    0    0  0.00000000000E+00  0.00000000000E+00  0.54896226492E+03  0.14229551655E+04  0.13127992362E+04 0.  0.
        3    1    3    3  502    0  0.44229805896E+03 -0.39994542933E+03  0.57186862158E+03  0.82620678402E+03  0.10100000352E+00 0. -1.
       -3    1    3    3    0  502 -0.44229805896E+03  0.39994542933E+03 -0.22906356666E+02  0.59674838146E+03  0.10100000352E+00 0.  1.
</event>
<event>
 5   0  0.1694675E-03  0.1303861E+04  0.7818609E-02  0.9026509E-01
       -2   -1    0    0    0  501  0.00000000000E+00  0.00000000000E+00  0.32881325378E+03  0.32881325379E+03  0.25500000920E-02 0. -1.
        2   -1    0    0  501    0  0.00000000000E+00  0.00000000000E+00 -0.12925682138E+04  0.12925682138E+04  0.25500000920E-02 0.  1.
    10030    2    1    2    0    0  0.00000000000E+00  0.00000000000E+00 -0.96375495999E+03  0.16213814676E+04  0.13038612811E+04 0.  0.
        4    1    3    3  502    0  0.39370053593E+03 -0.42844932580E+02  0.16208993014E+03  0.42791419537E+03  0.12699999809E+01 0. -1.
       -4    1    3    3    0  502 -0.39370053593E+03  0.42844932580E+02 -0.11258448901E+04  0.11934672722E+04  0.12699999809E+01 0.  1.
</event>
<event>
 5   0  0.1700511E-03  0.1300045E+04  0.7818609E-02  0.9029530E-01
        2   -1    0    0  501    0  0.00000000000E+00  0.00000000000E+00  0.64186760774E+03  0.64186760774E+03  0.25500000920E-02 0. -1.
       -2   -1    0    0    0  501  0.00000000000E+00  0.00000000000E+00 -0.65828071121E+03  0.65828071122E+03  0.25500000920E-02 0.  1.
    10030    2    1    2    0    0  0.00000000000E+00  0.00000000000E+00 -0.16413103479E+02  0.13001483190E+04  0.13000447151E+04 0.  0.
        2    1    3    3  502    0 -0.36110061703E+03  0.13038024838E+03  0.51636971050E+03  0.64345189620E+03  0.25500000920E-02 0. -1.
       -2    1    3    3    0  502  0.36110061703E+03 -0.13038024838E+03 -0.53278281398E+03  0.65669642276E+03  0.25500000920E-02 0.  1.
</event>
<event>
 5   0  0.1700511E-03  0.1287472E+04  0.7818609E-02  0.9039559E-01
        2   -1    0    0  501    0  0.00000000000E+00  0.00000000000E+00  0.52202555318E+03  0.52202555319E+03  0.25500000920E-02 0. -1.
       -2   -1    0    0    0  501  0.00000000000E+00  0.00000000000E+00 -0.79382333288E+03  0.79382333289E+03  0.25500000920E-02 0.  1.
    10030    2    1    2    0    0  0.00000000000E+00  0.00000000000E+00 -0.27179777970E+03  0.13158488861E+04  0.12874720416E+04 0.  0.
        2    1    3    3  502    0  0.19892429955E+03  0.17356418481E+03 -0.73595141631E+03  0.78186948424E+03  0.25500000920E-02 0.  1.
       -2    1    3    3    0  502 -0.19892429955E+03 -0.17356418481E+03  0.46415363661E+03  0.53397940184E+03  0.25500000920E-02 0. -1.
</event>
<event>
 5   0  0.1700511E-03  0.1288976E+04  0.7818609E-02  0.9038353E-01
        2   -1    0    0  501    0  0.00000000000E+00  0.00000000000E+00  0.12000658072E+04  0.12000658072E+04  0.25500000920E-02 0. -1.
       -2   -1    0    0    0  501  0.00000000000E+00  0.00000000000E+00 -0.34611852117E+03  0.34611852118E+03  0.25500000920E-02 0.  1.
    10030    2    1    2    0    0  0.00000000000E+00  0.00000000000E+00  0.85394728598E+03  0.15461843283E+04  0.12889763419E+04 0.  0.
        2    1    3    3  502    0 -0.22501070328E+03  0.18365756575E+02  0.11510831417E+04  0.11730130079E+04  0.25500000920E-02 0. -1.
       -2    1    3    3    0  502  0.22501070328E+03 -0.18365756575E+02 -0.29713585574E+03  0.37317132041E+03  0.25500000920E-02 0.  1.
</event>
<event>
 5   0  0.1623890E-03  0.1259698E+04  0.7818609E-02  0.9062150E-01
       -2   -1    0    0    0  501  0.00000000000E+00  0.00000000000E+00  0.47965512045E+03  0.47965512046E+03  0.25500000920E-02 0. -1.
        2   -1    0    0  501    0  0.00000000000E+00  0.00000000000E+00 -0.82707321103E+03  0.82707321104E+03  0.25500000920E-02 0.  1.
    10030    2    1    2    0    0  0.00000000000E+00  0.00000000000E+00 -0.34741809058E+03  0.13067283315E+04  0.12596982189E+04 0.  0.
        3    1    3    3  502    0 -0.20230798748E+03  0.14392060879E+03  0.42675279892E+03  0.49372018899E+03  0.10100000352E+00 0. -1.
       -3    1    3    3    0  502  0.20230798748E+03 -0.14392060879E+03 -0.77417088950E+03  0.81300814251E+03  0.10100000352E+00 0.  1.
</event>
<event>
 5   0  0.1694675E-03  0.1290976E+04  0.7818609E-02  0.9036752E-01
        2   -1    0    0  501    0  0.00000000000E+00  0.00000000000E+00  0.14656923374E+04  0.14656923374E+04  0.25500000920E-02 0.  1.
       -2   -1    0    0    0  501  0.00000000000E+00  0.00000000000E+00 -0.28427150042E+03  0.28427150043E+03  0.25500000920E-02 0. -1.
    10030    2    1    2    0    0  0.00000000000E+00  0.00000000000E+00  0.11814208369E+04  0.17499638378E+04  0.12909756929E+04 0.  0.
        4    1    3    3  502    0 -0.61031817509E+03 -0.51059161895E+02  0.31437508663E+03  0.68842473870E+03  0.12699999809E+01 0. -1.
       -4    1    3    3    0  502  0.61031817509E+03  0.51059161895E+02  0.86704575030E+03  0.10615390991E+04  0.12699999809E+01 0.  1.
</event>
<event>
 5   0  0.1714861E-03  0.1297562E+04  0.7818609E-02  0.9031501E-01
       -2   -1    0    0    0  501  0.00000000000E+00  0.00000000000E+00  0.57148152748E+03  0.57148152749E+03  0.25500000920E-02 0. -1.
        2   -1    0    0  501    0  0.00000000000E+00  0.00000000000E+00 -0.73653576362E+03  0.73653576363E+03  0.25500000920E-02 0.  1.
    10030    2    1    2    0    0  0.00000000000E+00  0.00000000000E+00 -0.16505423614E+03  0.13080172911E+04  0.12975616875E+04 0.  0.
        1    1    3    3  502    0  0.41291760407E+02 -0.53648136285E+03 -0.44793846729E+03  0.70011865613E+03  0.50400001928E-02 0.  1.
       -1    1    3    3    0  502 -0.41291760407E+02  0.53648136285E+03  0.28288423115E+03  0.60789863499E+03  0.50400001928E-02 0. -1.
</event>
<event>
 5   0  0.9098192E-04  0.1150405E+04  0.7818609E-02  0.9157410E-01
       -1   -1    0    0    0  501  0.00000000000E+00  0.00000000000E+00  0.19598724845E+04  0.19598724845E+04  0.50400001928E-02 0. -1.
        1   -1    0    0  501    0  0.00000000000E+00  0.00000000000E+00 -0.16881618189E+03  0.16881618197E+03  0.50400001928E-02 0.  1.
    10030    2    1    2    0    0  0.00000000000E+00  0.00000000000E+00  0.17910563026E+04  0.21286886665E+04  0.11504054762E+04 0.  0.
        1    1    3    3  502    0  0.61143158508E+02  0.46807855981E+03  0.28736843740E+03  0.55264513282E+03  0.50400001928E-02 0.  1.
       -1    1    3    3    0  502 -0.61143158508E+02 -0.46807855981E+03  0.15036878652E+04  0.15760435337E+04  0.50400001928E-02 0. -1.
</event>
<event>
 5   0  0.9215829E-04  0.1269350E+04  0.7818609E-02  0.9054230E-01
        1   -1    0    0  501    0  0.00000000000E+00  0.00000000000E+00  0.17768597333E+04  0.17768597333E+04  0.50400001928E-02 0.  1.
       -1   -1    0    0    0  501  0.00000000000E+00  0.00000000000E+00 -0.22669912257E+03  0.22669912263E+03  0.50400001928E-02 0. -1.
    10030    2    1    2    0    0  0.00000000000E+00  0.00000000000E+00  0.15501606108E+04  0.20035588560E+04  0.12693502945E+04 0.  0.
        3    1    3    3  502    0  0.22365457584E+03  0.15013177688E+03 -0.13199447021E+03  0.29997244889E+03  0.10100000352E+00 0. -1.
       -3    1    3    3    0  502 -0.22365457584E+03 -0.15013177688E+03  0.16821550810E+04  0.17035864071E+04  0.10100000352E+00 0.  1.
</event>
<event>
 5   0  0.9098192E-04  0.1301635E+04  0.7818609E-02  0.9028269E-01
       -1   -1    0    0    0  501  0.00000000000E+00  0.00000000000E+00  0.17670993628E+03  0.17670993635E+03  0.50400001928E-02 0. -1.
        1   -1    0    0  501    0  0.00000000000E+00  0.00000000000E+00 -0.23969432033E+04  0.23969432033E+04  0.50400001928E-02 0.  1.
    10030    2    1    2    0    0  0.00000000000E+00  0.00000000000E+00 -0.22202332670E+04  0.25736531397E+04  0.13016354034E+04 0.  0.
        1    1    3    3  502    0  0.64484447852E+03  0.73089219122E+02 -0.12069258949E+04  0.13703417644E+04  0.50400001928E-02 0. -1.
       -1    1    3    3    0  502 -0.64484447852E+03 -0.73089219122E+02 -0.10133073721E+04  0.12033113753E+04  0.50400001928E-02 0.  1.
</event>
<event>
 5   0  0.1694675E-03  0.1106034E+04  0.7818609E-02  0.9199331E-01
        2   -1    0    0  501    0  0.00000000000E+00  0.00000000000E+00  0.90955503222E+03  0.90955503222E+03  0.25500000920E-02 0.  1.
       -2   -1    0    0    0  501  0.00000000000E+00  0.00000000000E+00 -0.33623866551E+03  0.33623866552E+03  0.25500000920E-02 0. -1.
    10030    2    1    2    0    0  0.00000000000E+00  0.00000000000E+00  0.57331636671E+03  0.12457936977E+04  0.11060335804E+04 0.  0.
        4    1    3    3  502    0 -0.95000067614E+02  0.18272193317E+02  0.89994841638E+03  0.90513405137E+03  0.12699999809E+01 0.  1.
       -4    1    3    3    0  502  0.95000067614E+02 -0.18272193317E+02 -0.32663204967E+03  0.34065964637E+03  0.12699999809E+01 0. -1.
</event>
<event>
 5   0  0.1700511E-03  0.1311932E+04  0.7818609E-02  0.9020157E-01
       -2   -1    0    0    0  501  0.00000000000E+00  0.00000000000E+00  0.30861958213E+03  0.30861958214E+03  0.25500000920E-02 0.  1.
        2   -1    0    0  501    0  0.00000000000E+00  0.00000000000E+00 -0.13942442366E+04  0.13942442366E+04  0.25500000920E-02 0. -1.
    10030    2    1    2    0    0  0.00000000000E+00  0.00000000000E+00 -0.10856246545E+04  0.17028638188E+04  0.13119315130E+04 0.  0.
        2    1    3    3  502    0  0.49800404676E+03 -0.42506936195E+03 -0.59471669867E+03  0.88452243880E+03  0.25500000920E-02 0. -1.
       -2    1    3    3    0  502 -0.49800404676E+03  0.42506936195E+03 -0.49090795581E+03  0.81834137995E+03  0.25500000920E-02 0.  1.
</event>
<event>
 5   0  0.1700511E-03  0.1308814E+04  0.7818609E-02  0.9022605E-01
       -2   -1    0    0    0  501  0.00000000000E+00  0.00000000000E+00  0.46032095829E+03  0.46032095830E+03  0.25500000920E-02 0. -1.
        2   -1    0    0  501    0  0.00000000000E+00  0.00000000000E+00 -0.93032578495E+03  0.93032578495E+03  0.25500000920E-02 0.  1.
    10030    2    1    2    0    0  0.00000000000E+00  0.00000000000E+00 -0.47000482666E+03  0.13906467432E+04  0.13088139010E+04 0.  0.
        2    1    3    3  502    0  0.16641438037E+03  0.61573390485E+03 -0.79472392483E+02  0.64275800170E+03  0.25500000920E-02 0. -1.
       -2    1    3    3    0  502 -0.16641438037E+03 -0.61573390485E+03 -0.39053243418E+03  0.74788874155E+03  0.25500000920E-02 0.  1.
</event>
<event>
 5   0  0.1714861E-03  0.1253279E+04  0.7818609E-02  0.9067458E-01
        2   -1    0    0  501    0  0.00000000000E+00  0.00000000000E+00  0.12847575598E+04  0.12847575598E+04  0.25500000920E-02 0.  1.
       -2   -1    0    0    0  501  0.00000000000E+00  0.00000000000E+00 -0.30564300738E+03  0.30564300739E+03  0.25500000920E-02 0. -1.
    10030    2    1    2    0    0  0.00000000000E+00  0.00000000000E+00  0.97911455238E+03  0.15904005671E+04  0.12532791618E+04 0.  0.
        1    1    3    3  502    0 -0.51910925858E+03  0.34993800661E+03  0.52422034188E+03  0.81654026090E+03  0.50400001928E-02 0.  1.
       -1    1    3    3    0  502  0.51910925858E+03 -0.34993800661E+03  0.45489421050E+03  0.77386030624E+03  0.50400001928E-02 0. -1.
</event>
<event>
 5   0  0.1667342E-03  0.1304086E+04  0.7818609E-02  0.9026331E-01
       -2   -1    0    0    0  501  0.00000000000E+00  0.00000000000E+00  0.39532400646E+03  0.39532400646E+03  0.25500000920E-02 0. -1.
        2   -1    0    0  501    0  0.00000000000E+00  0.00000000000E+00 -0.10754718862E+04  0.10754718862E+04  0.25500000920E-02 0.  1.
    10030    2    1    2    0    0  0.00000000000E+00  0.00000000000E+00 -0.68014787971E+03  0.14707958926E+04  0.13040856642E+04 0.  0.
        5    1    3    3  502    0  0.15373588082E+03 -0.32431881918E+03 -0.95401548756E+03  0.10193061650E+04  0.46999998093E+01 0.  1.
       -5    1    3    3    0  502 -0.15373588082E+03  0.32431881918E+03  0.27386760785E+03  0.45148972763E+03  0.46999998093E+01 0. -1.
</event>
<event>
 5   0  0.9110949E-04  0.1301801E+04  0.7818609E-02  0.9028139E-01
       -1   -1    0    0    0  501  0.00000000000E+00  0.00000000000E+00  0.38699422289E+03  0.38699422293E+03  0.50400001928E-02 0.  1.
        1   -1    0    0  501    0  0.00000000000E+00  0.00000000000E+00 -0.10947738665E+04  0.10947738665E+04  0.50400001928E-02 0. -1.
    10030    2    1    2    0    0  0.00000000000E+00  0.00000000000E+00 -0.70777964359E+03  0.14817680894E+04  0.13018005404E+04 0.  0.
        2    1    3    3  502    0 -0.15630564140E+03  0.30771606599E+03  0.27426322526E+03  0.44084118177E+03  0.25500000920E-02 0.  1.
       -2    1    3    3    0  502  0.15630564140E+03 -0.30771606599E+03 -0.98204286885E+03  0.10409269077E+04  0.25500000920E-02 0. -1.
</event>
<event>
 5   0  0.9215829E-04  0.1275366E+04  0.7818609E-02  0.9049331E-01
       -1   -1    0    0    0  501  0.00000000000E+00  0.00000000000E+00  0.43133245342E+03  0.43133245345E+03  0.50400001928E-02 0. -1.
        1   -1    0    0  501    0  0.00000000000E+00  0.00000000000E+00 -0.94275284471E+03  0.94275284473E+03  0.50400001928E-02 0.  1.
    10030    2    1    2    0    0  0.00000000000E+00  0.00000000000E+00 -0.51142039129E+03  0.13740852982E+04  0.12753664532E+04 0.  0.
        3    1    3    3  502    0 -0.20611871915E+03  0.20182630278E+03  0.35701096842E+03  0.45899414446E+03  0.10100000352E+00 0. -1.
       -3    1    3    3    0  502  0.20611871915E+03 -0.20182630278E+03 -0.86843135971E+03  0.91509115372E+03  0.10100000352E+00 0.  1.
</event>
<event>
 5   0  0.9098192E-04  0.1327461E+04  0.7818609E-02  0.9008068E-01
       -1   -1    0    0    0  501  0.00000000000E+00  0.00000000000E+00  0.40165076784E+03  0.40165076787E+03  0.50400001928E-02 0.  1.
        1   -1    0    0  501    0  0.00000000000E+00  0.00000000000E+00 -0.10968185129E+04  0.10968185129E+04  0.50400001928E-02 0. -1.
    10030    2    1    2    0    0  0.00000000000E+00  0.00000000000E+00 -0.69516774502E+03  0.14984692807E+04  0.13274607307E+04 0.  0.
        1    1    3    3  502    0  0.36178788698E+03  0.44529737408E+03  0.29108153472E+02  0.57448020954E+03  0.50400001928E-02 0.  1.
       -1    1    3    3    0  502 -0.36178788698E+03 -0.44529737408E+03 -0.72427589849E+03  0.92398907119E+03  0.50400001928E-02 0. -1.
</event>
<event>
 5   0  0.9110949E-04  0.1300286E+04  0.7818609E-02  0.9029339E-01
        1   -1    0    0  501    0  0.00000000000E+00  0.00000000000E+00  0.94194057925E+03  0.94194057926E+03  0.50400001928E-02 0. -1.
       -1   -1    0    0    0  501  0.00000000000E+00  0.00000000000E+00 -0.44873924664E+03  0.44873924667E+03  0.50400001928E-02 0.  1.
    10030    2    1    2    0    0  0.00000000000E+00  0.00000000000E+00  0.49320133261E+03  0.13906798259E+04  0.13002856701E+04 0.  0.
        2    1    3    3  502    0  0.41364152209E+03  0.22309105401E+03  0.72707148186E+03  0.86573775875E+03  0.25500000920E-02 0. -1.
       -2    1    3    3    0  502 -0.41364152209E+03 -0.22309105401E+03 -0.23387014925E+03  0.52494206718E+03  0.25500000920E-02 0.  1.
</event>
<event>
 5   0  0.1623890E-03  0.1300483E+04  0.7818609E-02  0.9029182E-01
        2   -1    0    0  501    0  0.00000000000E+00  0.00000000000E+00  0.69870642526E+03  0.69870642526E+03  0.25500000920E-02 0.  1.
       -2   -1    0    0    0  501  0.00000000000E+00  0.00000000000E+00 -0.60513801249E+03  0.60513801250E+03  0.25500000920E-02 0. -1.
    10030    2    1    2    0    0  0.00000000000E+00  0.00000000000E+00  0.93568412763E+02  0.13038444378E+04  0.13004827065E+04 0.  0.
        3    1    3    3  502    0  0.20247361101E+03  0.19845496740E+02  0.66597634423E+03  0.69635760078E+03  0.10100000352E+00 0.  1.
       -3    1    3    3    0  502 -0.20247361101E+03 -0.19845496740E+02 -0.57240793146E+03  0.60748683698E+03  0.10100000352E+00 0. -1.
</event>
<event>
 5   0  0.9110949E-04  0.1300936E+04  0.7818609E-02  0.9028823E-01
       -1   -1    0    0    0  501  0.00000000000E+00  0.00000000000E+00  0.20454875241E+03  0.20454875247E+03  0.50400001928E-02 0. -1.
        1   -1    0    0  501    0  0.00000000000E+00  0.00000000000E+00 -0.20684982534E+04  0.20684982534E+04  0.50400001928E-02 0.  1.
    10030    2    1    2    0    0  0.00000000000E+00  0.00000000000E+00 -0.18639495010E+04  0.22730470059E+04  0.13009361816E+04 0.  0.
        2    1    3    3  502    0 -0.16342652009E+02 -0.26633503807E+02  0.20323659346E+03  0.20562475222E+03  0.25500000920E-02 0. -1.
       -2    1    3    3    0  502  0.16342652009E+02  0.26633503807E+02 -0.20671860944E+04  0.20674222536E+04  0.25500000920E-02 0.  1.
</event>
<event>
 5   0  0.1667342E-03  0.1278642E+04  0.7818609E-02  0.9046676E-01
       -2   -1    0    0    0  501  0.00000000000E+00  0.00000000000E+00  0.40822081950E+03  0.40822081951E+03  0.25500000920E-02 0.  1.
        2   -1    0    0  501    0  0.00000000000E+00  0.00000000000E+00 -0.10012506013E+04  0.10012506013E+04  0.25500000920E-02 0. -1.
    10030    2    1    2    0    0  0.00000000000E+00  0.00000000000E+00 -0.59302978184E+03  0.14094714209E+04  0.12786420000E+04 0.  0.
        5    1    3    3  502    0 -0.48865012882E+03 -0.28798348546E+03 -0.62164447495E+03  0.84153275607E+03  0.46999998093E+01 0. -1.
       -5    1    3    3    0  502  0.48865012882E+03  0.28798348546E+03  0.28614693119E+02  0.56793866478E+03  0.46999998093E+01 0.  1.
</event>
<event>
 5   0  0.1714861E-03  0.1176623E+04  0.7818609E-02  0.9133568E-01
        2   -1    0    0  501    0  0.00000000000E+00  0.00000000000E+00  0.76014471363E+03  0.76014471363E+03  0.25500000920E-02 0. -1.
       -2   -1    0    0    0  501  0.00000000000E+00  0.00000000000E+00 -0.45532181072E+03  0.45532181072E+03  0.25500000920E-02 0.  1.
    10030    2    1    2    0    0  0.00000000000E+00  0.00000000000E+00  0.30482290291E+03  0.12154665244E+04  0.11766230789E+04 0.  0.
        1    1    3    3  502    0  0.20307147098E+03  0.49354816275E+01  0.72276923948E+03  0.75077143983E+03  0.50400001928E-02 0. -1.
       -1    1    3    3    0  502 -0.20307147098E+03 -0.49354816275E+01 -0.41794633657E+03  0.46469508452E+03  0.50400001928E-02 0.  1.
</event>
<event>
 5   0  0.9027076E-04  0.1307094E+04  0.7818609E-02  0.9023958E-01
       -1   -1    0    0    0  501  0.00000000000E+00  0.00000000000E+00  0.37015876241E+03  0.37015876244E+03  0.50400001928E-02 0.  1.
        1   -1    0    0  501    0  0.00000000000E+00  0.00000000000E+00 -0.11538937675E+04  0.11538937675E+04  0.50400001928E-02 0. -1.
    10030    2    1    2    0    0  0.00000000000E+00  0.00000000000E+00 -0.78373500506E+03  0.15240525299E+04  0.13070943179E+04 0.  0.
        5    1    3    3  502    0 -0.55809369060E+03  0.11885519849E+03 -0.20383336965E+02  0.57099272861E+03  0.46999998093E+01 0.  1.
       -5    1    3    3    0  502  0.55809369060E+03 -0.11885519849E+03 -0.76335166809E+03  0.95305980131E+03  0.46999998093E+01 0. -1.
</event>
<event>
 5   0  0.9215829E-04  0.1287095E+04  0.7818609E-02  0.9039862E-01
        1   -1    0    0  501    0  0.00000000000E+00  0.00000000000E+00  0.95959944673E+03  0.95959944674E+03  0.50400001928E-02 0.  1.
       -1   -1    0    0    0  501  0.00000000000E+00  0.00000000000E+00 -0.43158955466E+03  0.43158955469E+03  0.50400001928E-02 0. -1.
    10030    2    1    2    0    0  0.00000000000E+00  0.00000000000E+00  0.52800989207E+03  0.13911890014E+04  0.12870945542E+04 0.  0.
        3    1    3    3  502    0  0.13935551510E+02 -0.22274698363E+02 -0.43100955268E+03  0.43180968781E+03  0.10100000352E+00 0. -1.
       -3    1    3    3    0  502 -0.13935551510E+02  0.22274698363E+02  0.95901944476E+03  0.95937931362E+03  0.10100000352E+00 0.  1.
</event>
<event>
 5   0  0.9081324E-04  0.1291576E+04  0.7818609E-02  0.9036273E-01
       -1   -1    0    0    0  501  0.00000000000E+00  0.00000000000E+00  0.32242455643E+03  0.32242455647E+03  0.50400001928E-02 0. -1.
        1   -1    0    0  501    0  0.00000000000E+00  0.00000000000E+00 -0.12934556889E+04  0.12934556889E+04  0.50400001928E-02 0.  1.
    10030    2    1    2    0    0  0.00000000000E+00  0.00000000000E+00 -0.97103113249E+03  0.16158802454E+04  0.12915755910E+04 0.  0.
        4    1    3    3  502    0 -0.12981022247E+02 -0.43332139930E+03  0.11331779036E+03  0.44808311343E+03  0.12699999809E+01 0. -1.
       -4    1    3    3    0  502  0.12981022247E+02  0.43332139930E+03 -0.10843489229E+04  0.11677971320E+04  0.12699999809E+01 0.  1.
</event>
<event>
 5   0  0.9027076E-04  0.1284828E+04  0.7818609E-02  0.9041684E-01
        1   -1    0    0  501    0  0.00000000000E+00  0.00000000000E+00  0.72107197410E+03  0.72107197412E+03  0.50400001928E-02 0.  1.
       -1   -1    0    0    0  501  0.00000000000E+00  0.00000000000E+00 -0.57233684971E+03  0.57233684973E+03  0.50400001928E-02 0. -1.
    10030    2    1    2    0    0  0.00000000000E+00  0.00000000000E+00  0.14873512439E+03  0.12934088238E+04  0.12848284899E+04 0.  0.
        5    1    3    3  502    0 -0.44415568630E+02 -0.59782814748E+03 -0.15804810997E+03  0.61997784777E+03  0.46999998093E+01 0. -1.
       -5    1    3    3    0  502  0.44415568630E+02  0.59782814748E+03  0.30678323436E+03  0.67343097608E+03  0.46999998093E+01 0.  1.
</event>
<event>
 5   0  0.1700511E-03  0.1314543E+04  0.7818609E-02  0.9018112E-01
        2   -1    0    0  501    0  0.00000000000E+00  0.00000000000E+00  0.13692632021E+04  0.13692632022E+04  0.25500000920E-02 0. -1.
       -2   -1    0    0    0  501  0.00000000000E+00  0.00000000000E+00 -0.31550216663E+03  0.31550216664E+03  0.25500000920E-02 0.  1.
    10030    2    1    2    0    0  0.00000000000E+00  0.00000000000E+00  0.10537610355E+04  0.16847653688E+04  0.13145425166E+04 0.  0.
        2    1    3    3  502    0 -0.45152558275E+03  0.46034513540E+03  0.69006916298E+03  0.94445139910E+03  0.25500000920E-02 0.  1.
       -2    1    3    3    0  502  0.45152558275E+03 -0.46034513540E+03  0.36369187254E+03  0.74031396969E+03  0.25500000920E-02 0. -1.
</event>
<event>
 5   0  0.9110949E-04  0.1315018E+04  0.7818609E-02  0.9017740E-01
        1   -1    0    0  501    0  0.00000000000E+00  0.00000000000E+00  0.13297490942E+04  0.13297490942E+04  0.50400001928E-02 0. -1.
       -1   -1    0    0    0  501  0.00000000000E+00  0.00000000000E+00 -0.32511238633E+03  0.32511238636E+03  0.50400001928E-02 0.  1.
    10030    2    1    2    0    0  0.00000000000E+00  0.00000000000E+00  0.10046367079E+04  0.16548614806E+04  0.13150177204E+04 0.  0.
        2    1    3    3  502    0 -0.27007647533E+03 -0.48246943820E+03  0.95007972148E+03  0.10992586313E+04  0.25500000920E-02 0. -1.
       -2    1    3    3    0  502  0.27007647533E+03  0.48246943820E+03  0.54556986376E+02  0.55560284925E+03  0.25500000920E-02 0.  1.
</event>
<event>
 5   0  0.1667342E-03  0.1311310E+04  0.7818609E-02  0.9020644E-01
        2   -1    0    0  501    0  0.00000000000E+00  0.00000000000E+00  0.11318122275E+04  0.11318122275E+04  0.25500000920E-02 0.  1.
       -2   -1    0    0    0  501  0.00000000000E+00  0.00000000000E+00 -0.37981888628E+03  0.37981888629E+03  0.25500000920E-02 0. -1.
    10030    2    1    2    0    0  0.00000000000E+00  0.00000000000E+00  0.75199334125E+03  0.15116311138E+04  0.13113102756E+04 0.  0.
        5    1    3    3  502    0 -0.76968221060E+02 -0.18729116708E+03 -0.34285072613E+03  0.39820949100E+03  0.46999998093E+01 0. -1.
       -5    1    3    3    0  502  0.76968221060E+02  0.18729116708E+03  0.10948440674E+04  0.11134216228E+04  0.46999998093E+01 0.  1.
</event>
<event>
 5   0  0.9098192E-04  0.1293384E+04  0.7818609E-02  0.9034828E-01
        1   -1    0    0  501    0  0.00000000000E+00  0.00000000000E+00  0.10760836833E+04  0.10760836834E+04  0.50400001928E-02 0. -1.
       -1   -1    0    0    0  501  0.00000000000E+00  0.00000000000E+00 -0.38864127144E+03  0.38864127147E+03  0.50400001928E-02 0.  1.
    10030    2    1    2    0    0  0.00000000000E+00  0.00000000000E+00  0.68744241190E+03  0.14647249548E+04  0.12933839815E+04 0.  0.
        1    1    3    3  502    0 -0.11413367079E+03 -0.73549865448E+02 -0.37231687825E+03  0.39630283291E+03  0.50400001928E-02 0.  1.
       -1    1    3    3    0  502  0.11413367079E+03  0.73549865448E+02  0.10597592901E+04  0.10684221219E+04  0.50400001928E-02 0. -1.
</event>
<event>
 5   0  0.1623890E-03  0.1304176E+04  0.7818609E-02  0.9026260E-01
       -2   -1    0    0    0  501  0.00000000000E+00  0.00000000000E+00  0.21232362583E+03  0.21232362584E+03  0.25500000920E-02 0. -1.
        2   -1    0    0  501    0  0.00000000000E+00  0.00000000000E+00 -0.20026913254E+04  0.20026913254E+04  0.25500000920E-02 0.  1.
    10030    2    1    2    0    0  0.00000000000E+00  0.00000000000E+00 -0.17903676995E+04  0.22150149512E+04  0.13041758833E+04 0.  0.
        3    1    3    3  502    0 -0.71094357230E+02 -0.14534320941E+03  0.17768961643E+03  0.24031784399E+03  0.10100000352E+00 0. -1.
       -3    1    3    3    0  502  0.71094357230E+02  0.14534320941E+03 -0.19680573160E+04  0.19746971072E+04  0.10100000352E+00 0.  1.
</event>
<event>
 5   0  0.1667342E-03  0.1300757E+04  0.7818609E-02  0.9028965E-01
        2   -1    0    0  501    0  0.00000000000E+00  0.00000000000E+00  0.11035774922E+04  0.11035774922E+04  0.25500000920E-02 0.  1.
       -2   -1    0    0    0  501  0.00000000000E+00  0.00000000000E+00 -0.38329195116E+03  0.38329195117E+03  0.25500000920E-02 0. -1.
    10030    2    1    2    0    0  0.00000000000E+00  0.00000000000E+00  0.72028554104E+03  0.14868694434E+04  0.13007572721E+04 0.  0.
        5    1    3    3  502    0 -0.17132208247E+03 -0.53787179911E+03  0.72932916847E+03  0.92228003025E+03  0.46999998093E+01 0.  1.
       -5    1    3    3    0  502  0.17132208247E+03  0.53787179911E+03 -0.90436274342E+01  0.56458941312E+03  0.46999998093E+01 0. -1.
</event>
<event>
 5   0  0.1667342E-03  0.1289110E+04  0.7818609E-02  0.9038246E-01
        2   -1    0    0  501    0  0.00000000000E+00  0.00000000000E+00  0.14134806748E+04  0.14134806748E+04  0.25500000920E-02 0. -1.
       -2   -1    0    0    0  501  0.00000000000E+00  0.00000000000E+00 -0.29392056938E+03  0.29392056939E+03  0.25500000920E-02 0.  1.
    10030    2    1    2    0    0  0.00000000000E+00  0.00000000000E+00  0.11195601054E+04  0.17074012442E+04  0.12891098398E+04 0.  0.
        5    1    3    3  502    0  0.18253004103E+03 -0.56666924484E+03  0.23266357534E+03  0.63920706990E+03  0.46999998093E+01 0. -1.
       -5    1    3    3    0  502 -0.18253004103E+03  0.56666924484E+03  0.88689653010E+03  0.10681941743E+04  0.46999998093E+01 0.  1.
</event>
<event>
 5   0  0.1623890E-03  0.1308581E+04  0.7818609E-02  0.9022788E-01
       -2   -1    0    0    0  501  0.00000000000E+00  0.00000000000E+00  0.36637048388E+03  0.36637048389E+03  0.25500000920E-02 0. -1.
        2   -1    0    0  501    0  0.00000000000E+00  0.00000000000E+00 -0.11684779879E+04  0.11684779879E+04  0.25500000920E-02 0.  1.
    10030    2    1    2    0    0  0.00000000000E+00  0.00000000000E+00 -0.80210750405E+03  0.15348484718E+04  0.13085806752E+04 0.  0.
        3    1    3    3  502    0 -0.34225203399E+03  0.15030872344E+03 -0.10309043322E+04  0.10965823815E+04  0.10100000352E+00 0.  1.
       -3    1    3    3    0  502  0.34225203399E+03 -0.15030872344E+03  0.22879682817E+03  0.43826609028E+03  0.10100000352E+00 0. -1.
</event>
<event>
 5   0  0.9098192E-04  0.1292646E+04  0.7818609E-02  0.9035417E-01
        1   -1    0    0  501    0  0.00000000000E+00  0.00000000000E+00  0.16101538637E+04  0.16101538637E+04  0.50400001928E-02 0. -1.
       -1   -1    0    0    0  501  0.00000000000E+00  0.00000000000E+00 -0.25943710714E+03  0.25943710719E+03  0.50400001928E-02 0.  1.
    10030    2    1    2    0    0  0.00000000000E+00  0.00000000000E+00  0.13507167565E+04  0.18695909709E+04  0.12926463716E+04 0.  0.
        1    1    3    3  502    0  0.21533314184E+03  0.60908081874E+03  0.70376887264E+03  0.95532111452E+03  0.50400001928E-02 0. -1.
       -1    1    3    3    0  502 -0.21533314184E+03 -0.60908081874E+03  0.64694788388E+03  0.91426985634E+03  0.50400001928E-02 0.  1.
</event>
<event>
 5   0  0.9110949E-04  0.1355504E+04  0.7818609E-02  0.8986672E-01
       -1   -1    0    0    0  501  0.00000000000E+00  0.00000000000E+00  0.80629616269E+03  0.80629616271E+03  0.50400001928E-02 0. -1.
        1   -1    0    0  501    0  0.00000000000E+00  0.00000000000E+00 -0.56970127002E+03  0.56970127005E+03  0.50400001928E-02 0.  1.
    10030    2    1    2    0    0  0.00000000000E+00  0.00000000000E+00  0.23659489267E+03  0.13759974328E+04  0.13555042574E+04 0.  0.
        2    1    3    3  502    0  0.47909668483E+03  0.12156893306E+03 -0.35243228187E+03  0.60705943054E+03  0.25500000920E-02 0.  1.
       -2    1    3    3    0  502 -0.47909668483E+03 -0.12156893306E+03  0.58902717453E+03  0.76893800221E+03  0.25500000920E-02 0. -1.
</event>
<event>
 5   0  0.9027076E-04  0.1315335E+04  0.7818609E-02  0.9017492E-01
        1   -1    0    0  501    0  0.00000000000E+00  0.00000000000E+00  0.36764971371E+03  0.36764971374E+03  0.50400001928E-02 0. -1.
       -1   -1    0    0    0  501  0.00000000000E+00  0.00000000000E+00 -0.11764643857E+04  0.11764643857E+04  0.50400001928E-02 0.  1.
    10030    2    1    2    0    0  0.00000000000E+00  0.00000000000E+00 -0.80881467198E+03  0.15441140994E+04  0.13153353863E+04 0.  0.
        5    1    3    3  502    0 -0.64817562598E+03 -0.31690638025E+02 -0.27923753903E+03  0.70649248535E+03  0.46999998093E+01 0. -1.
       -5    1    3    3    0  502  0.64817562598E+03  0.31690638025E+02 -0.52957713295E+03  0.83762161409E+03  0.46999998093E+01 0.  1.
</event>
<event>
 5   0  0.1700511E-03  0.1340649E+04  0.7818609E-02  0.8997937E-01
        2   -1    0    0  501    0  0.00000000000E+00  0.00000000000E+00  0.59012837437E+03  0.59012837438E+03  0.25500000920E-02 0.  1.
       -2   -1    0    0    0  501  0.00000000000E+00  0.00000000000E+00 -0.76141885246E+03  0.76141885246E+03  0.25500000920E-02 0. -1.
    10030    2    1    2    0    0  0.00000000000E+00  0.00000000000E+00 -0.17129047808E+03  0.13515472268E+04  0.13406489020E+04 0.  0.
        2    1    3    3  502    0 -0.51134083133E+02 -0.60969058514E+03 -0.36172829407E+03  0.71076343660E+03  0.25500000920E-02 0. -1.
       -2    1    3    3    0  502  0.51134083133E+02  0.60969058514E+03  0.19043781598E+03  0.64078379024E+03  0.25500000920E-02 0.  1.
</event>
<event>
 5   0  0.9215829E-04  0.1308832E+04  0.7818609E-02  0.9022591E-01
        1   -1    0    0  501    0  0.00000000000E+00  0.00000000000E+00  0.39517550754E+03  0.39517550757E+03  0.50400001928E-02 0.  1.
       -1   -1    0    0    0  501  0.00000000000E+00  0.00000000000E+00 -0.10837215370E+04  0.10837215370E+04  0.50400001928E-02 0. -1.
    10030    2    1    2    0    0  0.00000000000E+00  0.00000000000E+00 -0.68854602947E+03  0.14788970446E+04  0.13088318585E+04 0.  0.
        3    1    3    3  502    0 -0.18917613270E+02  0.54781851857E+03  0.59665012925E+02  0.55138274306E+03  0.10100000352E+00 0.  1.
       -3    1    3    3    0  502  0.18917613270E+02 -0.54781851857E+03 -0.74821104239E+03  0.92751430153E+03  0.10100000352E+00 0. -1.
</event>
<event>
 5   0  0.9081324E-04  0.1304803E+04  0.7818609E-02  0.9025765E-01
       -1   -1    0    0    0  501  0.00000000000E+00  0.00000000000E+00  0.38718033957E+03  0.38718033960E+03  0.50400001928E-02 0. -1.
        1   -1    0    0  501    0  0.00000000000E+00  0.00000000000E+00 -0.10993012001E+04  0.10993012001E+04  0.50400001928E-02 0.  1.
    10030    2    1    2    0    0  0.00000000000E+00  0.00000000000E+00 -0.71212086049E+03  0.14864815397E+04  0.13048031452E+04 0.  0.
        4    1    3    3  502    0  0.62741223965E+03  0.11007121098E+03 -0.19549488781E+03  0.66631948343E+03  0.12699999809E+01 0. -1.
       -4    1    3    3    0  502 -0.62741223965E+03 -0.11007121098E+03 -0.51662597268E+03  0.82016205623E+03  0.12699999809E+01 0.  1.
</event>
<event>
 5   0  0.1694675E-03  0.1254503E+04  0.7818609E-02  0.9066444E-01
       -2   -1    0    0    0  501  0.00000000000E+00  0.00000000000E+00  0.21854925129E+04  0.21854925129E+04  0.25500000920E-02 0.  1.
        2   -1    0    0  501    0  0.00000000000E+00  0.00000000000E+00 -0.18002544029E+03  0.18002544030E+03  0.25500000920E-02 0. -1.
    10030    2    1    2    0    0  0.00000000000E+00  0.00000000000E+00  0.20054670726E+04  0.23655179532E+04  0.12545026933E+04 0.  0.
        4    1    3    3  502    0  0.28443570857E+03  0.54796010658E+03  0.79378918367E+03  0.10056176369E+04  0.12699999809E+01 0.  1.
       -4    1    3    3    0  502 -0.28443570857E+03 -0.54796010658E+03  0.12116778889E+04  0.13599003162E+04  0.12699999809E+01 0. -1.
</event>
<event>
 5   0  0.9081324E-04  0.1473144E+04  0.7818609E-02  0.8902511E-01
        1   -1    0    0  501    0  0.00000000000E+00  0.00000000000E+00  0.86913763600E+03  0.86913763601E+03  0.50400001928E-02 0. -1.
       -1   -1    0    0    0  501  0.00000000000E+00  0.00000000000E+00 -0.62422568615E+03  0.62422568617E+03  0.50400001928E-02 0.  1.
    10030    2    1    2    0    0  0.00000000000E+00  0.00000000000E+00  0.24491194985E+03  0.14933633222E+04  0.14731436280E+04 0.  0.
        4    1    3    3  502    0  0.64395734146E+03 -0.68776933138E+02  0.47816401972E+03  0.80501786738E+03  0.12699999809E+01 0. -1.
       -4    1    3    3    0  502 -0.64395734146E+03  0.68776933138E+02 -0.23325206987E+03  0.68834545480E+03  0.12699999809E+01 0.  1.
</event>
<event>
 5   0  0.9081324E-04  0.1301830E+04  0.7818609E-02  0.9028116E-01
       -1   -1    0    0    0  501  0.00000000000E+00  0.00000000000E+00  0.42104207987E+03  0.42104207990E+03  0.50400001928E-02 0.  1.
        1   -1    0    0  501    0  0.00000000000E+00  0.00000000000E+00 -0.10062892067E+04  0.10062892067E+04  0.50400001928E-02 0. -1.
    10030    2    1    2    0    0  0.00000000000E+00  0.00000000000E+00 -0.58524712685E+03  0.14273312866E+04  0.13018296364E+04 0.  0.
        4    1    3    3  502    0  0.15968673619E+03 -0.39924735733E+03  0.24314701924E+03  0.49398420209E+03  0.12699999809E+01 0.  1.
       -4    1    3    3    0  502 -0.15968673619E+03  0.39924735733E+03 -0.82839414609E+03  0.93334708454E+03  0.12699999809E+01 0. -1.
</event>
<event>
 5   0  0.9098192E-04  0.1243875E+04  0.7818609E-02  0.9075297E-01
        1   -1    0    0  501    0  0.00000000000E+00  0.00000000000E+00  0.36852499837E+03  0.36852499840E+03  0.50400001928E-02 0. -1.
       -1   -1    0    0    0  501  0.00000000000E+00  0.00000000000E+00 -0.10496060146E+04  0.10496060147E+04  0.50400001928E-02 0.  1.
    10030    2    1    2    0    0  0.00000000000E+00  0.00000000000E+00 -0.68108101628E+03  0.14181310131E+04  0.12438746800E+04 0.  0.
        1    1    3    3  502    0 -0.13565009535E+03 -0.20002825568E+03 -0.99387743294E+03  0.10228414360E+04  0.50400001928E-02 0.  1.
       -1    1    3    3    0  502  0.13565009535E+03  0.20002825568E+03  0.31279641666E+03  0.39528957707E+03  0.50400001928E-02 0. -1.
</event>
<event>
 5   0  0.1714861E-03  0.1297650E+04  0.7818609E-02  0.9031431E-01
       -2   -1    0    0    0  501  0.00000000000E+00  0.00000000000E+00  0.33180363917E+03  0.33180363918E+03  0.25500000920E-02 0.  1.
        2   -1    0    0  501    0  0.00000000000E+00  0.00000000000E+00 -0.12687447613E+04  0.12687447613E+04  0.25500000920E-02 0. -1.
    10030    2    1    2    0    0  0.00000000000E+00  0.00000000000E+00 -0.93694112217E+03  0.16005484005E+04  0.12976503828E+04 0.  0.
        1    1    3    3  502    0 -0.43606756610E+03 -0.15508392889E+03 -0.10293286230E+04  0.11285935324E+04  0.50400001928E-02 0. -1.
       -1    1    3    3    0  502  0.43606756610E+03  0.15508392889E+03  0.92387500852E+02  0.47195486812E+03  0.50400001928E-02 0.  1.
</event>
<event>
 5   0  0.9215829E-04  0.1309235E+04  0.7818609E-02  0.9022274E-01
       -1   -1    0    0    0  501  0.00000000000E+00  0.00000000000E+00  0.60221986050E+03  0.60221986052E+03  0.50400001928E-02 0.  1.
        1   -1    0    0  501    0  0.00000000000E+00  0.00000000000E+00 -0.71157393422E+03  0.71157393424E+03  0.50400001928E-02 0. -1.
    10030    2    1    2    0    0  0.00000000000E+00  0.00000000000E+00 -0.10935407372E+03  0.13137937948E+04  0.13092348230E+04 0.  0.
        3    1    3    3  502    0  0.17757880467E+03 -0.16547537812E+03 -0.66474765875E+03  0.70767633326E+03  0.10100000352E+00 0. -1.
       -3    1    3    3    0  502 -0.17757880467E+03  0.16547537812E+03  0.55539358503E+03  0.60611746150E+03  0.10100000352E+00 0.  1.
</event>
<event>
 5   0  0.1700511E-03  0.1305352E+04  0.7818609E-02  0.9025332E-01
       -2   -1    0    0    0  501  0.00000000000E+00  0.00000000000E+00  0.44801050116E+03  0.44801050116E+03  0.25500000920E-02 0.  1.
        2   -1    0    0  501    0  0.00000000000E+00  0.00000000000E+00 -0.95083913628E+03  0.95083913629E+03  0.25500000920E-02 0. -1.
    10030    2    1    2    0    0  0.00000000000E+00  0.00000000000E+00 -0.50282863513E+03  0.13988496375E+04  0.13053519341E+04 0.  0.
        2    1    3    3  502    0 -0.21337132623E+03  0.54683191040E+03 -0.55721950854E+03  0.80934914703E+03  0.25500000920E-02 0.  1.
       -2    1    3    3    0  502  0.21337132623E+03 -0.54683191040E+03  0.54390873413E+02  0.58950049042E+03  0.25500000920E-02 0. -1.
</event>
<event>
 5   0  0.1623890E-03  0.1216952E+04  0.7818609E-02  0.9098146E-01
       -2   -1    0    0    0  501  0.00000000000E+00  0.00000000000E+00  0.43365703219E+03  0.43365703220E+03  0.25500000920E-02 0.  1.
        2   -1    0    0  501    0  0.00000000000E+00  0.00000000000E+00 -0.85376950067E+03  0.85376950068E+03  0.25500000920E-02 0. -1.
    10030    2    1    2    0    0  0.00000000000E+00  0.00000000000E+00 -0.42011246848E+03  0.12874265329E+04  0.12169521730E+04 0.  0.
        3    1    3    3  502    0  0.31263918030E+03  0.33586234159E+03  0.21270627263E+03  0.50575758834E+03  0.10100000352E+00 0.  1.
       -3    1    3    3    0  502 -0.31263918030E+03 -0.33586234159E+03 -0.63281874111E+03  0.78166894453E+03  0.10100000352E+00 0. -1.
</event>
<event>
 5   0  0.6284125E-04  0.1298242E+04  0.7818609E-02  0.9030960E-01
       -3   -1    0    0    0  501  0.00000000000E+00  0.00000000000E+00  0.28590333735E+03  0.28590335519E+03  0.10100000352E+00 0. -1.
        3   -1    0    0  501    0  0.00000000000E+00  0.00000000000E+00 -0.14737780809E+04  0.14737780844E+04  0.10100000352E+00 0.  1.
    10030    2    1    2    0    0  0.00000000000E+00  0.00000000000E+00 -0.11878747435E+04  0.17596814396E+04  0.12982420276E+04 0.  0.
        1    1    3    3  502    0 -0.28005394013E+03 -0.38345046577E+03  0.59759920709E+01  0.47486859402E+03  0.50400001928E-02 0.  1.
       -1    1    3    3    0  502  0.28005394013E+03  0.38345046577E+03 -0.11938507356E+04  0.12848128455E+04  0.50400001928E-02 0. -1.
</event>
<event>
 5   0  0.9027076E-04  0.1249757E+04  0.7818609E-02  0.9070386E-01
        1   -1    0    0  501    0  0.00000000000E+00  0.00000000000E+00  0.12421228431E+04  0.12421228431E+04  0.50400001928E-02 0. -1.
       -1   -1    0    0    0  501  0.00000000000E+00  0.00000000000E+00 -0.31435928802E+03  0.31435928806E+03  0.50400001928E-02 0.  1.
    10030    2    1    2    0    0  0.00000000000E+00  0.00000000000E+00  0.92776355509E+03  0.15564821312E+04  0.12497565405E+04 0.  0.
        5    1    3    3  502    0  0.10798352525E+02 -0.47895267426E+03  0.96351198472E+03  0.10760528348E+04  0.46999998093E+01 0. -1.
       -5    1    3    3    0  502 -0.10798352525E+02  0.47895267426E+03 -0.35748429631E+02  0.48042929638E+03  0.46999998093E+01 0.  1.
</event>
<event>
 5   0  0.1694675E-03  0.1303829E+04  0.7818609E-02  0.9026534E-01
        2   -1    0    0  501    0  0.00000000000E+00  0.00000000000E+00  0.70987771192E+03  0.70987771193E+03  0.25500000920E-02 0. -1.
       -2   -1    0    0    0  501  0.00000000000E+00  0.00000000000E+00 -0.59868440228E+03  0.59868440229E+03  0.25500000920E-02 0.  1.
    10030    2    1    2    0    0  0.00000000000E+00  0.00000000000E+00  0.11119330964E+03  0.13085621142E+04  0.13038293043E+04 0.  0.
        4    1    3    3  502    0  0.31026596358E+03  0.61073626134E+02 -0.51655704307E+03  0.60566306443E+03  0.12699999809E+01 0.  1.
       -4    1    3    3    0  502 -0.31026596358E+03 -0.61073626134E+02  0.62775035271E+03  0.70289904979E+03  0.12699999809E+01 0. -1.
</event>
<event>
 5   0  0.1694675E-03  0.1330649E+04  0.7818609E-02  0.9005607E-01
        2   -1    0    0  501    0  0.00000000000E+00  0.00000000000E+00  0.14012125385E+04  0.14012125386E+04  0.25500000920E-02 0. -1.
       -2   -1    0    0    0  501  0.00000000000E+00  0.00000000000E+00 -0.31590992992E+03  0.31590992993E+03  0.25500000920E-02 0.  1.
    10030    2    1    2    0    0  0.00000000000E+00  0.00000000000E+00  0.10853026086E+04  0.17171224685E+04  0.13306493976E+04 0.  0.
        4    1    3    3  502    0  0.28570734513E+03  0.42525659844E+03  0.10904173586E+04  0.12047752862E+04  0.12699999809E+01 0. -1.
       -4    1    3    3    0  502 -0.28570734513E+03 -0.42525659844E+03 -0.51147499383E+01  0.51234718223E+03  0.12699999809E+01 0.  1.
</event>
<event>
 5   0  0.1700511E-03  0.1302626E+04  0.7818609E-02  0.9027485E-01
        2   -1    0    0  501    0  0.00000000000E+00  0.00000000000E+00  0.85367473628E+03  0.85367473628E+03  0.25500000920E-02 0. -1.
       -2   -1    0    0    0  501  0.00000000000E+00  0.00000000000E+00 -0.49692096239E+03  0.49692096240E+03  0.25500000920E-02 0.  1.
    10030    2    1    2    0    0  0.00000000000E+00  0.00000000000E+00  0.35675377389E+03  0.13505956987E+04  0.13026263801E+04 0.  0.
        2    1    3    3  502    0 -0.49232654662E+03  0.10456562282E+02  0.62035403064E+03  0.79204412222E+03  0.25500000920E-02 0. -1.
       -2    1    3    3    0  502  0.49232654662E+03 -0.10456562282E+02 -0.26360025675E+03  0.55855157647E+03  0.25500000920E-02 0.  1.
</event>
<event>
 5   0  0.9027076E-04  0.1286752E+04  0.7818609E-02  0.9040138E-01
        1   -1    0    0  501    0  0.00000000000E+00  0.00000000000E+00  0.41488218447E+03  0.41488218450E+03  0.50400001928E-02 0.  1.
       -1   -1    0    0    0  501  0.00000000000E+00  0.00000000000E+00 -0.99771114106E+03  0.99771114107E+03  0.50400001928E-02 0. -1.
    10030    2    1    2    0    0  0.00000000000E+00  0.00000000000E+00 -0.58282895659E+03  0.14125933256E+04  0.12867518451E+04 0.  0.
        5    1    3    3  502    0  0.17052533448E+03 -0.59986581594E+03 -0.46496586055E+03  0.77790309700E+03  0.46999998093E+01 0.  1.
       -5    1    3    3    0  502 -0.17052533448E+03  0.59986581594E+03 -0.11786309603E+03  0.63469022857E+03  0.46999998093E+01 0. -1.
</event>
<event>
 5   0  0.1623890E-03  0.1221311E+04  0.7818609E-02  0.9094405E-01
        2   -1    0    0  501    0  0.00000000000E+00  0.00000000000E+00  0.22124456899E+04  0.22124456899E+04  0.25500000920E-02 0.  1.
       -2   -1    0    0    0  501  0.00000000000E+00  0.00000000000E+00 -0.16854666545E+03  0.16854666547E+03  0.25500000920E-02 0. -1.
    10030    2    1    2    0    0  0.00000000000E+00  0.00000000000E+00  0.20438990245E+04  0.23809923554E+04  0.12213113339E+04 0.  0.
        3    1    3    3  502    0 -0.69751768911E+02 -0.57414449663E+03  0.14039450791E+04  0.15184100261E+04  0.10100000352E+00 0.  1.
       -3    1    3    3    0  502  0.69751768911E+02  0.57414449663E+03  0.63995394540E+03  0.86258232923E+03  0.10100000352E+00 0. -1.
</event>
<event>
 5   0  0.6284125E-04  0.1306636E+04  0.7818609E-02  0.9024320E-01
        3   -1    0    0  501    0  0.00000000000E+00  0.00000000000E+00  0.60788528948E+03  0.60788529787E+03  0.10100000352E+00 0.  1.
       -3   -1    0    0    0  501  0.00000000000E+00  0.00000000000E+00 -0.70214586410E+03  0.70214587136E+03  0.10100000352E+00 0. -1.
    10030    2    1    2    0    0  0.00000000000E+00  0.00000000000E+00 -0.94260574618E+02  0.13100311692E+04  0.13066356066E+04 0.  0.
        2    1    3    3  502    0  0.30123788227E+03 -0.49653240572E+03  0.25287207587E+03  0.63342953705E+03  0.25500000920E-02 0.  1.
       -2    1    3    3    0  502 -0.30123788227E+03  0.49653240572E+03 -0.34713265049E+03  0.67660163219E+03  0.25500000920E-02 0. -1.
</event>
<event>
 5   0  0.9215829E-04  0.1316266E+04  0.7818609E-02  0.9016764E-01
        1   -1    0    0  501    0  0.00000000000E+00  0.00000000000E+00  0.91619475457E+03  0.91619475458E+03  0.50400001928E-02 0.  1.
       -1   -1    0    0    0  501  0.00000000000E+00  0.00000000000E+00 -0.47275883198E+03  0.47275883201E+03  0.50400001928E-02 0. -1.
    10030    2    1    2    0    0  0.00000000000E+00  0.00000000000E+00  0.44343592258E+03  0.13889535866E+04  0.13162661768E+04 0.  0.
        3    1    3    3  502    0 -0.30317811433E+03  0.16633639023E+03 -0.36916362114E+03  0.50583253464E+03  0.10100000352E+00 0. -1.
       -3    1    3    3    0  502  0.30317811433E+03 -0.16633639023E+03  0.81259954373E+03  0.88312105195E+03  0.10100000352E+00 0.  1.
</event>
<event>
 5   0  0.6284125E-04  0.1301934E+04  0.7818609E-02  0.9028033E-01
       -3   -1    0    0    0  501  0.00000000000E+00  0.00000000000E+00  0.82485092646E+03  0.82485093264E+03  0.10100000352E+00 0. -1.
        3   -1    0    0  501    0  0.00000000000E+00  0.00000000000E+00 -0.51373853732E+03  0.51373854725E+03  0.10100000352E+00 0.  1.
    10030    2    1    2    0    0  0.00000000000E+00  0.00000000000E+00  0.31111238914E+03  0.13385894799E+04  0.13019335148E+04 0.  0.
        4    1    3    3  502    0  0.26989337698E+03  0.55441137840E+03 -0.58985282279E+02  0.61943142305E+03  0.12699999809E+01 0.  1.
       -4    1    3    3    0  502 -0.26989337698E+03 -0.55441137840E+03  0.37009767142E+03  0.71915805685E+03  0.12699999809E+01 0. -1.
</event>
<event>
 5   0  0.1694675E-03  0.1289013E+04  0.7818609E-02  0.9038324E-01
       -2   -1    0    0    0  501  0.00000000000E+00  0.00000000000E+00  0.50875986797E+03  0.50875986798E+03  0.25500000920E-02 0. -1.
        2   -1    0    0  501    0  0.00000000000E+00  0.00000000000E+00 -0.81647264347E+03  0.81647264347E+03  0.25500000920E-02 0.  1.
    10030    2    1    2    0    0  0.00000000000E+00  0.00000000000E+00 -0.30771277550E+03  0.13252325114E+04  0.12890128227E+04 0.  0.
        4    1    3    3  502    0 -0.47428225029E+03  0.27051729072E+03 -0.50591626794E+03  0.74436290919E+03  0.12699999809E+01 0.  1.
       -4    1    3    3    0  502  0.47428225029E+03 -0.27051729072E+03  0.19820349244E+03  0.58086960226E+03  0.12699999809E+01 0. -1.
</event>
<event>
 5   0  0.9081324E-04  0.1296851E+04  0.7818609E-02  0.9032066E-01
       -1   -1    0    0    0  501  0.00000000000E+00  0.00000000000E+00  0.30901487988E+03  0.30901487992E+03  0.50400001928E-02 0. -1.
        1   -1    0    0  501    0  0.00000000000E+00  0.00000000000E+00 -0.13606320838E+04  0.13606320838E+04  0.50400001928E-02 0.  1.
    10030    2    1    2    0    0  0.00000000000E+00  0.00000000000E+00 -0.10516172039E+04  0.16696469637E+04  0.12968508935E+04 0.  0.
        4    1    3    3  502    0 -0.17754082029E+03 -0.37427172243E+03 -0.11680625999E+04  0.12393433404E+04  0.12699999809E+01 0.  1.
       -4    1    3    3    0  502  0.17754082029E+03  0.37427172243E+03  0.11644539604E+03  0.43030362332E+03  0.12699999809E+01 0. -1.
</event>
<event>
 5   0  0.9215829E-04  0.1298396E+04  0.7818609E-02  0.9030838E-01
       -1   -1    0    0    0  501  0.00000000000E+00  0.00000000000E+00  0.16384782658E+03  0.16384782666E+03  0.50400001928E-02 0. -1.
        1   -1    0    0  501    0  0.00000000000E+00  0.00000000000E+00 -0.25722520988E+04  0.25722520988E+04  0.50400001928E-02 0.  1.
    10030    2    1    2    0    0  0.00000000000E+00  0.00000000000E+00 -0.24084042723E+04  0.27360999255E+04  0.12983958039E+04 0.  0.
        3    1    3    3  502    0 -0.18377994665E+03 -0.93011121767E+02 -0.25015685677E+04  0.25100341525E+04  0.10100000352E+00 0.  1.
       -3    1    3    3    0  502  0.18377994665E+03  0.93011121767E+02  0.93164295463E+02  0.22606577298E+03  0.10100000352E+00 0. -1.
</event>
<event>
 5   0  0.1700511E-03  0.1309890E+04  0.7818609E-02  0.9021759E-01
       -2   -1    0    0    0  501  0.00000000000E+00  0.00000000000E+00  0.81231057925E+03  0.81231057926E+03  0.25500000920E-02 0. -1.
        2   -1    0    0  501    0  0.00000000000E+00  0.00000000000E+00 -0.52806488340E+03  0.52806488340E+03  0.25500000920E-02 0.  1.
    10030    2    1    2    0    0  0.00000000000E+00  0.00000000000E+00  0.28424569585E+03  0.13403754627E+04  0.13098896004E+04 0.  0.
        2    1    3    3  502    0  0.19024317791E+03 -0.62669585330E+03  0.14574529927E+03  0.67095592370E+03  0.25500000920E-02 0. -1.
       -2    1    3    3    0  502 -0.19024317791E+03  0.62669585330E+03  0.13850039659E+03  0.66941953896E+03  0.25500000920E-02 0.  1.
</event>
<event>
 5   0  0.9215829E-04  0.1305096E+04  0.7818609E-02  0.9025533E-01
        1   -1    0    0  501    0  0.00000000000E+00  0.00000000000E+00  0.88492149980E+03  0.88492149982E+03  0.50400001928E-02 0.  1.
       -1   -1    0    0    0  501  0.00000000000E+00  0.00000000000E+00 -0.48119431287E+03  0.48119431290E+03  0.50400001928E-02 0. -1.
    10030    2    1    2    0    0  0.00000000000E+00  0.00000000000E+00  0.40372718693E+03  0.13661158127E+04  0.13050964609E+04 0.  0.
        3    1    3    3  502    0 -0.91363978972E+02  0.52173561275E+03  0.60081825314E+03  0.80096067929E+03  0.10100000352E+00 0.  1.
       -3    1    3    3    0  502  0.91363978972E+02 -0.52173561275E+03 -0.19709106620E+03  0.56515513343E+03  0.10100000352E+00 0. -1.
</event>
<event>
 5   0  0.1714861E-03  0.1289598E+04  0.7818609E-02  0.9037855E-01
       -2   -1    0    0    0  501  0.00000000000E+00  0.00000000000E+00  0.27127544229E+03  0.27127544230E+03  0.25500000920E-02 0.  1.
        2   -1    0    0  501    0  0.00000000000E+00  0.00000000000E+00 -0.15326321985E+04  0.15326321985E+04  0.25500000920E-02 0. -1.
    10030    2    1    2    0    0  0.00000000000E+00  0.00000000000E+00 -0.12613567562E+04  0.18039076408E+04  0.12895975768E+04 0.  0.
        1    1    3    3  502    0  0.56630949412E+03 -0.30585419312E+03 -0.57628181710E+03  0.86391779894E+03  0.50400001928E-02 0. -1.
       -1    1    3    3    0  502 -0.56630949412E+03  0.30585419312E+03 -0.68507493910E+03  0.93998984185E+03  0.50400001928E-02 0.  1.
</event>
<event>
 5   0  0.1714861E-03  0.1307866E+04  0.7818609E-02  0.9023350E-01
       -2   -1    0    0    0  501  0.00000000000E+00  0.00000000000E+00  0.24617194064E+03  0.24617194066E+03  0.25500000920E-02 0.  1.
        2   -1    0    0  501    0  0.00000000000E+00  0.00000000000E+00 -0.17371130851E+04  0.17371130851E+04  0.25500000920E-02 0. -1.
    10030    2    1    2    0    0  0.00000000000E+00  0.00000000000E+00 -0.14909411445E+04  0.19832850258E+04  0.13078662000E+04 0.  0.
        1    1    3    3  502    0  0.65250226259E+03 -0.17554046904E+02 -0.80538679309E+03  0.10366847321E+04  0.50400001928E-02 0. -1.
       -1    1    3    3    0  502 -0.65250226259E+03  0.17554046904E+02 -0.68555435136E+03  0.94660029366E+03  0.50400001928E-02 0.  1.
</event>
<event>
 5   0  0.1623890E-03  0.1198842E+04  0.7818609E-02  0.9113871E-01
        2   -1    0    0  501    0  0.00000000000E+00  0.00000000000E+00  0.16971612504E+04  0.16971612504E+04  0.25500000920E-02 0. -1.
       -2   -1    0    0    0  501  0.00000000000E+00  0.00000000000E+00 -0.21170962395E+03  0.21170962396E+03  0.25500000920E-02 0.  1.
    10030    2    1    2    0    0  0.00000000000E+00  0.00000000000E+00  0.14854516265E+04  0.19088708744E+04  0.11988417245E+04 0.  0.
        3    1    3    3  502    0  0.38264134312E+02  0.25423352498E+02 -0.20890239669E+03  0.21389416161E+03  0.10100000352E+00 0.  1.
       -3    1    3    3    0  502 -0.38264134312E+02 -0.25423352498E+02  0.16943540232E+04  0.16949767128E+04  0.10100000352E+00 0. -1.
</event>
<event>
 5   0  0.1623890E-03  0.1273135E+04  0.7818609E-02  0.9051145E-01
       -2   -1    0    0    0  501  0.00000000000E+00  0.00000000000E+00  0.19139405912E+03  0.19139405914E+03  0.25500000920E-02 0.  1.
        2   -1    0    0  501    0  0.00000000000E+00  0.00000000000E+00 -0.21171936433E+04  0.21171936433E+04  0.25500000920E-02 0. -1.
    10030    2    1    2    0    0  0.00000000000E+00  0.00000000000E+00 -0.19257995842E+04  0.23085877025E+04  0.12731351623E+04 0.  0.
        3    1    3    3  502    0  0.37422532977E+03  0.39673267269E+03 -0.15581980843E+04  0.16508854264E+04  0.10100000352E+00 0. -1.
       -3    1    3    3    0  502 -0.37422532977E+03 -0.39673267269E+03 -0.36760149996E+03  0.65770227611E+03  0.10100000352E+00 0.  1.
</event>
<event>
 5   0  0.1667342E-03  0.1376490E+04  0.7818609E-02  0.8971015E-01
        2   -1    0    0  501    0  0.00000000000E+00  0.00000000000E+00  0.21077875768E+04  0.21077875768E+04  0.25500000920E-02 0.  1.
       -2   -1    0    0    0  501  0.00000000000E+00  0.00000000000E+00 -0.22472893392E+03  0.22472893393E+03  0.25500000920E-02 0. -1.
    10030    2    1    2    0    0  0.00000000000E+00  0.00000000000E+00  0.18830586429E+04  0.23325165107E+04  0.13764895279E+04 0.  0.
        5    1    3    3  502    0 -0.97520786725E+02 -0.60651612774E+03  0.41571204788E+03  0.74176189832E+03  0.46999998093E+01 0. -1.
       -5    1    3    3    0  502  0.97520786725E+02  0.60651612774E+03  0.14673465950E+04  0.15907546124E+04  0.46999998093E+01 0.  1.
</event>
<event>
 5   0  0.9215829E-04  0.1333572E+04  0.7818609E-02  0.9003358E-01
        1   -1    0    0  501    0  0.00000000000E+00  0.00000000000E+00  0.25032165361E+03  0.25032165366E+03  0.50400001928E-02 0. -1.
       -1   -1    0    0    0  501  0.00000000000E+00  0.00000000000E+00 -0.17761290549E+04  0.17761290549E+04  0.50400001928E-02 0.  1.
    10030    2    1    2    0    0  0.00000000000E+00  0.00000000000E+00 -0.15258074013E+04  0.20264507086E+04  0.13335719885E+04 0.  0.
        3    1    3    3  502    0  0.65671174807E+03 -0.44000467358E+02 -0.60067843733E+03  0.89107853552E+03  0.10100000352E+00 0.  1.
       -3    1    3    3    0  502 -0.65671174807E+03  0.44000467358E+02 -0.92512896396E+03  0.11353721731E+04  0.10100000352E+00 0. -1.
</event>
<event>
 5   0  0.9081324E-04  0.1279939E+04  0.7818609E-02  0.9045627E-01
        1   -1    0    0  501    0  0.00000000000E+00  0.00000000000E+00  0.50907998465E+03  0.50907998468E+03  0.50400001928E-02 0. -1.
       -1   -1    0    0    0  501  0.00000000000E+00  0.00000000000E+00 -0.80451214170E+03  0.80451214171E+03  0.50400001928E-02 0.  1.
    10030    2    1    2    0    0  0.00000000000E+00  0.00000000000E+00 -0.29543215704E+03  0.13135921264E+04  0.12799391060E+04 0.  0.
        4    1    3    3  502    0  0.12586157078E+02 -0.23561196877E+03  0.46280990151E+03  0.51948631264E+03  0.12699999809E+01 0. -1.
       -4    1    3    3    0  502 -0.12586157078E+02  0.23561196877E+03 -0.75824205856E+03  0.79410581376E+03  0.12699999809E+01 0.  1.
</event>
<event>
 5   0  0.1694675E-03  0.1297771E+04  0.7818609E-02  0.9031334E-01
       -2   -1    0    0    0  501  0.00000000000E+00  0.00000000000E+00  0.48338242151E+03  0.48338242152E+03  0.25500000920E-02 0.  1.
        2   -1    0    0  501    0  0.00000000000E+00  0.00000000000E+00 -0.87105484889E+03  0.87105484890E+03  0.25500000920E-02 0. -1.
    10030    2    1    2    0    0  0.00000000000E+00  0.00000000000E+00 -0.38767242738E+03  0.13544372704E+04  0.12977713237E+04 0.  0.
        4    1    3    3  502    0 -0.31940339271E+03  0.34053316313E+03  0.27647269754E+03  0.54260494639E+03  0.12699999809E+01 0.  1.
       -4    1    3    3    0  502  0.31940339271E+03 -0.34053316313E+03 -0.66414512492E+03  0.81183232402E+03  0.12699999809E+01 0. -1.
</event>
<event>
 5   0  0.9215829E-04  0.1298940E+04  0.7818609E-02  0.9030406E-01
        1   -1    0    0  501    0  0.00000000000E+00  0.00000000000E+00  0.36661262756E+03  0.36661262760E+03  0.50400001928E-02 0. -1.
       -1   -1    0    0    0  501  0.00000000000E+00  0.00000000000E+00 -0.11505648125E+04  0.11505648125E+04  0.50400001928E-02 0.  1.
    10030    2    1    2    0    0  0.00000000000E+00  0.00000000000E+00 -0.78395218492E+03  0.15171774401E+04  0.12989404746E+04 0.  0.
        3    1    3    3  502    0 -0.23000550223E+03  0.97472390027E+02 -0.10922067256E+04  0.11204101658E+04  0.10100000352E+00 0.  1.
       -3    1    3    3    0  502  0.23000550223E+03 -0.97472390027E+02  0.30825454073E+03  0.39676727430E+03  0.10100000352E+00 0. -1.
</event>
<event>
 5   0  0.9110949E-04  0.1311796E+04  0.7818609E-02  0.9020263E-01
       -1   -1    0    0    0  501  0.00000000000E+00  0.00000000000E+00  0.61571299306E+03  0.61571299308E+03  0.50400001928E-02 0.  1.
        1   -1    0    0  501    0  0.00000000000E+00  0.00000000000E+00 -0.69870521771E+03  0.69870521773E+03  0.50400001928E-02 0. -1.
    10030    2    1    2    0    0  0.00000000000E+00  0.00000000000E+00 -0.82992224655E+02  0.13144182108E+04  0.13117955342E+04 0.  0.
        2    1    3    3  502    0  0.37307991396E+02 -0.25022709852E+03  0.56485538030E+03  0.61892413729E+03  0.25500000920E-02 0.  1.
       -2    1    3    3    0  502 -0.37307991396E+02  0.25022709852E+03 -0.64784760495E+03  0.69549407352E+03  0.25500000920E-02 0. -1.
</event>
<event>
 5   0  0.9215829E-04  0.1245718E+04  0.7818609E-02  0.9073755E-01
       -1   -1    0    0    0  501  0.00000000000E+00  0.00000000000E+00  0.38475417602E+03  0.38475417606E+03  0.50400001928E-02 0.  1.
        1   -1    0    0  501    0  0.00000000000E+00  0.00000000000E+00 -0.10083149282E+04  0.10083149282E+04  0.50400001928E-02 0. -1.
    10030    2    1    2    0    0  0.00000000000E+00  0.00000000000E+00 -0.62356075218E+03  0.13930691043E+04  0.12457180731E+04 0.  0.
        3    1    3    3  502    0  0.20104429053E+03  0.37615148838E+03  0.19583355797E+03  0.46931816670E+03  0.10100000352E+00 0.  1.
       -3    1    3    3    0  502 -0.20104429053E+03 -0.37615148838E+03 -0.81939431015E+03  0.92375093757E+03  0.10100000352E+00 0. -1.
</event>
<event>
 5   0  0.9215829E-04  0.1309678E+04  0.7818609E-02  0.9021926E-01
        1   -1    0    0  501    0  0.00000000000E+00  0.00000000000E+00  0.18152213580E+04  0.18152213580E+04  0.50400001928E-02 0.  1.
       -1   -1    0    0    0  501  0.00000000000E+00  0.00000000000E+00 -0.23623233700E+03  0.23623233705E+03  0.50400001928E-02 0. -1.
    10030    2    1    2    0    0  0.00000000000E+00  0.00000000000E+00  0.15789890210E+04  0.20514536951E+04  0.13096777980E+04 0.  0.
        3    1    3    3  502    0 -0.54781300869E+03  0.28273211187E+03  0.11354392473E+04  0.12919980008E+04  0.10100000352E+00 0.  1.
       -3    1    3    3    0  502  0.54781300869E+03 -0.28273211187E+03  0.44354977369E+03  0.75945569424E+03  0.10100000352E+00 0. -1.
</event>
<event>
 5   0  0.9027076E-04  0.1304084E+04  0.7818609E-02  0.9026333E-01
       -1   -1    0    0    0  501  0.00000000000E+00  0.00000000000E+00  0.46612834700E+03  0.46612834703E+03  0.50400001928E-02 0.  1.
        1   -1    0    0  501    0  0.00000000000E+00  0.00000000000E+00 -0.91210679762E+03  0.91210679763E+03  0.50400001928E-02 0. -1.
    10030    2    1    2    0    0  0.00000000000E+00  0.00000000000E+00 -0.44597845061E+03  0.13782351447E+04  0.13040840984E+04 0.  0.
        5    1    3    3  502    0 -0.54551721022E+03 -0.34252148008E+03 -0.11611164746E+03  0.65453341827E+03  0.46999998093E+01 0. -1.
       -5    1    3    3    0  502  0.54551721022E+03  0.34252148008E+03 -0.32986680316E+03  0.72370172639E+03  0.46999998093E+01 0.  1.
</event>
<event>
 5   0  0.9110949E-04  0.1290458E+04  0.7818609E-02  0.9037167E-01
        1   -1    0    0  501    0  0.00000000000E+00  0.00000000000E+00  0.11208672033E+04  0.11208672033E+04  0.50400001928E-02 0. -1.
       -1   -1    0    0    0  501  0.00000000000E+00  0.00000000000E+00 -0.37142705631E+03  0.37142705634E+03  0.50400001928E-02 0.  1.
    10030    2    1    2    0    0  0.00000000000E+00  0.00000000000E+00  0.74944014699E+03  0.14922942596E+04  0.12904579123E+04 0.  0.
        2    1    3    3  502    0  0.38570823630E+03  0.41814277933E+03  0.72681921237E+03  0.92297366969E+03  0.25500000920E-02 0. -1.
       -2    1    3    3    0  502 -0.38570823630E+03 -0.41814277933E+03  0.22620934616E+02  0.56932058996E+03  0.25500000920E-02 0.  1.
</event>
<event>
 5   0  0.6284125E-04  0.1234111E+04  0.7818609E-02  0.9083512E-01
       -3   -1    0    0    0  501  0.00000000000E+00  0.00000000000E+00  0.22824205689E+03  0.22824207923E+03  0.10100000352E+00 0.  1.
        3   -1    0    0  501    0  0.00000000000E+00  0.00000000000E+00 -0.16682189397E+04  0.16682189427E+04  0.10100000352E+00 0. -1.
    10030    2    1    2    0    0  0.00000000000E+00  0.00000000000E+00 -0.14399768828E+04  0.18964610219E+04  0.12341114151E+04 0.  0.
        3    1    3    3  502    0 -0.51253935315E+03 -0.26670488896E+03 -0.38708889156E+03  0.69546093096E+03  0.10100000352E+00 0.  1.
       -3    1    3    3    0  502  0.51253935315E+03  0.26670488896E+03 -0.10528879912E+04  0.12010000910E+04  0.10100000352E+00 0. -1.
</event>
<event>
 5   0  0.9110949E-04  0.1305530E+04  0.7818609E-02  0.9025191E-01
       -1   -1    0    0    0  501  0.00000000000E+00  0.00000000000E+00  0.12246083428E+04  0.12246083428E+04  0.50400001928E-02 0. -1.
        1   -1    0    0  501    0  0.00000000000E+00  0.00000000000E+00 -0.34794985457E+03  0.34794985460E+03  0.50400001928E-02 0.  1.
    10030    2    1    2    0    0  0.00000000000E+00  0.00000000000E+00  0.87665848827E+03  0.15725581975E+04  0.13055302292E+04 0.  0.
        2    1    3    3  502    0 -0.32632524766E+03  0.55272528330E+03  0.29525343875E+03  0.70651822281E+03  0.25500000920E-02 0. -1.
       -2    1    3    3    0  502  0.32632524766E+03 -0.55272528330E+03  0.58140504952E+03  0.86603997464E+03  0.25500000920E-02 0.  1.
</event>
<event>
 5   0  0.1667342E-03  0.1271748E+04  0.7818609E-02  0.9052274E-01
        2   -1    0    0  501    0  0.00000000000E+00  0.00000000000E+00  0.37920348598E+03  0.37920348599E+03  0.25500000920E-02 0.  1.
       -2   -1    0    0    0  501  0.00000000000E+00  0.00000000000E+00 -0.10662770882E+04  0.10662770882E+04  0.25500000920E-02 0. -1.
    10030    2    1    2    0    0  0.00000000000E+00  0.00000000000E+00 -0.68707360222E+03  0.14454805742E+04  0.12717483853E+04 0.  0.
        5    1    3    3  502    0  0.20067337486E+03  0.11728597605E+03 -0.10162404039E+04  0.10424933822E+04  0.46999998093E+01 0. -1.
       -5    1    3    3    0  502 -0.20067337486E+03 -0.11728597605E+03  0.32916680166E+03  0.40298719194E+03  0.46999998093E+01 0.  1.
</event>
<event>
 5   0  0.9215829E-04  0.1295922E+04  0.7818609E-02  0.9032806E-01
        1   -1    0    0  501    0  0.00000000000E+00  0.00000000000E+00  0.17234007244E+04  0.17234007244E+04  0.50400001928E-02 0.  1.
       -1   -1    0    0    0  501  0.00000000000E+00  0.00000000000E+00 -0.24361907748E+03  0.24361907754E+03  0.50400001928E-02 0. -1.
    10030    2    1    2    0    0  0.00000000000E+00  0.00000000000E+00  0.14797816469E+04  0.19670198019E+04  0.12959217487E+04 0.  0.
        3    1    3    3  502    0  0.25913301448E+03 -0.14576520156E+03  0.16137527375E+04  0.16409129536E+04  0.10100000352E+00 0.  1.
       -3    1    3    3    0  502 -0.25913301448E+03  0.14576520156E+03 -0.13397109066E+03  0.32610684831E+03  0.10100000352E+00 0. -1.
</event>
<event>
 5   0  0.1667342E-03  0.1327574E+04  0.7818609E-02  0.9007980E-01
        2   -1    0    0  501    0  0.00000000000E+00  0.00000000000E+00  0.76546495500E+03  0.76546495500E+03  0.25500000920E-02 0. -1.
       -2   -1    0    0    0  501  0.00000000000E+00  0.00000000000E+00 -0.57561547849E+03  0.57561547850E+03  0.25500000920E-02 0.  1.
    10030    2    1    2    0    0  0.00000000000E+00  0.00000000000E+00  0.18984947651E+03  0.13410804335E+04  0.13275744444E+04 0.  0.
        5    1    3    3  502    0  0.15053728726E+03 -0.42916384179E+03  0.58331858174E+03  0.73967948178E+03  0.46999998093E+01 0. -1.
       -5    1    3    3    0  502 -0.15053728726E+03  0.42916384179E+03 -0.39346910524E+03  0.60140095172E+03  0.46999998093E+01 0.  1.
</event>
<event>
 5   0  0.9215829E-04  0.1296858E+04  0.7818609E-02  0.9032060E-01
        1   -1    0    0  501    0  0.00000000000E+00  0.00000000000E+00  0.53889774971E+03  0.53889774974E+03  0.50400001928E-02 0. -1.
       -1   -1    0    0    0  501  0.00000000000E+00  0.00000000000E+00 -0.78022258200E+03  0.78022258202E+03  0.50400001928E-02 0.  1.
    10030    2    1    2    0    0  0.00000000000E+00  0.00000000000E+00 -0.24132483229E+03  0.13191203318E+04  0.12968580396E+04 0.  0.
        3    1    3    3  502    0  0.44118230512E+03 -0.36815814343E+03 -0.42628313470E+03  0.71547156901E+03  0.10100000352E+00 0.  1.
       -3    1    3    3    0  502 -0.44118230512E+03  0.36815814343E+03  0.18495830241E+03  0.60364876275E+03  0.10100000352E+00 0. -1.
</event>
<event>
 5   0  0.1694675E-03  0.1297548E+04  0.7818609E-02  0.9031512E-01
       -2   -1    0    0    0  501  0.00000000000E+00  0.00000000000E+00  0.36183571909E+03  0.36183571910E+03  0.25500000920E-02 0.  1.
        2   -1    0    0  501    0  0.00000000000E+00  0.00000000000E+00 -0.11632557689E+04  0.11632557689E+04  0.25500000920E-02 0. -1.
    10030    2    1    2    0    0  0.00000000000E+00  0.00000000000E+00 -0.80142004981E+03  0.15250914880E+04  0.12975476679E+04 0.  0.
        4    1    3    3  502    0  0.17767786636E+03 -0.16161011373E+02  0.33243415406E+03  0.37728594219E+03  0.12699999809E+01 0.  1.
       -4    1    3    3    0  502 -0.17767786636E+03  0.16161011373E+02 -0.11338542039E+04  0.11478055458E+04  0.12699999809E+01 0. -1.
</event>
<event>
 5   0  0.9081324E-04  0.1306732E+04  0.7818609E-02  0.9024244E-01
        1   -1    0    0  501    0  0.00000000000E+00  0.00000000000E+00  0.14663613407E+04  0.14663613407E+04  0.50400001928E-02 0. -1.
       -1   -1    0    0    0  501  0.00000000000E+00  0.00000000000E+00 -0.29111999179E+03  0.29111999183E+03  0.50400001928E-02 0.  1.
    10030    2    1    2    0    0  0.00000000000E+00  0.00000000000E+00  0.11752413489E+04  0.17574813325E+04  0.13067319565E+04 0.  0.
        4    1    3    3  502    0  0.29251994308E+03  0.39816126428E+03  0.12611600543E+02  0.49422765487E+03  0.12699999809E+01 0.  1.
       -4    1    3    3    0  502 -0.29251994308E+03 -0.39816126428E+03  0.11626297484E+04  0.12632536777E+04  0.12699999809E+01 0. -1.
</event>
<event>
 5   0  0.1694675E-03  0.1305320E+04  0.7818609E-02  0.9025357E-01
       -2   -1    0    0    0  501  0.00000000000E+00  0.00000000000E+00  0.17991027598E+04  0.17991027598E+04  0.25500000920E-02 0. -1.
        2   -1    0    0  501    0  0.00000000000E+00  0.00000000000E+00 -0.23676518908E+03  0.23676518910E+03  0.25500000920E-02 0.  1.
    10030    2    1    2    0    0  0.00000000000E+00  0.00000000000E+00  0.15623375707E+04  0.20358679489E+04  0.13053197388E+04 0.  0.
        4    1    3    3  502    0 -0.26788925904E+03 -0.49844953113E+03  0.27398411828E+03  0.62871734520E+03  0.12699999809E+01 0.  1.
       -4    1    3    3    0  502  0.26788925904E+03  0.49844953113E+03  0.12883534525E+04  0.14071506037E+04  0.12699999809E+01 0. -1.
</event>
<event>
 5   0  0.1700511E-03  0.1333042E+04  0.7818609E-02  0.9003765E-01
        2   -1    0    0  501    0  0.00000000000E+00  0.00000000000E+00  0.17284288259E+04  0.17284288259E+04  0.25500000920E-02 0.  1.
       -2   -1    0    0    0  501  0.00000000000E+00  0.00000000000E+00 -0.25702565306E+03  0.25702565307E+03  0.25500000920E-02 0. -1.
    10030    2    1    2    0    0  0.00000000000E+00  0.00000000000E+00  0.14714031728E+04  0.19854544790E+04  0.13330424566E+04 0.  0.
        2    1    3    3  502    0  0.22731209836E+03 -0.37353303817E+03  0.14849426117E+04  0.15479832947E+04  0.25500000920E-02 0.  1.
       -2    1    3    3    0  502 -0.22731209836E+03  0.37353303817E+03 -0.13539438835E+02  0.43747118428E+03  0.25500000920E-02 0. -1.
</event>
<event>
 5   0  0.9098192E-04  0.1280695E+04  0.7818609E-02  0.9045016E-01
       -1   -1    0    0    0  501  0.00000000000E+00  0.00000000000E+00  0.13817583394E+04  0.13817583394E+04  0.50400001928E-02 0. -1.
        1   -1    0    0  501    0  0.00000000000E+00  0.00000000000E+00 -0.29675604857E+03  0.29675604861E+03  0.50400001928E-02 0.  1.
    10030    2    1    2    0    0  0.00000000000E+00  0.00000000000E+00  0.10850022908E+04  0.16785143880E+04  0.12806953501E+04 0.  0.
        1    1    3    3  502    0 -0.20283428213E+02  0.63411381394E+03  0.65625724785E+03  0.91278985636E+03  0.50400001928E-02 0.  1.
       -1    1    3    3    0  502  0.20283428213E+02 -0.63411381394E+03  0.42874504299E+03  0.76572453168E+03  0.50400001928E-02 0. -1.
</event>
<event>
 5   0  0.6284125E-04  0.1413793E+04  0.7818609E-02  0.8943894E-01
        3   -1    0    0  501    0  0.00000000000E+00  0.00000000000E+00  0.36493557061E+03  0.36493558459E+03  0.10100000352E+00 0. -1.
       -3   -1    0    0    0  501  0.00000000000E+00  0.00000000000E+00 -0.13692902245E+04  0.13692902282E+04  0.10100000352E+00 0.  1.
    10030    2    1    2    0    0  0.00000000000E+00  0.00000000000E+00 -0.10043546539E+04  0.17342258128E+04  0.14137930892E+04 0.  0.
        4    1    3    3  502    0  0.46250211082E+03  0.14170180736E+03 -0.11344823145E+04  0.12333042364E+04  0.12699999809E+01 0.  1.
       -4    1    3    3    0  502 -0.46250211082E+03 -0.14170180736E+03  0.13012766063E+03  0.50092157638E+03  0.12699999809E+01 0. -1.
</event>
<event>
 5   0  0.9098192E-04  0.1304364E+04  0.7818609E-02  0.9026112E-01
        1   -1    0    0  501    0  0.00000000000E+00  0.00000000000E+00  0.73384004548E+03  0.73384004550E+03  0.50400001928E-02 0. -1.
       -1   -1    0    0    0  501  0.00000000000E+00  0.00000000000E+00 -0.57961042842E+03  0.57961042845E+03  0.50400001928E-02 0.  1.
    10030    2    1    2    0    0  0.00000000000E+00  0.00000000000E+00  0.15422961706E+03  0.13134504739E+04  0.13043639725E+04 0.  0.
        1    1    3    3  502    0 -0.25192132324E+02 -0.57421555180E+03  0.38745520069E+03  0.69316641293E+03  0.50400001928E-02 0. -1.
       -1    1    3    3    0  502  0.25192132324E+02  0.57421555180E+03 -0.23322558363E+03  0.62028406101E+03  0.50400001928E-02 0.  1.
</event>
<event>
 5   0  0.1667342E-03  0.1314009E+04  0.7818609E-02  0.9018529E-01
        2   -1    0    0  501    0  0.00000000000E+00  0.00000000000E+00  0.10331200610E+04  0.10331200610E+04  0.25500000920E-02 0.  1.
       -2   -1    0    0    0  501  0.00000000000E+00  0.00000000000E+00 -0.41781655708E+03  0.41781655709E+03  0.25500000920E-02 0. -1.
    10030    2    1    2    0    0  0.00000000000E+00  0.00000000000E+00  0.61530350392E+03  0.14509366181E+04  0.13140086255E+04 0.  0.
        5    1    3    3  502    0 -0.83541845622E+00 -0.25448521886E+03  0.97646647280E+03  0.10090947860E+04  0.46999998093E+01 0.  1.
       -5    1    3    3    0  502  0.83541845622E+00  0.25448521886E+03 -0.36116296888E+03  0.44184183214E+03  0.46999998093E+01 0. -1.
</event>
<event>
 5   0  0.1623890E-03  0.1346273E+04  0.7818609E-02  0.8993655E-01
        2   -1    0    0  501    0  0.00000000000E+00  0.00000000000E+00  0.17019857487E+04  0.17019857487E+04  0.25500000920E-02 0.  1.
       -2   -1    0    0    0  501  0.00000000000E+00  0.00000000000E+00 -0.26622575085E+03  0.26622575086E+03  0.25500000920E-02 0. -1.
    10030    2    1    2    0    0  0.00000000000E+00  0.00000000000E+00  0.14357599979E+04  0.19682114996E+04  0.13462725339E+04 0.  0.
        3    1    3    3  502    0 -0.24541960404E+03 -0.42007482663E+03  0.37758891563E+02  0.48797478019E+03  0.10100000352E+00 0. -1.
       -3    1    3    3    0  502  0.24541960404E+03  0.42007482663E+03  0.13980011063E+04  0.14802367194E+04  0.10100000352E+00 0.  1.
</event>
<event>
 5   0  0.1667342E-03  0.1308853E+04  0.7818609E-02  0.9022574E-01
       -2   -1    0    0    0  501  0.00000000000E+00  0.00000000000E+00  0.55787880612E+03  0.55787880613E+03  0.25500000920E-02 0. -1.
        2   -1    0    0  501    0  0.00000000000E+00  0.00000000000E+00 -0.76768276488E+03  0.76768276488E+03  0.25500000920E-02 0.  1.
    10030    2    1    2    0    0  0.00000000000E+00  0.00000000000E+00 -0.20980395876E+03  0.13255615710E+04  0.13088528479E+04 0.  0.
        5    1    3    3  502    0 -0.52102833402E+03  0.34667906257E+03  0.88838202836E+02  0.63211645570E+03  0.46999998093E+01 0. -1.
       -5    1    3    3    0  502  0.52102833402E+03 -0.34667906257E+03 -0.29864216159E+03  0.69344511532E+03  0.46999998093E+01 0.  1.
</event>
<event>
 5   0  0.9110949E-04  0.1308237E+04  0.7818609E-02  0.9023058E-01
        1   -1    0    0  501    0  0.00000000000E+00  0.00000000000E+00  0.10136746181E+04  0.10136746182E+04  0.50400001928E-02 0.  1.
       -1   -1    0    0    0  501  0.00000000000E+00  0.00000000000E+00 -0.42209915769E+03  0.42209915772E+03  0.50400001928E-02 0. -1.
    10030    2    1    2    0    0  0.00000000000E+00  0.00000000000E+00  0.59157546046E+03  0.14357737759E+04  0.13082372912E+04 0.  0.
        2    1    3    3  502    0 -0.62092887081E+03 -0.18192103994E+03  0.40118808545E+03  0.76131452586E+03  0.25500000920E-02 0.  1.
       -2    1    3    3    0  502  0.62092887081E+03  0.18192103994E+03  0.19038737501E+03  0.67445925002E+03  0.25500000920E-02 0. -1.
</event>
<event>
 5   0  0.1694675E-03  0.1302922E+04  0.7818609E-02  0.9027251E-01
       -2   -1    0    0    0  501  0.00000000000E+00  0.00000000000E+00  0.35693432099E+03  0.35693432100E+03  0.25500000920E-02 0.  1.
        2   -1    0    0  501    0  0.00000000000E+00  0.00000000000E+00 -0.11890184139E+04  0.11890184139E+04  0.25500000920E-02 0. -1.
    10030    2    1    2    0    0  0.00000000000E+00  0.00000000000E+00 -0.83208409295E+03  0.15459527349E+04  0.13029220702E+04 0.  0.
        4    1    3    3  502    0 -0.27643589706E+03  0.56492887932E+03 -0.61753670073E+03  0.88142761105E+03  0.12699999809E+01 0. -1.
       -4    1    3    3    0  502  0.27643589706E+03 -0.56492887932E+03 -0.21454739221E+03  0.66452512389E+03  0.12699999809E+01 0.  1.
</event>
<event>
 5   0  0.9098192E-04  0.1279658E+04  0.7818609E-02  0.9045854E-01
       -1   -1    0    0    0  501  0.00000000000E+00  0.00000000000E+00  0.77018130547E+03  0.77018130549E+03  0.50400001928E-02 0.  1.
        1   -1    0    0  501    0  0.00000000000E+00  0.00000000000E+00 -0.53153874381E+03  0.53153874383E+03  0.50400001928E-02 0. -1.
    10030    2    1    2    0    0  0.00000000000E+00  0.00000000000E+00  0.23864256166E+03  0.13017200493E+04  0.12796580850E+04 0.  0.
        1    1    3    3  502    0 -0.87557693895E+02 -0.36989802426E+03 -0.40422693165E+03  0.55487864476E+03  0.50400001928E-02 0. -1.
       -1    1    3    3    0  502  0.87557693895E+02  0.36989802426E+03  0.64286949331E+03  0.74684140456E+03  0.50400001928E-02 0.  1.
</event>
<event>
 5   0  0.1623890E-03  0.1301857E+04  0.7818609E-02  0.9028094E-01
        2   -1    0    0  501    0  0.00000000000E+00  0.00000000000E+00  0.19115944019E+04  0.19115944019E+04  0.25500000920E-02 0.  1.
       -2   -1    0    0    0  501  0.00000000000E+00  0.00000000000E+00 -0.22165170626E+03  0.22165170628E+03  0.25500000920E-02 0. -1.
    10030    2    1    2    0    0  0.00000000000E+00  0.00000000000E+00  0.16899426957E+04  0.21332461082E+04  0.13018573822E+04 0.  0.
        3    1    3    3  502    0  0.13414623865E+03  0.51893417583E+03  0.14501965246E+04  0.15460782200E+04  0.10100000352E+00 0.  1.
       -3    1    3    3    0  502 -0.13414623865E+03 -0.51893417583E+03  0.23974617105E+03  0.58716788819E+03  0.10100000352E+00 0. -1.
</event>
<event>
 5   0  0.9098192E-04  0.1303310E+04  0.7818609E-02  0.9026944E-01
        1   -1    0    0  501    0  0.00000000000E+00  0.00000000000E+00  0.78410449079E+03  0.78410449080E+03  0.50400001928E-02 0.  1.
       -1   -1    0    0    0  501  0.00000000000E+00  0.00000000000E+00 -0.54157882626E+03  0.54157882628E+03  0.50400001928E-02 0. -1.
    10030    2    1    2    0    0  0.00000000000E+00  0.00000000000E+00  0.24252566453E+03  0.13256833171E+04  0.13033102314E+04 0.  0.
        1    1    3    3  502    0  0.24069283258E+03 -0.47455167894E+03  0.50391488563E+03  0.73284551416E+03  0.50400001928E-02 0.  1.
       -1    1    3    3    0  502 -0.24069283258E+03  0.47455167894E+03 -0.26138922110E+03  0.59283780292E+03  0.50400001928E-02 0. -1.
</event>
<event>
 5   0  0.1667342E-03  0.1315364E+04  0.7818609E-02  0.9017470E-01
        2   -1    0    0  501    0  0.00000000000E+00  0.00000000000E+00  0.24986616280E+04  0.24986616280E+04  0.25500000920E-02 0.  1.
       -2   -1    0    0    0  501  0.00000000000E+00  0.00000000000E+00 -0.17311086325E+03  0.17311086327E+03  0.25500000920E-02 0. -1.
    10030    2    1    2    0    0  0.00000000000E+00  0.00000000000E+00  0.23255507648E+04  0.26717724913E+04  0.13153637846E+04 0.  0.
        5    1    3    3  502    0  0.33857672484E+03 -0.19172198832E+03  0.22397578370E+04  0.22733078933E+04  0.46999998093E+01 0.  1.
       -5    1    3    3    0  502 -0.33857672484E+03  0.19172198832E+03  0.85792927790E+02  0.39846459800E+03  0.46999998093E+01 0. -1.
</event>
<event>
 5   0  0.6284125E-04  0.1306058E+04  0.7818609E-02  0.9024775E-01
        3   -1    0    0  501    0  0.00000000000E+00  0.00000000000E+00  0.21518882990E+03  0.21518885361E+03  0.10100000352E+00 0. -1.
       -3   -1    0    0    0  501  0.00000000000E+00  0.00000000000E+00 -0.19817317762E+04  0.19817317787E+04  0.10100000352E+00 0.  1.
    10030    2    1    2    0    0  0.00000000000E+00  0.00000000000E+00 -0.17665429462E+04  0.21969206323E+04  0.13060575347E+04 0.  0.
        1    1    3    3  502    0 -0.16194669507E+02 -0.33652167613E+03  0.57709492983E+02  0.34181792146E+03  0.50400001928E-02 0. -1.
       -1    1    3    3    0  502  0.16194669507E+02  0.33652167613E+03 -0.18242524392E+04  0.18551027109E+04  0.50400001928E-02 0.  1.
</event>
<event>
 5   0  0.9081324E-04  0.1303078E+04  0.7818609E-02  0.9027128E-01
        1   -1    0    0  501    0  0.00000000000E+00  0.00000000000E+00  0.11034935545E+04  0.11034935545E+04  0.50400001928E-02 0.  1.
       -1   -1    0    0    0  501  0.00000000000E+00  0.00000000000E+00 -0.38469001517E+03  0.38469001520E+03  0.50400001928E-02 0. -1.
    10030    2    1    2    0    0  0.00000000000E+00  0.00000000000E+00  0.71880353929E+03  0.14881835697E+04  0.13030778215E+04 0.  0.
        4    1    3    3  502    0 -0.74531130321E+02  0.33391817436E+03 -0.27384056604E+03  0.43823110919E+03  0.12699999809E+01 0. -1.
       -4    1    3    3    0  502  0.74531130321E+02 -0.33391817436E+03  0.99264410532E+03  0.10499524605E+04  0.12699999809E+01 0.  1.
</event>
<event>
 5   0  0.1700511E-03  0.1285473E+04  0.7818609E-02  0.9041165E-01
        2   -1    0    0  501    0  0.00000000000E+00  0.00000000000E+00  0.61406410185E+03  0.61406410186E+03  0.25500000920E-02 0.  1.
       -2   -1    0    0    0  501  0.00000000000E+00  0.00000000000E+00 -0.67274753770E+03  0.67274753770E+03  0.25500000920E-02 0. -1.
    10030    2    1    2    0    0  0.00000000000E+00  0.00000000000E+00 -0.58683435844E+02  0.12868116396E+04  0.12854728508E+04 0.  0.
        2    1    3    3  502    0  0.43633505407E+03 -0.13740353232E+03  0.42261725889E+03  0.62279479575E+03  0.25500000920E-02 0.  1.
       -2    1    3    3    0  502 -0.43633505407E+03  0.13740353232E+03 -0.48130069473E+03  0.66401684381E+03  0.25500000920E-02 0. -1.
</event>
<event>
 5   0  0.1623890E-03  0.1316735E+04  0.7818609E-02  0.9016398E-01
        2   -1    0    0  501    0  0.00000000000E+00  0.00000000000E+00  0.93509410982E+03  0.93509410982E+03  0.25500000920E-02 0.  1.
       -2   -1    0    0    0  501  0.00000000000E+00  0.00000000000E+00 -0.46353391486E+03  0.46353391487E+03  0.25500000920E-02 0. -1.
    10030    2    1    2    0    0  0.00000000000E+00  0.00000000000E+00  0.47156019496E+03  0.13986280247E+04  0.13167351039E+04 0.  0.
        3    1    3    3  502    0  0.40433365518E+03  0.45252390263E+03  0.50697099124E+03  0.79074849562E+03  0.10100000352E+00 0.  1.
       -3    1    3    3    0  502 -0.40433365518E+03 -0.45252390263E+03 -0.35410796285E+02  0.60787952907E+03  0.10100000352E+00 0. -1.
</event>
<event>
 5   0  0.9027076E-04  0.1311320E+04  0.7818609E-02  0.9020636E-01
       -1   -1    0    0    0  501  0.00000000000E+00  0.00000000000E+00  0.42471368508E+03  0.42471368511E+03  0.50400001928E-02 0.  1.
        1   -1    0    0  501    0  0.00000000000E+00  0.00000000000E+00 -0.10121873029E+04  0.10121873029E+04  0.50400001928E-02 0. -1.
    10030    2    1    2    0    0  0.00000000000E+00  0.00000000000E+00 -0.58747361783E+03  0.14369009880E+04  0.13113196398E+04 0.  0.
        5    1    3    3  502    0  0.28776752462E+03 -0.12212731041E+03  0.33777356698E+03  0.46025894964E+03  0.46999998093E+01 0.  1.
       -5    1    3    3    0  502 -0.28776752462E+03  0.12212731041E+03 -0.92524718481E+03  0.97664203840E+03  0.46999998093E+01 0. -1.
</event>
<event>
 5   0  0.6284125E-04  0.1288673E+04  0.7818609E-02  0.9038596E-01
       -4   -1    0    0    0  501  0.00000000000E+00  0.00000000000E+00  0.41821239862E+03  0.41821432694E+03  0.12699999809E+01 0. -1.
        4   -1    0    0  501    0  0.00000000000E+00  0.00000000000E+00 -0.99271992532E+03  0.99272073769E+03  0.12699999809E+01 0.  1.
    10030    2    1    2    0    0  0.00000000000E+00  0.00000000000E+00 -0.57450752670E+03  0.14109350646E+04  0.12886732939E+04 0.  0.
        3    1    3    3  502    0 -0.16503703164E+03  0.37485266955E+03 -0.83185648581E+03  0.92722002182E+03  0.10100000352E+00 0.  1.
       -3    1    3    3    0  502  0.16503703164E+03 -0.37485266955E+03  0.25734895911E+03  0.48371504281E+03  0.10100000352E+00 0. -1.
</event>
<event>
 5   0  0.1714861E-03  0.1305034E+04  0.7818609E-02  0.9025583E-01
        2   -1    0    0  501    0  0.00000000000E+00  0.00000000000E+00  0.11112392678E+04  0.11112392678E+04  0.25500000920E-02 0. -1.
       -2   -1    0    0    0  501  0.00000000000E+00  0.00000000000E+00 -0.38315632314E+03  0.38315632315E+03  0.25500000920E-02 0.  1.
    10030    2    1    2    0    0  0.00000000000E+00  0.00000000000E+00  0.72808294465E+03  0.14943955909E+04  0.13050338723E+04 0.  0.
        1    1    3    3  502    0 -0.21689924517E+03 -0.53404112711E+03  0.13833071386E+02  0.57657311929E+03  0.50400001928E-02 0.  1.
       -1    1    3    3    0  502  0.21689924517E+03  0.53404112711E+03  0.71424987326E+03  0.91782247166E+03  0.50400001928E-02 0. -1.
</event>
<event>
 5   0  0.1700511E-03  0.1302872E+04  0.7818609E-02  0.9027291E-01
        2   -1    0    0  501    0  0.00000000000E+00  0.00000000000E+00  0.14642570030E+04  0.14642570030E+04  0.25500000920E-02 0.  1.
       -2   -1    0    0    0  501  0.00000000000E+00  0.00000000000E+00 -0.28981867562E+03  0.28981867563E+03  0.25500000920E-02 0. -1.
    10030    2    1    2    0    0  0.00000000000E+00  0.00000000000E+00  0.11744383274E+04  0.17540756786E+04  0.13028722507E+04 0.  0.
        2    1    3    3  502    0 -0.33340467645E+03  0.40755950701E+03  0.70849061732E+02  0.53130313343E+03  0.25500000920E-02 0. -1.
       -2    1    3    3    0  502  0.33340467645E+03 -0.40755950701E+03  0.11035892657E+04  0.12227725452E+04  0.25500000920E-02 0.  1.
</event>
<event>
 5   0  0.9110949E-04  0.1288982E+04  0.7818609E-02  0.9038348E-01
        1   -1    0    0  501    0  0.00000000000E+00  0.00000000000E+00  0.66169700351E+03  0.66169700353E+03  0.50400001928E-02 0. -1.
       -1   -1    0    0    0  501  0.00000000000E+00  0.00000000000E+00 -0.62773275736E+03  0.62773275738E+03  0.50400001928E-02 0.  1.
    10030    2    1    2    0    0  0.00000000000E+00  0.00000000000E+00  0.33964246147E+02  0.12894297609E+04  0.12889823654E+04 0.  0.
        2    1    3    3  502    0 -0.30639275155E+03  0.21119844231E+02  0.58378828259E+03  0.65964484757E+03  0.25500000920E-02 0. -1.
       -2    1    3    3    0  502  0.30639275155E+03 -0.21119844231E+02 -0.54982403645E+03  0.62978491335E+03  0.25500000920E-02 0.  1.
</event>
<event>
 5   0  0.1694675E-03  0.1297007E+04  0.7818609E-02  0.9031942E-01
       -2   -1    0    0    0  501  0.00000000000E+00  0.00000000000E+00  0.39641957882E+03  0.39641957882E+03  0.25500000920E-02 0.  1.
        2   -1    0    0  501    0  0.00000000000E+00  0.00000000000E+00 -0.10608875054E+04  0.10608875054E+04  0.25500000920E-02 0. -1.
    10030    2    1    2    0    0  0.00000000000E+00  0.00000000000E+00 -0.66446792663E+03  0.14573070843E+04  0.12970066740E+04 0.  0.
        4    1    3    3  502    0 -0.54721754754E+03  0.18482644006E+03 -0.92252058302E+00  0.57759009793E+03  0.12699999809E+01 0. -1.
       -4    1    3    3    0  502  0.54721754754E+03 -0.18482644006E+03 -0.66354540604E+03  0.87971698634E+03  0.12699999809E+01 0.  1.
</event>
<event>
 5   0  0.1667342E-03  0.1301299E+04  0.7818609E-02  0.9028536E-01
        2   -1    0    0  501    0  0.00000000000E+00  0.00000000000E+00  0.20873401937E+03  0.20873401938E+03  0.25500000920E-02 0. -1.
       -2   -1    0    0    0  501  0.00000000000E+00  0.00000000000E+00 -0.20281527829E+04  0.20281527829E+04  0.25500000920E-02 0.  1.
    10030    2    1    2    0    0  0.00000000000E+00  0.00000000000E+00 -0.18194187635E+04  0.22368868023E+04  0.13012985550E+04 0.  0.
        5    1    3    3  502    0 -0.36561300386E+03  0.61882679304E+02 -0.18287049371E+04  0.18659276973E+04  0.46999998093E+01 0.  1.
       -5    1    3    3    0  502  0.36561300386E+03 -0.61882679304E+02  0.92861735068E+01  0.37095910504E+03  0.46999998093E+01 0. -1.
</event>
<event>
 5   0  0.1694675E-03  0.1225089E+04  0.7818609E-02  0.9091175E-01
        2   -1    0    0  501    0  0.00000000000E+00  0.00000000000E+00  0.78779748381E+03  0.78779748381E+03  0.25500000920E-02 0. -1.
       -2   -1    0    0    0  501  0.00000000000E+00  0.00000000000E+00 -0.47627807075E+03  0.47627807076E+03  0.25500000920E-02 0.  1.
    10030    2    1    2    0    0  0.00000000000E+00  0.00000000000E+00  0.31151941306E+03  0.12640755546E+04  0.12250888388E+04 0.  0.
        4    1    3    3  502    0  0.11672632275E+03 -0.12817180025E+03 -0.45043643573E+03  0.48264649624E+03  0.12699999809E+01 0.  1.
       -4    1    3    3    0  502 -0.11672632275E+03  0.12817180025E+03  0.76195584879E+03  0.78142905833E+03  0.12699999809E+01 0. -1.
</event>
<event>
 5   0  0.1700511E-03  0.1301829E+04  0.7818609E-02  0.9028116E-01
        2   -1    0    0  501    0  0.00000000000E+00  0.00000000000E+00  0.65682128147E+03  0.65682128148E+03  0.25500000920E-02 0.  1.
       -2   -1    0    0    0  501  0.00000000000E+00  0.00000000000E+00 -0.64506104083E+03  0.64506104084E+03  0.25500000920E-02 0. -1.
    10030    2    1    2    0    0  0.00000000000E+00  0.00000000000E+00  0.11760240637E+02  0.13018823223E+04  0.13018292046E+04 0.  0.
        2    1    3    3  502    0  0.47295014406E+02  0.60605112648E+03 -0.22684171487E+03  0.64883892447E+03  0.25500000920E-02 0. -1.
       -2    1    3    3    0  502 -0.47295014406E+02 -0.60605112648E+03  0.23860195551E+03  0.65304339785E+03  0.25500000920E-02 0.  1.
</event>
<event>
 5   0  0.6284125E-04  0.1284580E+04  0.7818609E-02  0.9041884E-01
       -4   -1    0    0    0  501  0.00000000000E+00  0.00000000000E+00  0.14560743360E+04  0.14560748898E+04  0.12699999809E+01 0.  1.
        4   -1    0    0  501    0  0.00000000000E+00  0.00000000000E+00 -0.28331894255E+03  0.28332178897E+03  0.12699999809E+01 0. -1.
    10030    2    1    2    0    0  0.00000000000E+00  0.00000000000E+00  0.11727553934E+04  0.17393966788E+04  0.12845799288E+04 0.  0.
        2    1    3    3  502    0  0.12092387508E+03 -0.30951488846E+03  0.13306351295E+04  0.13714998715E+04  0.25500000920E-02 0.  1.
       -2    1    3    3    0  502 -0.12092387508E+03  0.30951488846E+03 -0.15787973606E+03  0.36789680728E+03  0.25500000920E-02 0. -1.
</event>
<event>
 5   0  0.9098192E-04  0.1310992E+04  0.7818609E-02  0.9020894E-01
        1   -1    0    0  501    0  0.00000000000E+00  0.00000000000E+00  0.76106096653E+03  0.76106096655E+03  0.50400001928E-02 0. -1.
       -1   -1    0    0    0  501  0.00000000000E+00  0.00000000000E+00 -0.56457373842E+03  0.56457373844E+03  0.50400001928E-02 0.  1.
    10030    2    1    2    0    0  0.00000000000E+00  0.00000000000E+00  0.19648722812E+03  0.13256347050E+04  0.13109920443E+04 0.  0.
        1    1    3    3  502    0 -0.72203520954E+02  0.12177887311E+03 -0.54892959592E+03  0.56689253274E+03  0.50400001928E-02 0.  1.
       -1    1    3    3    0  502  0.72203520954E+02 -0.12177887311E+03  0.74541682404E+03  0.75874217225E+03  0.50400001928E-02 0. -1.
</event>
<event>
 5   0  0.1623890E-03  0.1291852E+04  0.7818609E-02  0.9036052E-01
       -2   -1    0    0    0  501  0.00000000000E+00  0.00000000000E+00  0.12547589199E+04  0.12547589199E+04  0.25500000920E-02 0. -1.
        2   -1    0    0  501    0  0.00000000000E+00  0.00000000000E+00 -0.33251020015E+03  0.33251020016E+03  0.25500000920E-02 0.  1.
    10030    2    1    2    0    0  0.00000000000E+00  0.00000000000E+00  0.92224871977E+03  0.15872691201E+04  0.12918516008E+04 0.  0.
        3    1    3    3  502    0 -0.42988998426E+03 -0.33178804868E+03  0.89086551899E+03  0.10433264546E+04  0.10100000352E+00 0. -1.
       -3    1    3    3    0  502  0.42988998426E+03  0.33178804868E+03  0.31383200780E+02  0.54394266546E+03  0.10100000352E+00 0.  1.
</event>
<event>
 5   0  0.9098192E-04  0.1253301E+04  0.7818609E-02  0.9067441E-01
       -1   -1    0    0    0  501  0.00000000000E+00  0.00000000000E+00  0.20288799351E+03  0.20288799357E+03  0.50400001928E-02 0.  1.
        1   -1    0    0  501    0  0.00000000000E+00  0.00000000000E+00 -0.19355047083E+04  0.19355047083E+04  0.50400001928E-02 0. -1.
    10030    2    1    2    0    0  0.00000000000E+00  0.00000000000E+00 -0.17326167148E+04  0.21383927019E+04  0.12533007090E+04 0.  0.
        1    1    3    3  502    0  0.17279838210E+03  0.31849526949E+03 -0.17386336163E+04  0.17759913764E+04  0.50400001928E-02 0. -1.
       -1    1    3    3    0  502 -0.17279838210E+03 -0.31849526949E+03  0.60169014854E+01  0.36240132543E+03  0.50400001928E-02 0.  1.
</event>
<event>
 5   0  0.1700511E-03  0.1296043E+04  0.7818609E-02  0.9032709E-01
       -2   -1    0    0    0  501  0.00000000000E+00  0.00000000000E+00  0.38715249821E+03  0.38715249821E+03  0.25500000920E-02 0.  1.
        2   -1    0    0  501    0  0.00000000000E+00  0.00000000000E+00 -0.10846672537E+04  0.10846672537E+04  0.25500000920E-02 0. -1.
    10030    2    1    2    0    0  0.00000000000E+00  0.00000000000E+00 -0.69751475552E+03  0.14718197519E+04  0.12960426490E+04 0.  0.
        2    1    3    3  502    0 -0.80521388171E+02  0.21407653510E+03  0.33979092934E+03  0.40959776917E+03  0.25500000920E-02 0.  1.
       -2    1    3    3    0  502  0.80521388171E+02 -0.21407653510E+03 -0.10373056849E+04  0.10622219828E+04  0.25500000920E-02 0. -1.
</event>
<event>
 5   0  0.1667342E-03  0.1297880E+04  0.7818609E-02  0.9031248E-01
       -2   -1    0    0    0  501  0.00000000000E+00  0.00000000000E+00  0.34924645030E+03  0.34924645031E+03  0.25500000920E-02 0.  1.
        2   -1    0    0  501    0  0.00000000000E+00  0.00000000000E+00 -0.12058047312E+04  0.12058047312E+04  0.25500000920E-02 0. -1.
    10030    2    1    2    0    0  0.00000000000E+00  0.00000000000E+00 -0.85655828094E+03  0.15550511816E+04  0.12978798437E+04 0.  0.
        5    1    3    3  502    0  0.47335631183E+03  0.20074622592E+03  0.46065661343E+02  0.51624546519E+03  0.46999998093E+01 0.  1.
       -5    1    3    3    0  502 -0.47335631183E+03 -0.20074622592E+03 -0.90262394228E+03  0.10388057164E+04  0.46999998093E+01 0. -1.
</event>
<event>
 5   0  0.9098192E-04  0.1295606E+04  0.7818609E-02  0.9033057E-01
       -1   -1    0    0    0  501  0.00000000000E+00  0.00000000000E+00  0.46647859624E+03  0.46647859626E+03  0.50400001928E-02 0.  1.
        1   -1    0    0  501    0  0.00000000000E+00  0.00000000000E+00 -0.89960970614E+03  0.89960970616E+03  0.50400001928E-02 0. -1.
    10030    2    1    2    0    0  0.00000000000E+00  0.00000000000E+00 -0.43313110991E+03  0.13660883024E+04  0.12956059168E+04 0.  0.
        1    1    3    3  502    0  0.50067418574E+03 -0.18154634762E+02  0.21643840294E+03  0.54575618487E+03  0.50400001928E-02 0.  1.
       -1    1    3    3    0  502 -0.50067418574E+03  0.18154634762E+02 -0.64956951285E+03  0.82033211755E+03  0.50400001928E-02 0. -1.
</event>
<event>
 5   0  0.9081324E-04  0.1259842E+04  0.7818609E-02  0.9062031E-01
        1   -1    0    0  501    0  0.00000000000E+00  0.00000000000E+00  0.15073820062E+03  0.15073820070E+03  0.50400001928E-02 0. -1.
       -1   -1    0    0    0  501  0.00000000000E+00  0.00000000000E+00 -0.26323823156E+04  0.26323823156E+04  0.50400001928E-02 0.  1.
    10030    2    1    2    0    0  0.00000000000E+00  0.00000000000E+00 -0.24816441150E+04  0.27831205163E+04  0.12598421706E+04 0.  0.
        4    1    3    3  502    0 -0.58440156341E+03 -0.22819070500E+03 -0.13658419528E+04  0.15030376037E+04  0.12699999809E+01 0.  1.
       -4    1    3    3    0  502  0.58440156341E+03  0.22819070500E+03 -0.11158021622E+04  0.12800829126E+04  0.12699999809E+01 0. -1.
</event>
<event>
 5   0  0.9027076E-04  0.1301376E+04  0.7818609E-02  0.9028475E-01
        1   -1    0    0  501    0  0.00000000000E+00  0.00000000000E+00  0.17425258965E+04  0.17425258966E+04  0.50400001928E-02 0. -1.
       -1   -1    0    0    0  501  0.00000000000E+00  0.00000000000E+00 -0.24297771117E+03  0.24297771123E+03  0.50400001928E-02 0.  1.
    10030    2    1    2    0    0  0.00000000000E+00  0.00000000000E+00  0.14995481854E+04  0.19855036078E+04  0.13013761241E+04 0.  0.
        5    1    3    3  502    0  0.30879195132E+03 -0.11022368807E+03 -0.10770356972E+03  0.34514327394E+03  0.46999998093E+01 0.  1.
       -5    1    3    3    0  502 -0.30879195132E+03  0.11022368807E+03  0.16072517551E+04  0.16403603338E+04  0.46999998093E+01 0. -1.
</event>
<event>
 5   0  0.6284125E-04  0.1256647E+04  0.7818609E-02  0.9064669E-01
        3   -1    0    0  501    0  0.00000000000E+00  0.00000000000E+00  0.31090857500E+03  0.31090859140E+03  0.10100000352E+00 0.  1.
       -3   -1    0    0    0  501  0.00000000000E+00  0.00000000000E+00 -0.12697956098E+04  0.12697956138E+04  0.10100000352E+00 0. -1.
    10030    2    1    2    0    0  0.00000000000E+00  0.00000000000E+00 -0.95888703481E+03  0.15807042052E+04  0.12566469030E+04 0.  0.
        1    1    3    3  502    0  0.48935113228E+03 -0.13065629308E+02 -0.97491697786E+03  0.10909162915E+04  0.50400001928E-02 0. -1.
       -1    1    3    3    0  502 -0.48935113228E+03  0.13065629308E+02  0.16029943048E+02  0.48978791373E+03  0.50400001928E-02 0.  1.
</event>
<event>
 5   0  0.6284125E-04  0.1314905E+04  0.7818609E-02  0.9017828E-01
       -3   -1    0    0    0  501  0.00000000000E+00  0.00000000000E+00  0.56990511836E+03  0.56990512731E+03  0.10100000352E+00 0. -1.
        3   -1    0    0  501    0  0.00000000000E+00  0.00000000000E+00 -0.75844923405E+03  0.75844924078E+03  0.10100000352E+00 0.  1.
    10030    2    1    2    0    0  0.00000000000E+00  0.00000000000E+00 -0.18854411569E+03  0.13283543681E+04  0.13149054885E+04 0.  0.
        2    1    3    3  502    0  0.80488406106E+02  0.35473054899E+02 -0.75247836185E+03  0.75760174643E+03  0.25500000920E-02 0.  1.
       -2    1    3    3    0  502 -0.80488406106E+02 -0.35473054899E+02  0.56393424615E+03  0.57075262166E+03  0.25500000920E-02 0. -1.
</event>
<event>
 5   0  0.9215829E-04  0.1297208E+04  0.7818609E-02  0.9031782E-01
       -1   -1    0    0    0  501  0.00000000000E+00  0.00000000000E+00  0.90765767454E+03  0.90765767455E+03  0.50400001928E-02 0. -1.
        1   -1    0    0  501    0  0.00000000000E+00  0.00000000000E+00 -0.46348666137E+03  0.46348666140E+03  0.50400001928E-02 0.  1.
    10030    2    1    2    0    0  0.00000000000E+00  0.00000000000E+00  0.44417101317E+03  0.13711443359E+04  0.12972081179E+04 0.  0.
        3    1    3    3  502    0  0.44461035528E+03 -0.13339741145E+03  0.70091069184E+03  0.84068367746E+03  0.10100000352E+00 0. -1.
       -3    1    3    3    0  502 -0.44461035528E+03  0.13339741145E+03 -0.25673967867E+03  0.53046065849E+03  0.10100000352E+00 0.  1.
</event>
<event>
 5   0  0.1667342E-03  0.1323344E+04  0.7818609E-02  0.9011255E-01
        2   -1    0    0  501    0  0.00000000000E+00  0.00000000000E+00  0.57684853075E+03  0.57684853076E+03  0.25500000920E-02 0. -1.
       -2   -1    0    0    0  501  0.00000000000E+00  0.00000000000E+00 -0.75896873982E+03  0.75896873982E+03  0.25500000920E-02 0.  1.
    10030    2    1    2    0    0  0.00000000000E+00  0.00000000000E+00 -0.18212020907E+03  0.13358172706E+04  0.13233442522E+04 0.  0.
        5    1    3    3  502    0  0.24599514634E+03  0.14785602144E+03 -0.69284434534E+03  0.74995359321E+03  0.46999998093E+01 0.  1.
       -5    1    3    3    0  502 -0.24599514634E+03 -0.14785602144E+03  0.51072413627E+03  0.58586367737E+03  0.46999998093E+01 0. -1.
</event>
<event>
 5   0  0.6284125E-04  0.1292951E+04  0.7818609E-02  0.9035173E-01
       -3   -1    0    0    0  501  0.00000000000E+00  0.00000000000E+00  0.59605057298E+03  0.59605058154E+03  0.10100000352E+00 0. -1.
        3   -1    0    0  501    0  0.00000000000E+00  0.00000000000E+00 -0.70116679692E+03  0.70116680420E+03  0.10100000352E+00 0.  1.
    10030    2    1    2    0    0  0.00000000000E+00  0.00000000000E+00 -0.10511622395E+03  0.12972173857E+04  0.12929514783E+04 0.  0.
        2    1    3    3  502    0  0.30980109931E+03  0.25834096762E+02 -0.62124988786E+03  0.69469097077E+03  0.25500000920E-02 0.  1.
       -2    1    3    3    0  502 -0.30980109931E+03 -0.25834096762E+02  0.51613366392E+03  0.60252641496E+03  0.25500000920E-02 0. -1.
</event>
<event>
 5   0  0.1667342E-03  0.1297835E+04  0.7818609E-02  0.9031284E-01
       -2   -1    0    0    0  501  0.00000000000E+00  0.00000000000E+00  0.28992507375E+03  0.28992507376E+03  0.25500000920E-02 0.  1.
        2   -1    0    0  501    0  0.00000000000E+00  0.00000000000E+00 -0.14524230067E+04  0.14524230067E+04  0.25500000920E-02 0. -1.
    10030    2    1    2    0    0  0.00000000000E+00  0.00000000000E+00 -0.11624979329E+04  0.17423480805E+04  0.12978348853E+04 0.  0.
        5    1    3    3  502    0 -0.37470241325E+02  0.13420879689E+03 -0.14320783207E+04  0.14388489938E+04  0.46999998093E+01 0. -1.
       -5    1    3    3    0  502  0.37470241325E+02 -0.13420879689E+03  0.26958038779E+03  0.30349908670E+03  0.46999998093E+01 0.  1.
</event>
<event>
 5   0  0.9081324E-04  0.1288998E+04  0.7818609E-02  0.9038335E-01
        1   -1    0    0  501    0  0.00000000000E+00  0.00000000000E+00  0.31630236483E+03  0.31630236487E+03  0.50400001928E-02 0. -1.
       -1   -1    0    0    0  501  0.00000000000E+00  0.00000000000E+00 -0.13132345695E+04  0.13132345695E+04  0.50400001928E-02 0.  1.
    10030    2    1    2    0    0  0.00000000000E+00  0.00000000000E+00 -0.99693220470E+03  0.16295369344E+04  0.12889983708E+04 0.  0.
        4    1    3    3  502    0 -0.62788200663E+03  0.12949681828E+03 -0.41487325005E+03  0.76362730877E+03  0.12699999809E+01 0.  1.
       -4    1    3    3    0  502  0.62788200663E+03 -0.12949681828E+03 -0.58205895464E+03  0.86590962564E+03  0.12699999809E+01 0. -1.
</event>
<event>
 5   0  0.9027076E-04  0.1250658E+04  0.7818609E-02  0.9069636E-01
       -1   -1    0    0    0  501  0.00000000000E+00  0.00000000000E+00  0.48380617359E+03  0.48380617362E+03  0.50400001928E-02 0.  1.
        1   -1    0    0  501    0  0.00000000000E+00  0.00000000000E+00 -0.80825001645E+03  0.80825001647E+03  0.50400001928E-02 0. -1.
    10030    2    1    2    0    0  0.00000000000E+00  0.00000000000E+00 -0.32444384286E+03  0.12920561901E+04  0.12506579833E+04 0.  0.
        5    1    3    3  502    0 -0.21681784987E+03  0.23962381902E+03  0.39083437899E+03  0.50715200528E+03  0.46999998093E+01 0.  1.
       -5    1    3    3    0  502  0.21681784987E+03 -0.23962381902E+03 -0.71527822185E+03  0.78490418480E+03  0.46999998093E+01 0. -1.
</event>
<event>
 5   0  0.1623890E-03  0.1312401E+04  0.7818609E-02  0.9019788E-01
       -2   -1    0    0    0  501  0.00000000000E+00  0.00000000000E+00  0.68179025596E+03  0.68179025596E+03  0.25500000920E-02 0.  1.
        2   -1    0    0  501    0  0.00000000000E+00  0.00000000000E+00 -0.63157161741E+03  0.63157161741E+03  0.25500000920E-02 0. -1.
    10030    2    1    2    0    0  0.00000000000E+00  0.00000000000E+00  0.50218638550E+02  0.13133618734E+04  0.13124014244E+04 0.  0.
        3    1    3    3  502    0  0.56322304446E+03  0.17247183381E+03  0.31451403075E+03  0.66774682104E+03  0.10100000352E+00 0.  1.
       -3    1    3    3    0  502 -0.56322304446E+03 -0.17247183381E+03 -0.26429539221E+03  0.64561505234E+03  0.10100000352E+00 0. -1.
</event>
<event>
 5   0  0.1667342E-03  0.1298072E+04  0.7818609E-02  0.9031095E-01
        2   -1    0    0  501    0  0.00000000000E+00  0.00000000000E+00  0.80810975064E+03  0.80810975065E+03  0.25500000920E-02 0.  1.
       -2   -1    0    0    0  501  0.00000000000E+00  0.00000000000E+00 -0.52127539586E+03  0.52127539587E+03  0.25500000920E-02 0. -1.
    10030    2    1    2    0    0  0.00000000000E+00  0.00000000000E+00  0.28683435478E+03  0.13293851465E+04  0.12980720013E+04 0.  0.
        5    1    3    3  502    0 -0.43129120584E+03 -0.29010732024E+03 -0.25461138908E+03  0.57881206876E+03  0.46999998093E+01 0.  1.
       -5    1    3    3    0  502  0.43129120584E+03  0.29010732024E+03  0.54144574387E+03  0.75057307775E+03  0.46999998093E+01 0. -1.
</event>
<event>
 5   0  0.6284125E-04  0.1314295E+04  0.7818609E-02  0.9018305E-01
        3   -1    0    0  501    0  0.00000000000E+00  0.00000000000E+00  0.32878080354E+03  0.32878081905E+03  0.10100000352E+00 0.  1.
       -3   -1    0    0    0  501  0.00000000000E+00  0.00000000000E+00 -0.13134669260E+04  0.13134669298E+04  0.10100000352E+00 0. -1.
    10030    2    1    2    0    0  0.00000000000E+00  0.00000000000E+00 -0.98468612241E+03  0.16422477489E+04  0.13142948334E+04 0.  0.
        4    1    3    3  502    0 -0.41983493934E+02 -0.18028126609E+03  0.29553061649E+03  0.34871751726E+03  0.12699999809E+01 0.  1.
       -4    1    3    3    0  502  0.41983493934E+02  0.18028126609E+03 -0.12802167389E+04  0.12935302316E+04  0.12699999809E+01 0. -1.
</event>
<event>
 5   0  0.1694675E-03  0.1292340E+04  0.7818609E-02  0.9035662E-01
        2   -1    0    0  501    0  0.00000000000E+00  0.00000000000E+00  0.97338312693E+03  0.97338312693E+03  0.25500000920E-02 0.  1.
       -2   -1    0    0    0  501  0.00000000000E+00  0.00000000000E+00 -0.42895317690E+03  0.42895317691E+03  0.25500000920E-02 0. -1.
    10030    2    1    2    0    0  0.00000000000E+00  0.00000000000E+00  0.54442995003E+03  0.14023363038E+04  0.12923401791E+04 0.  0.
        4    1    3    3  502    0  0.20616953804E+03 -0.61143814567E+03  0.23507161381E+03  0.68674796025E+03  0.12699999809E+01 0.  1.
       -4    1    3    3    0  502 -0.20616953804E+03  0.61143814567E+03  0.30935833622E+03  0.71558834359E+03  0.12699999809E+01 0. -1.
</event>
<event>
 5   0  0.9098192E-04  0.1330788E+04  0.7818609E-02  0.9005500E-01
        1   -1    0    0  501    0  0.00000000000E+00  0.00000000000E+00  0.35452312875E+03  0.35452312878E+03  0.50400001928E-02 0.  1.
       -1   -1    0    0    0  501  0.00000000000E+00  0.00000000000E+00 -0.12488580730E+04  0.12488580730E+04  0.50400001928E-02 0. -1.
    10030    2    1    2    0    0  0.00000000000E+00  0.00000000000E+00 -0.89433494421E+03  0.16033812017E+04  0.13307878440E+04 0.  0.
        1    1    3    3  502    0 -0.33296838418E+03  0.35207852263E+03 -0.99655401560E+03  0.11081277620E+04  0.50400001928E-02 0. -1.
       -1    1    3    3    0  502  0.33296838418E+03 -0.35207852263E+03  0.10221907139E+03  0.49525343971E+03  0.50400001928E-02 0.  1.
</event>
<event>
 5   0  0.9081324E-04  0.1297994E+04  0.7818609E-02  0.9031157E-01
        1   -1    0    0  501    0  0.00000000000E+00  0.00000000000E+00  0.10277825217E+04  0.10277825217E+04  0.50400001928E-02 0.  1.
       -1   -1    0    0    0  501  0.00000000000E+00  0.00000000000E+00 -0.40981151984E+03  0.40981151987E+03  0.50400001928E-02 0. -1.
    10030    2    1    2    0    0  0.00000000000E+00  0.00000000000E+00  0.61797100181E+03  0.14375940415E+04  0.12979940174E+04 0.  0.
        4    1    3    3  502    0  0.63239639880E+03  0.14569449299E+03  0.30168793653E+03  0.71566005509E+03  0.12699999809E+01 0. -1.
       -4    1    3    3    0  502 -0.63239639880E+03 -0.14569449299E+03  0.31628306529E+03  0.72193398645E+03  0.12699999809E+01 0.  1.
</event>
<event>
 5   0  0.9081324E-04  0.1265493E+04  0.7818609E-02  0.9057386E-01
        1   -1    0    0  501    0  0.00000000000E+00  0.00000000000E+00  0.15928681277E+04  0.15928681277E+04  0.50400001928E-02 0.  1.
       -1   -1    0    0    0  501  0.00000000000E+00  0.00000000000E+00 -0.25135057730E+03  0.25135057735E+03  0.50400001928E-02 0. -1.
    10030    2    1    2    0    0  0.00000000000E+00  0.00000000000E+00  0.13415175504E+04  0.18442187051E+04  0.12654933007E+04 0.  0.
        4    1    3    3  502    0 -0.20346582259E+03  0.21824791327E+03 -0.14238509951E+03  0.33061400767E+03  0.12699999809E+01 0. -1.
       -4    1    3    3    0  502  0.20346582259E+03 -0.21824791327E+03  0.14839026499E+04  0.15136046974E+04  0.12699999809E+01 0.  1.
</event>
<event>
 5   0  0.9081324E-04  0.1214239E+04  0.7818609E-02  0.9100483E-01
       -1   -1    0    0    0  501  0.00000000000E+00  0.00000000000E+00  0.24936663335E+03  0.24936663340E+03  0.50400001928E-02 0.  1.
        1   -1    0    0  501    0  0.00000000000E+00  0.00000000000E+00 -0.14781221266E+04  0.14781221266E+04  0.50400001928E-02 0. -1.
    10030    2    1    2    0    0  0.00000000000E+00  0.00000000000E+00 -0.12287554932E+04  0.17274887600E+04  0.12142394137E+04 0.  0.
        4    1    3    3  502    0 -0.49389645166E+03  0.30788081242E+03 -0.36850121837E+03  0.68885343903E+03  0.12699999809E+01 0. -1.
       -4    1    3    3    0  502  0.49389645166E+03 -0.30788081242E+03 -0.86025427483E+03  0.10386353209E+04  0.12699999809E+01 0.  1.
</event>
<event>
 5   0  0.9098192E-04  0.1296494E+04  0.7818609E-02  0.9032350E-01
       -1   -1    0    0    0  501  0.00000000000E+00  0.00000000000E+00  0.52118228359E+03  0.52118228362E+03  0.50400001928E-02 0.  1.
        1   -1    0    0  501    0  0.00000000000E+00  0.00000000000E+00 -0.80629003903E+03  0.80629003905E+03  0.50400001928E-02 0. -1.
    10030    2    1    2    0    0  0.00000000000E+00  0.00000000000E+00 -0.28510775544E+03  0.13274723227E+04  0.12964938624E+04 0.  0.
        1    1    3    3  502    0  0.21121577444E+03  0.43430558536E+03 -0.58531037456E+03  0.75882915036E+03  0.50400001928E-02 0. -1.
       -1    1    3    3    0  502 -0.21121577444E+03 -0.43430558536E+03  0.30020261912E+03  0.56864317230E+03  0.50400001928E-02 0.  1.
</event>
<event>
 5   0  0.9027076E-04  0.1286616E+04  0.7818609E-02  0.9040247E-01
       -1   -1    0    0    0  501  0.00000000000E+00  0.00000000000E+00  0.30913370968E+03  0.30913370972E+03  0.50400001928E-02 0. -1.
        1   -1    0    0  501    0  0.00000000000E+00  0.00000000000E+00 -0.13387256127E+04  0.13387256127E+04  0.50400001928E-02 0.  1.
    10030    2    1    2    0    0  0.00000000000E+00  0.00000000000E+00 -0.10295919030E+04  0.16478593224E+04  0.12866160499E+04 0.  0.
        5    1    3    3  502    0 -0.27042966082E+03 -0.39630304974E+03  0.34047745340E+02  0.48100898916E+03  0.46999998093E+01 0. -1.
       -5    1    3    3    0  502  0.27042966082E+03  0.39630304974E+03 -0.10636396484E+04  0.11668503333E+04  0.46999998093E+01 0.  1.
</event>
<event>
 5   0  0.1694675E-03  0.1305163E+04  0.7818609E-02  0.9025481E-01
       -2   -1    0    0    0  501  0.00000000000E+00  0.00000000000E+00  0.14593008615E+04  0.14593008615E+04  0.25500000920E-02 0. -1.
        2   -1    0    0  501    0  0.00000000000E+00  0.00000000000E+00 -0.29182646612E+03  0.29182646613E+03  0.25500000920E-02 0.  1.
    10030    2    1    2    0    0  0.00000000000E+00  0.00000000000E+00  0.11674743954E+04  0.17511273277E+04  0.13051629989E+04 0.  0.
        4    1    3    3  502    0  0.10851640822E+03 -0.63833364746E+03  0.69286343863E+03  0.94831799193E+03  0.12699999809E+01 0.  1.
       -4    1    3    3    0  502 -0.10851640822E+03  0.63833364746E+03  0.47461095677E+03  0.80280933572E+03  0.12699999809E+01 0. -1.
</event>
<event>
 5   0  0.9027076E-04  0.1230547E+04  0.7818609E-02  0.9086531E-01
       -1   -1    0    0    0  501  0.00000000000E+00  0.00000000000E+00  0.10322907549E+04  0.10322907549E+04  0.50400001928E-02 0.  1.
        1   -1    0    0  501    0  0.00000000000E+00  0.00000000000E+00 -0.36672011693E+03  0.36672011697E+03  0.50400001928E-02 0. -1.
    10030    2    1    2    0    0  0.00000000000E+00  0.00000000000E+00  0.66557063800E+03  0.13990108719E+04  0.12305474983E+04 0.  0.
        5    1    3    3  502    0  0.48317323186E+00 -0.26028073041E+03  0.96659461468E+03  0.10010362287E+04  0.46999998093E+01 0.  1.
       -5    1    3    3    0  502 -0.48317323186E+00  0.26028073041E+03 -0.30102397669E+03  0.39797464319E+03  0.46999998093E+01 0. -1.
</event>
<event>
 5   0  0.1694675E-03  0.1179025E+04  0.7818609E-02  0.9131417E-01
        2   -1    0    0  501    0  0.00000000000E+00  0.00000000000E+00  0.54273439753E+03  0.54273439754E+03  0.25500000920E-02 0. -1.
       -2   -1    0    0    0  501  0.00000000000E+00  0.00000000000E+00 -0.64032224820E+03  0.64032224821E+03  0.25500000920E-02 0.  1.
    10030    2    1    2    0    0  0.00000000000E+00  0.00000000000E+00 -0.97587850672E+02  0.11830566457E+04  0.11790248676E+04 0.  0.
        4    1    3    3  502    0 -0.45707536995E+03  0.36677129716E+03  0.15332503766E+02  0.58623866881E+03  0.12699999809E+01 0.  1.
       -4    1    3    3    0  502  0.45707536995E+03 -0.36677129716E+03 -0.11292035444E+03  0.59681797693E+03  0.12699999809E+01 0. -1.
</event>
<event>
 5   0  0.9098192E-04  0.1293598E+04  0.7818609E-02  0.9034657E-01
        1   -1    0    0  501    0  0.00000000000E+00  0.00000000000E+00  0.12064857951E+04  0.12064857951E+04  0.50400001928E-02 0.  1.
       -1   -1    0    0    0  501  0.00000000000E+00  0.00000000000E+00 -0.34675003331E+03  0.34675003335E+03  0.50400001928E-02 0. -1.
    10030    2    1    2    0    0  0.00000000000E+00  0.00000000000E+00  0.85973576178E+03  0.15532358285E+04  0.12935980669E+04 0.  0.
        1    1    3    3  502    0  0.34004308128E+03 -0.15712962872E+03 -0.20324893705E+03  0.42617971302E+03  0.50400001928E-02 0. -1.
       -1    1    3    3    0  502 -0.34004308128E+03  0.15712962872E+03  0.10629846988E+04  0.11270561154E+04  0.50400001928E-02 0.  1.
</event>
<event>
 5   0  0.1714861E-03  0.1302916E+04  0.7818609E-02  0.9027256E-01
        2   -1    0    0  501    0  0.00000000000E+00  0.00000000000E+00  0.73763585502E+03  0.73763585503E+03  0.25500000920E-02 0.  1.
       -2   -1    0    0    0  501  0.00000000000E+00  0.00000000000E+00 -0.57534820232E+03  0.57534820233E+03  0.25500000920E-02 0. -1.
    10030    2    1    2    0    0  0.00000000000E+00  0.00000000000E+00  0.16228765270E+03  0.13129840574E+04  0.13029159039E+04 0.  0.
        1    1    3    3  502    0 -0.19352190782E+03 -0.58848665801E+03  0.28427074556E+03  0.68159895266E+03  0.50400001928E-02 0. -1.
       -1    1    3    3    0  502  0.19352190782E+03  0.58848665801E+03 -0.12198309286E+03  0.63138510469E+03  0.50400001928E-02 0.  1.
</event>
<event>
 5   0  0.9215829E-04  0.1312536E+04  0.7818609E-02  0.9019683E-01
       -1   -1    0    0    0  501  0.00000000000E+00  0.00000000000E+00  0.55550274840E+03  0.55550274843E+03  0.50400001928E-02 0. -1.
        1   -1    0    0  501    0  0.00000000000E+00  0.00000000000E+00 -0.77531168469E+03  0.77531168471E+03  0.50400001928E-02 0.  1.
    10030    2    1    2    0    0  0.00000000000E+00  0.00000000000E+00 -0.21980893629E+03  0.13308144331E+04  0.13125361279E+04 0.  0.
        3    1    3    3  502    0 -0.39721610753E+03  0.20891117587E+03 -0.59538682827E+03  0.74559372380E+03  0.10100000352E+00 0.  1.
       -3    1    3    3    0  502  0.39721610753E+03 -0.20891117587E+03  0.37557789198E+03  0.58522070934E+03  0.10100000352E+00 0. -1.
</event>
<event>
 5   0  0.1700511E-03  0.1295287E+04  0.7818609E-02  0.9033311E-01
       -2   -1    0    0    0  501  0.00000000000E+00  0.00000000000E+00  0.59421966078E+03  0.59421966079E+03  0.25500000920E-02 0.  1.
        2   -1    0    0  501    0  0.00000000000E+00  0.00000000000E+00 -0.70587088079E+03  0.70587088080E+03  0.25500000920E-02 0. -1.
    10030    2    1    2    0    0  0.00000000000E+00  0.00000000000E+00 -0.11165122001E+03  0.13000905416E+04  0.12952873895E+04 0.  0.
        2    1    3    3  502    0 -0.23897640510E+03  0.55909535157E+03  0.16803736481E+03  0.63082001420E+03  0.25500000920E-02 0. -1.
       -2    1    3    3    0  502  0.23897640510E+03 -0.55909535157E+03 -0.27968858482E+03  0.66927052738E+03  0.25500000920E-02 0.  1.
</event>
<event>
 5   0  0.9098192E-04  0.1298700E+04  0.7818609E-02  0.9030597E-01
        1   -1    0    0  501    0  0.00000000000E+00  0.00000000000E+00  0.22388605481E+04  0.22388605481E+04  0.50400001928E-02 0. -1.
       -1   -1    0    0    0  501  0.00000000000E+00  0.00000000000E+00 -0.18833487583E+03  0.18833487590E+03  0.50400001928E-02 0.  1.
    10030    2    1    2    0    0  0.00000000000E+00  0.00000000000E+00  0.20505256723E+04  0.24271954240E+04  0.12987001554E+04 0.  0.
        1    1    3    3  502    0 -0.11433830919E+03  0.13607614437E+03 -0.14198923757E+03  0.22748826261E+03  0.50400001928E-02 0.  1.
       -1    1    3    3    0  502  0.11433830919E+03 -0.13607614437E+03  0.21925149098E+04  0.21997071614E+04  0.50400001928E-02 0. -1.
</event>
<event>
 5   0  0.9215829E-04  0.1301718E+04  0.7818609E-02  0.9028204E-01
       -1   -1    0    0    0  501  0.00000000000E+00  0.00000000000E+00  0.51422380093E+03  0.51422380095E+03  0.50400001928E-02 0. -1.
        1   -1    0    0  501    0  0.00000000000E+00  0.00000000000E+00 -0.82379915214E+03  0.82379915216E+03  0.50400001928E-02 0.  1.
    10030    2    1    2    0    0  0.00000000000E+00  0.00000000000E+00 -0.30957535122E+03  0.13380229531E+04  0.13017175289E+04 0.  0.
        3    1    3    3  502    0 -0.67757823265E+01 -0.64732363290E+03 -0.22407178994E+03  0.68504158574E+03  0.10100000352E+00 0.  1.
       -3    1    3    3    0  502  0.67757823265E+01  0.64732363290E+03 -0.85503561281E+02  0.65298136737E+03  0.10100000352E+00 0. -1.
</event>
<event>
 5   0  0.9098192E-04  0.1283801E+04  0.7818609E-02  0.9042510E-01
        1   -1    0    0  501    0  0.00000000000E+00  0.00000000000E+00  0.99752999311E+03  0.99752999312E+03  0.50400001928E-02 0.  1.
       -1   -1    0    0    0  501  0.00000000000E+00  0.00000000000E+00 -0.41305670815E+03  0.41305670818E+03  0.50400001928E-02 0. -1.
    10030    2    1    2    0    0  0.00000000000E+00  0.00000000000E+00  0.58447328496E+03  0.14105867013E+04  0.12838013168E+04 0.  0.
        1    1    3    3  502    0 -0.30294451607E+03  0.39907304807E+03  0.73311350154E+03  0.88796964119E+03  0.50400001928E-02 0.  1.
       -1    1    3    3    0  502  0.30294451607E+03 -0.39907304807E+03 -0.14864021658E+03  0.52261706011E+03  0.50400001928E-02 0. -1.
</event>
<event>
 5   0  0.1667342E-03  0.1294717E+04  0.7818609E-02  0.9033765E-01
        2   -1    0    0  501    0  0.00000000000E+00  0.00000000000E+00  0.16674227723E+04  0.16674227723E+04  0.25500000920E-02 0. -1.
       -2   -1    0    0    0  501  0.00000000000E+00  0.00000000000E+00 -0.25132964871E+03  0.25132964873E+03  0.25500000920E-02 0.  1.
    10030    2    1    2    0    0  0.00000000000E+00  0.00000000000E+00  0.14160931236E+04  0.19187524210E+04  0.12947166171E+04 0.  0.
        5    1    3    3  502    0 -0.29613350675E+03  0.33906552782E+03  0.18659677491E+02  0.45058934690E+03  0.46999998093E+01 0.  1.
       -5    1    3    3    0  502  0.29613350675E+03 -0.33906552782E+03  0.13974334461E+04  0.14681630741E+04  0.46999998093E+01 0. -1.
</event>
<event>
 5   0  0.1623890E-03  0.1317350E+04  0.7818609E-02  0.9015918E-01
        2   -1    0    0  501    0  0.00000000000E+00  0.00000000000E+00  0.82198423583E+03  0.82198423583E+03  0.25500000920E-02 0.  1.
       -2   -1    0    0    0  501  0.00000000000E+00  0.00000000000E+00 -0.52781187362E+03  0.52781187362E+03  0.25500000920E-02 0. -1.
    10030    2    1    2    0    0  0.00000000000E+00  0.00000000000E+00  0.29417236221E+03  0.13497961095E+04  0.13173504311E+04 0.  0.
        3    1    3    3  502    0 -0.71139411098E+02 -0.39061392894E+03  0.68559012660E+03  0.79225872616E+03  0.10100000352E+00 0.  1.
       -3    1    3    3    0  502  0.71139411098E+02  0.39061392894E+03 -0.39141776438E+03  0.55753738329E+03  0.10100000352E+00 0. -1.
</event>
<event>
 5   0  0.1714861E-03  0.1299849E+04  0.7818609E-02  0.9029685E-01
        2   -1    0    0  501    0  0.00000000000E+00  0.00000000000E+00  0.80526902100E+03  0.80526902100E+03  0.25500000920E-02 0.  1.
       -2   -1    0    0    0  501  0.00000000000E+00  0.00000000000E+00 -0.52454760395E+03  0.52454760395E+03  0.25500000920E-02 0. -1.
    10030    2    1    2    0    0  0.00000000000E+00  0.00000000000E+00  0.28072141705E+03  0.13298166250E+04  0.12998491228E+04 0.  0.
        1    1    3    3  502    0 -0.57850440770E+03  0.29619813884E+03  0.14150373992E+03  0.66514960394E+03  0.50400001928E-02 0. -1.
       -1    1    3    3    0  502  0.57850440770E+03 -0.29619813884E+03  0.13921767713E+03  0.66466702102E+03  0.50400001928E-02 0.  1.
</event>
<event>
 5   0  0.9110949E-04  0.1296558E+04  0.7818609E-02  0.9032299E-01
        1   -1    0    0  501    0  0.00000000000E+00  0.00000000000E+00  0.19806618934E+04  0.19806618934E+04  0.50400001928E-02 0.  1.
       -1   -1    0    0    0  501  0.00000000000E+00  0.00000000000E+00 -0.21218460322E+03  0.21218460328E+03  0.50400001928E-02 0. -1.
    10030    2    1    2    0    0  0.00000000000E+00  0.00000000000E+00  0.17684772901E+04  0.21928464966E+04  0.12965584569E+04 0.  0.
        2    1    3    3  502    0 -0.36713876651E+03 -0.11540784403E+03  0.17665567206E+04  0.18079912863E+04  0.25500000920E-02 0.  1.
       -2    1    3    3    0  502  0.36713876651E+03  0.11540784403E+03  0.19205695747E+01  0.38485521035E+03  0.25500000920E-02 0. -1.
</event>
<event>
 5   0  0.9098192E-04  0.1334030E+04  0.7818609E-02  0.9003006E-01
        1   -1    0    0  501    0  0.00000000000E+00  0.00000000000E+00  0.16336192063E+04  0.16336192063E+04  0.50400001928E-02 0. -1.
       -1   -1    0    0    0  501  0.00000000000E+00  0.00000000000E+00 -0.27234545554E+03  0.27234545559E+03  0.50400001928E-02 0.  1.
    10030    2    1    2    0    0  0.00000000000E+00  0.00000000000E+00  0.13612737507E+04  0.19059646619E+04  0.13340296353E+04 0.  0.
        1    1    3    3  502    0  0.47085216239E+03 -0.32452746849E+03  0.11711898124E+04  0.13033439352E+04  0.50400001928E-02 0.  1.
       -1    1    3    3    0  502 -0.47085216239E+03  0.32452746849E+03  0.19008393836E+03  0.60262072672E+03  0.50400001928E-02 0. -1.
</event>
<event>
 5   0  0.1667342E-03  0.1281474E+04  0.7818609E-02  0.9044387E-01
       -2   -1    0    0    0  501  0.00000000000E+00  0.00000000000E+00  0.12237642389E+04  0.12237642389E+04  0.25500000920E-02 0. -1.
        2   -1    0    0  501    0  0.00000000000E+00  0.00000000000E+00 -0.33547622778E+03  0.33547622779E+03  0.25500000920E-02 0.  1.
    10030    2    1    2    0    0  0.00000000000E+00  0.00000000000E+00  0.88828801111E+03  0.15592404667E+04  0.12814738555E+04 0.  0.
        5    1    3    3  502    0 -0.34457923997E+03 -0.25373755496E+02 -0.21238898455E+03  0.40559813959E+03  0.46999998093E+01 0.  1.
       -5    1    3    3    0  502  0.34457923997E+03  0.25373755496E+02  0.11006769957E+04  0.11536423271E+04  0.46999998093E+01 0. -1.
</event>
<event>
 5   0  0.9215829E-04  0.1122426E+04  0.7818609E-02  0.9183606E-01
       -1   -1    0    0    0  501  0.00000000000E+00  0.00000000000E+00  0.21160934310E+03  0.21160934316E+03  0.50400001928E-02 0. -1.
        1   -1    0    0  501    0  0.00000000000E+00  0.00000000000E+00 -0.14884019222E+04  0.14884019222E+04  0.50400001928E-02 0.  1.
    10030    2    1    2    0    0  0.00000000000E+00  0.00000000000E+00 -0.12767925791E+04  0.17000112654E+04  0.11224255041E+04 0.  0.
        3    1    3    3  502    0 -0.44944031601E+03  0.29414158561E+03 -0.39210060464E+03  0.66502538628E+03  0.10100000352E+00 0.  1.
       -3    1    3    3    0  502  0.44944031601E+03 -0.29414158561E+03 -0.88469197448E+03  0.10349858791E+04  0.10100000352E+00 0. -1.
</event>
<event>
 5   0  0.9081324E-04  0.1301731E+04  0.7818609E-02  0.9028194E-01
        1   -1    0    0  501    0  0.00000000000E+00  0.00000000000E+00  0.13368890810E+04  0.13368890810E+04  0.50400001928E-02 0. -1.
       -1   -1    0    0    0  501  0.00000000000E+00  0.00000000000E+00 -0.31687435463E+03  0.31687435467E+03  0.50400001928E-02 0.  1.
    10030    2    1    2    0    0  0.00000000000E+00  0.00000000000E+00  0.10200147263E+04  0.16537634357E+04  0.13017309473E+04 0.  0.
        4    1    3    3  502    0 -0.31645202226E+03  0.18080949244E+03 -0.17507393364E+03  0.40433457692E+03  0.12699999809E+01 0.  1.
       -4    1    3    3    0  502  0.31645202226E+03 -0.18080949244E+03  0.11950886600E+04  0.12494288588E+04  0.12699999809E+01 0. -1.
</event>
<event>
 5   0  0.1667342E-03  0.1306540E+04  0.7818609E-02  0.9024395E-01
        2   -1    0    0  501    0  0.00000000000E+00  0.00000000000E+00  0.16361655359E+04  0.16361655359E+04  0.25500000920E-02 0.  1.
       -2   -1    0    0    0  501  0.00000000000E+00  0.00000000000E+00 -0.26083033164E+03  0.26083033165E+03  0.25500000920E-02 0. -1.
    10030    2    1    2    0    0  0.00000000000E+00  0.00000000000E+00  0.13753352042E+04  0.18969958675E+04  0.13065398568E+04 0.  0.
        5    1    3    3  502    0  0.40617299368E+02 -0.62750314085E+03  0.94466032057E+03  0.11348194429E+04  0.46999998093E+01 0.  1.
       -5    1    3    3    0  502 -0.40617299368E+02  0.62750314085E+03  0.43067488365E+03  0.76217642458E+03  0.46999998093E+01 0. -1.
</event>
<event>
 5   0  0.9027076E-04  0.1301046E+04  0.7818609E-02  0.9028736E-01
       -1   -1    0    0    0  501  0.00000000000E+00  0.00000000000E+00  0.40092822300E+03  0.40092822303E+03  0.50400001928E-02 0.  1.
        1   -1    0    0  501    0  0.00000000000E+00  0.00000000000E+00 -0.10555014096E+04  0.10555014096E+04  0.50400001928E-02 0. -1.
    10030    2    1    2    0    0  0.00000000000E+00  0.00000000000E+00 -0.65457318657E+03  0.14564296326E+04  0.13010462014E+04 0.  0.
        5    1    3    3  502    0 -0.12895841939E+02 -0.31642188775E+03  0.30879090089E+03  0.44233813340E+03  0.46999998093E+01 0.  1.
       -5    1    3    3    0  502  0.12895841939E+02  0.31642188775E+03 -0.96336408746E+03  0.10140914992E+04  0.46999998093E+01 0. -1.
</event>
<event>
 5   0  0.1667342E-03  0.1296182E+04  0.7818609E-02  0.9032598E-01
       -2   -1    0    0    0  501  0.00000000000E+00  0.00000000000E+00  0.38501388757E+03  0.38501388758E+03  0.25500000920E-02 0. -1.
        2   -1    0    0  501    0  0.00000000000E+00  0.00000000000E+00 -0.10909269224E+04  0.10909269224E+04  0.25500000920E-02 0.  1.
    10030    2    1    2    0    0  0.00000000000E+00  0.00000000000E+00 -0.70591303485E+03  0.14759408100E+04  0.12961821098E+04 0.  0.
        5    1    3    3  502    0 -0.24492075605E+03  0.19805613093E+03 -0.99788513551E+03  0.10464268925E+04  0.46999998093E+01 0.  1.
       -5    1    3    3    0  502  0.24492075605E+03 -0.19805613093E+03  0.29197210066E+03  0.42951391748E+03  0.46999998093E+01 0. -1.
</event>
<event>
 5   0  0.1694675E-03  0.1054247E+04  0.7818609E-02  0.9250970E-01
        2   -1    0    0  501    0  0.00000000000E+00  0.00000000000E+00  0.11562906087E+04  0.11562906087E+04  0.25500000920E-02 0. -1.
       -2   -1    0    0    0  501  0.00000000000E+00  0.00000000000E+00 -0.24030235527E+03  0.24030235528E+03  0.25500000920E-02 0.  1.
    10030    2    1    2    0    0  0.00000000000E+00  0.00000000000E+00  0.91598825343E+03  0.13965929640E+04  0.10542473271E+04 0.  0.
        4    1    3    3  502    0  0.19816484041E+03 -0.46733323185E+03  0.64621810972E+03  0.82174759616E+03  0.12699999809E+01 0. -1.
       -4    1    3    3    0  502 -0.19816484041E+03  0.46733323185E+03  0.26977014371E+03  0.57484536782E+03  0.12699999809E+01 0.  1.
</event>
<event>
 5   0  0.1714861E-03  0.1298394E+04  0.7818609E-02  0.9030839E-01
       -2   -1    0    0    0  501  0.00000000000E+00  0.00000000000E+00  0.42287252679E+03  0.42287252679E+03  0.25500000920E-02 0. -1.
        2   -1    0    0  501    0  0.00000000000E+00  0.00000000000E+00 -0.99665241211E+03  0.99665241211E+03  0.25500000920E-02 0.  1.
    10030    2    1    2    0    0  0.00000000000E+00  0.00000000000E+00 -0.57377988532E+03  0.14195249389E+04  0.12983942758E+04 0.  0.
        1    1    3    3  502    0 -0.40969178949E+03  0.45960405838E+03 -0.51194277325E+03  0.80073007685E+03  0.50400001928E-02 0. -1.
       -1    1    3    3    0  502  0.40969178949E+03 -0.45960405838E+03 -0.61837112069E+02  0.61879486206E+03  0.50400001928E-02 0.  1.
</event>
<event>
 5   0  0.1714861E-03  0.1299206E+04  0.7818609E-02  0.9030195E-01
       -2   -1    0    0    0  501  0.00000000000E+00  0.00000000000E+00  0.85582629526E+03  0.85582629526E+03  0.25500000920E-02 0.  1.
        2   -1    0    0  501    0  0.00000000000E+00  0.00000000000E+00 -0.49307184245E+03  0.49307184246E+03  0.25500000920E-02 0. -1.
    10030    2    1    2    0    0  0.00000000000E+00  0.00000000000E+00  0.36275445281E+03  0.13488981377E+04  0.12992056777E+04 0.  0.
        1    1    3    3  502    0  0.31770476695E+03  0.44231814350E+03  0.54904350928E+03  0.77332427488E+03  0.50400001928E-02 0.  1.
       -1    1    3    3    0  502 -0.31770476695E+03 -0.44231814350E+03 -0.18628905647E+03  0.57557386285E+03  0.50400001928E-02 0. -1.
</event>
<event>
 5   0  0.9110949E-04  0.1275906E+04  0.7818609E-02  0.9048893E-01
       -1   -1    0    0    0  501  0.00000000000E+00  0.00000000000E+00  0.72040877449E+03  0.72040877451E+03  0.50400001928E-02 0. -1.
        1   -1    0    0  501    0  0.00000000000E+00  0.00000000000E+00 -0.56493528250E+03  0.56493528252E+03  0.50400001928E-02 0.  1.
    10030    2    1    2    0    0  0.00000000000E+00  0.00000000000E+00  0.15547349199E+03  0.12853440570E+04  0.12759064771E+04 0.  0.
        2    1    3    3  502    0  0.36661220205E+03 -0.47983539961E+03  0.28502026987E+03  0.66774476536E+03  0.25500000920E-02 0.  1.
       -2    1    3    3    0  502 -0.36661220205E+03  0.47983539961E+03 -0.12954677788E+03  0.61759929168E+03  0.25500000920E-02 0. -1.
</event>
<event>
 5   0  0.1714861E-03  0.1305932E+04  0.7818609E-02  0.9024874E-01
        2   -1    0    0  501    0  0.00000000000E+00  0.00000000000E+00  0.38792612707E+03  0.38792612707E+03  0.25500000920E-02 0. -1.
       -2   -1    0    0    0  501  0.00000000000E+00  0.00000000000E+00 -0.10990872811E+04  0.10990872811E+04  0.25500000920E-02 0.  1.
    10030    2    1    2    0    0  0.00000000000E+00  0.00000000000E+00 -0.71116115400E+03  0.14870134081E+04  0.13059321150E+04 0.  0.
        1    1    3    3  502    0 -0.34316569491E+03  0.47621469959E+03 -0.29872820031E+02  0.58773762826E+03  0.50400001928E-02 0. -1.
       -1    1    3    3    0  502  0.34316569491E+03 -0.47621469959E+03 -0.68128833397E+03  0.89927577989E+03  0.50400001928E-02 0.  1.
</event>
<event>
 5   0  0.9027076E-04  0.1244898E+04  0.7818609E-02  0.9074441E-01
        1   -1    0    0  501    0  0.00000000000E+00  0.00000000000E+00  0.63592364563E+03  0.63592364565E+03  0.50400001928E-02 0. -1.
       -1   -1    0    0    0  501  0.00000000000E+00  0.00000000000E+00 -0.60925949773E+03  0.60925949775E+03  0.50400001928E-02 0.  1.
    10030    2    1    2    0    0  0.00000000000E+00  0.00000000000E+00  0.26664147897E+02  0.12451831434E+04  0.12448976198E+04 0.  0.
        5    1    3    3  502    0 -0.71286455525E+02 -0.55139712974E+03  0.29321740511E+03  0.62858499034E+03  0.46999998093E+01 0.  1.
       -5    1    3    3    0  502  0.71286455525E+02  0.55139712974E+03 -0.26655325721E+03  0.61659815306E+03  0.46999998093E+01 0. -1.
</event>
<event>
 5   0  0.9215829E-04  0.1301160E+04  0.7818609E-02  0.9028646E-01
        1   -1    0    0  501    0  0.00000000000E+00  0.00000000000E+00  0.73933061178E+03  0.73933061180E+03  0.50400001928E-02 0. -1.
       -1   -1    0    0    0  501  0.00000000000E+00  0.00000000000E+00 -0.57248297923E+03  0.57248297926E+03  0.50400001928E-02 0.  1.
    10030    2    1    2    0    0  0.00000000000E+00  0.00000000000E+00  0.16684763255E+03  0.13118135911E+04  0.13011597770E+04 0.  0.
        3    1    3    3  502    0  0.26394966309E+02  0.24503739032E+02 -0.57147713656E+03  0.57261091090E+03  0.10100000352E+00 0.  1.
       -3    1    3    3    0  502 -0.26394966309E+02 -0.24503739032E+02  0.73832476911E+03  0.73920268016E+03  0.10100000352E+00 0. -1.
</event>
<event>
 5   0  0.1694675E-03  0.1285114E+04  0.7818609E-02  0.9041454E-01
       -2   -1    0    0    0  501  0.00000000000E+00  0.00000000000E+00  0.17165708587E+03  0.17165708589E+03  0.25500000920E-02 0.  1.
        2   -1    0    0  501    0  0.00000000000E+00  0.00000000000E+00 -0.24052556593E+04  0.24052556593E+04  0.25500000920E-02 0. -1.
    10030    2    1    2    0    0  0.00000000000E+00  0.00000000000E+00 -0.22335985734E+04  0.25769127451E+04  0.12851135004E+04 0.  0.
        4    1    3    3  502    0 -0.66441222943E+02 -0.26202837351E+03 -0.22856865783E+04  0.23016163998E+04  0.12699999809E+01 0. -1.
       -4    1    3    3    0  502  0.66441222943E+02  0.26202837351E+03  0.52088004884E+02  0.27529634539E+03  0.12699999809E+01 0.  1.
</event>
<event>
 5   0  0.9081324E-04  0.1306116E+04  0.7818609E-02  0.9024729E-01
        1   -1    0    0  501    0  0.00000000000E+00  0.00000000000E+00  0.56532708650E+03  0.56532708652E+03  0.50400001928E-02 0.  1.
       -1   -1    0    0    0  501  0.00000000000E+00  0.00000000000E+00 -0.75440324624E+03  0.75440324626E+03  0.50400001928E-02 0. -1.
    10030    2    1    2    0    0  0.00000000000E+00  0.00000000000E+00 -0.18907615974E+03  0.13197303328E+04  0.13061157518E+04 0.  0.
        4    1    3    3  502    0 -0.47359233639E+02  0.47920518554E+03 -0.54027407344E+03  0.72372522009E+03  0.12699999809E+01 0. -1.
       -4    1    3    3    0  502  0.47359233639E+02 -0.47920518554E+03  0.35119791370E+03  0.59600511269E+03  0.12699999809E+01 0.  1.
</event>
<event>
 5   0  0.1623890E-03  0.1298109E+04  0.7818609E-02  0.9031066E-01
       -2   -1    0    0    0  501  0.00000000000E+00  0.00000000000E+00  0.42277718657E+03  0.42277718658E+03  0.25500000920E-02 0. -1.
        2   -1    0    0  501    0  0.00000000000E+00  0.00000000000E+00 -0.99643843079E+03  0.99643843079E+03  0.25500000920E-02 0.  1.
    10030    2    1    2    0    0  0.00000000000E+00  0.00000000000E+00 -0.57366124422E+03  0.14192156174E+04  0.12981085261E+04 0.  0.
        3    1    3    3  502    0  0.13277552412E+03 -0.41189344179E+02 -0.97997064721E+03  0.98978198684E+03  0.10100000352E+00 0.  1.
       -3    1    3    3    0  502 -0.13277552412E+03  0.41189344179E+02  0.40630940298E+03  0.42943363053E+03  0.10100000352E+00 0. -1.
</event>
<event>
 5   0  0.1623890E-03  0.1305990E+04  0.7818609E-02  0.9024829E-01
        2   -1    0    0  501    0  0.00000000000E+00  0.00000000000E+00  0.82783811615E+03  0.82783811616E+03  0.25500000920E-02 0.  1.
       -2   -1    0    0    0  501  0.00000000000E+00  0.00000000000E+00 -0.51507938843E+03  0.51507938844E+03  0.25500000920E-02 0. -1.
    10030    2    1    2    0    0  0.00000000000E+00  0.00000000000E+00  0.31275872772E+03  0.13429175046E+04  0.13059898171E+04 0.  0.
        3    1    3    3  502    0  0.17666068915E+03  0.53329716778E+03  0.49863835873E+03  0.75116914956E+03  0.10100000352E+00 0.  1.
       -3    1    3    3    0  502 -0.17666068915E+03 -0.53329716778E+03 -0.18587963101E+03  0.59174835503E+03  0.10100000352E+00 0. -1.
</event>
<event>
 5   0  0.1623890E-03  0.1278412E+04  0.7818609E-02  0.9046862E-01
       -2   -1    0    0    0  501  0.00000000000E+00  0.00000000000E+00  0.41690148735E+03  0.41690148735E+03  0.25500000920E-02 0.  1.
        2   -1    0    0  501    0  0.00000000000E+00  0.00000000000E+00 -0.98005031986E+03  0.98005031986E+03  0.25500000920E-02 0. -1.
    10030    2    1    2    0    0  0.00000000000E+00  0.00000000000E+00 -0.56314883252E+03  0.13969518072E+04  0.12784121965E+04 0.  0.
        3    1    3    3  502    0  0.11306856488E+03 -0.37286485192E+03  0.27213781904E+03  0.47525961422E+03  0.10100000352E+00 0.  1.
       -3    1    3    3    0  502 -0.11306856488E+03  0.37286485192E+03 -0.83528665155E+03  0.92169219299E+03  0.10100000352E+00 0. -1.
</event>
<event>
 5   0  0.9110949E-04  0.1308107E+04  0.7818609E-02  0.9023161E-01
        1   -1    0    0  501    0  0.00000000000E+00  0.00000000000E+00  0.11231086839E+04  0.11231086839E+04  0.50400001928E-02 0. -1.
       -1   -1    0    0    0  501  0.00000000000E+00  0.00000000000E+00 -0.38089468084E+03  0.38089468088E+03  0.50400001928E-02 0.  1.
    10030    2    1    2    0    0  0.00000000000E+00  0.00000000000E+00  0.74221400307E+03  0.15040033648E+04  0.13081072185E+04 0.  0.
        2    1    3    3  502    0  0.94914289525E+02  0.64675241163E+02 -0.36920917897E+03  0.38666138548E+03  0.25500000920E-02 0.  1.
       -2    1    3    3    0  502 -0.94914289525E+02 -0.64675241163E+02  0.11114231820E+04  0.11173419793E+04  0.25500000920E-02 0. -1.
</event>
<event>
 5   0  0.1667342E-03  0.1316903E+04  0.7818609E-02  0.9016267E-01
        2   -1    0    0  501    0  0.00000000000E+00  0.00000000000E+00  0.70090498890E+03  0.70090498890E+03  0.25500000920E-02 0.  1.
       -2   -1    0    0    0  501  0.00000000000E+00  0.00000000000E+00 -0.61856968401E+03  0.61856968402E+03  0.25500000920E-02 0. -1.
    10030    2    1    2    0    0  0.00000000000E+00  0.00000000000E+00  0.82335304888E+02  0.13194746729E+04  0.13169033032E+04 0.  0.
        5    1    3    3  502    0  0.13810591905E+03  0.64377349243E+03  0.36807940634E+02  0.65946529016E+03  0.46999998093E+01 0.  1.
       -5    1    3    3    0  502 -0.13810591905E+03 -0.64377349243E+03  0.45527364254E+02  0.66000938276E+03  0.46999998093E+01 0. -1.
</event>
<event>
 5   0  0.1667342E-03  0.1299539E+04  0.7818609E-02  0.9029931E-01
       -2   -1    0    0    0  501  0.00000000000E+00  0.00000000000E+00  0.10935238089E+04  0.10935238089E+04  0.25500000920E-02 0.  1.
        2   -1    0    0  501    0  0.00000000000E+00  0.00000000000E+00 -0.38609183793E+03  0.38609183794E+03  0.25500000920E-02 0. -1.
    10030    2    1    2    0    0  0.00000000000E+00  0.00000000000E+00  0.70743197098E+03  0.14796156468E+04  0.12995393295E+04 0.  0.
        5    1    3    3  502    0 -0.15661802999E+03 -0.41124978377E+03  0.89799850258E+03  0.10000394955E+04  0.46999998093E+01 0.  1.
       -5    1    3    3    0  502  0.15661802999E+03  0.41124978377E+03 -0.19056653160E+03  0.47957615133E+03  0.46999998093E+01 0. -1.
</event>
<event>
 5   0  0.1694675E-03  0.1275128E+04  0.7818609E-02  0.9049525E-01
        2   -1    0    0  501    0  0.00000000000E+00  0.00000000000E+00  0.10594448799E+04  0.10594448799E+04  0.25500000920E-02 0. -1.
       -2   -1    0    0    0  501  0.00000000000E+00  0.00000000000E+00 -0.38368017567E+03  0.38368017568E+03  0.25500000920E-02 0.  1.
    10030    2    1    2    0    0  0.00000000000E+00  0.00000000000E+00  0.67576470427E+03  0.14431250556E+04  0.12751282252E+04 0.  0.
        4    1    3    3  502    0 -0.57937590725E+03  0.23799680895E+03  0.47259120348E+03  0.78464194476E+03  0.12699999809E+01 0. -1.
       -4    1    3    3    0  502  0.57937590725E+03 -0.23799680895E+03  0.20317350079E+03  0.65848311086E+03  0.12699999809E+01 0.  1.
</event>
<event>
 5   0  0.1694675E-03  0.1281638E+04  0.7818609E-02  0.9044254E-01
       -2   -1    0    0    0  501  0.00000000000E+00  0.00000000000E+00  0.42954657955E+03  0.42954657955E+03  0.25500000920E-02 0.  1.
        2   -1    0    0  501    0  0.00000000000E+00  0.00000000000E+00 -0.95600634506E+03  0.95600634506E+03  0.25500000920E-02 0. -1.
    10030    2    1    2    0    0  0.00000000000E+00  0.00000000000E+00 -0.52645976551E+03  0.13855529246E+04  0.12816384132E+04 0.  0.
        4    1    3    3  502    0  0.14389850331E+03  0.25494839437E+03  0.35302539034E+03  0.45862185096E+03  0.12699999809E+01 0.  1.
       -4    1    3    3    0  502 -0.14389850331E+03 -0.25494839437E+03 -0.87948515585E+03  0.92693107366E+03  0.12699999809E+01 0. -1.
</event>
<event>
 5   0  0.9110949E-04  0.1300305E+04  0.7818609E-02  0.9029324E-01
       -1   -1    0    0    0  501  0.00000000000E+00  0.00000000000E+00  0.79826509716E+03  0.79826509718E+03  0.50400001928E-02 0. -1.
        1   -1    0    0  501    0  0.00000000000E+00  0.00000000000E+00 -0.52952098143E+03  0.52952098145E+03  0.50400001928E-02 0.  1.
    10030    2    1    2    0    0  0.00000000000E+00  0.00000000000E+00  0.26874411573E+03  0.13277860786E+04  0.13003047608E+04 0.  0.
        2    1    3    3  502    0 -0.42076579675E+03 -0.32524203151E+03  0.51627074814E+03  0.74118939561E+03  0.25500000920E-02 0. -1.
       -2    1    3    3    0  502  0.42076579675E+03  0.32524203151E+03 -0.24752663241E+03  0.58659668302E+03  0.25500000920E-02 0.  1.
</event>
<event>
 5   0  0.1623890E-03  0.1311207E+04  0.7818609E-02  0.9020725E-01
       -2   -1    0    0    0  501  0.00000000000E+00  0.00000000000E+00  0.49046112759E+03  0.49046112759E+03  0.25500000920E-02 0.  1.
        2   -1    0    0  501    0  0.00000000000E+00  0.00000000000E+00 -0.87635084192E+03  0.87635084192E+03  0.25500000920E-02 0. -1.
    10030    2    1    2    0    0  0.00000000000E+00  0.00000000000E+00 -0.38588971433E+03  0.13668119695E+04  0.13112071112E+04 0.  0.
        3    1    3    3  502    0 -0.45246669039E+03 -0.66395532655E+02 -0.68263400511E+03  0.82165909464E+03  0.10100000352E+00 0. -1.
       -3    1    3    3    0  502  0.45246669039E+03  0.66395532655E+02  0.29674429078E+03  0.54515287487E+03  0.10100000352E+00 0.  1.
</event>
<event>
 5   0  0.9081324E-04  0.1307629E+04  0.7818609E-02  0.9023537E-01
        1   -1    0    0  501    0  0.00000000000E+00  0.00000000000E+00  0.10045810595E+04  0.10045810595E+04  0.50400001928E-02 0.  1.
       -1   -1    0    0    0  501  0.00000000000E+00  0.00000000000E+00 -0.42552375639E+03  0.42552375642E+03  0.50400001928E-02 0. -1.
    10030    2    1    2    0    0  0.00000000000E+00  0.00000000000E+00  0.57905730314E+03  0.14301048160E+04  0.13076285498E+04 0.  0.
        4    1    3    3  502    0  0.36101221727E+03  0.62513668760E+02  0.88175868145E+03  0.95484960335E+03  0.12699999809E+01 0.  1.
       -4    1    3    3    0  502 -0.36101221727E+03 -0.62513668760E+02 -0.30270137831E+03  0.47525521262E+03  0.12699999809E+01 0. -1.
</event>
<event>
 5   0  0.1714861E-03  0.1301913E+04  0.7818609E-02  0.9028050E-01
       -2   -1    0    0    0  501  0.00000000000E+00  0.00000000000E+00  0.37954114288E+03  0.37954114288E+03  0.25500000920E-02 0. -1.
        2   -1    0    0  501    0  0.00000000000E+00  0.00000000000E+00 -0.11164645403E+04  0.11164645403E+04  0.25500000920E-02 0.  1.
    10030    2    1    2    0    0  0.00000000000E+00  0.00000000000E+00 -0.73692339742E+03  0.14960056832E+04  0.13019127891E+04 0.  0.
        1    1    3    3  502    0 -0.42606878393E+03  0.41488884830E+03 -0.67264731542E+03  0.89784284597E+03  0.50400001928E-02 0.  1.
       -1    1    3    3    0  502  0.42606878393E+03 -0.41488884830E+03 -0.64276081999E+02  0.59816283722E+03  0.50400001928E-02 0. -1.
</event>
<event>
 5   0  0.1700511E-03  0.1290483E+04  0.7818609E-02  0.9037147E-01
       -2   -1    0    0    0  501  0.00000000000E+00  0.00000000000E+00  0.41083582182E+03  0.41083582183E+03  0.25500000920E-02 0. -1.
        2   -1    0    0  501    0  0.00000000000E+00  0.00000000000E+00 -0.10133887223E+04  0.10133887223E+04  0.25500000920E-02 0.  1.
    10030    2    1    2    0    0  0.00000000000E+00  0.00000000000E+00 -0.60255290052E+03  0.14242245442E+04  0.12904826827E+04 0.  0.
        2    1    3    3  502    0 -0.11132831460E+03 -0.57801174813E+03 -0.96053719240E+01  0.58871371463E+03  0.25500000920E-02 0. -1.
       -2    1    3    3    0  502  0.11132831460E+03  0.57801174813E+03 -0.59294752860E+03  0.83551082954E+03  0.25500000920E-02 0.  1.
</event>
<event>
 5   0  0.9081324E-04  0.1299200E+04  0.7818609E-02  0.9030200E-01
        1   -1    0    0  501    0  0.00000000000E+00  0.00000000000E+00  0.13362519232E+04  0.13362519232E+04  0.50400001928E-02 0.  1.
       -1   -1    0    0    0  501  0.00000000000E+00  0.00000000000E+00 -0.31579382205E+03  0.31579382209E+03  0.50400001928E-02 0. -1.
    10030    2    1    2    0    0  0.00000000000E+00  0.00000000000E+00  0.10204581011E+04  0.16520457453E+04  0.12991999108E+04 0.  0.
        4    1    3    3  502    0 -0.41249907567E+02 -0.14808857066E+03 -0.29232945867E+03  0.33028760942E+03  0.12699999809E+01 0. -1.
       -4    1    3    3    0  502  0.41249907567E+02  0.14808857066E+03  0.13127875598E+04  0.13217581358E+04  0.12699999809E+01 0.  1.
</event>
<event>
 5   0  0.9110949E-04  0.1289874E+04  0.7818609E-02  0.9037634E-01
        1   -1    0    0  501    0  0.00000000000E+00  0.00000000000E+00  0.31630628446E+03  0.31630628450E+03  0.50400001928E-02 0.  1.
       -1   -1    0    0    0  501  0.00000000000E+00  0.00000000000E+00 -0.13150021828E+04  0.13150021828E+04  0.50400001928E-02 0. -1.
    10030    2    1    2    0    0  0.00000000000E+00  0.00000000000E+00 -0.99869589829E+03  0.16313084673E+04  0.12898735667E+04 0.  0.
        2    1    3    3  502    0 -0.41659379777E+03 -0.41538040162E+03 -0.16509215629E+03  0.61102102293E+03  0.25500000920E-02 0.  1.
       -2    1    3    3    0  502  0.41659379777E+03  0.41538040162E+03 -0.83360374200E+03  0.10202874443E+04  0.25500000920E-02 0. -1.
</event>
<event>
 5   0  0.1694675E-03  0.1290164E+04  0.7818609E-02  0.9037402E-01
       -2   -1    0    0    0  501  0.00000000000E+00  0.00000000000E+00  0.24576036741E+03  0.24576036743E+03  0.25500000920E-02 0.  1.
        2   -1    0    0  501    0  0.00000000000E+00  0.00000000000E+00 -0.16932373185E+04  0.16932373185E+04  0.25500000920E-02 0. -1.
    10030    2    1    2    0    0  0.00000000000E+00  0.00000000000E+00 -0.14474769511E+04  0.19389976860E+04  0.12901637501E+04 0.  0.
        4    1    3    3  502    0  0.53938872825E+03 -0.56001673534E+01 -0.19204563849E+03  0.57258597800E+03  0.12699999809E+01 0.  1.
       -4    1    3    3    0  502 -0.53938872825E+03  0.56001673534E+01 -0.12554313126E+04  0.13664117080E+04  0.12699999809E+01 0. -1.
</event>
<event>
 5   0  0.1694675E-03  0.1293293E+04  0.7818609E-02  0.9034901E-01
       -2   -1    0    0    0  501  0.00000000000E+00  0.00000000000E+00  0.88433923245E+03  0.88433923245E+03  0.25500000920E-02 0.  1.
        2   -1    0    0  501    0  0.00000000000E+00  0.00000000000E+00 -0.47284065461E+03  0.47284065462E+03  0.25500000920E-02 0. -1.
    10030    2    1    2    0    0  0.00000000000E+00  0.00000000000E+00  0.41149857784E+03  0.13571798871E+04  0.12932927613E+04 0.  0.
        4    1    3    3  502    0  0.41295947494E+03 -0.47653697028E+03  0.35609894119E+03  0.72417613935E+03  0.12699999809E+01 0.  1.
       -4    1    3    3    0  502 -0.41295947494E+03  0.47653697028E+03  0.55399636643E+02  0.63300374772E+03  0.12699999809E+01 0. -1.
</event>
<event>
 5   0  0.9081324E-04  0.1314256E+04  0.7818609E-02  0.9018336E-01
        1   -1    0    0  501    0  0.00000000000E+00  0.00000000000E+00  0.18094568090E+04  0.18094568090E+04  0.50400001928E-02 0.  1.
       -1   -1    0    0    0  501  0.00000000000E+00  0.00000000000E+00 -0.23864457769E+03  0.23864457775E+03  0.50400001928E-02 0. -1.
    10030    2    1    2    0    0  0.00000000000E+00  0.00000000000E+00  0.15708122313E+04  0.20481013868E+04  0.13142557683E+04 0.  0.
        4    1    3    3  502    0 -0.11859898059E+03  0.46762233078E+03  0.90086673311E+02  0.49076836089E+03  0.12699999809E+01 0. -1.
       -4    1    3    3    0  502  0.11859898059E+03 -0.46762233078E+03  0.14807255580E+04  0.15573330259E+04  0.12699999809E+01 0.  1.
</event>
<event>
 5   0  0.9110949E-04  0.1260017E+04  0.7818609E-02  0.9061887E-01
       -1   -1    0    0    0  501  0.00000000000E+00  0.00000000000E+00  0.37179946678E+03  0.37179946681E+03  0.50400001928E-02 0. -1.
        1   -1    0    0  501    0  0.00000000000E+00  0.00000000000E+00 -0.10675399434E+04  0.10675399434E+04  0.50400001928E-02 0.  1.
    10030    2    1    2    0    0  0.00000000000E+00  0.00000000000E+00 -0.69574047660E+03  0.14393394102E+04  0.12600171138E+04 0.  0.
        2    1    3    3  502    0  0.47445203620E+02 -0.36447087308E+03 -0.93237597376E+03  0.10022050794E+04  0.25500000920E-02 0.  1.
       -2    1    3    3    0  502 -0.47445203620E+02  0.36447087308E+03  0.23663549715E+03  0.43713433083E+03  0.25500000920E-02 0. -1.
</event>
<event>
 5   0  0.1667342E-03  0.1297983E+04  0.7818609E-02  0.9031166E-01
        2   -1    0    0  501    0  0.00000000000E+00  0.00000000000E+00  0.32642063151E+03  0.32642063152E+03  0.25500000920E-02 0.  1.
       -2   -1    0    0    0  501  0.00000000000E+00  0.00000000000E+00 -0.12903297249E+04  0.12903297249E+04  0.25500000920E-02 0. -1.
    10030    2    1    2    0    0  0.00000000000E+00  0.00000000000E+00 -0.96390909343E+03  0.16167503565E+04  0.12979834262E+04 0.  0.
        5    1    3    3  502    0  0.36392360290E+01  0.56400396944E+03 -0.82095288930E+02  0.56997846279E+03  0.46999998093E+01 0.  1.
       -5    1    3    3    0  502 -0.36392360290E+01 -0.56400396944E+03 -0.88181380450E+03  0.10467718937E+04  0.46999998093E+01 0. -1.
</event>
<event>
 5   0  0.6284125E-04  0.1326153E+04  0.7818609E-02  0.9009079E-01
        4   -1    0    0  501    0  0.00000000000E+00  0.00000000000E+00  0.30227089366E+03  0.30227356162E+03  0.12699999809E+01 0. -1.
       -4   -1    0    0    0  501  0.00000000000E+00  0.00000000000E+00 -0.14545485431E+04  0.14545490976E+04  0.12699999809E+01 0.  1.
    10030    2    1    2    0    0  0.00000000000E+00  0.00000000000E+00 -0.11522776495E+04  0.17568226592E+04  0.13261531112E+04 0.  0.
        2    1    3    3  502    0 -0.24699289875E+03  0.42857973503E+03 -0.11611096820E+04  0.12620862787E+04  0.25500000920E-02 0.  1.
       -2    1    3    3    0  502  0.24699289875E+03 -0.42857973503E+03  0.88320325634E+01  0.49473638042E+03  0.25500000920E-02 0. -1.
</event>
<event>
 5   0  0.9027076E-04  0.1381734E+04  0.7818609E-02  0.8967148E-01
       -1   -1    0    0    0  501  0.00000000000E+00  0.00000000000E+00  0.63455488311E+03  0.63455488313E+03  0.50400001928E-02 0.  1.
        1   -1    0    0  501    0  0.00000000000E+00  0.00000000000E+00 -0.75217617855E+03  0.75217617856E+03  0.50400001928E-02 0. -1.
    10030    2    1    2    0    0  0.00000000000E+00  0.00000000000E+00 -0.11762129543E+03  0.13867310617E+04  0.13817337907E+04 0.  0.
        5    1    3    3  502    0  0.66973594122E+02  0.30798949057E+03  0.55817447385E+03  0.64103340152E+03  0.46999998093E+01 0.  1.
       -5    1    3    3    0  502 -0.66973594122E+02 -0.30798949057E+03 -0.67579576929E+03  0.74569766018E+03  0.46999998093E+01 0. -1.
</event>
<event>
 5   0  0.1700511E-03  0.1299935E+04  0.7818609E-02  0.9029617E-01
        2   -1    0    0  501    0  0.00000000000E+00  0.00000000000E+00  0.14473589439E+04  0.14473589439E+04  0.25500000920E-02 0.  1.
       -2   -1    0    0    0  501  0.00000000000E+00  0.00000000000E+00 -0.29188160306E+03  0.29188160307E+03  0.25500000920E-02 0. -1.
    10030    2    1    2    0    0  0.00000000000E+00  0.00000000000E+00  0.11554773409E+04  0.17392405470E+04  0.12999345349E+04 0.  0.
        2    1    3    3  502    0 -0.15429104992E+03 -0.23313709782E+03  0.13628042444E+04  0.13911844030E+04  0.25500000920E-02 0.  1.
       -2    1    3    3    0  502  0.15429104992E+03  0.23313709782E+03 -0.20732690353E+03  0.34805614404E+03  0.25500000920E-02 0. -1.
</event>
<event>
 5   0  0.9081324E-04  0.1301249E+04  0.7818609E-02  0.9028576E-01
       -1   -1    0    0    0  501  0.00000000000E+00  0.00000000000E+00  0.37762870201E+03  0.37762870205E+03  0.50400001928E-02 0. -1.
        1   -1    0    0  501    0  0.00000000000E+00  0.00000000000E+00 -0.11209739769E+04  0.11209739769E+04  0.50400001928E-02 0.  1.
    10030    2    1    2    0    0  0.00000000000E+00  0.00000000000E+00 -0.74334527487E+03  0.14986026789E+04  0.13012485511E+04 0.  0.
        4    1    3    3  502    0 -0.43832111014E+02 -0.54650519527E+03  0.31773868361E+02  0.54918154924E+03  0.12699999809E+01 0. -1.
       -4    1    3    3    0  502  0.43832111014E+02  0.54650519527E+03 -0.77511914323E+03  0.94942112970E+03  0.12699999809E+01 0.  1.
</event>
<event>
 5   0  0.1623890E-03  0.1281073E+04  0.7818609E-02  0.9044711E-01
       -2   -1    0    0    0  501  0.00000000000E+00  0.00000000000E+00  0.40355143028E+03  0.40355143029E+03  0.25500000920E-02 0. -1.
        2   -1    0    0  501    0  0.00000000000E+00  0.00000000000E+00 -0.10166903875E+04  0.10166903875E+04  0.25500000920E-02 0.  1.
    10030    2    1    2    0    0  0.00000000000E+00  0.00000000000E+00 -0.61313895724E+03  0.14202418178E+04  0.12810727693E+04 0.  0.
        3    1    3    3  502    0  0.34412629798E+03 -0.13719409082E+03  0.27272982106E+03  0.46002901323E+03  0.10100000352E+00 0. -1.
       -3    1    3    3    0  502 -0.34412629798E+03  0.13719409082E+03 -0.88586877830E+03  0.96021280458E+03  0.10100000352E+00 0.  1.
</event>
<event>
 5   0  0.6284125E-04  0.1300056E+04  0.7818609E-02  0.9029520E-01
        4   -1    0    0  501    0  0.00000000000E+00  0.00000000000E+00  0.52269251429E+03  0.52269405717E+03  0.12699999809E+01 0.  1.
       -4   -1    0    0    0  501  0.00000000000E+00  0.00000000000E+00 -0.80838155306E+03  0.80838255067E+03  0.12699999809E+01 0. -1.
    10030    2    1    2    0    0  0.00000000000E+00  0.00000000000E+00 -0.28568903876E+03  0.13310766078E+04  0.13000564253E+04 0.  0.
        1    1    3    3  502    0 -0.43614639823E+03 -0.34931466853E+03 -0.48287148904E+03  0.73851830938E+03  0.50400001928E-02 0. -1.
       -1    1    3    3    0  502  0.43614639823E+03  0.34931466853E+03  0.19718245028E+03  0.59255829845E+03  0.50400001928E-02 0.  1.
</event>
<event>
 5   0  0.1700511E-03  0.1287987E+04  0.7818609E-02  0.9039146E-01
        2   -1    0    0  501    0  0.00000000000E+00  0.00000000000E+00  0.98918697974E+03  0.98918697974E+03  0.25500000920E-02 0.  1.
       -2   -1    0    0    0  501  0.00000000000E+00  0.00000000000E+00 -0.41926088936E+03  0.41926088937E+03  0.25500000920E-02 0. -1.
    10030    2    1    2    0    0  0.00000000000E+00  0.00000000000E+00  0.56992609037E+03  0.14084478691E+04  0.12879866659E+04 0.  0.
        2    1    3    3  502    0 -0.62085705348E+03  0.17084833106E+03  0.29441935156E+03  0.70805041322E+03  0.25500000920E-02 0.  1.
       -2    1    3    3    0  502  0.62085705348E+03 -0.17084833106E+03  0.27550673881E+03  0.70039745589E+03  0.25500000920E-02 0. -1.
</event>
<event>
 5   0  0.9215829E-04  0.1306590E+04  0.7818609E-02  0.9024355E-01
       -1   -1    0    0    0  501  0.00000000000E+00  0.00000000000E+00  0.21571370277E+03  0.21571370283E+03  0.50400001928E-02 0. -1.
        1   -1    0    0  501    0  0.00000000000E+00  0.00000000000E+00 -0.19785236018E+04  0.19785236018E+04  0.50400001928E-02 0.  1.
    10030    2    1    2    0    0  0.00000000000E+00  0.00000000000E+00 -0.17628098990E+04  0.21942373046E+04  0.13065904519E+04 0.  0.
        3    1    3    3  502    0  0.25009524736E+03  0.42303432859E+03 -0.16042894168E+04  0.16778707397E+04  0.10100000352E+00 0.  1.
       -3    1    3    3    0  502 -0.25009524736E+03 -0.42303432859E+03 -0.15852048218E+03  0.51636656494E+03  0.10100000352E+00 0. -1.
</event>
<event>
 5   0  0.1700511E-03  0.1287613E+04  0.7818609E-02  0.9039446E-01
       -2   -1    0    0    0  501  0.00000000000E+00  0.00000000000E+00  0.29680486513E+03  0.29680486514E+03  0.25500000920E-02 0. -1.
        2   -1    0    0  501    0  0.00000000000E+00  0.00000000000E+00 -0.13964957586E+04  0.13964957586E+04  0.25500000920E-02 0.  1.
    10030    2    1    2    0    0  0.00000000000E+00  0.00000000000E+00 -0.10996908934E+04  0.16933006237E+04  0.12876128848E+04 0.  0.
        2    1    3    3  502    0 -0.10462409393E+03 -0.23501937507E+03  0.22627566823E+03  0.34260908589E+03  0.25500000920E-02 0. -1.
       -2    1    3    3    0  502  0.10462409393E+03  0.23501937507E+03 -0.13259665617E+04  0.13506915378E+04  0.25500000920E-02 0.  1.
</event>
<event>
 5   0  0.9027076E-04  0.1350229E+04  0.7818609E-02  0.8990654E-01
       -1   -1    0    0    0  501  0.00000000000E+00  0.00000000000E+00  0.61664851494E+03  0.61664851496E+03  0.50400001928E-02 0.  1.
        1   -1    0    0  501    0  0.00000000000E+00  0.00000000000E+00 -0.73912428065E+03  0.73912428066E+03  0.50400001928E-02 0. -1.
    10030    2    1    2    0    0  0.00000000000E+00  0.00000000000E+00 -0.12247576570E+03  0.13557727956E+04  0.13502294472E+04 0.  0.
        5    1    3    3  502    0 -0.14330058893E+03  0.60050092627E+03  0.21305274885E+03  0.65310794286E+03  0.46999998093E+01 0.  1.
       -5    1    3    3    0  502  0.14330058893E+03 -0.60050092627E+03 -0.33552851455E+03  0.70266485277E+03  0.46999998093E+01 0. -1.
</event>
<event>
 5   0  0.9081324E-04  0.1335366E+04  0.7818609E-02  0.9001980E-01
        1   -1    0    0  501    0  0.00000000000E+00  0.00000000000E+00  0.21815041862E+04  0.21815041862E+04  0.50400001928E-02 0. -1.
       -1   -1    0    0    0  501  0.00000000000E+00  0.00000000000E+00 -0.20435481738E+03  0.20435481744E+03  0.50400001928E-02 0.  1.
    10030    2    1    2    0    0  0.00000000000E+00  0.00000000000E+00  0.19771493688E+04  0.23858590037E+04  0.13353664511E+04 0.  0.
        4    1    3    3  502    0  0.60659871813E+03 -0.23927914151E+03  0.73224661608E+03  0.98051171949E+03  0.12699999809E+01 0. -1.
       -4    1    3    3    0  502 -0.60659871813E+03  0.23927914151E+03  0.12449027528E+04  0.14053472842E+04  0.12699999809E+01 0.  1.
</event>
<event>
 5   0  0.1623890E-03  0.1299325E+04  0.7818609E-02  0.9030101E-01
        2   -1    0    0  501    0  0.00000000000E+00  0.00000000000E+00  0.17066919286E+04  0.17066919286E+04  0.25500000920E-02 0. -1.
       -2   -1    0    0    0  501  0.00000000000E+00  0.00000000000E+00 -0.24729778231E+03  0.24729778232E+03  0.25500000920E-02 0.  1.
    10030    2    1    2    0    0  0.00000000000E+00  0.00000000000E+00  0.14593941463E+04  0.19539897109E+04  0.12993246385E+04 0.  0.
        3    1    3    3  502    0 -0.35267755580E+03 -0.21075039483E+03 -0.27120610029E+02  0.41174351844E+03  0.10100000352E+00 0.  1.
       -3    1    3    3    0  502  0.35267755580E+03  0.21075039483E+03  0.14865147563E+04  0.15422461925E+04  0.10100000352E+00 0. -1.
</event>
<event>
 5   0  0.9215829E-04  0.1219251E+04  0.7818609E-02  0.9096171E-01
       -1   -1    0    0    0  501  0.00000000000E+00  0.00000000000E+00  0.82942586391E+03  0.82942586392E+03  0.50400001928E-02 0.  1.
        1   -1    0    0  501    0  0.00000000000E+00  0.00000000000E+00 -0.44807324666E+03  0.44807324669E+03  0.50400001928E-02 0. -1.
    10030    2    1    2    0    0  0.00000000000E+00  0.00000000000E+00  0.38135261725E+03  0.12774991106E+04  0.12192514749E+04 0.  0.
        3    1    3    3  502    0 -0.36126626228E+03  0.49089185138E+03  0.20373811782E+03  0.64264870098E+03  0.10100000352E+00 0.  1.
       -3    1    3    3    0  502  0.36126626228E+03 -0.49089185138E+03  0.17761449943E+03  0.63485040964E+03  0.10100000352E+00 0. -1.
</event>
<event>
 5   0  0.9110949E-04  0.1302841E+04  0.7818609E-02  0.9027315E-01
        1   -1    0    0  501    0  0.00000000000E+00  0.00000000000E+00  0.52871555192E+03  0.52871555195E+03  0.50400001928E-02 0. -1.
       -1   -1    0    0    0  501  0.00000000000E+00  0.00000000000E+00 -0.80260292445E+03  0.80260292446E+03  0.50400001928E-02 0.  1.
    10030    2    1    2    0    0  0.00000000000E+00  0.00000000000E+00 -0.27388737252E+03  0.13313184764E+04  0.13028409699E+04 0.  0.
        2    1    3    3  502    0  0.49436887924E+03  0.12746178600E+03 -0.55038793144E+03  0.75071563906E+03  0.25500000920E-02 0.  1.
       -2    1    3    3    0  502 -0.49436887924E+03 -0.12746178600E+03  0.27650055891E+03  0.58060283735E+03  0.25500000920E-02 0. -1.
</event>
<event>
 5   0  0.9110949E-04  0.1291957E+04  0.7818609E-02  0.9035967E-01
       -1   -1    0    0    0  501  0.00000000000E+00  0.00000000000E+00  0.38605346702E+03  0.38605346705E+03  0.50400001928E-02 0. -1.
        1   -1    0    0  501    0  0.00000000000E+00  0.00000000000E+00 -0.10809086659E+04  0.10809086659E+04  0.50400001928E-02 0.  1.
    10030    2    1    2    0    0  0.00000000000E+00  0.00000000000E+00 -0.69485519886E+03  0.14669621329E+04  0.12919574885E+04 0.  0.
        2    1    3    3  502    0  0.70291435953E+02  0.33560529654E+03 -0.96904931526E+03  0.10279243048E+04  0.25500000920E-02 0.  1.
       -2    1    3    3    0  502 -0.70291435953E+02 -0.33560529654E+03  0.27419411640E+03  0.43903782811E+03  0.25500000920E-02 0. -1.
</event>
<event>
 5   0  0.1694675E-03  0.1303677E+04  0.7818609E-02  0.9026655E-01
        2   -1    0    0  501    0  0.00000000000E+00  0.00000000000E+00  0.11016862515E+04  0.11016862515E+04  0.25500000920E-02 0. -1.
       -2   -1    0    0    0  501  0.00000000000E+00  0.00000000000E+00 -0.38567537522E+03  0.38567537523E+03  0.25500000920E-02 0.  1.
    10030    2    1    2    0    0  0.00000000000E+00  0.00000000000E+00  0.71601087628E+03  0.14873616267E+04  0.13036767367E+04 0.  0.
        4    1    3    3  502    0 -0.49817544864E+03 -0.31498371015E+03  0.40396826678E+02  0.59078509781E+03  0.12699999809E+01 0.  1.
       -4    1    3    3    0  502  0.49817544864E+03  0.31498371015E+03  0.67561404960E+03  0.89657652892E+03  0.12699999809E+01 0. -1.
</event>
<event>
 5   0  0.9098192E-04  0.1308934E+04  0.7818609E-02  0.9022510E-01
        1   -1    0    0  501    0  0.00000000000E+00  0.00000000000E+00  0.40990429909E+03  0.40990429912E+03  0.50400001928E-02 0. -1.
       -1   -1    0    0    0  501  0.00000000000E+00  0.00000000000E+00 -0.10449446245E+04  0.10449446245E+04  0.50400001928E-02 0.  1.
    10030    2    1    2    0    0  0.00000000000E+00  0.00000000000E+00 -0.63504032542E+03  0.14548489236E+04  0.13089343665E+04 0.  0.
        1    1    3    3  502    0 -0.55031695010E+03 -0.29639749938E+03 -0.10191943053E+03  0.63331492446E+03  0.50400001928E-02 0.  1.
       -1    1    3    3    0  502  0.55031695010E+03  0.29639749938E+03 -0.53312089489E+03  0.82153399917E+03  0.50400001928E-02 0. -1.
</event>
<event>
 5   0  0.9098192E-04  0.1279669E+04  0.7818609E-02  0.9045845E-01
       -1   -1    0    0    0  501  0.00000000000E+00  0.00000000000E+00  0.47142234359E+03  0.47142234362E+03  0.50400001928E-02 0.  1.
        1   -1    0    0  501    0  0.00000000000E+00  0.00000000000E+00 -0.86841103648E+03  0.86841103650E+03  0.50400001928E-02 0. -1.
    10030    2    1    2    0    0  0.00000000000E+00  0.00000000000E+00 -0.39698869289E+03  0.13398333801E+04  0.12796692792E+04 0.  0.
        1    1    3    3  502    0  0.34343991337E+03  0.35981811036E+03  0.22287999554E+03  0.54506471091E+03  0.50400001928E-02 0.  1.
       -1    1    3    3    0  502 -0.34343991337E+03 -0.35981811036E+03 -0.61986868843E+03  0.79476866921E+03  0.50400001928E-02 0. -1.
</event>
<event>
 5   0  0.1667342E-03  0.1280453E+04  0.7818609E-02  0.9045211E-01
        2   -1    0    0  501    0  0.00000000000E+00  0.00000000000E+00  0.93909977853E+03  0.93909977853E+03  0.25500000920E-02 0.  1.
       -2   -1    0    0    0  501  0.00000000000E+00  0.00000000000E+00 -0.43647147926E+03  0.43647147927E+03  0.25500000920E-02 0. -1.
    10030    2    1    2    0    0  0.00000000000E+00  0.00000000000E+00  0.50262829927E+03  0.13755712578E+04  0.12804534658E+04 0.  0.
        5    1    3    3  502    0 -0.56244118774E+03 -0.30539483350E+03  0.23392249902E+03  0.68143078852E+03  0.46999998093E+01 0.  1.
       -5    1    3    3    0  502  0.56244118774E+03  0.30539483350E+03  0.26870580025E+03  0.69414046927E+03  0.46999998093E+01 0. -1.
</event>
<event>
 5   0  0.1714861E-03  0.1298924E+04  0.7818609E-02  0.9030419E-01
       -2   -1    0    0    0  501  0.00000000000E+00  0.00000000000E+00  0.52697693088E+03  0.52697693088E+03  0.25500000920E-02 0.  1.
        2   -1    0    0  501    0  0.00000000000E+00  0.00000000000E+00 -0.80041650774E+03  0.80041650775E+03  0.25500000920E-02 0. -1.
    10030    2    1    2    0    0  0.00000000000E+00  0.00000000000E+00 -0.27343957687E+03  0.13273934386E+04  0.12989242236E+04 0.  0.
        1    1    3    3  502    0  0.14971310967E+03  0.62725796227E+03 -0.57995860542E+02  0.64747979605E+03  0.50400001928E-02 0. -1.
       -1    1    3    3    0  502 -0.14971310967E+03 -0.62725796227E+03 -0.21544371632E+03  0.67991364258E+03  0.50400001928E-02 0.  1.
</event>
<event>
 5   0  0.1714861E-03  0.1267842E+04  0.7818609E-02  0.9055463E-01
       -2   -1    0    0    0  501  0.00000000000E+00  0.00000000000E+00  0.19501655227E+03  0.19501655228E+03  0.25500000920E-02 0. -1.
        2   -1    0    0  501    0  0.00000000000E+00  0.00000000000E+00 -0.20606231722E+04  0.20606231722E+04  0.25500000920E-02 0.  1.
    10030    2    1    2    0    0  0.00000000000E+00  0.00000000000E+00 -0.18656066199E+04  0.22556397244E+04  0.12678416724E+04 0.  0.
        1    1    3    3  502    0  0.87026877468E+02  0.59852072327E+03 -0.59498217448E+03  0.84841294283E+03  0.50400001928E-02 0. -1.
       -1    1    3    3    0  502 -0.87026877468E+02 -0.59852072327E+03 -0.12706244454E+04  0.14072267816E+04  0.50400001928E-02 0.  1.
</event>
<event>
 5   0  0.9215829E-04  0.1306218E+04  0.7818609E-02  0.9024648E-01
        1   -1    0    0  501    0  0.00000000000E+00  0.00000000000E+00  0.88145024673E+03  0.88145024674E+03  0.50400001928E-02 0. -1.
       -1   -1    0    0    0  501  0.00000000000E+00  0.00000000000E+00 -0.48392027429E+03  0.48392027432E+03  0.50400001928E-02 0.  1.
    10030    2    1    2    0    0  0.00000000000E+00  0.00000000000E+00  0.39752997244E+03  0.13653705211E+04  0.13062184277E+04 0.  0.
        3    1    3    3  502    0  0.30207412757E+03  0.39021986720E+03 -0.24843050039E+03  0.55248352648E+03  0.10100000352E+00 0.  1.
       -3    1    3    3    0  502 -0.30207412757E+03 -0.39021986720E+03  0.64596047283E+03  0.81288699458E+03  0.10100000352E+00 0. -1.
</event>
<event>
 5   0  0.1667342E-03  0.1301224E+04  0.7818609E-02  0.9028595E-01
       -2   -1    0    0    0  501  0.00000000000E+00  0.00000000000E+00  0.57438783836E+03  0.57438783837E+03  0.25500000920E-02 0.  1.
        2   -1    0    0  501    0  0.00000000000E+00  0.00000000000E+00 -0.73695191767E+03  0.73695191767E+03  0.25500000920E-02 0. -1.
    10030    2    1    2    0    0  0.00000000000E+00  0.00000000000E+00 -0.16256407931E+03  0.13113397560E+04  0.13012243757E+04 0.  0.
        5    1    3    3  502    0 -0.43770135413E+03 -0.14490789178E+03  0.38129967177E+03  0.59832457931E+03  0.46999998093E+01 0.  1.
       -5    1    3    3    0  502  0.43770135413E+03  0.14490789178E+03 -0.54386375108E+03  0.71301517673E+03  0.46999998093E+01 0. -1.
</event>
<event>
 5   0  0.1700511E-03  0.1304677E+04  0.7818609E-02  0.9025864E-01
       -2   -1    0    0    0  501  0.00000000000E+00  0.00000000000E+00  0.19741967587E+03  0.19741967589E+03  0.25500000920E-02 0.  1.
        2   -1    0    0  501    0  0.00000000000E+00  0.00000000000E+00 -0.21555377999E+04  0.21555377999E+04  0.25500000920E-02 0. -1.
    10030    2    1    2    0    0  0.00000000000E+00  0.00000000000E+00 -0.19581181240E+04  0.23529574758E+04  0.13046770847E+04 0.  0.
        2    1    3    3  502    0 -0.36092112710E+03 -0.37594469996E+03 -0.16866736781E+04  0.17653516856E+04  0.25500000920E-02 0. -1.
       -2    1    3    3    0  502  0.36092112710E+03  0.37594469996E+03 -0.27144444588E+03  0.58760579015E+03  0.25500000920E-02 0.  1.
</event>
<event>
 5   0  0.9027076E-04  0.1301439E+04  0.7818609E-02  0.9028425E-01
       -1   -1    0    0    0  501  0.00000000000E+00  0.00000000000E+00  0.49556618327E+03  0.49556618330E+03  0.50400001928E-02 0.  1.
        1   -1    0    0  501    0  0.00000000000E+00  0.00000000000E+00 -0.85444861914E+03  0.85444861916E+03  0.50400001928E-02 0. -1.
    10030    2    1    2    0    0  0.00000000000E+00  0.00000000000E+00 -0.35888243587E+03  0.13500148025E+04  0.13014389590E+04 0.  0.
        5    1    3    3  502    0  0.31539593082E+03 -0.37311496689E+03  0.26639652873E+03  0.55648771075E+03  0.46999998093E+01 0.  1.
       -5    1    3    3    0  502 -0.31539593082E+03  0.37311496689E+03 -0.62527896460E+03  0.79352709170E+03  0.46999998093E+01 0. -1.
</event>
<event>
 5   0  0.1714861E-03  0.1295669E+04  0.7818609E-02  0.9033007E-01
       -2   -1    0    0    0  501  0.00000000000E+00  0.00000000000E+00  0.42646577326E+03  0.42646577327E+03  0.25500000920E-02 0.  1.
        2   -1    0    0  501    0  0.00000000000E+00  0.00000000000E+00 -0.98411085562E+03  0.98411085562E+03  0.25500000920E-02 0. -1.
    10030    2    1    2    0    0  0.00000000000E+00  0.00000000000E+00 -0.55764508236E+03  0.14105766289E+04  0.12956690890E+04 0.  0.
        1    1    3    3  502    0  0.42638388359E+03  0.32828739832E+03 -0.67152553116E+03  0.86053609518E+03  0.50400001928E-02 0. -1.
       -1    1    3    3    0  502 -0.42638388359E+03 -0.32828739832E+03  0.11388044880E+03  0.55004053371E+03  0.50400001928E-02 0.  1.
</event>
<event>
 5   0  0.1694675E-03  0.1288581E+04  0.7818609E-02  0.9038670E-01
        2   -1    0    0  501    0  0.00000000000E+00  0.00000000000E+00  0.19314313126E+04  0.19314313126E+04  0.25500000920E-02 0.  1.
       -2   -1    0    0    0  501  0.00000000000E+00  0.00000000000E+00 -0.21492376498E+03  0.21492376500E+03  0.25500000920E-02 0. -1.
    10030    2    1    2    0    0  0.00000000000E+00  0.00000000000E+00  0.17165075476E+04  0.21463550776E+04  0.12885813743E+04 0.  0.
        4    1    3    3  502    0 -0.49237900272E+03 -0.39830228223E+03  0.66097813667E+03  0.91541001765E+03  0.12699999809E+01 0.  1.
       -4    1    3    3    0  502  0.49237900272E+03  0.39830228223E+03  0.10555294109E+04  0.12309450599E+04  0.12699999809E+01 0. -1.
</event>
<event>
 5   0  0.1714861E-03  0.1307755E+04  0.7818609E-02  0.9023438E-01
        2   -1    0    0  501    0  0.00000000000E+00  0.00000000000E+00  0.89038204883E+03  0.89038204883E+03  0.25500000920E-02 0.  1.
       -2   -1    0    0    0  501  0.00000000000E+00  0.00000000000E+00 -0.48019388883E+03  0.48019388883E+03  0.25500000920E-02 0. -1.
    10030    2    1    2    0    0  0.00000000000E+00  0.00000000000E+00  0.41018816000E+03  0.13705759377E+04  0.13077553572E+04 0.  0.
        1    1    3    3  502    0 -0.52162917937E+03 -0.22940412142E+03  0.54117383795E+03  0.78587045663E+03  0.50400001928E-02 0.  1.
       -1    1    3    3    0  502  0.52162917937E+03  0.22940412142E+03 -0.13098567795E+03  0.58470548103E+03  0.50400001928E-02 0. -1.
</event>
<event>
 5   0  0.1700511E-03  0.1300922E+04  0.7818609E-02  0.9028834E-01
       -2   -1    0    0    0  501  0.00000000000E+00  0.00000000000E+00  0.33673292195E+03  0.33673292196E+03  0.25500000920E-02 0. -1.
        2   -1    0    0  501    0  0.00000000000E+00  0.00000000000E+00 -0.12564844264E+04  0.12564844264E+04  0.25500000920E-02 0.  1.
    10030    2    1    2    0    0  0.00000000000E+00  0.00000000000E+00 -0.91975150446E+03  0.15932173484E+04  0.13009222456E+04 0.  0.
        2    1    3    3  502    0  0.35215242864E+02 -0.15449919861E+03 -0.12324843285E+04  0.12426293638E+04  0.25500000920E-02 0.  1.
       -2    1    3    3    0  502 -0.35215242864E+02  0.15449919861E+03  0.31273282405E+03  0.35058798460E+03  0.25500000920E-02 0. -1.
</event>
<event>
 5   0  0.9110949E-04  0.1306183E+04  0.7818609E-02  0.9024676E-01
       -1   -1    0    0    0  501  0.00000000000E+00  0.00000000000E+00  0.47582518985E+03  0.47582518987E+03  0.50400001928E-02 0.  1.
        1   -1    0    0  501    0  0.00000000000E+00  0.00000000000E+00 -0.89639807044E+03  0.89639807045E+03  0.50400001928E-02 0. -1.
    10030    2    1    2    0    0  0.00000000000E+00  0.00000000000E+00 -0.42057288059E+03  0.13722232603E+04  0.13061834206E+04 0.  0.
        2    1    3    3  502    0  0.37414426474E+03 -0.10561230794E+02 -0.77254020473E+03  0.85843685753E+03  0.25500000920E-02 0. -1.
       -2    1    3    3    0  502 -0.37414426474E+03  0.10561230794E+02  0.35196732414E+03  0.51378640280E+03  0.25500000920E-02 0.  1.
</event>
<event>
 5   0  0.9110949E-04  0.1300170E+04  0.7818609E-02  0.9029430E-01
        1   -1    0    0  501    0  0.00000000000E+00  0.00000000000E+00  0.58547822669E+03  0.58547822671E+03  0.50400001928E-02 0.  1.
       -1   -1    0    0    0  501  0.00000000000E+00  0.00000000000E+00 -0.72182100853E+03  0.72182100854E+03  0.50400001928E-02 0. -1.
    10030    2    1    2    0    0  0.00000000000E+00  0.00000000000E+00 -0.13634278184E+03  0.13072992353E+04  0.13001699644E+04 0.  0.
        2    1    3    3  502    0 -0.33883238422E+03  0.30227894494E+03  0.39960052975E+03  0.60486405790E+03  0.25500000920E-02 0.  1.
       -2    1    3    3    0  502  0.33883238422E+03 -0.30227894494E+03 -0.53594331159E+03  0.70243517736E+03  0.25500000920E-02 0. -1.
</event>
<event>
 5   0  0.1714861E-03  0.1289556E+04  0.7818609E-02  0.9037889E-01
       -2   -1    0    0    0  501  0.00000000000E+00  0.00000000000E+00  0.20429390302E+03  0.20429390303E+03  0.25500000920E-02 0.  1.
        2   -1    0    0  501    0  0.00000000000E+00  0.00000000000E+00 -0.20350021170E+04  0.20350021171E+04  0.25500000920E-02 0. -1.
    10030    2    1    2    0    0  0.00000000000E+00  0.00000000000E+00 -0.18307082140E+04  0.22392960201E+04  0.12895557765E+04 0.  0.
        1    1    3    3  502    0  0.31664336021E+02 -0.32226121272E+03 -0.18835657197E+04  0.19111972006E+04  0.50400001928E-02 0. -1.
       -1    1    3    3    0  502 -0.31664336021E+02  0.32226121272E+03  0.52857505632E+02  0.32809881945E+03  0.50400001928E-02 0.  1.
</event>
<event>
 5   0  0.9098192E-04  0.1280211E+04  0.7818609E-02  0.9045407E-01
       -1   -1    0    0    0  501  0.00000000000E+00  0.00000000000E+00  0.65815415921E+03  0.65815415923E+03  0.50400001928E-02 0. -1.
        1   -1    0    0  501    0  0.00000000000E+00  0.00000000000E+00 -0.62255166265E+03  0.62255166267E+03  0.50400001928E-02 0.  1.
    10030    2    1    2    0    0  0.00000000000E+00  0.00000000000E+00  0.35602496565E+02  0.12807058219E+04  0.12802108672E+04 0.  0.
        1    1    3    3  502    0 -0.21988225514E+03 -0.60114585390E+03  0.21030857219E+02  0.64044269124E+03  0.50400001928E-02 0.  1.
       -1    1    3    3    0  502  0.21988225514E+03  0.60114585390E+03  0.14571639346E+02  0.64026313066E+03  0.50400001928E-02 0. -1.
</event>
<event>
 5   0  0.9027076E-04  0.1294667E+04  0.7818609E-02  0.9033805E-01
       -1   -1    0    0    0  501  0.00000000000E+00  0.00000000000E+00  0.78081983594E+03  0.78081983595E+03  0.50400001928E-02 0.  1.
        1   -1    0    0  501    0  0.00000000000E+00  0.00000000000E+00 -0.53666772627E+03  0.53666772629E+03  0.50400001928E-02 0. -1.
    10030    2    1    2    0    0  0.00000000000E+00  0.00000000000E+00  0.24415210967E+03  0.13174875622E+04  0.12946672252E+04 0.  0.
        5    1    3    3  502    0 -0.35045561205E+03 -0.14814576637E+03 -0.41084588234E+03  0.55998458295E+03  0.46999998093E+01 0. -1.
       -5    1    3    3    0  502  0.35045561205E+03  0.14814576637E+03  0.65499799201E+03  0.75750297930E+03  0.46999998093E+01 0.  1.
</event>
<event>
 5   0  0.1623890E-03  0.1302533E+04  0.7818609E-02  0.9027559E-01
       -2   -1    0    0    0  501  0.00000000000E+00  0.00000000000E+00  0.44980691852E+03  0.44980691853E+03  0.25500000920E-02 0.  1.
        2   -1    0    0  501    0  0.00000000000E+00  0.00000000000E+00 -0.94295598749E+03  0.94295598750E+03  0.25500000920E-02 0. -1.
    10030    2    1    2    0    0  0.00000000000E+00  0.00000000000E+00 -0.49314906898E+03  0.13927629060E+04  0.13025331121E+04 0.  0.
        3    1    3    3  502    0 -0.15166826479E+03  0.87830365558E+02 -0.91726561618E+03  0.93385954858E+03  0.10100000352E+00 0. -1.
       -3    1    3    3    0  502  0.15166826479E+03 -0.87830365558E+02  0.42411654720E+03  0.45890335744E+03  0.10100000352E+00 0.  1.
</event>
<event>
 5   0  0.9081324E-04  0.1302281E+04  0.7818609E-02  0.9027758E-01
        1   -1    0    0  501    0  0.00000000000E+00  0.00000000000E+00  0.18627789356E+04  0.18627789356E+04  0.50400001928E-02 0.  1.
       -1   -1    0    0    0  501  0.00000000000E+00  0.00000000000E+00 -0.22760829367E+03  0.22760829373E+03  0.50400001928E-02 0. -1.
    10030    2    1    2    0    0  0.00000000000E+00  0.00000000000E+00  0.16351706419E+04  0.20903872293E+04  0.13022809760E+04 0.  0.
        4    1    3    3  502    0  0.48275397314E+03  0.19177347170E+03  0.14478155756E+04  0.15381807491E+04  0.12699999809E+01 0.  1.
       -4    1    3    3    0  502 -0.48275397314E+03 -0.19177347170E+03  0.18735506630E+03  0.55220648022E+03  0.12699999809E+01 0. -1.
</event>
<event>
 5   0  0.1700511E-03  0.1286726E+04  0.7818609E-02  0.9040158E-01
        2   -1    0    0  501    0  0.00000000000E+00  0.00000000000E+00  0.60480788075E+03  0.60480788076E+03  0.25500000920E-02 0.  1.
       -2   -1    0    0    0  501  0.00000000000E+00  0.00000000000E+00 -0.68437588397E+03  0.68437588397E+03  0.25500000920E-02 0. -1.
    10030    2    1    2    0    0  0.00000000000E+00  0.00000000000E+00 -0.79568003215E+02  0.12891837647E+04  0.12867259662E+04 0.  0.
        2    1    3    3  502    0  0.40963764647E+03  0.39145430060E+03  0.26555450894E+03  0.62574648867E+03  0.25500000920E-02 0.  1.
       -2    1    3    3    0  502 -0.40963764647E+03 -0.39145430060E+03 -0.34512251215E+03  0.66343727606E+03  0.25500000920E-02 0. -1.
</event>
<event>
 5   0  0.9081324E-04  0.1306367E+04  0.7818609E-02  0.9024531E-01
        1   -1    0    0  501    0  0.00000000000E+00  0.00000000000E+00  0.77682694663E+03  0.77682694665E+03  0.50400001928E-02 0.  1.
       -1   -1    0    0    0  501  0.00000000000E+00  0.00000000000E+00 -0.54921949829E+03  0.54921949831E+03  0.50400001928E-02 0. -1.
    10030    2    1    2    0    0  0.00000000000E+00  0.00000000000E+00  0.22760744834E+03  0.13260464450E+04  0.13063667263E+04 0.  0.
        4    1    3    3  502    0  0.30528296176E+03 -0.57637034647E+03  0.14964038764E+03  0.66917435811E+03  0.12699999809E+01 0.  1.
       -4    1    3    3    0  502 -0.30528296176E+03  0.57637034647E+03  0.77967060696E+02  0.65687208685E+03  0.12699999809E+01 0. -1.
</event>
<event>
 5   0  0.9098192E-04  0.1261035E+04  0.7818609E-02  0.9061048E-01
       -1   -1    0    0    0  501  0.00000000000E+00  0.00000000000E+00  0.30318098928E+03  0.30318098932E+03  0.50400001928E-02 0.  1.
        1   -1    0    0  501    0  0.00000000000E+00  0.00000000000E+00 -0.13112712207E+04  0.13112712207E+04  0.50400001928E-02 0. -1.
    10030    2    1    2    0    0  0.00000000000E+00  0.00000000000E+00 -0.10080902314E+04  0.16144522100E+04  0.12610352984E+04 0.  0.
        1    1    3    3  502    0 -0.53575062770E+03 -0.28605524050E+03 -0.28716990186E+03  0.67180569234E+03  0.50400001928E-02 0.  1.
       -1    1    3    3    0  502  0.53575062770E+03  0.28605524050E+03 -0.72092032952E+03  0.94264651765E+03  0.50400001928E-02 0. -1.
</event>
<event>
 5   0  0.1667342E-03  0.1299371E+04  0.7818609E-02  0.9030064E-01
        2   -1    0    0  501    0  0.00000000000E+00  0.00000000000E+00  0.90824585943E+03  0.90824585943E+03  0.25500000920E-02 0.  1.
       -2   -1    0    0    0  501  0.00000000000E+00  0.00000000000E+00 -0.46473236411E+03  0.46473236411E+03  0.25500000920E-02 0. -1.
    10030    2    1    2    0    0  0.00000000000E+00  0.00000000000E+00  0.44351349532E+03  0.13729782235E+04  0.12993709947E+04 0.  0.
        5    1    3    3  502    0 -0.29477420314E+03  0.11419278455E+03 -0.37796667409E+03  0.49276030643E+03  0.46999998093E+01 0. -1.
       -5    1    3    3    0  502  0.29477420314E+03 -0.11419278455E+03  0.82148016941E+03  0.88021791711E+03  0.46999998093E+01 0.  1.
</event>
<event>
 5   0  0.9215829E-04  0.1311308E+04  0.7818609E-02  0.9020646E-01
       -1   -1    0    0    0  501  0.00000000000E+00  0.00000000000E+00  0.15873017454E+03  0.15873017462E+03  0.50400001928E-02 0. -1.
        1   -1    0    0  501    0  0.00000000000E+00  0.00000000000E+00 -0.27082559584E+04  0.27082559584E+04  0.50400001928E-02 0.  1.
    10030    2    1    2    0    0  0.00000000000E+00  0.00000000000E+00 -0.25495257839E+04  0.28669861330E+04  0.13113076544E+04 0.  0.
        3    1    3    3  502    0 -0.37181903147E+03  0.23972247402E+03 -0.21677033440E+03  0.49265164649E+03  0.10100000352E+00 0. -1.
       -3    1    3    3    0  502  0.37181903147E+03 -0.23972247402E+03 -0.23327554495E+04  0.23743344865E+04  0.10100000352E+00 0.  1.
</event>
<event>
 5   0  0.9215829E-04  0.1306183E+04  0.7818609E-02  0.9024677E-01
        1   -1    0    0  501    0  0.00000000000E+00  0.00000000000E+00  0.89291826138E+03  0.89291826139E+03  0.50400001928E-02 0.  1.
       -1   -1    0    0    0  501  0.00000000000E+00  0.00000000000E+00 -0.47767897209E+03  0.47767897212E+03  0.50400001928E-02 0. -1.
    10030    2    1    2    0    0  0.00000000000E+00  0.00000000000E+00  0.41523928928E+03  0.13705972335E+04  0.13061826477E+04 0.  0.
        3    1    3    3  502    0  0.53698329139E+03 -0.35811151170E+03  0.31220092728E+03  0.71698280261E+03  0.10100000352E+00 0.  1.
       -3    1    3    3    0  502 -0.53698329139E+03  0.35811151170E+03  0.10303836200E+03  0.65361443090E+03  0.10100000352E+00 0. -1.
</event>
<event>
 5   0  0.1700511E-03  0.1449213E+04  0.7818609E-02  0.8918946E-01
        2   -1    0    0  501    0  0.00000000000E+00  0.00000000000E+00  0.75038420787E+03  0.75038420787E+03  0.25500000920E-02 0.  1.
       -2   -1    0    0    0  501  0.00000000000E+00  0.00000000000E+00 -0.69971417506E+03  0.69971417506E+03  0.25500000920E-02 0. -1.
    10030    2    1    2    0    0  0.00000000000E+00  0.00000000000E+00  0.50670032808E+02  0.14500983829E+04  0.14492128443E+04 0.  0.
        2    1    3    3  502    0 -0.32182237711E+03  0.94822660319E+02  0.66798402508E+03  0.74750494118E+03  0.25500000920E-02 0.  1.
       -2    1    3    3    0  502  0.32182237711E+03 -0.94822660319E+02 -0.61731399228E+03  0.70259344175E+03  0.25500000920E-02 0. -1.
</event>
<event>
 5   0  0.1694675E-03  0.1296573E+04  0.7818609E-02  0.9032287E-01
       -2   -1    0    0    0  501  0.00000000000E+00  0.00000000000E+00  0.75358105166E+03  0.75358105167E+03  0.25500000920E-02 0.  1.
        2   -1    0    0  501    0  0.00000000000E+00  0.00000000000E+00 -0.55770422673E+03  0.55770422674E+03  0.25500000920E-02 0. -1.
    10030    2    1    2    0    0  0.00000000000E+00  0.00000000000E+00  0.19587682493E+03  0.13112852784E+04  0.12965729254E+04 0.  0.
        4    1    3    3  502    0  0.39873130140E+03  0.51071028074E+03  0.76198372305E+02  0.65239516124E+03  0.12699999809E+01 0.  1.
       -4    1    3    3    0  502 -0.39873130140E+03 -0.51071028074E+03  0.11967845263E+03  0.65889011716E+03  0.12699999809E+01 0. -1.
</event>
<event>
 5   0  0.9215829E-04  0.1289904E+04  0.7818609E-02  0.9037610E-01
       -1   -1    0    0    0  501  0.00000000000E+00  0.00000000000E+00  0.46989520544E+03  0.46989520547E+03  0.50400001928E-02 0.  1.
        1   -1    0    0  501    0  0.00000000000E+00  0.00000000000E+00 -0.88522463791E+03  0.88522463793E+03  0.50400001928E-02 0. -1.
    10030    2    1    2    0    0  0.00000000000E+00  0.00000000000E+00 -0.41532943247E+03  0.13551198434E+04  0.12899035826E+04 0.  0.
        3    1    3    3  502    0 -0.29560780919E+03  0.30864584337E+03  0.29978527217E+03  0.52203204221E+03  0.10100000352E+00 0.  1.
       -3    1    3    3    0  502  0.29560780919E+03 -0.30864584337E+03 -0.71511470464E+03  0.83308780118E+03  0.10100000352E+00 0. -1.
</event>
<event>
 5   0  0.1700511E-03  0.1248830E+04  0.7818609E-02  0.9071158E-01
        2   -1    0    0  501    0  0.00000000000E+00  0.00000000000E+00  0.91446617922E+03  0.91446617922E+03  0.25500000920E-02 0. -1.
       -2   -1    0    0    0  501  0.00000000000E+00  0.00000000000E+00 -0.42636249685E+03  0.42636249686E+03  0.25500000920E-02 0.  1.
    10030    2    1    2    0    0  0.00000000000E+00  0.00000000000E+00  0.48810368236E+03  0.13408286761E+04  0.12488299860E+04 0.  0.
        2    1    3    3  502    0 -0.19180981790E+03  0.52006820631E+03 -0.64582655433E+02  0.55806170344E+03  0.25500000920E-02 0.  1.
       -2    1    3    3    0  502  0.19180981790E+03 -0.52006820631E+03  0.55268633780E+03  0.78276697264E+03  0.25500000920E-02 0. -1.
</event>
<event>
 5   0  0.1694675E-03  0.1301789E+04  0.7818609E-02  0.9028148E-01
       -2   -1    0    0    0  501  0.00000000000E+00  0.00000000000E+00  0.28803084621E+03  0.28803084622E+03  0.25500000920E-02 0.  1.
        2   -1    0    0  501    0  0.00000000000E+00  0.00000000000E+00 -0.14708956887E+04  0.14708956887E+04  0.25500000920E-02 0. -1.
    10030    2    1    2    0    0  0.00000000000E+00  0.00000000000E+00 -0.11828648425E+04  0.17589265349E+04  0.13017885080E+04 0.  0.
        4    1    3    3  502    0  0.65059013014E+03 -0.25283545867E+01 -0.56482424639E+03  0.86156947035E+03  0.12699999809E+01 0. -1.
       -4    1    3    3    0  502 -0.65059013014E+03  0.25283545867E+01 -0.61804059607E+03  0.89735706456E+03  0.12699999809E+01 0.  1.
</event>
<event>
 5   0  0.1623890E-03  0.1302992E+04  0.7818609E-02  0.9027196E-01
        2   -1    0    0  501    0  0.00000000000E+00  0.00000000000E+00  0.42856427911E+03  0.42856427912E+03  0.25500000920E-02 0. -1.
       -2   -1    0    0    0  501  0.00000000000E+00  0.00000000000E+00 -0.99039222786E+03  0.99039222786E+03  0.25500000920E-02 0.  1.
    10030    2    1    2    0    0  0.00000000000E+00  0.00000000000E+00 -0.56182794875E+03  0.14189565070E+04  0.13029915290E+04 0.  0.
        3    1    3    3  502    0  0.21010304458E+03  0.56400346387E+03 -0.93107085944E+01  0.60193844876E+03  0.10100000352E+00 0.  1.
       -3    1    3    3    0  502 -0.21010304458E+03 -0.56400346387E+03 -0.55251724015E+03  0.81701805823E+03  0.10100000352E+00 0. -1.
</event>
<event>
 5   0  0.9215829E-04  0.1297879E+04  0.7818609E-02  0.9031249E-01
        1   -1    0    0  501    0  0.00000000000E+00  0.00000000000E+00  0.88145007900E+03  0.88145007901E+03  0.50400001928E-02 0.  1.
       -1   -1    0    0    0  501  0.00000000000E+00  0.00000000000E+00 -0.47776127903E+03  0.47776127906E+03  0.50400001928E-02 0. -1.
    10030    2    1    2    0    0  0.00000000000E+00  0.00000000000E+00  0.40368879996E+03  0.13592113581E+04  0.12978793737E+04 0.  0.
        3    1    3    3  502    0 -0.17181193100E+03 -0.53266390209E+02 -0.45113102317E+03  0.48567052435E+03  0.10100000352E+00 0. -1.
       -3    1    3    3    0  502  0.17181193100E+03  0.53266390209E+02  0.85481982313E+03  0.87354083372E+03  0.10100000352E+00 0.  1.
</event>
<event>
 5   0  0.1700511E-03  0.1355777E+04  0.7818609E-02  0.8986466E-01
        2   -1    0    0  501    0  0.00000000000E+00  0.00000000000E+00  0.11436064282E+04  0.11436064282E+04  0.25500000920E-02 0. -1.
       -2   -1    0    0    0  501  0.00000000000E+00  0.00000000000E+00 -0.40182797280E+03  0.40182797280E+03  0.25500000920E-02 0.  1.
    10030    2    1    2    0    0  0.00000000000E+00  0.00000000000E+00  0.74177845542E+03  0.15454344010E+04  0.13557773456E+04 0.  0.
        2    1    3    3  502    0 -0.61857350749E+03  0.26801771071E+03  0.28975373433E+03  0.73377374169E+03  0.25500000920E-02 0.  1.
       -2    1    3    3    0  502  0.61857350749E+03 -0.26801771071E+03  0.45202472110E+03  0.81166065934E+03  0.25500000920E-02 0. -1.
</event>
<event>
 5   0  0.9027076E-04  0.1291322E+04  0.7818609E-02  0.9036475E-01
       -1   -1    0    0    0  501  0.00000000000E+00  0.00000000000E+00  0.45262007218E+03  0.45262007221E+03  0.50400001928E-02 0. -1.
        1   -1    0    0  501    0  0.00000000000E+00  0.00000000000E+00 -0.92103340095E+03  0.92103340096E+03  0.50400001928E-02 0.  1.
    10030    2    1    2    0    0  0.00000000000E+00  0.00000000000E+00 -0.46841332877E+03  0.13736534732E+04  0.12913221201E+04 0.  0.
        5    1    3    3  502    0 -0.37249168152E+03  0.46657380096E+03  0.27259085765E+02  0.59766739270E+03  0.46999998093E+01 0. -1.
       -5    1    3    3    0  502  0.37249168152E+03 -0.46657380096E+03 -0.49567241453E+03  0.77598608046E+03  0.46999998093E+01 0.  1.
</event>
<event>
 5   0  0.9081324E-04  0.1295614E+04  0.7818609E-02  0.9033051E-01
        1   -1    0    0  501    0  0.00000000000E+00  0.00000000000E+00  0.99481588439E+03  0.99481588441E+03  0.50400001928E-02 0.  1.
       -1   -1    0    0    0  501  0.00000000000E+00  0.00000000000E+00 -0.42184073624E+03  0.42184073627E+03  0.50400001928E-02 0. -1.
    10030    2    1    2    0    0  0.00000000000E+00  0.00000000000E+00  0.57297514816E+03  0.14166566207E+04  0.12956139319E+04 0.  0.
        4    1    3    3  502    0 -0.29983592101E+03  0.40502403148E+03  0.73158837317E+03  0.88835196080E+03  0.12699999809E+01 0.  1.
       -4    1    3    3    0  502  0.29983592101E+03 -0.40502403148E+03 -0.15861322501E+03  0.52830465988E+03  0.12699999809E+01 0. -1.
</event>
<event>
 5   0  0.1700511E-03  0.1309803E+04  0.7818609E-02  0.9021827E-01
       -2   -1    0    0    0  501  0.00000000000E+00  0.00000000000E+00  0.53057407251E+03  0.53057407251E+03  0.25500000920E-02 0.  1.
        2   -1    0    0  501    0  0.00000000000E+00  0.00000000000E+00 -0.80836211553E+03  0.80836211553E+03  0.25500000920E-02 0. -1.
    10030    2    1    2    0    0  0.00000000000E+00  0.00000000000E+00 -0.27778804302E+03  0.13389361880E+04  0.13098030076E+04 0.  0.
        2    1    3    3  502    0 -0.92049505703E+02  0.25434431264E+03 -0.74859271572E+03  0.79596180493E+03  0.25500000920E-02 0. -1.
       -2    1    3    3    0  502  0.92049505703E+02 -0.25434431264E+03  0.47080467270E+03  0.54297438311E+03  0.25500000920E-02 0.  1.
</event>
<event>
 5   0  0.9027076E-04  0.1443397E+04  0.7818609E-02  0.8922991E-01
        1   -1    0    0  501    0  0.00000000000E+00  0.00000000000E+00  0.79921566286E+03  0.79921566288E+03  0.50400001928E-02 0.  1.
       -1   -1    0    0    0  501  0.00000000000E+00  0.00000000000E+00 -0.65169994468E+03  0.65169994470E+03  0.50400001928E-02 0. -1.
    10030    2    1    2    0    0  0.00000000000E+00  0.00000000000E+00  0.14751571818E+03  0.14509156076E+04  0.14433971086E+04 0.  0.
        5    1    3    3  502    0 -0.20166018754E+03 -0.44665055551E+03  0.60629392958E+03  0.77960116022E+03  0.46999998093E+01 0.  1.
       -5    1    3    3    0  502  0.20166018754E+03  0.44665055551E+03 -0.45877821140E+03  0.67131444736E+03  0.46999998093E+01 0. -1.
</event>
<event>
 5   0  0.9215829E-04  0.1319204E+04  0.7818609E-02  0.9014473E-01
       -1   -1    0    0    0  501  0.00000000000E+00  0.00000000000E+00  0.62954992918E+03  0.62954992920E+03  0.50400001928E-02 0.  1.
        1   -1    0    0  501    0  0.00000000000E+00  0.00000000000E+00 -0.69108893510E+03  0.69108893512E+03  0.50400001928E-02 0. -1.
    10030    2    1    2    0    0  0.00000000000E+00  0.00000000000E+00 -0.61539005919E+02  0.13206388643E+04  0.13192042907E+04 0.  0.
        3    1    3    3  502    0 -0.67569964900E+01 -0.42262534262E+03  0.47615764122E+03  0.63669768865E+03  0.10100000352E+00 0.  1.
       -3    1    3    3    0  502  0.67569964900E+01  0.42262534262E+03 -0.53769664714E+03  0.68394117567E+03  0.10100000352E+00 0. -1.
</event>
<event>
 5   0  0.9215829E-04  0.1320834E+04  0.7818609E-02  0.9013205E-01
       -1   -1    0    0    0  501  0.00000000000E+00  0.00000000000E+00  0.14087816849E+04  0.14087816849E+04  0.50400001928E-02 0. -1.
        1   -1    0    0  501    0  0.00000000000E+00  0.00000000000E+00 -0.30959437254E+03  0.30959437258E+03  0.50400001928E-02 0.  1.
    10030    2    1    2    0    0  0.00000000000E+00  0.00000000000E+00  0.10991873124E+04  0.17183760575E+04  0.13208344057E+04 0.  0.
        3    1    3    3  502    0  0.52451789941E+02 -0.54967512124E+03  0.78257254960E+02  0.55769000111E+03  0.10100000352E+00 0.  1.
       -3    1    3    3    0  502 -0.52451789941E+02  0.54967512124E+03  0.10209300574E+04  0.11606860564E+04  0.10100000352E+00 0. -1.
</event>
<event>
 5   0  0.9110949E-04  0.1351837E+04  0.7818609E-02  0.8989439E-01
        1   -1    0    0  501    0  0.00000000000E+00  0.00000000000E+00  0.47383016395E+03  0.47383016397E+03  0.50400001928E-02 0.  1.
       -1   -1    0    0    0  501  0.00000000000E+00  0.00000000000E+00 -0.96419746063E+03  0.96419746065E+03  0.50400001928E-02 0. -1.
    10030    2    1    2    0    0  0.00000000000E+00  0.00000000000E+00 -0.49036729669E+03  0.14380276246E+04  0.13518370329E+04 0.  0.
        2    1    3    3  502    0 -0.32190025705E+03  0.18795255271E+03  0.35460984237E+03  0.51448428341E+03  0.25500000920E-02 0.  1.
       -2    1    3    3    0  502  0.32190025705E+03 -0.18795255271E+03 -0.84497713906E+03  0.92354334121E+03  0.25500000920E-02 0. -1.
</event>
<event>
 5   0  0.1667342E-03  0.1290594E+04  0.7818609E-02  0.9037058E-01
        2   -1    0    0  501    0  0.00000000000E+00  0.00000000000E+00  0.67789818764E+03  0.67789818765E+03  0.25500000920E-02 0.  1.
       -2   -1    0    0    0  501  0.00000000000E+00  0.00000000000E+00 -0.61426349576E+03  0.61426349576E+03  0.25500000920E-02 0. -1.
    10030    2    1    2    0    0  0.00000000000E+00  0.00000000000E+00  0.63634691885E+02  0.12921616834E+04  0.12905938331E+04 0.  0.
        5    1    3    3  502    0 -0.85644160012E+02  0.59277057307E+03  0.27226351371E+03  0.65792202071E+03  0.46999998093E+01 0.  1.
       -5    1    3    3    0  502  0.85644160012E+02 -0.59277057307E+03 -0.20862882183E+03  0.63423966270E+03  0.46999998093E+01 0. -1.
</event>
<event>
 5   0  0.9081324E-04  0.1306683E+04  0.7818609E-02  0.9024282E-01
       -1   -1    0    0    0  501  0.00000000000E+00  0.00000000000E+00  0.73572239964E+03  0.73572239965E+03  0.50400001928E-02 0.  1.
        1   -1    0    0  501    0  0.00000000000E+00  0.00000000000E+00 -0.58018485489E+03  0.58018485491E+03  0.50400001928E-02 0. -1.
    10030    2    1    2    0    0  0.00000000000E+00  0.00000000000E+00  0.15553754475E+03  0.13159072546E+04  0.13066828134E+04 0.  0.
        4    1    3    3  502    0  0.19037866172E+03 -0.15015168350E+03 -0.53319669727E+03  0.58573875899E+03  0.12699999809E+01 0. -1.
       -4    1    3    3    0  502 -0.19037866172E+03  0.15015168350E+03  0.68873424202E+03  0.73016849558E+03  0.12699999809E+01 0.  1.
</event>
<event>
 5   0  0.9215829E-04  0.1260015E+04  0.7818609E-02  0.9061889E-01
        1   -1    0    0  501    0  0.00000000000E+00  0.00000000000E+00  0.11818799786E+04  0.11818799787E+04  0.50400001928E-02 0.  1.
       -1   -1    0    0    0  501  0.00000000000E+00  0.00000000000E+00 -0.33582885875E+03  0.33582885879E+03  0.50400001928E-02 0. -1.
    10030    2    1    2    0    0  0.00000000000E+00  0.00000000000E+00  0.84605111989E+03  0.15177088374E+04  0.12600149276E+04 0.  0.
        3    1    3    3  502    0  0.14788996513E+03  0.45146081454E+03  0.92144089443E+03  0.10366974684E+04  0.10100000352E+00 0.  1.
       -3    1    3    3    0  502 -0.14788996513E+03 -0.45146081454E+03 -0.75389774533E+02  0.48101136905E+03  0.10100000352E+00 0. -1.
</event>
<event>
 5   0  0.1700511E-03  0.1309041E+04  0.7818609E-02  0.9022426E-01
        2   -1    0    0  501    0  0.00000000000E+00  0.00000000000E+00  0.12791095759E+04  0.12791095759E+04  0.25500000920E-02 0.  1.
       -2   -1    0    0    0  501  0.00000000000E+00  0.00000000000E+00 -0.33491837510E+03  0.33491837511E+03  0.25500000920E-02 0. -1.
    10030    2    1    2    0    0  0.00000000000E+00  0.00000000000E+00  0.94419120083E+03  0.16140279510E+04  0.13090413298E+04 0.  0.
        2    1    3    3  502    0  0.18629830972E+03 -0.30016192465E+03  0.11514612941E+04  0.12044365293E+04  0.25500000920E-02 0.  1.
       -2    1    3    3    0  502 -0.18629830972E+03  0.30016192465E+03 -0.20727009328E+03  0.40959142177E+03  0.25500000920E-02 0. -1.
</event>
<event>
 5   0  0.9110949E-04  0.1297880E+04  0.7818609E-02  0.9031248E-01
        1   -1    0    0  501    0  0.00000000000E+00  0.00000000000E+00  0.11972945736E+04  0.11972945736E+04  0.50400001928E-02 0. -1.
       -1   -1    0    0    0  501  0.00000000000E+00  0.00000000000E+00 -0.35172868087E+03  0.35172868091E+03  0.50400001928E-02 0.  1.
    10030    2    1    2    0    0  0.00000000000E+00  0.00000000000E+00  0.84556589276E+03  0.15490232545E+04  0.12978795646E+04 0.  0.
        2    1    3    3  502    0 -0.30569155733E+03  0.20891276036E+03 -0.21328922124E+03  0.42729867957E+03  0.25500000920E-02 0.  1.
       -2    1    3    3    0  502  0.30569155733E+03 -0.20891276036E+03  0.10588551140E+04  0.11217245750E+04  0.25500000920E-02 0. -1.
</event>
<event>
 5   0  0.1667342E-03  0.1293642E+04  0.7818609E-02  0.9034623E-01
        2   -1    0    0  501    0  0.00000000000E+00  0.00000000000E+00  0.19186018419E+04  0.19186018419E+04  0.25500000920E-02 0. -1.
       -2   -1    0    0    0  501  0.00000000000E+00  0.00000000000E+00 -0.21806358429E+03  0.21806358430E+03  0.25500000920E-02 0.  1.
    10030    2    1    2    0    0  0.00000000000E+00  0.00000000000E+00  0.17005382576E+04  0.21366654262E+04  0.12936416729E+04 0.  0.
        5    1    3    3  502    0  0.32113674167E+03  0.22814801795E+03  0.29545883703E+01  0.39396845627E+03  0.46999998093E+01 0.  1.
       -5    1    3    3    0  502 -0.32113674167E+03 -0.22814801795E+03  0.16975836693E+04  0.17426969700E+04  0.46999998093E+01 0. -1.
</event>
<event>
 5   0  0.9098192E-04  0.1295166E+04  0.7818609E-02  0.9033407E-01
       -1   -1    0    0    0  501  0.00000000000E+00  0.00000000000E+00  0.55960846968E+03  0.55960846970E+03  0.50400001928E-02 0. -1.
        1   -1    0    0  501    0  0.00000000000E+00  0.00000000000E+00 -0.74938775156E+03  0.74938775158E+03  0.50400001928E-02 0.  1.
    10030    2    1    2    0    0  0.00000000000E+00  0.00000000000E+00 -0.18977928188E+03  0.13089962213E+04  0.12951659861E+04 0.  0.
        1    1    3    3  502    0 -0.19398938459E+03 -0.35291720744E+03 -0.60743541006E+03  0.72880739161E+03  0.50400001928E-02 0.  1.
       -1    1    3    3    0  502  0.19398938459E+03  0.35291720744E+03  0.41765612818E+03  0.58018882967E+03  0.50400001928E-02 0. -1.
</event>
<event>
 5   0  0.1623890E-03  0.1305148E+04  0.7818609E-02  0.9025493E-01
        2   -1    0    0  501    0  0.00000000000E+00  0.00000000000E+00  0.86039732839E+03  0.86039732839E+03  0.25500000920E-02 0.  1.
       -2   -1    0    0    0  501  0.00000000000E+00  0.00000000000E+00 -0.49494884134E+03  0.49494884134E+03  0.25500000920E-02 0. -1.
    10030    2    1    2    0    0  0.00000000000E+00  0.00000000000E+00  0.36544848705E+03  0.13553461697E+04  0.13051477476E+04 0.  0.
        3    1    3    3  502    0  0.53737646917E+03  0.35634827268E+03  0.78385490589E+02  0.64953972658E+03  0.10100000352E+00 0. -1.
       -3    1    3    3    0  502 -0.53737646917E+03 -0.35634827268E+03  0.28706299646E+03  0.70580644316E+03  0.10100000352E+00 0.  1.
</event>
<event>
 5   0  0.1667342E-03  0.1292360E+04  0.7818609E-02  0.9035646E-01
        2   -1    0    0  501    0  0.00000000000E+00  0.00000000000E+00  0.64035003248E+03  0.64035003249E+03  0.25500000920E-02 0. -1.
       -2   -1    0    0    0  501  0.00000000000E+00  0.00000000000E+00 -0.65206293553E+03  0.65206293554E+03  0.25500000920E-02 0.  1.
    10030    2    1    2    0    0  0.00000000000E+00  0.00000000000E+00 -0.11712903051E+02  0.12924129680E+04  0.12923598910E+04 0.  0.
        5    1    3    3  502    0  0.45315642319E+03 -0.43808815022E+03  0.13646756067E+03  0.64491662744E+03  0.46999998093E+01 0. -1.
       -5    1    3    3    0  502 -0.45315642319E+03  0.43808815022E+03 -0.14818046372E+03  0.64749634058E+03  0.46999998093E+01 0.  1.
</event>
<event>
 5   0  0.9098192E-04  0.1294815E+04  0.7818609E-02  0.9033687E-01
        1   -1    0    0  501    0  0.00000000000E+00  0.00000000000E+00  0.59943956724E+03  0.59943956726E+03  0.50400001928E-02 0. -1.
       -1   -1    0    0    0  501  0.00000000000E+00  0.00000000000E+00 -0.69921394109E+03  0.69921394111E+03  0.50400001928E-02 0.  1.
    10030    2    1    2    0    0  0.00000000000E+00  0.00000000000E+00 -0.99774373848E+02  0.12986535084E+04  0.12948150482E+04 0.  0.
        1    1    3    3  502    0 -0.22331181142E+03 -0.44459842390E+03  0.36558784414E+03  0.61740618353E+03  0.50400001928E-02 0. -1.
       -1    1    3    3    0  502  0.22331181142E+03  0.44459842390E+03 -0.46536221799E+03  0.68124732484E+03  0.50400001928E-02 0.  1.
</event>
<event>
 5   0  0.1700511E-03  0.1303285E+04  0.7818609E-02  0.9026965E-01
        2   -1    0    0  501    0  0.00000000000E+00  0.00000000000E+00  0.63694386067E+03  0.63694386068E+03  0.25500000920E-02 0.  1.
       -2   -1    0    0    0  501  0.00000000000E+00  0.00000000000E+00 -0.66667989861E+03  0.66667989861E+03  0.25500000920E-02 0. -1.
    10030    2    1    2    0    0  0.00000000000E+00  0.00000000000E+00 -0.29736037934E+02  0.13036237593E+04  0.13032845713E+04 0.  0.
        2    1    3    3  502    0 -0.43189925544E+03 -0.32904590097E+03  0.34554436058E+03  0.64359076821E+03  0.25500000920E-02 0.  1.
       -2    1    3    3    0  502  0.43189925544E+03  0.32904590097E+03 -0.37528039851E+03  0.66003299108E+03  0.25500000920E-02 0. -1.
</event>
<event>
 5   0  0.1667342E-03  0.1277406E+04  0.7818609E-02  0.9047677E-01
       -2   -1    0    0    0  501  0.00000000000E+00  0.00000000000E+00  0.51382200819E+03  0.51382200819E+03  0.25500000920E-02 0. -1.
        2   -1    0    0  501    0  0.00000000000E+00  0.00000000000E+00 -0.79393539441E+03  0.79393539441E+03  0.25500000920E-02 0.  1.
    10030    2    1    2    0    0  0.00000000000E+00  0.00000000000E+00 -0.28011338622E+03  0.13077574026E+04  0.12774059319E+04 0.  0.
        5    1    3    3  502    0  0.94371936767E+02 -0.60304161115E+03 -0.33255122907E+03  0.69510981664E+03  0.46999998093E+01 0. -1.
       -5    1    3    3    0  502 -0.94371936767E+02  0.60304161115E+03  0.52437842847E+02  0.61264758597E+03  0.46999998093E+01 0.  1.
</event>
<event>
 5   0  0.9110949E-04  0.1302632E+04  0.7818609E-02  0.9027480E-01
       -1   -1    0    0    0  501  0.00000000000E+00  0.00000000000E+00  0.39881085929E+03  0.39881085933E+03  0.50400001928E-02 0.  1.
        1   -1    0    0  501    0  0.00000000000E+00  0.00000000000E+00 -0.10636941903E+04  0.10636941903E+04  0.50400001928E-02 0. -1.
    10030    2    1    2    0    0  0.00000000000E+00  0.00000000000E+00 -0.66488333097E+03  0.14625050496E+04  0.13026324026E+04 0.  0.
        2    1    3    3  502    0  0.11123243091E+03 -0.17419828801E+03  0.36101603895E+03  0.41599312208E+03  0.25500000920E-02 0.  1.
       -2    1    3    3    0  502 -0.11123243091E+03  0.17419828801E+03 -0.10258993699E+04  0.10465119275E+04  0.25500000920E-02 0. -1.
</event>
<event>
 5   0  0.1667342E-03  0.1329157E+04  0.7818609E-02  0.9006757E-01
       -2   -1    0    0    0  501  0.00000000000E+00  0.00000000000E+00  0.17994221350E+04  0.17994221350E+04  0.25500000920E-02 0.  1.
        2   -1    0    0  501    0  0.00000000000E+00  0.00000000000E+00 -0.24544813303E+03  0.24544813304E+03  0.25500000920E-02 0. -1.
    10030    2    1    2    0    0  0.00000000000E+00  0.00000000000E+00  0.15539740020E+04  0.20448702681E+04  0.13291573324E+04 0.  0.
        5    1    3    3  502    0 -0.28743334208E+03  0.38099870852E+03  0.65513064623E+02  0.48175926942E+03  0.46999998093E+01 0. -1.
       -5    1    3    3    0  502  0.28743334208E+03 -0.38099870852E+03  0.14884609374E+04  0.15631109987E+04  0.46999998093E+01 0.  1.
</event>
<event>
 5   0  0.9081324E-04  0.1293089E+04  0.7818609E-02  0.9035063E-01
        1   -1    0    0  501    0  0.00000000000E+00  0.00000000000E+00  0.44677293756E+03  0.44677293758E+03  0.50400001928E-02 0.  1.
       -1   -1    0    0    0  501  0.00000000000E+00  0.00000000000E+00 -0.93564319070E+03  0.93564319071E+03  0.50400001928E-02 0. -1.
    10030    2    1    2    0    0  0.00000000000E+00  0.00000000000E+00 -0.48887025315E+03  0.13824161283E+04  0.12930894120E+04 0.  0.
        4    1    3    3  502    0 -0.17543146894E+03  0.52196375865E+03 -0.60665624086E+03  0.81930200360E+03  0.12699999809E+01 0. -1.
       -4    1    3    3    0  502  0.17543146894E+03 -0.52196375865E+03  0.11778598771E+03  0.56311412470E+03  0.12699999809E+01 0.  1.
</event>
<event>
 5   0  0.9027076E-04  0.1308165E+04  0.7818609E-02  0.9023115E-01
        1   -1    0    0  501    0  0.00000000000E+00  0.00000000000E+00  0.50405185332E+03  0.50405185335E+03  0.50400001928E-02 0.  1.
       -1   -1    0    0    0  501  0.00000000000E+00  0.00000000000E+00 -0.84876957927E+03  0.84876957929E+03  0.50400001928E-02 0. -1.
    10030    2    1    2    0    0  0.00000000000E+00  0.00000000000E+00 -0.34471772595E+03  0.13528214326E+04  0.13081649430E+04 0.  0.
        5    1    3    3  502    0 -0.47974700199E+03  0.37837104781E+02 -0.63043936874E+03  0.79313600351E+03  0.46999998093E+01 0. -1.
       -5    1    3    3    0  502  0.47974700199E+03 -0.37837104781E+02  0.28572164279E+03  0.55968542912E+03  0.46999998093E+01 0.  1.
</event>
<event>
 5   0  0.9027076E-04  0.1297895E+04  0.7818609E-02  0.9031236E-01
        1   -1    0    0  501    0  0.00000000000E+00  0.00000000000E+00  0.94052958677E+03  0.94052958678E+03  0.50400001928E-02 0. -1.
       -1   -1    0    0    0  501  0.00000000000E+00  0.00000000000E+00 -0.44776132459E+03  0.44776132462E+03  0.50400001928E-02 0.  1.
    10030    2    1    2    0    0  0.00000000000E+00  0.00000000000E+00  0.49276826218E+03  0.13882909114E+04  0.12978948703E+04 0.  0.
        5    1    3    3  502    0  0.91822516930E+02  0.54316419879E+03  0.61327808230E+03  0.82437298457E+03  0.46999998093E+01 0. -1.
       -5    1    3    3    0  502 -0.91822516930E+02 -0.54316419879E+03 -0.12050982012E+03  0.56391792683E+03  0.46999998093E+01 0.  1.
</event>
<event>
 5   0  0.6284125E-04  0.1239257E+04  0.7818609E-02  0.9079173E-01
       -3   -1    0    0    0  501  0.00000000000E+00  0.00000000000E+00  0.32779902876E+03  0.32779904432E+03  0.10100000352E+00 0. -1.
        3   -1    0    0  501    0  0.00000000000E+00  0.00000000000E+00 -0.11712643275E+04  0.11712643319E+04  0.10100000352E+00 0.  1.
    10030    2    1    2    0    0  0.00000000000E+00  0.00000000000E+00 -0.84346529878E+03  0.14990633762E+04  0.12392567513E+04 0.  0.
        2    1    3    3  502    0 -0.43989670014E+03 -0.85161549295E+02  0.95987459722E+02  0.45823049735E+03  0.25500000920E-02 0. -1.
       -2    1    3    3    0  502  0.43989670014E+03  0.85161549295E+02 -0.93945275850E+03  0.10408328789E+04  0.25500000920E-02 0.  1.
</event>
<event>
 5   0  0.1623890E-03  0.1298575E+04  0.7818609E-02  0.9030696E-01
        2   -1    0    0  501    0  0.00000000000E+00  0.00000000000E+00  0.57330072472E+03  0.57330072473E+03  0.25500000920E-02 0.  1.
       -2   -1    0    0    0  501  0.00000000000E+00  0.00000000000E+00 -0.73534579782E+03  0.73534579782E+03  0.25500000920E-02 0. -1.
    10030    2    1    2    0    0  0.00000000000E+00  0.00000000000E+00 -0.16204507310E+03  0.13086465226E+04  0.12985750326E+04 0.  0.
        3    1    3    3  502    0  0.44481634276E+03  0.42776834949E+03  0.12235179510E+03  0.62914013667E+03  0.10100000352E+00 0.  1.
       -3    1    3    3    0  502 -0.44481634276E+03 -0.42776834949E+03 -0.28439686820E+03  0.67950638588E+03  0.10100000352E+00 0. -1.
</event>
<event>
 5   0  0.9027076E-04  0.1280123E+04  0.7818609E-02  0.9045478E-01
       -1   -1    0    0    0  501  0.00000000000E+00  0.00000000000E+00  0.48070713334E+03  0.48070713337E+03  0.50400001928E-02 0.  1.
        1   -1    0    0  501    0  0.00000000000E+00  0.00000000000E+00 -0.85224213124E+03  0.85224213125E+03  0.50400001928E-02 0. -1.
    10030    2    1    2    0    0  0.00000000000E+00  0.00000000000E+00 -0.37153499789E+03  0.13329492646E+04  0.12801232313E+04 0.  0.
        5    1    3    3  502    0 -0.36908976152E+03 -0.18915770728E+03  0.32184199568E+03  0.52498785744E+03  0.46999998093E+01 0.  1.
       -5    1    3    3    0  502  0.36908976152E+03  0.18915770728E+03 -0.69337699357E+03  0.80796140718E+03  0.46999998093E+01 0. -1.
</event>
<event>
 5   0  0.9027076E-04  0.1305678E+04  0.7818609E-02  0.9025074E-01
        1   -1    0    0  501    0  0.00000000000E+00  0.00000000000E+00  0.57475593342E+03  0.57475593344E+03  0.50400001928E-02 0.  1.
       -1   -1    0    0    0  501  0.00000000000E+00  0.00000000000E+00 -0.74153054397E+03  0.74153054399E+03  0.50400001928E-02 0. -1.
    10030    2    1    2    0    0  0.00000000000E+00  0.00000000000E+00 -0.16677461055E+03  0.13162864774E+04  0.13056784903E+04 0.  0.
        5    1    3    3  502    0 -0.26758747256E+03 -0.53215111725E+03  0.18597088980E+03  0.62401532746E+03  0.46999998093E+01 0. -1.
       -5    1    3    3    0  502  0.26758747256E+03  0.53215111725E+03 -0.35274550036E+03  0.69227114997E+03  0.46999998093E+01 0.  1.
</event>
<event>
 5   0  0.1623890E-03  0.1300876E+04  0.7818609E-02  0.9028871E-01
       -2   -1    0    0    0  501  0.00000000000E+00  0.00000000000E+00  0.67591364973E+03  0.67591364974E+03  0.25500000920E-02 0. -1.
        2   -1    0    0  501    0  0.00000000000E+00  0.00000000000E+00 -0.62592221388E+03  0.62592221389E+03  0.25500000920E-02 0.  1.
    10030    2    1    2    0    0  0.00000000000E+00  0.00000000000E+00  0.49991435850E+02  0.13018358636E+04  0.13008756559E+04 0.  0.
        3    1    3    3  502    0 -0.51283303902E+02 -0.54162514838E+03 -0.33175244594E+03  0.63721854509E+03  0.10100000352E+00 0.  1.
       -3    1    3    3    0  502  0.51283303902E+02  0.54162514838E+03  0.38174388179E+03  0.66461731854E+03  0.10100000352E+00 0. -1.
</event>
<event>
 5   0  0.1714861E-03  0.1296926E+04  0.7818609E-02  0.9032007E-01
        2   -1    0    0  501    0  0.00000000000E+00  0.00000000000E+00  0.14797094747E+04  0.14797094747E+04  0.25500000920E-02 0.  1.
       -2   -1    0    0    0  501  0.00000000000E+00  0.00000000000E+00 -0.28418022536E+03  0.28418022537E+03  0.25500000920E-02 0. -1.
    10030    2    1    2    0    0  0.00000000000E+00  0.00000000000E+00  0.11955292493E+04  0.17638897000E+04  0.12969258606E+04 0.  0.
        1    1    3    3  502    0  0.28926476632E+02  0.58815223907E+03  0.96709984321E+03  0.11322728930E+04  0.50400001928E-02 0.  1.
       -1    1    3    3    0  502 -0.28926476632E+02 -0.58815223907E+03  0.22842940609E+03  0.63161680707E+03  0.50400001928E-02 0. -1.
</event>
<event>
 5   0  0.1694675E-03  0.1292486E+04  0.7818609E-02  0.9035545E-01
        2   -1    0    0  501    0  0.00000000000E+00  0.00000000000E+00  0.16201610888E+04  0.16201610888E+04  0.25500000920E-02 0. -1.
       -2   -1    0    0    0  501  0.00000000000E+00  0.00000000000E+00 -0.25777058071E+03  0.25777058073E+03  0.25500000920E-02 0.  1.
    10030    2    1    2    0    0  0.00000000000E+00  0.00000000000E+00  0.13623905081E+04  0.18779316696E+04  0.12924857674E+04 0.  0.
        4    1    3    3  502    0  0.50742693488E+03 -0.39335411551E+03  0.78815034618E+03  0.10165589680E+04  0.12699999809E+01 0. -1.
       -4    1    3    3    0  502 -0.50742693488E+03  0.39335411551E+03  0.57424016195E+03  0.86137270153E+03  0.12699999809E+01 0.  1.
</event>
<event>
 5   0  0.9110949E-04  0.1295869E+04  0.7818609E-02  0.9032847E-01
       -1   -1    0    0    0  501  0.00000000000E+00  0.00000000000E+00  0.11225993974E+04  0.11225993974E+04  0.50400001928E-02 0. -1.
        1   -1    0    0  501    0  0.00000000000E+00  0.00000000000E+00 -0.37397059273E+03  0.37397059276E+03  0.50400001928E-02 0.  1.
    10030    2    1    2    0    0  0.00000000000E+00  0.00000000000E+00  0.74862880470E+03  0.14965699902E+04  0.12958690707E+04 0.  0.
        2    1    3    3  502    0 -0.35648300721E+03  0.52635677562E+03  0.22966595392E+03  0.67592754055E+03  0.25500000920E-02 0. -1.
       -2    1    3    3    0  502  0.35648300721E+03 -0.52635677562E+03  0.51896285078E+03  0.82064244965E+03  0.25500000920E-02 0.  1.
</event>
<event>
 5   0  0.1667342E-03  0.1306126E+04  0.7818609E-02  0.9024721E-01
        2   -1    0    0  501    0  0.00000000000E+00  0.00000000000E+00  0.14157408817E+04  0.14157408817E+04  0.25500000920E-02 0. -1.
       -2   -1    0    0    0  501  0.00000000000E+00  0.00000000000E+00 -0.30124960537E+03  0.30124960538E+03  0.25500000920E-02 0.  1.
    10030    2    1    2    0    0  0.00000000000E+00  0.00000000000E+00  0.11144912763E+04  0.17169904871E+04  0.13061261531E+04 0.  0.
        5    1    3    3  502    0  0.15894080518E+03 -0.16964214789E+03 -0.24499435233E+03  0.33776465263E+03  0.46999998093E+01 0.  1.
       -5    1    3    3    0  502 -0.15894080518E+03  0.16964214789E+03  0.13594856286E+04  0.13792258344E+04  0.46999998093E+01 0. -1.
</event>
<event>
 5   0  0.9081324E-04  0.1290391E+04  0.7818609E-02  0.9037220E-01
        1   -1    0    0  501    0  0.00000000000E+00  0.00000000000E+00  0.10912325706E+04  0.10912325706E+04  0.50400001928E-02 0.  1.
       -1   -1    0    0    0  501  0.00000000000E+00  0.00000000000E+00 -0.38147414795E+03  0.38147414798E+03  0.50400001928E-02 0. -1.
    10030    2    1    2    0    0  0.00000000000E+00  0.00000000000E+00  0.70975842266E+03  0.14727067186E+04  0.12903906620E+04 0.  0.
        4    1    3    3  502    0 -0.48575862436E+02  0.19564466232E+03 -0.34460894870E+03  0.39924101584E+03  0.12699999809E+01 0. -1.
       -4    1    3    3    0  502  0.48575862436E+02 -0.19564466232E+03  0.10543673714E+04  0.10734657028E+04  0.12699999809E+01 0.  1.
</event>
<event>
 5   0  0.1714861E-03  0.1302194E+04  0.7818609E-02  0.9027827E-01
        2   -1    0    0  501    0  0.00000000000E+00  0.00000000000E+00  0.21602360342E+04  0.21602360342E+04  0.25500000920E-02 0.  1.
       -2   -1    0    0    0  501  0.00000000000E+00  0.00000000000E+00 -0.19624126677E+03  0.19624126678E+03  0.25500000920E-02 0. -1.
    10030    2    1    2    0    0  0.00000000000E+00  0.00000000000E+00  0.19639947674E+04  0.23564773010E+04  0.13021942342E+04 0.  0.
        1    1    3    3  502    0  0.44044645799E+03 -0.24101664334E+03  0.17321616736E+04  0.18034595001E+04  0.50400001928E-02 0. -1.
       -1    1    3    3    0  502 -0.44044645799E+03  0.24101664334E+03  0.23183309378E+03  0.55301780090E+03  0.50400001928E-02 0.  1.
</event>
<event>
 5   0  0.6284125E-04  0.1309563E+04  0.7818609E-02  0.9022016E-01
       -4   -1    0    0    0  501  0.00000000000E+00  0.00000000000E+00  0.12176364219E+04  0.12176370842E+04  0.12699999809E+01 0.  1.
        4   -1    0    0  501    0  0.00000000000E+00  0.00000000000E+00 -0.35210541551E+03  0.35210770587E+03  0.12699999809E+01 0. -1.
    10030    2    1    2    0    0  0.00000000000E+00  0.00000000000E+00  0.86553100635E+03  0.15697447900E+04  0.13095628213E+04 0.  0.
        2    1    3    3  502    0 -0.24820866323E+03 -0.10048602926E+03  0.11490034503E+04  0.11797940123E+04  0.25500000920E-02 0.  1.
       -2    1    3    3    0  502  0.24820866323E+03  0.10048602926E+03 -0.28347244397E+03  0.38995077775E+03  0.25500000920E-02 0. -1.
</event>
<event>
 5   0  0.1700511E-03  0.1296727E+04  0.7818609E-02  0.9032165E-01
       -2   -1    0    0    0  501  0.00000000000E+00  0.00000000000E+00  0.25219870541E+03  0.25219870542E+03  0.25500000920E-02 0.  1.
        2   -1    0    0  501    0  0.00000000000E+00  0.00000000000E+00 -0.16668405553E+04  0.16668405553E+04  0.25500000920E-02 0. -1.
    10030    2    1    2    0    0  0.00000000000E+00  0.00000000000E+00 -0.14146418499E+04  0.19190392607E+04  0.12967266947E+04 0.  0.
        2    1    3    3  502    0  0.12257443071E+03 -0.47957167853E+03 -0.13270510235E+04  0.14163607961E+04  0.25500000920E-02 0. -1.
       -2    1    3    3    0  502 -0.12257443071E+03  0.47957167853E+03 -0.87590826439E+02  0.50267846462E+03  0.25500000920E-02 0.  1.
</event>
<event>
 5   0  0.9098192E-04  0.1332313E+04  0.7818609E-02  0.9004326E-01
        1   -1    0    0  501    0  0.00000000000E+00  0.00000000000E+00  0.55032358895E+03  0.55032358897E+03  0.50400001928E-02 0.  1.
       -1   -1    0    0    0  501  0.00000000000E+00  0.00000000000E+00 -0.80637049279E+03  0.80637049281E+03  0.50400001928E-02 0. -1.
    10030    2    1    2    0    0  0.00000000000E+00  0.00000000000E+00 -0.25604690384E+03  0.13566940818E+04  0.13323133320E+04 0.  0.
        1    1    3    3  502    0 -0.52305259295E+03  0.41118641860E+03 -0.94151897302E+02  0.67195451157E+03  0.50400001928E-02 0.  1.
       -1    1    3    3    0  502  0.52305259295E+03 -0.41118641860E+03 -0.16189500654E+03  0.68473957020E+03  0.50400001928E-02 0. -1.
</event>
<event>
 5   0  0.9081324E-04  0.1303908E+04  0.7818609E-02  0.9026472E-01
       -1   -1    0    0    0  501  0.00000000000E+00  0.00000000000E+00  0.10151605187E+04  0.10151605188E+04  0.50400001928E-02 0. -1.
        1   -1    0    0  501    0  0.00000000000E+00  0.00000000000E+00 -0.41869648193E+03  0.41869648196E+03  0.50400001928E-02 0.  1.
    10030    2    1    2    0    0  0.00000000000E+00  0.00000000000E+00  0.59646403682E+03  0.14338570007E+04  0.13039081836E+04 0.  0.
        4    1    3    3  502    0  0.17123752483E+03  0.18257172829E+03 -0.36374911735E+03  0.44155380097E+03  0.12699999809E+01 0.  1.
       -4    1    3    3    0  502 -0.17123752483E+03 -0.18257172829E+03  0.96021315417E+03  0.99230319974E+03  0.12699999809E+01 0. -1.
</event>
<event>
 5   0  0.1700511E-03  0.1304450E+04  0.7818609E-02  0.9026044E-01
       -2   -1    0    0    0  501  0.00000000000E+00  0.00000000000E+00  0.32858021441E+03  0.32858021442E+03  0.25500000920E-02 0.  1.
        2   -1    0    0  501    0  0.00000000000E+00  0.00000000000E+00 -0.12946529053E+04  0.12946529053E+04  0.25500000920E-02 0. -1.
    10030    2    1    2    0    0  0.00000000000E+00  0.00000000000E+00 -0.96607269093E+03  0.16232331198E+04  0.13044498139E+04 0.  0.
        2    1    3    3  502    0 -0.59338566166E+03 -0.10942604224E+03 -0.17489994665E+03  0.62822813812E+03  0.25500000920E-02 0.  1.
       -2    1    3    3    0  502  0.59338566166E+03  0.10942604224E+03 -0.79117274429E+03  0.99500498164E+03  0.25500000920E-02 0. -1.
</event>
<event>
 5   0  0.1667342E-03  0.1437802E+04  0.7818609E-02  0.8926901E-01
       -2   -1    0    0    0  501  0.00000000000E+00  0.00000000000E+00  0.56768472009E+03  0.56768472009E+03  0.25500000920E-02 0.  1.
        2   -1    0    0  501    0  0.00000000000E+00  0.00000000000E+00 -0.91039669613E+03  0.91039669613E+03  0.25500000920E-02 0. -1.
    10030    2    1    2    0    0  0.00000000000E+00  0.00000000000E+00 -0.34271197604E+03  0.14780814162E+04  0.14378015073E+04 0.  0.
        5    1    3    3  502    0 -0.65879333951E+03  0.71814500710E+02  0.11507158424E+03  0.67262883242E+03  0.46999998093E+01 0. -1.
       -5    1    3    3    0  502  0.65879333951E+03 -0.71814500710E+02 -0.45778356028E+03  0.80545258381E+03  0.46999998093E+01 0.  1.
</event>
<event>
 5   0  0.9081324E-04  0.1267407E+04  0.7818609E-02  0.9055819E-01
        1   -1    0    0  501    0  0.00000000000E+00  0.00000000000E+00  0.30984628198E+03  0.30984628202E+03  0.50400001928E-02 0. -1.
       -1   -1    0    0    0  501  0.00000000000E+00  0.00000000000E+00 -0.12960617689E+04  0.12960617689E+04  0.50400001928E-02 0.  1.
    10030    2    1    2    0    0  0.00000000000E+00  0.00000000000E+00 -0.98621548687E+03  0.16059080509E+04  0.12674066756E+04 0.  0.
        4    1    3    3  502    0  0.56662873601E+03  0.26690612740E+03 -0.61511201936E+03  0.87787892934E+03  0.12699999809E+01 0. -1.
       -4    1    3    3    0  502 -0.56662873601E+03 -0.26690612740E+03 -0.37110346752E+03  0.72802912155E+03  0.12699999809E+01 0.  1.
</event>
<event>
 5   0  0.9110949E-04  0.1295168E+04  0.7818609E-02  0.9033406E-01
       -1   -1    0    0    0  501  0.00000000000E+00  0.00000000000E+00  0.40869438670E+03  0.40869438673E+03  0.50400001928E-02 0. -1.
        1   -1    0    0  501    0  0.00000000000E+00  0.00000000000E+00 -0.10261094386E+04  0.10261094386E+04  0.50400001928E-02 0.  1.
    10030    2    1    2    0    0  0.00000000000E+00  0.00000000000E+00 -0.61741505189E+03  0.14348038253E+04  0.12951682018E+04 0.  0.
        2    1    3    3  502    0  0.19979723235E+03  0.61416396419E+03 -0.25617268256E+03  0.69479547513E+03  0.25500000920E-02 0. -1.
       -2    1    3    3    0  502 -0.19979723235E+03 -0.61416396419E+03 -0.36124236934E+03  0.74000835021E+03  0.25500000920E-02 0.  1.
</event>
<event>
 5   0  0.1694675E-03  0.1292460E+04  0.7818609E-02  0.9035566E-01
       -2   -1    0    0    0  501  0.00000000000E+00  0.00000000000E+00  0.36095995124E+03  0.36095995125E+03  0.25500000920E-02 0.  1.
        2   -1    0    0  501    0  0.00000000000E+00  0.00000000000E+00 -0.11569519716E+04  0.11569519716E+04  0.25500000920E-02 0. -1.
    10030    2    1    2    0    0  0.00000000000E+00  0.00000000000E+00 -0.79599202037E+03  0.15179119229E+04  0.12924601770E+04 0.  0.
        4    1    3    3  502    0  0.49604238233E+02 -0.62438956211E+03 -0.21123182958E+03  0.66101694718E+03  0.12699999809E+01 0.  1.
       -4    1    3    3    0  502 -0.49604238233E+02  0.62438956211E+03 -0.58476019078E+03  0.85689497568E+03  0.12699999809E+01 0. -1.
</event>
<event>
 5   0  0.9027076E-04  0.1308270E+04  0.7818609E-02  0.9023032E-01
       -1   -1    0    0    0  501  0.00000000000E+00  0.00000000000E+00  0.65932591825E+03  0.65932591827E+03  0.50400001928E-02 0. -1.
        1   -1    0    0  501    0  0.00000000000E+00  0.00000000000E+00 -0.64898513566E+03  0.64898513568E+03  0.50400001928E-02 0.  1.
    10030    2    1    2    0    0  0.00000000000E+00  0.00000000000E+00  0.10340782593E+02  0.13083110540E+04  0.13082701870E+04 0.  0.
        5    1    3    3  502    0 -0.94526203174E+02  0.58548487989E+03 -0.27077822703E+03  0.65197445187E+03  0.46999998093E+01 0.  1.
       -5    1    3    3    0  502  0.94526203174E+02 -0.58548487989E+03  0.28111900962E+03  0.65633660208E+03  0.46999998093E+01 0. -1.
</event>
<event>
 5   0  0.1694675E-03  0.1290235E+04  0.7818609E-02  0.9037345E-01
       -2   -1    0    0    0  501  0.00000000000E+00  0.00000000000E+00  0.28561220918E+03  0.28561220919E+03  0.25500000920E-02 0. -1.
        2   -1    0    0  501    0  0.00000000000E+00  0.00000000000E+00 -0.14571379985E+04  0.14571379985E+04  0.25500000920E-02 0.  1.
    10030    2    1    2    0    0  0.00000000000E+00  0.00000000000E+00 -0.11715257894E+04  0.17427502077E+04  0.12902347117E+04 0.  0.
        4    1    3    3  502    0 -0.51012251416E+03 -0.28920754348E+03 -0.94897642677E+03  0.11155374732E+04  0.12699999809E+01 0.  1.
       -4    1    3    3    0  502  0.51012251416E+03  0.28920754348E+03 -0.22254936259E+03  0.62721273452E+03  0.12699999809E+01 0. -1.
</event>
<event>
 5   0  0.1694675E-03  0.1293093E+04  0.7818609E-02  0.9035060E-01
       -2   -1    0    0    0  501  0.00000000000E+00  0.00000000000E+00  0.16284352784E+03  0.16284352786E+03  0.25500000920E-02 0.  1.
        2   -1    0    0  501    0  0.00000000000E+00  0.00000000000E+00 -0.25670192541E+04  0.25670192541E+04  0.25500000920E-02 0. -1.
    10030    2    1    2    0    0  0.00000000000E+00  0.00000000000E+00 -0.24041757263E+04  0.27298627820E+04  0.12930931465E+04 0.  0.
        4    1    3    3  502    0 -0.43444855266E+03 -0.33422696537E+03 -0.47822728585E+03  0.72743120577E+03  0.12699999809E+01 0.  1.
       -4    1    3    3    0  502  0.43444855266E+03  0.33422696537E+03 -0.19259484404E+04  0.20024315762E+04  0.12699999809E+01 0. -1.
</event>
<event>
 5   0  0.1667342E-03  0.1309381E+04  0.7818609E-02  0.9022159E-01
        2   -1    0    0  501    0  0.00000000000E+00  0.00000000000E+00  0.10915875657E+04  0.10915875657E+04  0.25500000920E-02 0. -1.
       -2   -1    0    0    0  501  0.00000000000E+00  0.00000000000E+00 -0.39265697350E+03  0.39265697351E+03  0.25500000920E-02 0.  1.
    10030    2    1    2    0    0  0.00000000000E+00  0.00000000000E+00  0.69893059218E+03  0.14842445392E+04  0.13093807236E+04 0.  0.
        5    1    3    3  502    0  0.58492181695E+03  0.29260633683E+03  0.38242364049E+03  0.75764235039E+03  0.46999998093E+01 0.  1.
       -5    1    3    3    0  502 -0.58492181695E+03 -0.29260633683E+03  0.31650695169E+03  0.72660218880E+03  0.46999998093E+01 0. -1.
</event>
<event>
 5   0  0.9110949E-04  0.1284984E+04  0.7818609E-02  0.9041558E-01
        1   -1    0    0  501    0  0.00000000000E+00  0.00000000000E+00  0.80060155749E+03  0.80060155750E+03  0.50400001928E-02 0.  1.
       -1   -1    0    0    0  501  0.00000000000E+00  0.00000000000E+00 -0.51560727653E+03  0.51560727655E+03  0.50400001928E-02 0. -1.
    10030    2    1    2    0    0  0.00000000000E+00  0.00000000000E+00  0.28499428096E+03  0.13162088341E+04  0.12849840290E+04 0.  0.
        2    1    3    3  502    0  0.29445850979E+02 -0.58447323604E+03  0.41412005208E+03  0.71691801437E+03  0.25500000920E-02 0.  1.
       -2    1    3    3    0  502 -0.29445850979E+02  0.58447323604E+03 -0.12912577112E+03  0.59929081969E+03  0.25500000920E-02 0. -1.
</event>
<event>
 5   0  0.9098192E-04  0.1297910E+04  0.7818609E-02  0.9031224E-01
        1   -1    0    0  501    0  0.00000000000E+00  0.00000000000E+00  0.74142256011E+03  0.74142256013E+03  0.50400001928E-02 0.  1.
       -1   -1    0    0    0  501  0.00000000000E+00  0.00000000000E+00 -0.56801949247E+03  0.56801949249E+03  0.50400001928E-02 0. -1.
    10030    2    1    2    0    0  0.00000000000E+00  0.00000000000E+00  0.17340306764E+03  0.13094420526E+04  0.12979098063E+04 0.  0.
        1    1    3    3  502    0  0.38901297035E+03 -0.43990125986E+03  0.36537721936E+03  0.69162469734E+03  0.50400001928E-02 0.  1.
       -1    1    3    3    0  502 -0.38901297035E+03  0.43990125986E+03 -0.19197415172E+03  0.61781735527E+03  0.50400001928E-02 0. -1.
</event>
<event>
 5   0  0.9027076E-04  0.1262681E+04  0.7818609E-02  0.9059694E-01
        1   -1    0    0  501    0  0.00000000000E+00  0.00000000000E+00  0.69578541470E+03  0.69578541472E+03  0.50400001928E-02 0.  1.
       -1   -1    0    0    0  501  0.00000000000E+00  0.00000000000E+00 -0.57286488728E+03  0.57286488731E+03  0.50400001928E-02 0. -1.
    10030    2    1    2    0    0  0.00000000000E+00  0.00000000000E+00  0.12292052742E+03  0.12686503020E+04  0.12626813267E+04 0.  0.
        5    1    3    3  502    0  0.53459782929E+03  0.28840759441E+03 -0.11138542116E+03  0.61757799641E+03  0.46999998093E+01 0. -1.
       -5    1    3    3    0  502 -0.53459782929E+03 -0.28840759441E+03  0.23430594857E+03  0.65107230561E+03  0.46999998093E+01 0.  1.
</event>
<event>
 5   0  0.1714861E-03  0.1288170E+04  0.7818609E-02  0.9038999E-01
        2   -1    0    0  501    0  0.00000000000E+00  0.00000000000E+00  0.14492673745E+04  0.14492673745E+04  0.25500000920E-02 0.  1.
       -2   -1    0    0    0  501  0.00000000000E+00  0.00000000000E+00 -0.28624513194E+03  0.28624513196E+03  0.25500000920E-02 0. -1.
    10030    2    1    2    0    0  0.00000000000E+00  0.00000000000E+00  0.11630222425E+04  0.17355125064E+04  0.12881703782E+04 0.  0.
        1    1    3    3  502    0 -0.29563591928E+03 -0.56164613624E+03  0.72908941070E+03  0.96665316839E+03  0.50400001928E-02 0.  1.
       -1    1    3    3    0  502  0.29563591928E+03  0.56164613624E+03  0.43393283180E+03  0.76885933802E+03  0.50400001928E-02 0. -1.
</event>
<event>
 5   0  0.1667342E-03  0.1297597E+04  0.7818609E-02  0.9031473E-01
       -2   -1    0    0    0  501  0.00000000000E+00  0.00000000000E+00  0.40492704150E+03  0.40492704151E+03  0.25500000920E-02 0.  1.
        2   -1    0    0  501    0  0.00000000000E+00  0.00000000000E+00 -0.10395444712E+04  0.10395444712E+04  0.25500000920E-02 0. -1.
    10030    2    1    2    0    0  0.00000000000E+00  0.00000000000E+00 -0.63461742970E+03  0.14444715127E+04  0.12975972676E+04 0.  0.
        5    1    3    3  502    0  0.95544688457E+02 -0.17482295742E+03  0.37001314637E+03  0.42026619233E+03  0.46999998093E+01 0.  1.
       -5    1    3    3    0  502 -0.95544688457E+02  0.17482295742E+03 -0.10046305761E+04  0.10242053204E+04  0.46999998093E+01 0. -1.
</event>
<event>
 5   0  0.1694675E-03  0.1299417E+04  0.7818609E-02  0.9030028E-01
        2   -1    0    0  501    0  0.00000000000E+00  0.00000000000E+00  0.54467452068E+03  0.54467452069E+03  0.25500000920E-02 0. -1.
       -2   -1    0    0    0  501  0.00000000000E+00  0.00000000000E+00 -0.77499653896E+03  0.77499653896E+03  0.25500000920E-02 0.  1.
    10030    2    1    2    0    0  0.00000000000E+00  0.00000000000E+00 -0.23032201827E+03  0.13196710597E+04  0.12994165897E+04 0.  0.
        4    1    3    3  502    0 -0.39774594453E+03  0.39076333666E+03 -0.45385814989E+03  0.71894829772E+03  0.12699999809E+01 0.  1.
       -4    1    3    3    0  502  0.39774594453E+03 -0.39076333666E+03  0.22353613162E+03  0.60072276193E+03  0.12699999809E+01 0. -1.
</event>
<event>
 5   0  0.9027076E-04  0.1304055E+04  0.7818609E-02  0.9026356E-01
       -1   -1    0    0    0  501  0.00000000000E+00  0.00000000000E+00  0.55783451289E+03  0.55783451292E+03  0.50400001928E-02 0. -1.
        1   -1    0    0  501    0  0.00000000000E+00  0.00000000000E+00 -0.76212506569E+03  0.76212506570E+03  0.50400001928E-02 0.  1.
    10030    2    1    2    0    0  0.00000000000E+00  0.00000000000E+00 -0.20429055279E+03  0.13199595786E+04  0.13040546995E+04 0.  0.
        5    1    3    3  502    0 -0.47956794096E+03 -0.44025282754E+03 -0.13877522046E+03  0.66564901710E+03  0.46999998093E+01 0.  1.
       -5    1    3    3    0  502  0.47956794096E+03  0.44025282754E+03 -0.65515332333E+02  0.65431056152E+03  0.46999998093E+01 0. -1.
</event>
<event>
 5   0  0.9098192E-04  0.1313606E+04  0.7818609E-02  0.9018845E-01
        1   -1    0    0  501    0  0.00000000000E+00  0.00000000000E+00  0.17630235939E+04  0.17630235939E+04  0.50400001928E-02 0.  1.
       -1   -1    0    0    0  501  0.00000000000E+00  0.00000000000E+00 -0.24468760967E+03  0.24468760972E+03  0.50400001928E-02 0. -1.
    10030    2    1    2    0    0  0.00000000000E+00  0.00000000000E+00  0.15183359842E+04  0.20077112036E+04  0.13136057689E+04 0.  0.
        1    1    3    3  502    0 -0.58496567788E+03  0.66766248750E+02  0.31422996767E+03  0.66737024872E+03  0.50400001928E-02 0. -1.
       -1    1    3    3    0  502  0.58496567788E+03 -0.66766248750E+02  0.12041060166E+04  0.13403409549E+04  0.50400001928E-02 0.  1.
</event>
<event>
 5   0  0.9110949E-04  0.1300092E+04  0.7818609E-02  0.9029492E-01
       -1   -1    0    0    0  501  0.00000000000E+00  0.00000000000E+00  0.20765006889E+03  0.20765006895E+03  0.50400001928E-02 0. -1.
        1   -1    0    0  501    0  0.00000000000E+00  0.00000000000E+00 -0.20349620677E+04  0.20349620677E+04  0.50400001928E-02 0.  1.
    10030    2    1    2    0    0  0.00000000000E+00  0.00000000000E+00 -0.18273119988E+04  0.22426121366E+04  0.13000923254E+04 0.  0.
        2    1    3    3  502    0  0.29931211013E+03 -0.41517494858E+03 -0.22237360332E+03  0.55803942214E+03  0.25500000920E-02 0. -1.
       -2    1    3    3    0  502 -0.29931211013E+03  0.41517494858E+03 -0.16049383955E+04  0.16845727145E+04  0.25500000920E-02 0.  1.
</event>
<event>
 5   0  0.9110949E-04  0.1299886E+04  0.7818609E-02  0.9029655E-01
       -1   -1    0    0    0  501  0.00000000000E+00  0.00000000000E+00  0.48700914386E+03  0.48700914389E+03  0.50400001928E-02 0.  1.
        1   -1    0    0  501    0  0.00000000000E+00  0.00000000000E+00 -0.86738867145E+03  0.86738867147E+03  0.50400001928E-02 0. -1.
    10030    2    1    2    0    0  0.00000000000E+00  0.00000000000E+00 -0.38037952759E+03  0.13543978154E+04  0.12998864786E+04 0.  0.
        2    1    3    3  502    0 -0.86395467836E+02  0.63514597670E+03 -0.78204114345E+02  0.64574799425E+03  0.25500000920E-02 0.  1.
       -2    1    3    3    0  502  0.86395467836E+02 -0.63514597670E+03 -0.30217541324E+03  0.70864982110E+03  0.25500000920E-02 0. -1.
</event>
<event>
 5   0  0.9027076E-04  0.1294145E+04  0.7818609E-02  0.9034221E-01
        1   -1    0    0  501    0  0.00000000000E+00  0.00000000000E+00  0.14004010008E+04  0.14004010008E+04  0.50400001928E-02 0. -1.
       -1   -1    0    0    0  501  0.00000000000E+00  0.00000000000E+00 -0.29898769815E+03  0.29898769819E+03  0.50400001928E-02 0.  1.
    10030    2    1    2    0    0  0.00000000000E+00  0.00000000000E+00  0.11014133026E+04  0.16993886990E+04  0.12941447705E+04 0.  0.
        5    1    3    3  502    0  0.14916797628E+03 -0.37412173001E+03 -0.11429349163E+03  0.41869230497E+03  0.46999998093E+01 0.  1.
       -5    1    3    3    0  502 -0.14916797628E+03  0.37412173001E+03  0.12157067942E+04  0.12806963940E+04  0.46999998093E+01 0. -1.
</event>
<event>
 5   0  0.1714861E-03  0.1295483E+04  0.7818609E-02  0.9033155E-01
        2   -1    0    0  501    0  0.00000000000E+00  0.00000000000E+00  0.14381981287E+04  0.14381981287E+04  0.25500000920E-02 0. -1.
       -2   -1    0    0    0  501  0.00000000000E+00  0.00000000000E+00 -0.29173254936E+03  0.29173254937E+03  0.25500000920E-02 0.  1.
    10030    2    1    2    0    0  0.00000000000E+00  0.00000000000E+00  0.11464655793E+04  0.17299306780E+04  0.12954832404E+04 0.  0.
        1    1    3    3  502    0  0.15731420824E+02 -0.11187802926E+03  0.14249394854E+04  0.14294113152E+04  0.50400001928E-02 0. -1.
       -1    1    3    3    0  502 -0.15731420824E+02  0.11187802926E+03 -0.27847390608E+03  0.30051936281E+03  0.50400001928E-02 0.  1.
</event>
<event>
 5   0  0.9110949E-04  0.1302654E+04  0.7818609E-02  0.9027463E-01
       -1   -1    0    0    0  501  0.00000000000E+00  0.00000000000E+00  0.36570650465E+03  0.36570650469E+03  0.50400001928E-02 0.  1.
        1   -1    0    0  501    0  0.00000000000E+00  0.00000000000E+00 -0.11600206765E+04  0.11600206765E+04  0.50400001928E-02 0. -1.
    10030    2    1    2    0    0  0.00000000000E+00  0.00000000000E+00 -0.79431417183E+03  0.15257271812E+04  0.13026543777E+04 0.  0.
        2    1    3    3  502    0 -0.26952662563E+03  0.21737990694E+03  0.24897153542E+03  0.42648030590E+03  0.25500000920E-02 0.  1.
       -2    1    3    3    0  502  0.26952662563E+03 -0.21737990694E+03 -0.10432857073E+04  0.10992468753E+04  0.25500000920E-02 0. -1.
</event>
<event>
 5   0  0.9098192E-04  0.1297573E+04  0.7818609E-02  0.9031492E-01
       -1   -1    0    0    0  501  0.00000000000E+00  0.00000000000E+00  0.29982626157E+03  0.29982626161E+03  0.50400001928E-02 0. -1.
        1   -1    0    0  501    0  0.00000000000E+00  0.00000000000E+00 -0.14038934961E+04  0.14038934961E+04  0.50400001928E-02 0.  1.
    10030    2    1    2    0    0  0.00000000000E+00  0.00000000000E+00 -0.11040672346E+04  0.17037197577E+04  0.12975733330E+04 0.  0.
        1    1    3    3  502    0  0.51977438582E+02  0.31691457157E+03  0.18814195538E+03  0.37220141751E+03  0.50400001928E-02 0. -1.
       -1    1    3    3    0  502 -0.51977438582E+02 -0.31691457157E+03 -0.12922091899E+04  0.13315183402E+04  0.50400001928E-02 0.  1.
</event>
<event>
 5   0  0.1694675E-03  0.1313098E+04  0.7818609E-02  0.9019243E-01
       -2   -1    0    0    0  501  0.00000000000E+00  0.00000000000E+00  0.24575584033E+03  0.24575584034E+03  0.25500000920E-02 0. -1.
        2   -1    0    0  501    0  0.00000000000E+00  0.00000000000E+00 -0.17540027289E+04  0.17540027289E+04  0.25500000920E-02 0.  1.
    10030    2    1    2    0    0  0.00000000000E+00  0.00000000000E+00 -0.15082468885E+04  0.19997585692E+04  0.13130977337E+04 0.  0.
        4    1    3    3  502    0  0.37176673002E+03  0.37151173011E+03 -0.15488630352E+03  0.54792595036E+03  0.12699999809E+01 0. -1.
       -4    1    3    3    0  502 -0.37176673002E+03 -0.37151173011E+03 -0.13533605850E+04  0.14518326188E+04  0.12699999809E+01 0.  1.
</event>
<event>
 5   0  0.9027076E-04  0.1247467E+04  0.7818609E-02  0.9072294E-01
        1   -1    0    0  501    0  0.00000000000E+00  0.00000000000E+00  0.16690565743E+04  0.16690565743E+04  0.50400001928E-02 0.  1.
       -1   -1    0    0    0  501  0.00000000000E+00  0.00000000000E+00 -0.23309185857E+03  0.23309185863E+03  0.50400001928E-02 0. -1.
    10030    2    1    2    0    0  0.00000000000E+00  0.00000000000E+00  0.14359647157E+04  0.19021484329E+04  0.12474670321E+04 0.  0.
        5    1    3    3  502    0 -0.49905666981E+03  0.97023591109E+02  0.16704246840E+03  0.53516017524E+03  0.46999998093E+01 0.  1.
       -5    1    3    3    0  502  0.49905666981E+03 -0.97023591109E+02  0.12689222473E+04  0.13669882577E+04  0.46999998093E+01 0. -1.
</event>
<event>
 5   0  0.9027076E-04  0.1323572E+04  0.7818609E-02  0.9011079E-01
       -1   -1    0    0    0  501  0.00000000000E+00  0.00000000000E+00  0.35187885068E+03  0.35187885072E+03  0.50400001928E-02 0. -1.
        1   -1    0    0  501    0  0.00000000000E+00  0.00000000000E+00 -0.12446347046E+04  0.12446347046E+04  0.50400001928E-02 0.  1.
    10030    2    1    2    0    0  0.00000000000E+00  0.00000000000E+00 -0.89275585391E+03  0.15965135553E+04  0.13235718785E+04 0.  0.
        5    1    3    3  502    0 -0.49589945849E+03  0.19325300994E+03 -0.92076833624E+03  0.10635315782E+04  0.46999998093E+01 0.  1.
       -5    1    3    3    0  502  0.49589945849E+03 -0.19325300994E+03  0.28012482330E+02  0.53298197713E+03  0.46999998093E+01 0. -1.
</event>
<event>
 5   0  0.9110949E-04  0.1313236E+04  0.7818609E-02  0.9019134E-01
        1   -1    0    0  501    0  0.00000000000E+00  0.00000000000E+00  0.11569859547E+04  0.11569859547E+04  0.50400001928E-02 0. -1.
       -1   -1    0    0    0  501  0.00000000000E+00  0.00000000000E+00 -0.37264673736E+03  0.37264673739E+03  0.50400001928E-02 0.  1.
    10030    2    1    2    0    0  0.00000000000E+00  0.00000000000E+00  0.78433921734E+03  0.15296326921E+04  0.13132357614E+04 0.  0.
        2    1    3    3  502    0  0.35571084301E+03  0.14785428468E+02  0.10348062980E+04  0.10943367339E+04  0.25500000920E-02 0. -1.
       -2    1    3    3    0  502 -0.35571084301E+03 -0.14785428468E+02 -0.25046708067E+03  0.43529595821E+03  0.25500000920E-02 0.  1.
</event>
<event>
 5   0  0.1714861E-03  0.1293774E+04  0.7818609E-02  0.9034517E-01
        2   -1    0    0  501    0  0.00000000000E+00  0.00000000000E+00  0.13456581984E+04  0.13456581984E+04  0.25500000920E-02 0.  1.
       -2   -1    0    0    0  501  0.00000000000E+00  0.00000000000E+00 -0.31097255853E+03  0.31097255854E+03  0.25500000920E-02 0. -1.
    10030    2    1    2    0    0  0.00000000000E+00  0.00000000000E+00  0.10346856399E+04  0.16566307569E+04  0.12937739723E+04 0.  0.
        1    1    3    3  502    0  0.29750341749E+03  0.39503210708E+03  0.10513194505E+04  0.11618223771E+04  0.50400001928E-02 0. -1.
       -1    1    3    3    0  502 -0.29750341749E+03 -0.39503210708E+03 -0.16633810609E+02  0.49480837980E+03  0.50400001928E-02 0.  1.
</event>
<event>
 5   0  0.9110949E-04  0.1271337E+04  0.7818609E-02  0.9052609E-01
       -1   -1    0    0    0  501  0.00000000000E+00  0.00000000000E+00  0.59762744948E+03  0.59762744951E+03  0.50400001928E-02 0.  1.
        1   -1    0    0  501    0  0.00000000000E+00  0.00000000000E+00 -0.67613139589E+03  0.67613139591E+03  0.50400001928E-02 0. -1.
    10030    2    1    2    0    0  0.00000000000E+00  0.00000000000E+00 -0.78503946405E+02  0.12737588454E+04  0.12713373772E+04 0.  0.
        2    1    3    3  502    0  0.83328169751E+01 -0.49660227553E+03 -0.43673348438E+03  0.66137689125E+03  0.25500000920E-02 0. -1.
       -2    1    3    3    0  502 -0.83328169751E+01  0.49660227553E+03  0.35822953798E+03  0.61238195416E+03  0.25500000920E-02 0.  1.
</event>
<event>
 5   0  0.1714861E-03  0.1298499E+04  0.7818609E-02  0.9030756E-01
        2   -1    0    0  501    0  0.00000000000E+00  0.00000000000E+00  0.13286907197E+04  0.13286907197E+04  0.25500000920E-02 0.  1.
       -2   -1    0    0    0  501  0.00000000000E+00  0.00000000000E+00 -0.31724832208E+03  0.31724832209E+03  0.25500000920E-02 0. -1.
    10030    2    1    2    0    0  0.00000000000E+00  0.00000000000E+00  0.10114423976E+04  0.16459390418E+04  0.12984989817E+04 0.  0.
        1    1    3    3  502    0  0.16712187605E+03  0.61483408801E+03  0.34753254009E+03  0.72576135450E+03  0.50400001928E-02 0. -1.
       -1    1    3    3    0  502 -0.16712187605E+03 -0.61483408801E+03  0.66390985756E+03  0.92017768731E+03  0.50400001928E-02 0.  1.
</event>
<event>
 5   0  0.1623890E-03  0.1295712E+04  0.7818609E-02  0.9032973E-01
        2   -1    0    0  501    0  0.00000000000E+00  0.00000000000E+00  0.39427370054E+03  0.39427370055E+03  0.25500000920E-02 0. -1.
       -2   -1    0    0    0  501  0.00000000000E+00  0.00000000000E+00 -0.10645326701E+04  0.10645326701E+04  0.25500000920E-02 0.  1.
    10030    2    1    2    0    0  0.00000000000E+00  0.00000000000E+00 -0.67025896959E+03  0.14588063707E+04  0.12957117507E+04 0.  0.
        3    1    3    3  502    0  0.44883939131E+03 -0.46172886865E+03 -0.25498761632E+03  0.69258143349E+03  0.10100000352E+00 0.  1.
       -3    1    3    3    0  502 -0.44883939131E+03  0.46172886865E+03 -0.41527135327E+03  0.76622493720E+03  0.10100000352E+00 0. -1.
</event>
<event>
 5   0  0.1623890E-03  0.1303229E+04  0.7818609E-02  0.9027008E-01
        2   -1    0    0  501    0  0.00000000000E+00  0.00000000000E+00  0.15263482864E+04  0.15263482864E+04  0.25500000920E-02 0. -1.
       -2   -1    0    0    0  501  0.00000000000E+00  0.00000000000E+00 -0.27818144456E+03  0.27818144458E+03  0.25500000920E-02 0.  1.
    10030    2    1    2    0    0  0.00000000000E+00  0.00000000000E+00  0.12481668418E+04  0.18045297310E+04  0.13032294828E+04 0.  0.
        3    1    3    3  502    0 -0.17687759201E+03  0.60922741887E+03  0.41796883608E+03  0.75969841951E+03  0.10100000352E+00 0.  1.
       -3    1    3    3    0  502  0.17687759201E+03 -0.60922741887E+03  0.83019800573E+03  0.10448313114E+04  0.10100000352E+00 0. -1.
</event>
<event>
 5   0  0.9098192E-04  0.1293567E+04  0.7818609E-02  0.9034682E-01
       -1   -1    0    0    0  501  0.00000000000E+00  0.00000000000E+00  0.12725482028E+04  0.12725482028E+04  0.50400001928E-02 0.  1.
        1   -1    0    0  501    0  0.00000000000E+00  0.00000000000E+00 -0.32873305471E+03  0.32873305475E+03  0.50400001928E-02 0. -1.
    10030    2    1    2    0    0  0.00000000000E+00  0.00000000000E+00  0.94381514807E+03  0.16012812575E+04  0.12935666322E+04 0.  0.
        1    1    3    3  502    0 -0.11910046567E+03 -0.39055379748E+03 -0.14902441191E+03  0.43465557056E+03  0.50400001928E-02 0. -1.
       -1    1    3    3    0  502  0.11910046567E+03  0.39055379748E+03  0.10928395600E+04  0.11666256870E+04  0.50400001928E-02 0.  1.
</event>
<event>
 5   0  0.9027076E-04  0.1285427E+04  0.7818609E-02  0.9041202E-01
       -1   -1    0    0    0  501  0.00000000000E+00  0.00000000000E+00  0.73847558484E+03  0.73847558486E+03  0.50400001928E-02 0.  1.
        1   -1    0    0  501    0  0.00000000000E+00  0.00000000000E+00 -0.55936904053E+03  0.55936904055E+03  0.50400001928E-02 0. -1.
    10030    2    1    2    0    0  0.00000000000E+00  0.00000000000E+00  0.17910654431E+03  0.12978446254E+04  0.12854265897E+04 0.  0.
        5    1    3    3  502    0 -0.37751834435E+03 -0.76047738688E+02  0.60906750722E+03  0.72061687270E+03  0.46999998093E+01 0.  1.
       -5    1    3    3    0  502  0.37751834435E+03  0.76047738688E+02 -0.42996096291E+03  0.57722775271E+03  0.46999998093E+01 0. -1.
</event>
<event>
 5   0  0.1623890E-03  0.1312114E+04  0.7818609E-02  0.9020014E-01
        2   -1    0    0  501    0  0.00000000000E+00  0.00000000000E+00  0.53906089863E+03  0.53906089864E+03  0.25500000920E-02 0.  1.
       -2   -1    0    0    0  501  0.00000000000E+00  0.00000000000E+00 -0.79844513370E+03  0.79844513370E+03  0.25500000920E-02 0. -1.
    10030    2    1    2    0    0  0.00000000000E+00  0.00000000000E+00 -0.25938423507E+03  0.13375060323E+04  0.13121136403E+04 0.  0.
        3    1    3    3  502    0 -0.64666203553E+03  0.10584248581E+03 -0.16250387964E+03  0.67511624266E+03  0.10100000352E+00 0.  1.
       -3    1    3    3    0  502  0.64666203553E+03 -0.10584248581E+03 -0.96880355432E+02  0.66238978968E+03  0.10100000352E+00 0. -1.
</event>
<event>
 5   0  0.9027076E-04  0.1314654E+04  0.7818609E-02  0.9018025E-01
        1   -1    0    0  501    0  0.00000000000E+00  0.00000000000E+00  0.47308369331E+03  0.47308369334E+03  0.50400001928E-02 0. -1.
       -1   -1    0    0    0  501  0.00000000000E+00  0.00000000000E+00 -0.91332412358E+03  0.91332412359E+03  0.50400001928E-02 0.  1.
    10030    2    1    2    0    0  0.00000000000E+00  0.00000000000E+00 -0.44024043027E+03  0.13864078169E+04  0.13146539463E+04 0.  0.
        5    1    3    3  502    0  0.58299879703E+03 -0.26668682354E+03 -0.67125398575E+02  0.64462188011E+03  0.46999998093E+01 0.  1.
       -5    1    3    3    0  502 -0.58299879703E+03  0.26668682354E+03 -0.37311503169E+03  0.74178593682E+03  0.46999998093E+01 0. -1.
</event>
<event>
 5   0  0.1700511E-03  0.1306939E+04  0.7818609E-02  0.9024080E-01
       -2   -1    0    0    0  501  0.00000000000E+00  0.00000000000E+00  0.32283043483E+03  0.32283043484E+03  0.25500000920E-02 0.  1.
        2   -1    0    0  501    0  0.00000000000E+00  0.00000000000E+00 -0.13227457463E+04  0.13227457463E+04  0.25500000920E-02 0. -1.
    10030    2    1    2    0    0  0.00000000000E+00  0.00000000000E+00 -0.99991531148E+03  0.16455761811E+04  0.13069393015E+04 0.  0.
        2    1    3    3  502    0  0.11890748558E+03  0.56868443669E+03 -0.12331503844E+03  0.59392556551E+03  0.25500000920E-02 0. -1.
       -2    1    3    3    0  502 -0.11890748558E+03 -0.56868443669E+03 -0.87660027304E+03  0.10516506156E+04  0.25500000920E-02 0.  1.
</event>
<event>
 5   0  0.9098192E-04  0.1288280E+04  0.7818609E-02  0.9038911E-01
        1   -1    0    0  501    0  0.00000000000E+00  0.00000000000E+00  0.40003454378E+03  0.40003454381E+03  0.50400001928E-02 0. -1.
       -1   -1    0    0    0  501  0.00000000000E+00  0.00000000000E+00 -0.10372008573E+04  0.10372008573E+04  0.50400001928E-02 0.  1.
    10030    2    1    2    0    0  0.00000000000E+00  0.00000000000E+00 -0.63716631350E+03  0.14372354011E+04  0.12882797395E+04 0.  0.
        1    1    3    3  502    0  0.44194027814E+03 -0.43414869154E+03 -0.12177791667E+03  0.63136847944E+03  0.50400001928E-02 0. -1.
       -1    1    3    3    0  502 -0.44194027814E+03  0.43414869154E+03 -0.51538839683E+03  0.80586692166E+03  0.50400001928E-02 0.  1.
</event>
<event>
 5   0  0.9098192E-04  0.1301992E+04  0.7818609E-02  0.9027987E-01
       -1   -1    0    0    0  501  0.00000000000E+00  0.00000000000E+00  0.46854278706E+03  0.46854278709E+03  0.50400001928E-02 0.  1.
        1   -1    0    0  501    0  0.00000000000E+00  0.00000000000E+00 -0.90449733834E+03  0.90449733835E+03  0.50400001928E-02 0. -1.
    10030    2    1    2    0    0  0.00000000000E+00  0.00000000000E+00 -0.43595455127E+03  0.13730401254E+04  0.13019918645E+04 0.  0.
        1    1    3    3  502    0 -0.26584803183E+03  0.24197059798E+03  0.35438338246E+03  0.50478958795E+03  0.50400001928E-02 0.  1.
       -1    1    3    3    0  502  0.26584803183E+03 -0.24197059798E+03 -0.79033793374E+03  0.86825053749E+03  0.50400001928E-02 0. -1.
</event>
<event>
 5   0  0.9081324E-04  0.1343363E+04  0.7818609E-02  0.8995867E-01
        1   -1    0    0  501    0  0.00000000000E+00  0.00000000000E+00  0.10571511589E+04  0.10571511589E+04  0.50400001928E-02 0.  1.
       -1   -1    0    0    0  501  0.00000000000E+00  0.00000000000E+00 -0.42676604199E+03  0.42676604202E+03  0.50400001928E-02 0. -1.
    10030    2    1    2    0    0  0.00000000000E+00  0.00000000000E+00  0.63038511689E+03  0.14839172009E+04  0.13433632657E+04 0.  0.
        4    1    3    3  502    0 -0.19947266442E+03  0.15487309703E+03  0.10027113363E+04  0.10340244953E+04  0.12699999809E+01 0.  1.
       -4    1    3    3    0  502  0.19947266442E+03 -0.15487309703E+03 -0.37232621939E+03  0.44989270564E+03  0.12699999809E+01 0. -1.
</event>
<event>
 5   0  0.1694675E-03  0.1299261E+04  0.7818609E-02  0.9030151E-01
       -2   -1    0    0    0  501  0.00000000000E+00  0.00000000000E+00  0.13947674725E+04  0.13947674725E+04  0.25500000920E-02 0.  1.
        2   -1    0    0  501    0  0.00000000000E+00  0.00000000000E+00 -0.30257360138E+03  0.30257360140E+03  0.25500000920E-02 0. -1.
    10030    2    1    2    0    0  0.00000000000E+00  0.00000000000E+00  0.10921938711E+04  0.16973410739E+04  0.12992610473E+04 0.  0.
        4    1    3    3  502    0  0.34579030939E+03 -0.25241528568E+02  0.12637914221E+04  0.13104878650E+04  0.12699999809E+01 0.  1.
       -4    1    3    3    0  502 -0.34579030939E+03  0.25241528568E+02 -0.17159755099E+03  0.38685320890E+03  0.12699999809E+01 0. -1.
</event>
<event>
 5   0  0.9215829E-04  0.1307089E+04  0.7818609E-02  0.9023962E-01
        1   -1    0    0  501    0  0.00000000000E+00  0.00000000000E+00  0.87644013818E+03  0.87644013820E+03  0.50400001928E-02 0.  1.
       -1   -1    0    0    0  501  0.00000000000E+00  0.00000000000E+00 -0.48733560736E+03  0.48733560739E+03  0.50400001928E-02 0. -1.
    10030    2    1    2    0    0  0.00000000000E+00  0.00000000000E+00  0.38910453082E+03  0.13637757456E+04  0.13070891126E+04 0.  0.
        3    1    3    3  502    0 -0.54275712309E+03  0.27219419552E+03  0.44679189053E+03  0.75385540947E+03  0.10100000352E+00 0.  1.
       -3    1    3    3    0  502  0.54275712309E+03 -0.27219419552E+03 -0.57687359708E+02  0.60992033612E+03  0.10100000352E+00 0. -1.
</event>
<event>
 5   0  0.9027076E-04  0.1307770E+04  0.7818609E-02  0.9023426E-01
        1   -1    0    0  501    0  0.00000000000E+00  0.00000000000E+00  0.68966780605E+03  0.68966780607E+03  0.50400001928E-02 0. -1.
       -1   -1    0    0    0  501  0.00000000000E+00  0.00000000000E+00 -0.61995918679E+03  0.61995918681E+03  0.50400001928E-02 0.  1.
    10030    2    1    2    0    0  0.00000000000E+00  0.00000000000E+00  0.69708619258E+02  0.13096269929E+04  0.13077704573E+04 0.  0.
        5    1    3    3  502    0 -0.30179164935E+03 -0.25110569213E+03 -0.48877567933E+03  0.62694180188E+03  0.46999998093E+01 0.  1.
       -5    1    3    3    0  502  0.30179164935E+03  0.25110569213E+03  0.55848429859E+03  0.68268519100E+03  0.46999998093E+01 0. -1.
</event>
<event>
 5   0  0.9081324E-04  0.1282442E+04  0.7818609E-02  0.9043606E-01
        1   -1    0    0  501    0  0.00000000000E+00  0.00000000000E+00  0.50201269142E+03  0.50201269144E+03  0.50400001928E-02 0. -1.
       -1   -1    0    0    0  501  0.00000000000E+00  0.00000000000E+00 -0.81903130182E+03  0.81903130184E+03  0.50400001928E-02 0.  1.
    10030    2    1    2    0    0  0.00000000000E+00  0.00000000000E+00 -0.31701861041E+03  0.13210439933E+04  0.12824415904E+04 0.  0.
        4    1    3    3  502    0  0.13032300339E+03 -0.24890712592E+03  0.43522885326E+03  0.51803919751E+03  0.12699999809E+01 0. -1.
       -4    1    3    3    0  502 -0.13032300339E+03  0.24890712592E+03 -0.75224746367E+03  0.80300479578E+03  0.12699999809E+01 0.  1.
</event>
<event>
 5   0  0.1700511E-03  0.1283707E+04  0.7818609E-02  0.9042587E-01
        2   -1    0    0  501    0  0.00000000000E+00  0.00000000000E+00  0.17917223392E+04  0.17917223392E+04  0.25500000920E-02 0.  1.
       -2   -1    0    0    0  501  0.00000000000E+00  0.00000000000E+00 -0.22993275816E+03  0.22993275818E+03  0.25500000920E-02 0. -1.
    10030    2    1    2    0    0  0.00000000000E+00  0.00000000000E+00  0.15617895810E+04  0.20216550974E+04  0.12837066009E+04 0.  0.
        2    1    3    3  502    0 -0.12619093287E+03 -0.46651769752E+03  0.14460978365E+04  0.15247169791E+04  0.25500000920E-02 0.  1.
       -2    1    3    3    0  502  0.12619093287E+03  0.46651769752E+03  0.11569174455E+03  0.49693811828E+03  0.25500000920E-02 0. -1.
</event>
<event>
 5   0  0.6284125E-04  0.1305172E+04  0.7818609E-02  0.9025474E-01
       -3   -1    0    0    0  501  0.00000000000E+00  0.00000000000E+00  0.10745971069E+04  0.10745971116E+04  0.10100000352E+00 0. -1.
        3   -1    0    0  501    0  0.00000000000E+00  0.00000000000E+00 -0.39630527530E+03  0.39630528817E+03  0.10100000352E+00 0.  1.
    10030    2    1    2    0    0  0.00000000000E+00  0.00000000000E+00  0.67829183159E+03  0.14709023998E+04  0.13051720427E+04 0.  0.
        5    1    3    3  502    0  0.13015543343E+03  0.34658663502E+03  0.94476900881E+03  0.10147281914E+04  0.46999998093E+01 0. -1.
       -5    1    3    3    0  502 -0.13015543343E+03 -0.34658663502E+03 -0.26647717722E+03  0.45617420840E+03  0.46999998093E+01 0.  1.
</event>
<event>
 5   0  0.1694675E-03  0.1304882E+04  0.7818609E-02  0.9025703E-01
       -2   -1    0    0    0  501  0.00000000000E+00  0.00000000000E+00  0.22434268209E+03  0.22434268210E+03  0.25500000920E-02 0. -1.
        2   -1    0    0  501    0  0.00000000000E+00  0.00000000000E+00 -0.18974506398E+04  0.18974506398E+04  0.25500000920E-02 0.  1.
    10030    2    1    2    0    0  0.00000000000E+00  0.00000000000E+00 -0.16731079577E+04  0.21217933219E+04  0.13048818578E+04 0.  0.
        4    1    3    3  502    0  0.52295729711E+02 -0.48925238316E+03 -0.15332421467E+04  0.16102595540E+04  0.12699999809E+01 0.  1.
       -4    1    3    3    0  502 -0.52295729711E+02  0.48925238316E+03 -0.13986581103E+03  0.51153376797E+03  0.12699999809E+01 0. -1.
</event>
<event>
 5   0  0.1694675E-03  0.1308632E+04  0.7818609E-02  0.9022748E-01
       -2   -1    0    0    0  501  0.00000000000E+00  0.00000000000E+00  0.30749965847E+03  0.30749965848E+03  0.25500000920E-02 0. -1.
        2   -1    0    0  501    0  0.00000000000E+00  0.00000000000E+00 -0.13922914865E+04  0.13922914865E+04  0.25500000920E-02 0.  1.
    10030    2    1    2    0    0  0.00000000000E+00  0.00000000000E+00 -0.10847918280E+04  0.16997911450E+04  0.13086315854E+04 0.  0.
        4    1    3    3  502    0 -0.58254646524E+03 -0.29661278923E+03 -0.57885827616E+03  0.87316553280E+03  0.12699999809E+01 0.  1.
       -4    1    3    3    0  502  0.58254646524E+03  0.29661278923E+03 -0.50593355189E+03  0.82662561219E+03  0.12699999809E+01 0. -1.
</event>
<event>
 5   0  0.9081324E-04  0.1305582E+04  0.7818609E-02  0.9025150E-01
       -1   -1    0    0    0  501  0.00000000000E+00  0.00000000000E+00  0.73626631438E+03  0.73626631440E+03  0.50400001928E-02 0. -1.
        1   -1    0    0  501    0  0.00000000000E+00  0.00000000000E+00 -0.57877991040E+03  0.57877991042E+03  0.50400001928E-02 0.  1.
    10030    2    1    2    0    0  0.00000000000E+00  0.00000000000E+00  0.15748640398E+03  0.13150462248E+04  0.13055820947E+04 0.  0.
        4    1    3    3  502    0  0.64088448612E+02  0.53133693356E+02  0.73089628670E+03  0.73562321430E+03  0.12699999809E+01 0. -1.
       -4    1    3    3    0  502 -0.64088448612E+02 -0.53133693356E+02 -0.57340988272E+03  0.57942301051E+03  0.12699999809E+01 0.  1.
</event>
<event>
 5   0  0.1700511E-03  0.1299409E+04  0.7818609E-02  0.9030034E-01
        2   -1    0    0  501    0  0.00000000000E+00  0.00000000000E+00  0.58762999970E+03  0.58762999971E+03  0.25500000920E-02 0.  1.
       -2   -1    0    0    0  501  0.00000000000E+00  0.00000000000E+00 -0.71833580085E+03  0.71833580085E+03  0.25500000920E-02 0. -1.
    10030    2    1    2    0    0  0.00000000000E+00  0.00000000000E+00 -0.13070580114E+03  0.13059658006E+04  0.12994085831E+04 0.  0.
        2    1    3    3  502    0  0.34661068624E+03 -0.32487707812E+03 -0.51079548264E+03  0.69756441193E+03  0.25500000920E-02 0. -1.
       -2    1    3    3    0  502 -0.34661068624E+03  0.32487707812E+03  0.38008968150E+03  0.60840138863E+03  0.25500000920E-02 0.  1.
</event>
<event>
 5   0  0.1694675E-03  0.1299265E+04  0.7818609E-02  0.9030148E-01
        2   -1    0    0  501    0  0.00000000000E+00  0.00000000000E+00  0.60887325150E+03  0.60887325150E+03  0.25500000920E-02 0.  1.
       -2   -1    0    0    0  501  0.00000000000E+00  0.00000000000E+00 -0.69311988726E+03  0.69311988726E+03  0.25500000920E-02 0. -1.
    10030    2    1    2    0    0  0.00000000000E+00  0.00000000000E+00 -0.84246635763E+02  0.13019931388E+04  0.12992646527E+04 0.  0.
        4    1    3    3  502    0 -0.62806633764E+03  0.15422310148E+03 -0.10363999326E+03  0.65497706113E+03  0.12699999809E+01 0. -1.
       -4    1    3    3    0  502  0.62806633764E+03 -0.15422310148E+03  0.19393357496E+02  0.64701607764E+03  0.12699999809E+01 0.  1.
</event>
<event>
 5   0  0.1667342E-03  0.1305095E+04  0.7818609E-02  0.9025535E-01
       -2   -1    0    0    0  501  0.00000000000E+00  0.00000000000E+00  0.24792834953E+03  0.24792834954E+03  0.25500000920E-02 0.  1.
        2   -1    0    0  501    0  0.00000000000E+00  0.00000000000E+00 -0.17175040961E+04  0.17175040961E+04  0.25500000920E-02 0. -1.
    10030    2    1    2    0    0  0.00000000000E+00  0.00000000000E+00 -0.14695757466E+04  0.19654324456E+04  0.13050945649E+04 0.  0.
        5    1    3    3  502    0 -0.54575014810E+03 -0.61108488902E+02 -0.20401453952E+03  0.58585108509E+03  0.46999998093E+01 0.  1.
       -5    1    3    3    0  502  0.54575014810E+03  0.61108488902E+02 -0.12655612070E+04  0.13795813605E+04  0.46999998093E+01 0. -1.
</event>
<event>
 5   0  0.6284125E-04  0.1289994E+04  0.7818609E-02  0.9037538E-01
        4   -1    0    0  501    0  0.00000000000E+00  0.00000000000E+00  0.33612523714E+03  0.33612763638E+03  0.12699999809E+01 0. -1.
       -4   -1    0    0    0  501  0.00000000000E+00  0.00000000000E+00 -0.12376887415E+04  0.12376893930E+04  0.12699999809E+01 0.  1.
    10030    2    1    2    0    0  0.00000000000E+00  0.00000000000E+00 -0.90156350431E+03  0.15738170294E+04  0.12899935231E+04 0.  0.
        5    1    3    3  502    0  0.38968885765E+03 -0.29670275772E+03 -0.96276675492E+03  0.10801999105E+04  0.46999998093E+01 0.  1.
       -5    1    3    3    0  502 -0.38968885765E+03  0.29670275772E+03  0.61203250609E+02  0.49361711893E+03  0.46999998093E+01 0. -1.
</event>
<event>
 5   0  0.1667342E-03  0.1254220E+04  0.7818609E-02  0.9066678E-01
       -2   -1    0    0    0  501  0.00000000000E+00  0.00000000000E+00  0.84702299560E+03  0.84702299560E+03  0.25500000920E-02 0. -1.
        2   -1    0    0  501    0  0.00000000000E+00  0.00000000000E+00 -0.46429339757E+03  0.46429339758E+03  0.25500000920E-02 0.  1.
    10030    2    1    2    0    0  0.00000000000E+00  0.00000000000E+00  0.38272959802E+03  0.13113163932E+04  0.12542203705E+04 0.  0.
        5    1    3    3  502    0  0.24171773792E+03  0.32538285653E+03 -0.30889766642E+03  0.50964823797E+03  0.46999998093E+01 0.  1.
       -5    1    3    3    0  502 -0.24171773792E+03 -0.32538285653E+03  0.69162726444E+03  0.80166815520E+03  0.46999998093E+01 0. -1.
</event>
<event>
 5   0  0.9027076E-04  0.1321622E+04  0.7818609E-02  0.9012593E-01
        1   -1    0    0  501    0  0.00000000000E+00  0.00000000000E+00  0.97193023181E+03  0.97193023183E+03  0.50400001928E-02 0. -1.
       -1   -1    0    0    0  501  0.00000000000E+00  0.00000000000E+00 -0.44928216615E+03  0.44928216618E+03  0.50400001928E-02 0.  1.
    10030    2    1    2    0    0  0.00000000000E+00  0.00000000000E+00  0.52264806566E+03  0.14212123980E+04  0.13216216099E+04 0.  0.
        5    1    3    3  502    0 -0.18828856329E+03 -0.29806165466E+02  0.94169990459E+03  0.96081308841E+03  0.46999998093E+01 0. -1.
       -5    1    3    3    0  502  0.18828856329E+03  0.29806165466E+02 -0.41905183892E+03  0.46039930959E+03  0.46999998093E+01 0.  1.
</event>
<event>
 5   0  0.9110949E-04  0.1294021E+04  0.7818609E-02  0.9034320E-01
        1   -1    0    0  501    0  0.00000000000E+00  0.00000000000E+00  0.12980613419E+04  0.12980613419E+04  0.50400001928E-02 0.  1.
       -1   -1    0    0    0  501  0.00000000000E+00  0.00000000000E+00 -0.32249813551E+03  0.32249813555E+03  0.50400001928E-02 0. -1.
    10030    2    1    2    0    0  0.00000000000E+00  0.00000000000E+00  0.97556320642E+03  0.16205594775E+04  0.12940206530E+04 0.  0.
        2    1    3    3  502    0  0.30635424512E+03  0.56550052779E+03  0.57614594412E+03  0.86347433046E+03  0.25500000920E-02 0.  1.
       -2    1    3    3    0  502 -0.30635424512E+03 -0.56550052779E+03  0.39941726230E+03  0.75708514704E+03  0.25500000920E-02 0. -1.
</event>
<event>
 5   0  0.1714861E-03  0.1290278E+04  0.7818609E-02  0.9037310E-01
       -2   -1    0    0    0  501  0.00000000000E+00  0.00000000000E+00  0.54798577507E+03  0.54798577507E+03  0.25500000920E-02 0. -1.
        2   -1    0    0  501    0  0.00000000000E+00  0.00000000000E+00 -0.75951721933E+03  0.75951721934E+03  0.25500000920E-02 0.  1.
    10030    2    1    2    0    0  0.00000000000E+00  0.00000000000E+00 -0.21153144426E+03  0.13075029944E+04  0.12902784694E+04 0.  0.
        1    1    3    3  502    0  0.61516315051E+02 -0.55818576275E+03  0.21604099359E+03  0.60168871827E+03  0.50400001928E-02 0. -1.
       -1    1    3    3    0  502 -0.61516315051E+02  0.55818576275E+03 -0.42757243786E+03  0.70581427614E+03  0.50400001928E-02 0.  1.
</event>
<event>
 5   0  0.9081324E-04  0.1296630E+04  0.7818609E-02  0.9032242E-01
       -1   -1    0    0    0  501  0.00000000000E+00  0.00000000000E+00  0.62310679971E+03  0.62310679973E+03  0.50400001928E-02 0. -1.
        1   -1    0    0  501    0  0.00000000000E+00  0.00000000000E+00 -0.67454258214E+03  0.67454258216E+03  0.50400001928E-02 0.  1.
    10030    2    1    2    0    0  0.00000000000E+00  0.00000000000E+00 -0.51435782427E+02  0.12976493819E+04  0.12966295842E+04 0.  0.
        4    1    3    3  502    0 -0.18043839269E+03 -0.83723588577E+02 -0.64324679499E+03  0.67330209045E+03  0.12699999809E+01 0.  1.
       -4    1    3    3    0  502  0.18043839269E+03  0.83723588577E+02  0.59181101256E+03  0.62434729144E+03  0.12699999809E+01 0. -1.
</event>
<event>
 5   0  0.1623890E-03  0.1295428E+04  0.7818609E-02  0.9033199E-01
       -2   -1    0    0    0  501  0.00000000000E+00  0.00000000000E+00  0.51215778429E+03  0.51215778430E+03  0.25500000920E-02 0. -1.
        2   -1    0    0  501    0  0.00000000000E+00  0.00000000000E+00 -0.81914854259E+03  0.81914854260E+03  0.25500000920E-02 0.  1.
    10030    2    1    2    0    0  0.00000000000E+00  0.00000000000E+00 -0.30699075830E+03  0.13313063269E+04  0.12954278098E+04 0.  0.
        3    1    3    3  502    0  0.96978622417E+02  0.50513964288E+02 -0.80959456079E+03  0.81694545525E+03  0.10100000352E+00 0.  1.
       -3    1    3    3    0  502 -0.96978622417E+02 -0.50513964288E+02  0.50260380249E+03  0.51436087164E+03  0.10100000352E+00 0. -1.
</event>
<event>
 5   0  0.9027076E-04  0.1293433E+04  0.7818609E-02  0.9034789E-01
        1   -1    0    0  501    0  0.00000000000E+00  0.00000000000E+00  0.83461244552E+03  0.83461244554E+03  0.50400001928E-02 0.  1.
       -1   -1    0    0    0  501  0.00000000000E+00  0.00000000000E+00 -0.50112152584E+03  0.50112152586E+03  0.50400001928E-02 0. -1.
    10030    2    1    2    0    0  0.00000000000E+00  0.00000000000E+00  0.33349091968E+03  0.13357339714E+04  0.12934330477E+04 0.  0.
        5    1    3    3  502    0 -0.59262720780E+03 -0.37205565366E+02 -0.97814195561E+02  0.60181472928E+03  0.46999998093E+01 0. -1.
       -5    1    3    3    0  502  0.59262720780E+03  0.37205565366E+02  0.43130511524E+03  0.73391924212E+03  0.46999998093E+01 0.  1.
</event>
<event>
 5   0  0.9215829E-04  0.1314413E+04  0.7818609E-02  0.9018213E-01
       -1   -1    0    0    0  501  0.00000000000E+00  0.00000000000E+00  0.37381609157E+03  0.37381609161E+03  0.50400001928E-02 0. -1.
        1   -1    0    0  501    0  0.00000000000E+00  0.00000000000E+00 -0.11554349154E+04  0.11554349154E+04  0.50400001928E-02 0.  1.
    10030    2    1    2    0    0  0.00000000000E+00  0.00000000000E+00 -0.78161882383E+03  0.15292510070E+04  0.13144126661E+04 0.  0.
        3    1    3    3  502    0  0.17965683463E+03  0.39713798957E+03  0.18144270548E+03  0.47214047334E+03  0.10100000352E+00 0. -1.
       -3    1    3    3    0  502 -0.17965683463E+03 -0.39713798957E+03 -0.96306152931E+03  0.10571105337E+04  0.10100000352E+00 0.  1.
</event>
<event>
 5   0  0.6284125E-04  0.1291056E+04  0.7818609E-02  0.9036688E-01
        3   -1    0    0  501    0  0.00000000000E+00  0.00000000000E+00  0.58756829750E+03  0.58756830618E+03  0.10100000352E+00 0.  1.
       -3   -1    0    0    0  501  0.00000000000E+00  0.00000000000E+00 -0.70920499549E+03  0.70920500268E+03  0.10100000352E+00 0. -1.
    10030    2    1    2    0    0  0.00000000000E+00  0.00000000000E+00 -0.12163669799E+03  0.12967733089E+04  0.12910559741E+04 0.  0.
        2    1    3    3  502    0 -0.16532780108E+03  0.31291173924E+03 -0.60307886456E+03  0.69925042384E+03  0.25500000920E-02 0. -1.
       -2    1    3    3    0  502  0.16532780108E+03 -0.31291173924E+03  0.48144216656E+03  0.59752288502E+03  0.25500000920E-02 0.  1.
</event>
<event>
 5   0  0.1700511E-03  0.1296347E+04  0.7818609E-02  0.9032467E-01
        2   -1    0    0  501    0  0.00000000000E+00  0.00000000000E+00  0.69961190884E+03  0.69961190884E+03  0.25500000920E-02 0.  1.
       -2   -1    0    0    0  501  0.00000000000E+00  0.00000000000E+00 -0.60051722222E+03  0.60051722223E+03  0.25500000920E-02 0. -1.
    10030    2    1    2    0    0  0.00000000000E+00  0.00000000000E+00  0.99094686614E+02  0.13001291311E+04  0.12963471759E+04 0.  0.
        2    1    3    3  502    0 -0.52355018567E+03 -0.22100861779E+03  0.36219289710E+03  0.67389413172E+03  0.25500000920E-02 0.  1.
       -2    1    3    3    0  502  0.52355018567E+03  0.22100861779E+03 -0.26309821049E+03  0.62623499935E+03  0.25500000920E-02 0. -1.
</event>
<event>
 5   0  0.1667342E-03  0.1299023E+04  0.7818609E-02  0.9030340E-01
       -2   -1    0    0    0  501  0.00000000000E+00  0.00000000000E+00  0.84594364823E+03  0.84594364823E+03  0.25500000920E-02 0. -1.
        2   -1    0    0  501    0  0.00000000000E+00  0.00000000000E+00 -0.49869189813E+03  0.49869189814E+03  0.25500000920E-02 0.  1.
    10030    2    1    2    0    0  0.00000000000E+00  0.00000000000E+00  0.34725175010E+03  0.13446355464E+04  0.12990230847E+04 0.  0.
        5    1    3    3  502    0  0.60842983819E+03  0.15170615521E+03  0.34880639531E+03  0.71755809307E+03  0.46999998093E+01 0.  1.
       -5    1    3    3    0  502 -0.60842983819E+03 -0.15170615521E+03 -0.15546452180E+01  0.62707745330E+03  0.46999998093E+01 0. -1.
</event>
<event>
 5   0  0.9081324E-04  0.1294910E+04  0.7818609E-02  0.9033611E-01
       -1   -1    0    0    0  501  0.00000000000E+00  0.00000000000E+00  0.40737511167E+03  0.40737511170E+03  0.50400001928E-02 0. -1.
        1   -1    0    0  501    0  0.00000000000E+00  0.00000000000E+00 -0.10290220472E+04  0.10290220472E+04  0.50400001928E-02 0.  1.
    10030    2    1    2    0    0  0.00000000000E+00  0.00000000000E+00 -0.62164693552E+03  0.14363971589E+04  0.12949099913E+04 0.  0.
        4    1    3    3  502    0 -0.39447558672E+03  0.50910934330E+03 -0.23730137533E+03  0.68637953611E+03  0.12699999809E+01 0. -1.
       -4    1    3    3    0  502  0.39447558672E+03 -0.50910934330E+03 -0.38434556019E+03  0.75001762279E+03  0.12699999809E+01 0.  1.
</event>
<event>
 5   0  0.1694675E-03  0.1298997E+04  0.7818609E-02  0.9030361E-01
        2   -1    0    0  501    0  0.00000000000E+00  0.00000000000E+00  0.88264700063E+03  0.88264700063E+03  0.25500000920E-02 0.  1.
       -2   -1    0    0    0  501  0.00000000000E+00  0.00000000000E+00 -0.47793580118E+03  0.47793580118E+03  0.25500000920E-02 0. -1.
    10030    2    1    2    0    0  0.00000000000E+00  0.00000000000E+00  0.40471119945E+03  0.13605828018E+04  0.12989974618E+04 0.  0.
        4    1    3    3  502    0  0.12020283955E+03 -0.52887223223E+03  0.57663786283E+03  0.79162326798E+03  0.12699999809E+01 0.  1.
       -4    1    3    3    0  502 -0.12020283955E+03  0.52887223223E+03 -0.17192666337E+03  0.56895953384E+03  0.12699999809E+01 0. -1.
</event>
<event>
 5   0  0.9027076E-04  0.1295638E+04  0.7818609E-02  0.9033031E-01
       -1   -1    0    0    0  501  0.00000000000E+00  0.00000000000E+00  0.34170988785E+03  0.34170988789E+03  0.50400001928E-02 0.  1.
        1   -1    0    0  501    0  0.00000000000E+00  0.00000000000E+00 -0.12281457474E+04  0.12281457474E+04  0.50400001928E-02 0. -1.
    10030    2    1    2    0    0  0.00000000000E+00  0.00000000000E+00 -0.88643585958E+03  0.15698556353E+04  0.12956381372E+04 0.  0.
        5    1    3    3  502    0 -0.41700049548E+02  0.48191469407E+03  0.78869343592E+02  0.49012562660E+03  0.46999998093E+01 0.  1.
       -5    1    3    3    0  502  0.41700049548E+02 -0.48191469407E+03 -0.96530520317E+03  0.10797300087E+04  0.46999998093E+01 0. -1.
</event>
<event>
 5   0  0.1700511E-03  0.1312545E+04  0.7818609E-02  0.9019676E-01
       -2   -1    0    0    0  501  0.00000000000E+00  0.00000000000E+00  0.20534410481E+03  0.20534410483E+03  0.25500000920E-02 0. -1.
        2   -1    0    0  501    0  0.00000000000E+00  0.00000000000E+00 -0.20974221820E+04  0.20974221820E+04  0.25500000920E-02 0.  1.
    10030    2    1    2    0    0  0.00000000000E+00  0.00000000000E+00 -0.18920780772E+04  0.23027662868E+04  0.13125445217E+04 0.  0.
        2    1    3    3  502    0 -0.17532184880E+03 -0.16694898440E+03 -0.20162171488E+04  0.20306997083E+04  0.25500000920E-02 0.  1.
       -2    1    3    3    0  502  0.17532184880E+03  0.16694898440E+03  0.12413907161E+03  0.27206657855E+03  0.25500000920E-02 0. -1.
</event>
<event>
 5   0  0.1623890E-03  0.1399802E+04  0.7818609E-02  0.8953962E-01
        2   -1    0    0  501    0  0.00000000000E+00  0.00000000000E+00  0.62438738970E+03  0.62438738970E+03  0.25500000920E-02 0. -1.
       -2   -1    0    0    0  501  0.00000000000E+00  0.00000000000E+00 -0.78454675422E+03  0.78454675422E+03  0.25500000920E-02 0.  1.
    10030    2    1    2    0    0  0.00000000000E+00  0.00000000000E+00 -0.16015936452E+03  0.14089341439E+04  0.13998015573E+04 0.  0.
        3    1    3    3  502    0  0.36075741217E+03 -0.16033752151E+03 -0.66178367392E+03  0.77059176775E+03  0.10100000352E+00 0.  1.
       -3    1    3    3    0  502 -0.36075741217E+03  0.16033752151E+03  0.50162430940E+03  0.63834237618E+03  0.10100000352E+00 0. -1.
</event>
<event>
 5   0  0.9110949E-04  0.1328644E+04  0.7818609E-02  0.9007154E-01
        1   -1    0    0  501    0  0.00000000000E+00  0.00000000000E+00  0.45542940169E+03  0.45542940171E+03  0.50400001928E-02 0.  1.
       -1   -1    0    0    0  501  0.00000000000E+00  0.00000000000E+00 -0.96902741398E+03  0.96902741399E+03  0.50400001928E-02 0. -1.
    10030    2    1    2    0    0  0.00000000000E+00  0.00000000000E+00 -0.51359801229E+03  0.14244568157E+04  0.13286437828E+04 0.  0.
        2    1    3    3  502    0 -0.16680569782E+03 -0.32850634218E+03  0.33586061026E+03  0.49854077788E+03  0.25500000920E-02 0.  1.
       -2    1    3    3    0  502  0.16680569782E+03  0.32850634218E+03 -0.84945862255E+03  0.92591603783E+03  0.25500000920E-02 0. -1.
</event>
<event>
 5   0  0.9027076E-04  0.1342845E+04  0.7818609E-02  0.8996262E-01
        1   -1    0    0  501    0  0.00000000000E+00  0.00000000000E+00  0.43331294179E+03  0.43331294181E+03  0.50400001928E-02 0.  1.
       -1   -1    0    0    0  501  0.00000000000E+00  0.00000000000E+00 -0.10403762675E+04  0.10403762675E+04  0.50400001928E-02 0. -1.
    10030    2    1    2    0    0  0.00000000000E+00  0.00000000000E+00 -0.60706332569E+03  0.14736892093E+04  0.13428454878E+04 0.  0.
        5    1    3    3  502    0  0.28390743966E+02  0.27172995894E+03 -0.97659583045E+03  0.10141029095E+04  0.46999998093E+01 0. -1.
       -5    1    3    3    0  502 -0.28390743966E+02 -0.27172995894E+03  0.36953250476E+03  0.45958629984E+03  0.46999998093E+01 0.  1.
</event>
<event>
 5   0  0.1623890E-03  0.1309638E+04  0.7818609E-02  0.9021957E-01
        2   -1    0    0  501    0  0.00000000000E+00  0.00000000000E+00  0.13780663706E+04  0.13780663706E+04  0.25500000920E-02 0. -1.
       -2   -1    0    0    0  501  0.00000000000E+00  0.00000000000E+00 -0.31115178190E+03  0.31115178191E+03  0.25500000920E-02 0.  1.
    10030    2    1    2    0    0  0.00000000000E+00  0.00000000000E+00  0.10669145887E+04  0.16892181525E+04  0.13096378229E+04 0.  0.
        3    1    3    3  502    0 -0.15408684692E+02 -0.78321795048E+02 -0.30485289346E+03  0.31513017627E+03  0.10100000352E+00 0.  1.
       -3    1    3    3    0  502  0.15408684692E+02  0.78321795048E+02  0.13717674822E+04  0.13740879763E+04  0.10100000352E+00 0. -1.
</event>
<event>
 5   0  0.1623890E-03  0.1289797E+04  0.7818609E-02  0.9037696E-01
        2   -1    0    0  501    0  0.00000000000E+00  0.00000000000E+00  0.92088807830E+03  0.92088807830E+03  0.25500000920E-02 0. -1.
       -2   -1    0    0    0  501  0.00000000000E+00  0.00000000000E+00 -0.45162282453E+03  0.45162282454E+03  0.25500000920E-02 0.  1.
    10030    2    1    2    0    0  0.00000000000E+00  0.00000000000E+00  0.46926525377E+03  0.13725109028E+04  0.12897969995E+04 0.  0.
        3    1    3    3  502    0 -0.44827701076E+02 -0.32085256638E+03  0.82801065597E+03  0.88913303208E+03  0.10100000352E+00 0. -1.
       -3    1    3    3    0  502  0.44827701076E+02  0.32085256638E+03 -0.35874540221E+03  0.48337787076E+03  0.10100000352E+00 0.  1.
</event>
<event>
 5   0  0.1700511E-03  0.1292271E+04  0.7818609E-02  0.9035717E-01
       -2   -1    0    0    0  501  0.00000000000E+00  0.00000000000E+00  0.14765424462E+03  0.14765424464E+03  0.25500000920E-02 0. -1.
        2   -1    0    0  501    0  0.00000000000E+00  0.00000000000E+00 -0.28274919148E+04  0.28274919148E+04  0.25500000920E-02 0.  1.
    10030    2    1    2    0    0  0.00000000000E+00  0.00000000000E+00 -0.26798376702E+04  0.29751461595E+04  0.12922711525E+04 0.  0.
        2    1    3    3  502    0  0.17148528084E+03 -0.45881655051E+03 -0.36976387157E+03  0.61371422445E+03  0.25500000920E-02 0. -1.
       -2    1    3    3    0  502 -0.17148528084E+03  0.45881655051E+03 -0.23100737987E+04  0.23614319350E+04  0.25500000920E-02 0.  1.
</event>
<event>
 5   0  0.9098192E-04  0.1306053E+04  0.7818609E-02  0.9024779E-01
        1   -1    0    0  501    0  0.00000000000E+00  0.00000000000E+00  0.37995843272E+03  0.37995843276E+03  0.50400001928E-02 0. -1.
       -1   -1    0    0    0  501  0.00000000000E+00  0.00000000000E+00 -0.11223431499E+04  0.11223431499E+04  0.50400001928E-02 0.  1.
    10030    2    1    2    0    0  0.00000000000E+00  0.00000000000E+00 -0.74238471717E+03  0.15023015827E+04  0.13060532060E+04 0.  0.
        1    1    3    3  502    0  0.16247196310E+03 -0.10691158868E+03 -0.10882546475E+04  0.11054978084E+04  0.50400001928E-02 0.  1.
       -1    1    3    3    0  502 -0.16247196310E+03  0.10691158868E+03  0.34586993029E+03  0.39680377429E+03  0.50400001928E-02 0. -1.
</event>
<event>
 5   0  0.1694675E-03  0.1265799E+04  0.7818609E-02  0.9057135E-01
        2   -1    0    0  501    0  0.00000000000E+00  0.00000000000E+00  0.44026883217E+03  0.44026883217E+03  0.25500000920E-02 0.  1.
       -2   -1    0    0    0  501  0.00000000000E+00  0.00000000000E+00 -0.90981197963E+03  0.90981197963E+03  0.25500000920E-02 0. -1.
    10030    2    1    2    0    0  0.00000000000E+00  0.00000000000E+00 -0.46954314746E+03  0.13500808118E+04  0.12657991275E+04 0.  0.
        4    1    3    3  502    0  0.24893718015E+02 -0.33851536921E+03  0.33497576793E+03  0.47688859327E+03  0.12699999809E+01 0.  1.
       -4    1    3    3    0  502 -0.24893718015E+02  0.33851536921E+03 -0.80451891540E+03  0.87319221854E+03  0.12699999809E+01 0. -1.
</event>
<event>
 5   0  0.1623890E-03  0.1296861E+04  0.7818609E-02  0.9032058E-01
       -2   -1    0    0    0  501  0.00000000000E+00  0.00000000000E+00  0.47179935132E+03  0.47179935133E+03  0.25500000920E-02 0. -1.
        2   -1    0    0  501    0  0.00000000000E+00  0.00000000000E+00 -0.89118895875E+03  0.89118895875E+03  0.25500000920E-02 0.  1.
    10030    2    1    2    0    0  0.00000000000E+00  0.00000000000E+00 -0.41938960742E+03  0.13629883101E+04  0.12968613999E+04 0.  0.
        3    1    3    3  502    0 -0.36358057668E+01 -0.24436726249E+03 -0.84093111890E+03  0.87572469133E+03  0.10100000352E+00 0.  1.
       -3    1    3    3    0  502  0.36358057668E+01  0.24436726249E+03  0.42154151148E+03  0.48726361875E+03  0.10100000352E+00 0. -1.
</event>
<event>
 5   0  0.9110949E-04  0.1287965E+04  0.7818609E-02  0.9039164E-01
       -1   -1    0    0    0  501  0.00000000000E+00  0.00000000000E+00  0.68943592529E+03  0.68943592530E+03  0.50400001928E-02 0. -1.
        1   -1    0    0  501    0  0.00000000000E+00  0.00000000000E+00 -0.60152592491E+03  0.60152592493E+03  0.50400001928E-02 0.  1.
    10030    2    1    2    0    0  0.00000000000E+00  0.00000000000E+00  0.87910000376E+02  0.12909618502E+04  0.12879651900E+04 0.  0.
        2    1    3    3  502    0 -0.63568959066E+03 -0.86643447954E+02  0.99809332092E+02  0.64928441035E+03  0.25500000920E-02 0. -1.
       -2    1    3    3    0  502  0.63568959066E+03  0.86643447954E+02 -0.11899331716E+02  0.64167743988E+03  0.25500000920E-02 0.  1.
</event>
<event>
 5   0  0.9098192E-04  0.1306298E+04  0.7818609E-02  0.9024586E-01
        1   -1    0    0  501    0  0.00000000000E+00  0.00000000000E+00  0.11392483588E+04  0.11392483588E+04  0.50400001928E-02 0. -1.
       -1   -1    0    0    0  501  0.00000000000E+00  0.00000000000E+00 -0.37446033195E+03  0.37446033199E+03  0.50400001928E-02 0.  1.
    10030    2    1    2    0    0  0.00000000000E+00  0.00000000000E+00  0.76478802685E+03  0.15137086908E+04  0.13062975444E+04 0.  0.
        1    1    3    3  502    0  0.56374067229E+02 -0.34674492269E+03 -0.25566368386E+03  0.43448129549E+03  0.50400001928E-02 0.  1.
       -1    1    3    3    0  502 -0.56374067229E+02  0.34674492269E+03  0.10204517107E+04  0.10792273953E+04  0.50400001928E-02 0. -1.
</event>
<event>
 5   0  0.1714861E-03  0.1298988E+04  0.7818609E-02  0.9030368E-01
        2   -1    0    0  501    0  0.00000000000E+00  0.00000000000E+00  0.19480120201E+04  0.19480120201E+04  0.25500000920E-02 0.  1.
       -2   -1    0    0    0  501  0.00000000000E+00  0.00000000000E+00 -0.21655023406E+03  0.21655023407E+03  0.25500000920E-02 0. -1.
    10030    2    1    2    0    0  0.00000000000E+00  0.00000000000E+00  0.17314617861E+04  0.21645622542E+04  0.12989880045E+04 0.  0.
        1    1    3    3  502    0 -0.56945262120E+03 -0.25988713352E+03  0.11544698318E+04  0.13132471978E+04  0.50400001928E-02 0.  1.
       -1    1    3    3    0  502  0.56945262120E+03  0.25988713352E+03  0.57699195428E+03  0.85131505642E+03  0.50400001928E-02 0. -1.
</event>
<event>
 5   0  0.9027076E-04  0.1254864E+04  0.7818609E-02  0.9066145E-01
       -1   -1    0    0    0  501  0.00000000000E+00  0.00000000000E+00  0.80108132089E+03  0.80108132090E+03  0.50400001928E-02 0. -1.
        1   -1    0    0  501    0  0.00000000000E+00  0.00000000000E+00 -0.49142447920E+03  0.49142447923E+03  0.50400001928E-02 0.  1.
    10030    2    1    2    0    0  0.00000000000E+00  0.00000000000E+00  0.30965684169E+03  0.12925058001E+04  0.12548640898E+04 0.  0.
        5    1    3    3  502    0  0.49250630161E+03  0.38805437058E+03  0.17786512633E+03  0.65177200370E+03  0.46999998093E+01 0.  1.
       -5    1    3    3    0  502 -0.49250630161E+03 -0.38805437058E+03  0.13179171536E+03  0.64073379643E+03  0.46999998093E+01 0. -1.
</event>
<event>
 5   0  0.9098192E-04  0.1304850E+04  0.7818609E-02  0.9025728E-01
        1   -1    0    0  501    0  0.00000000000E+00  0.00000000000E+00  0.18398775445E+04  0.18398775445E+04  0.50400001928E-02 0. -1.
       -1   -1    0    0    0  501  0.00000000000E+00  0.00000000000E+00 -0.23135144702E+03  0.23135144708E+03  0.50400001928E-02 0.  1.
    10030    2    1    2    0    0  0.00000000000E+00  0.00000000000E+00  0.16085260974E+04  0.20712289915E+04  0.13048499260E+04 0.  0.
        1    1    3    3  502    0 -0.35833110636E+03  0.23144660749E+03  0.20678136604E+02  0.42707879748E+03  0.50400001928E-02 0.  1.
       -1    1    3    3    0  502  0.35833110636E+03 -0.23144660749E+03  0.15878479608E+04  0.16441501941E+04  0.50400001928E-02 0. -1.
</event>
<event>
 5   0  0.1623890E-03  0.1331781E+04  0.7818609E-02  0.9004735E-01
       -2   -1    0    0    0  501  0.00000000000E+00  0.00000000000E+00  0.59780713460E+03  0.59780713461E+03  0.25500000920E-02 0.  1.
        2   -1    0    0  501    0  0.00000000000E+00  0.00000000000E+00 -0.74172833415E+03  0.74172833415E+03  0.25500000920E-02 0. -1.
    10030    2    1    2    0    0  0.00000000000E+00  0.00000000000E+00 -0.14392119955E+03  0.13395354688E+04  0.13317814987E+04 0.  0.
        3    1    3    3  502    0 -0.92176124051E+02 -0.29693919100E+03 -0.66423633208E+03  0.73340250617E+03  0.10100000352E+00 0. -1.
       -3    1    3    3    0  502  0.92176124051E+02  0.29693919100E+03  0.52031513253E+03  0.60613296259E+03  0.10100000352E+00 0.  1.
</event>
<event>
 5   0  0.9081324E-04  0.1301982E+04  0.7818609E-02  0.9027995E-01
        1   -1    0    0  501    0  0.00000000000E+00  0.00000000000E+00  0.51170740852E+03  0.51170740854E+03  0.50400001928E-02 0.  1.
       -1   -1    0    0    0  501  0.00000000000E+00  0.00000000000E+00 -0.82818680668E+03  0.82818680670E+03  0.50400001928E-02 0. -1.
    10030    2    1    2    0    0  0.00000000000E+00  0.00000000000E+00 -0.31647939816E+03  0.13398942152E+04  0.13019820654E+04 0.  0.
        4    1    3    3  502    0 -0.20201681078E+03 -0.65070354359E+02  0.47510142004E+03  0.52035364425E+03  0.12699999809E+01 0.  1.
       -4    1    3    3    0  502  0.20201681078E+03  0.65070354359E+02 -0.79158081821E+03  0.81954057099E+03  0.12699999809E+01 0. -1.
</event>
<event>
 5   0  0.9098192E-04  0.1291000E+04  0.7818609E-02  0.9036733E-01
       -1   -1    0    0    0  501  0.00000000000E+00  0.00000000000E+00  0.28489335564E+03  0.28489335568E+03  0.50400001928E-02 0.  1.
        1   -1    0    0  501    0  0.00000000000E+00  0.00000000000E+00 -0.14625490813E+04  0.14625490813E+04  0.50400001928E-02 0. -1.
    10030    2    1    2    0    0  0.00000000000E+00  0.00000000000E+00 -0.11776557257E+04  0.17474424370E+04  0.12910004115E+04 0.  0.
        1    1    3    3  502    0  0.23495511446E+03  0.28306962314E+03  0.12911659717E+03  0.38987615091E+03  0.50400001928E-02 0.  1.
       -1    1    3    3    0  502 -0.23495511446E+03 -0.28306962314E+03 -0.13067723229E+04  0.13575662861E+04  0.50400001928E-02 0. -1.
</event>
<event>
 5   0  0.9110949E-04  0.1295612E+04  0.7818609E-02  0.9033052E-01
       -1   -1    0    0    0  501  0.00000000000E+00  0.00000000000E+00  0.36306785310E+03  0.36306785314E+03  0.50400001928E-02 0.  1.
        1   -1    0    0  501    0  0.00000000000E+00  0.00000000000E+00 -0.11558519160E+04  0.11558519160E+04  0.50400001928E-02 0. -1.
    10030    2    1    2    0    0  0.00000000000E+00  0.00000000000E+00 -0.79278406291E+03  0.15189197692E+04  0.12956120927E+04 0.  0.
        2    1    3    3  502    0 -0.80140355420E+02  0.54394879612E+03 -0.79799897384E+03  0.96907436847E+03  0.25500000920E-02 0. -1.
       -2    1    3    3    0  502  0.80140355420E+02 -0.54394879612E+03  0.52149109265E+01  0.54984540070E+03  0.25500000920E-02 0.  1.
</event>
<event>
 5   0  0.1714861E-03  0.1298534E+04  0.7818609E-02  0.9030728E-01
        2   -1    0    0  501    0  0.00000000000E+00  0.00000000000E+00  0.61976224451E+03  0.61976224451E+03  0.25500000920E-02 0. -1.
       -2   -1    0    0    0  501  0.00000000000E+00  0.00000000000E+00 -0.68017682911E+03  0.68017682912E+03  0.25500000920E-02 0.  1.
    10030    2    1    2    0    0  0.00000000000E+00  0.00000000000E+00 -0.60414584604E+02  0.12999390736E+04  0.12985344328E+04 0.  0.
        1    1    3    3  502    0  0.39744575861E+03 -0.43166749893E+02  0.48193325461E+03  0.62616783793E+03  0.50400001928E-02 0. -1.
       -1    1    3    3    0  502 -0.39744575861E+03  0.43166749893E+02 -0.54234783922E+03  0.67377123570E+03  0.50400001928E-02 0.  1.
</event>
<event>
 5   0  0.6284125E-04  0.1312054E+04  0.7818609E-02  0.9020061E-01
       -3   -1    0    0    0  501  0.00000000000E+00  0.00000000000E+00  0.33409093067E+03  0.33409094594E+03  0.10100000352E+00 0.  1.
        3   -1    0    0  501    0  0.00000000000E+00  0.00000000000E+00 -0.12881860083E+04  0.12881860123E+04  0.10100000352E+00 0. -1.
    10030    2    1    2    0    0  0.00000000000E+00  0.00000000000E+00 -0.95409507763E+03  0.16222769582E+04  0.13120537763E+04 0.  0.
        2    1    3    3  502    0  0.44208125720E+03  0.47107242391E+03 -0.61816554309E+03  0.89413293486E+03  0.25500000920E-02 0.  1.
       -2    1    3    3    0  502 -0.44208125720E+03 -0.47107242391E+03 -0.33592953455E+03  0.72814402334E+03  0.25500000920E-02 0. -1.
</event>
<event>
 5   0  0.1623890E-03  0.1297915E+04  0.7818609E-02  0.9031220E-01
        2   -1    0    0  501    0  0.00000000000E+00  0.00000000000E+00  0.27413913177E+03  0.27413913178E+03  0.25500000920E-02 0. -1.
       -2   -1    0    0    0  501  0.00000000000E+00  0.00000000000E+00 -0.15362494895E+04  0.15362494895E+04  0.25500000920E-02 0.  1.
    10030    2    1    2    0    0  0.00000000000E+00  0.00000000000E+00 -0.12621103577E+04  0.18103886213E+04  0.12979154075E+04 0.  0.
        3    1    3    3  502    0  0.31564316620E+03  0.69808460469E+02 -0.14159471068E+04  0.14523808209E+04  0.10100000352E+00 0.  1.
       -3    1    3    3    0  502 -0.31564316620E+03 -0.69808460469E+02  0.15383674910E+03  0.35800780033E+03  0.10100000352E+00 0. -1.
</event>
<event>
 5   0  0.1700511E-03  0.1311513E+04  0.7818609E-02  0.9020485E-01
        2   -1    0    0  501    0  0.00000000000E+00  0.00000000000E+00  0.10878068833E+04  0.10878068833E+04  0.25500000920E-02 0.  1.
       -2   -1    0    0    0  501  0.00000000000E+00  0.00000000000E+00 -0.39530576713E+03  0.39530576714E+03  0.25500000920E-02 0. -1.
    10030    2    1    2    0    0  0.00000000000E+00  0.00000000000E+00  0.69250111616E+03  0.14831126504E+04  0.13115126145E+04 0.  0.
        2    1    3    3  502    0 -0.55262114202E+03  0.27077691778E+03  0.90105467550E+02  0.62195599611E+03  0.25500000920E-02 0. -1.
       -2    1    3    3    0  502  0.55262114202E+03 -0.27077691778E+03  0.60239564861E+03  0.86115665432E+03  0.25500000920E-02 0.  1.
</event>
<event>
 5   0  0.1714861E-03  0.1323912E+04  0.7818609E-02  0.9010815E-01
        2   -1    0    0  501    0  0.00000000000E+00  0.00000000000E+00  0.92955795308E+03  0.92955795309E+03  0.25500000920E-02 0.  1.
       -2   -1    0    0    0  501  0.00000000000E+00  0.00000000000E+00 -0.47139156077E+03  0.47139156078E+03  0.25500000920E-02 0. -1.
    10030    2    1    2    0    0  0.00000000000E+00  0.00000000000E+00  0.45816639231E+03  0.14009495139E+04  0.13239120429E+04 0.  0.
        1    1    3    3  502    0 -0.62599073213E+03 -0.27460895609E+02  0.31968972270E+01  0.62660092378E+03  0.50400001928E-02 0. -1.
       -1    1    3    3    0  502  0.62599073213E+03  0.27460895609E+02  0.45496949508E+03  0.77434859009E+03  0.50400001928E-02 0.  1.
</event>
<event>
 5   0  0.1623890E-03  0.1352107E+04  0.7818609E-02  0.8989235E-01
        2   -1    0    0  501    0  0.00000000000E+00  0.00000000000E+00  0.86619545968E+03  0.86619545968E+03  0.25500000920E-02 0. -1.
       -2   -1    0    0    0  501  0.00000000000E+00  0.00000000000E+00 -0.52765041490E+03  0.52765041491E+03  0.25500000920E-02 0.  1.
    10030    2    1    2    0    0  0.00000000000E+00  0.00000000000E+00  0.33854504477E+03  0.13938458746E+04  0.13521070870E+04 0.  0.
        3    1    3    3  502    0  0.25120844117E+03  0.61265018335E+03  0.28671395624E+02  0.66277295298E+03  0.10100000352E+00 0. -1.
       -3    1    3    3    0  502 -0.25120844117E+03 -0.61265018335E+03  0.30987364915E+03  0.73107292161E+03  0.10100000352E+00 0.  1.
</event>
<event>
 5   0  0.9098192E-04  0.1291298E+04  0.7818609E-02  0.9036495E-01
       -1   -1    0    0    0  501  0.00000000000E+00  0.00000000000E+00  0.95301542795E+03  0.95301542797E+03  0.50400001928E-02 0. -1.
        1   -1    0    0  501    0  0.00000000000E+00  0.00000000000E+00 -0.43741414474E+03  0.43741414477E+03  0.50400001928E-02 0.  1.
    10030    2    1    2    0    0  0.00000000000E+00  0.00000000000E+00  0.51560128322E+03  0.13904295727E+04  0.12912976858E+04 0.  0.
        1    1    3    3  502    0  0.39218956712E+03  0.43812327967E+03  0.54491214510E+03  0.80168192611E+03  0.50400001928E-02 0. -1.
       -1    1    3    3    0  502 -0.39218956712E+03 -0.43812327967E+03 -0.29310861887E+02  0.58874764662E+03  0.50400001928E-02 0.  1.
</event>
<event>
 5   0  0.6284125E-04  0.1313646E+04  0.7818609E-02  0.9018813E-01
       -3   -1    0    0    0  501  0.00000000000E+00  0.00000000000E+00  0.10210588722E+04  0.10210588771E+04  0.10100000352E+00 0.  1.
        3   -1    0    0  501    0  0.00000000000E+00  0.00000000000E+00 -0.42251867864E+03  0.42251869072E+03  0.10100000352E+00 0. -1.
    10030    2    1    2    0    0  0.00000000000E+00  0.00000000000E+00  0.59854019351E+03  0.14435775679E+04  0.13136460068E+04 0.  0.
        2    1    3    3  502    0 -0.41084173938E+03 -0.33393038387E+03 -0.12791592235E+03  0.54466771456E+03  0.25500000920E-02 0. -1.
       -2    1    3    3    0  502  0.41084173938E+03  0.33393038387E+03  0.72645611586E+03  0.89890985330E+03  0.25500000920E-02 0.  1.
</event>
<event>
 5   0  0.6284125E-04  0.1278739E+04  0.7818609E-02  0.9046597E-01
        3   -1    0    0  501    0  0.00000000000E+00  0.00000000000E+00  0.16877083299E+04  0.16877083330E+04  0.10100000352E+00 0. -1.
       -3   -1    0    0    0  501  0.00000000000E+00  0.00000000000E+00 -0.24221817095E+03  0.24221819200E+03  0.10100000352E+00 0.  1.
    10030    2    1    2    0    0  0.00000000000E+00  0.00000000000E+00  0.14454901590E+04  0.19299265250E+04  0.12787394543E+04 0.  0.
        1    1    3    3  502    0 -0.37811295440E+03 -0.29481283239E+03  0.13611196453E+04  0.14430976063E+04  0.50400001928E-02 0. -1.
       -1    1    3    3    0  502  0.37811295440E+03  0.29481283239E+03  0.84370513655E+02  0.48682891864E+03  0.50400001928E-02 0.  1.
</event>
<event>
 5   0  0.1694675E-03  0.1246759E+04  0.7818609E-02  0.9072885E-01
        2   -1    0    0  501    0  0.00000000000E+00  0.00000000000E+00  0.44842479327E+03  0.44842479328E+03  0.25500000920E-02 0. -1.
       -2   -1    0    0    0  501  0.00000000000E+00  0.00000000000E+00 -0.86659377827E+03  0.86659377827E+03  0.25500000920E-02 0.  1.
    10030    2    1    2    0    0  0.00000000000E+00  0.00000000000E+00 -0.41816898500E+03  0.13150185716E+04  0.12467592163E+04 0.  0.
        4    1    3    3  502    0 -0.52146761032E+03 -0.20609313009E+03  0.78221345295E+02  0.56614754141E+03  0.12699999809E+01 0. -1.
       -4    1    3    3    0  502  0.52146761032E+03  0.20609313009E+03 -0.49639033029E+03  0.74887103015E+03  0.12699999809E+01 0.  1.
</event>
<event>
 5   0  0.1700511E-03  0.1255436E+04  0.7818609E-02  0.9065671E-01
        2   -1    0    0  501    0  0.00000000000E+00  0.00000000000E+00  0.52424729612E+03  0.52424729612E+03  0.25500000920E-02 0. -1.
       -2   -1    0    0    0  501  0.00000000000E+00  0.00000000000E+00 -0.75161037608E+03  0.75161037608E+03  0.25500000920E-02 0.  1.
    10030    2    1    2    0    0  0.00000000000E+00  0.00000000000E+00 -0.22736307996E+03  0.12758576722E+04  0.12554357130E+04 0.  0.
        2    1    3    3  502    0 -0.72320465392E+02 -0.55084404682E+03 -0.41061636727E+03  0.69084384250E+03  0.25500000920E-02 0.  1.
       -2    1    3    3    0  502  0.72320465392E+02  0.55084404682E+03  0.18325328731E+03  0.58501382971E+03  0.25500000920E-02 0. -1.
</event>
<event>
 5   0  0.9110949E-04  0.1277979E+04  0.7818609E-02  0.9047213E-01
        1   -1    0    0  501    0  0.00000000000E+00  0.00000000000E+00  0.71966378484E+03  0.71966378486E+03  0.50400001928E-02 0.  1.
       -1   -1    0    0    0  501  0.00000000000E+00  0.00000000000E+00 -0.56735839963E+03  0.56735839965E+03  0.50400001928E-02 0. -1.
    10030    2    1    2    0    0  0.00000000000E+00  0.00000000000E+00  0.15230538522E+03  0.12870221845E+04  0.12779785495E+04 0.  0.
        2    1    3    3  502    0 -0.54314129740E+03 -0.10648738257E+03 -0.24542697916E+03  0.60545555881E+03  0.25500000920E-02 0. -1.
       -2    1    3    3    0  502  0.54314129740E+03  0.10648738257E+03  0.39773236437E+03  0.68156662570E+03  0.25500000920E-02 0.  1.
</event>
<event>
 5   0  0.6284125E-04  0.1298225E+04  0.7818609E-02  0.9030974E-01
       -4   -1    0    0    0  501  0.00000000000E+00  0.00000000000E+00  0.49378290687E+03  0.49378454007E+03  0.12699999809E+01 0. -1.
        4   -1    0    0  501    0  0.00000000000E+00  0.00000000000E+00 -0.85330059336E+03  0.85330153846E+03  0.12699999809E+01 0.  1.
    10030    2    1    2    0    0  0.00000000000E+00  0.00000000000E+00 -0.35951768650E+03  0.13470860785E+04  0.12982249174E+04 0.  0.
        5    1    3    3  502    0  0.58416842399E+03  0.27274867065E+03 -0.25796327982E+03  0.69441466622E+03  0.46999998093E+01 0.  1.
       -5    1    3    3    0  502 -0.58416842399E+03 -0.27274867065E+03 -0.10155440667E+03  0.65267141231E+03  0.46999998093E+01 0. -1.
</event>
<event>
 5   0  0.1714861E-03  0.1300281E+04  0.7818609E-02  0.9029342E-01
       -2   -1    0    0    0  501  0.00000000000E+00  0.00000000000E+00  0.32894200763E+03  0.32894200764E+03  0.25500000920E-02 0.  1.
        2   -1    0    0  501    0  0.00000000000E+00  0.00000000000E+00 -0.12849769445E+04  0.12849769445E+04  0.25500000920E-02 0. -1.
    10030    2    1    2    0    0  0.00000000000E+00  0.00000000000E+00 -0.95603493690E+03  0.16139189522E+04  0.13002813479E+04 0.  0.
        1    1    3    3  502    0 -0.10537268585E+03  0.53074577879E+03 -0.30685855264E+02  0.54197426726E+03  0.50400001928E-02 0.  1.
       -1    1    3    3    0  502  0.10537268585E+03 -0.53074577879E+03 -0.92534908163E+03  0.10719446849E+04  0.50400001928E-02 0. -1.
</event>
<event>
 5   0  0.9081324E-04  0.1301129E+04  0.7818609E-02  0.9028671E-01
       -1   -1    0    0    0  501  0.00000000000E+00  0.00000000000E+00  0.86093362892E+03  0.86093362894E+03  0.50400001928E-02 0. -1.
        1   -1    0    0  501    0  0.00000000000E+00  0.00000000000E+00 -0.49159874763E+03  0.49159874766E+03  0.50400001928E-02 0.  1.
    10030    2    1    2    0    0  0.00000000000E+00  0.00000000000E+00  0.36933488129E+03  0.13525323766E+04  0.13011285775E+04 0.  0.
        4    1    3    3  502    0  0.26981477244E+03  0.36835637799E+03  0.66638207739E+03  0.80780759999E+03  0.12699999809E+01 0. -1.
       -4    1    3    3    0  502 -0.26981477244E+03 -0.36835637799E+03 -0.29704719610E+03  0.54472477661E+03  0.12699999809E+01 0.  1.
</event>
<event>
 5   0  0.9027076E-04  0.1296672E+04  0.7818609E-02  0.9032208E-01
       -1   -1    0    0    0  501  0.00000000000E+00  0.00000000000E+00  0.16617430692E+03  0.16617430700E+03  0.50400001928E-02 0.  1.
        1   -1    0    0  501    0  0.00000000000E+00  0.00000000000E+00 -0.25295099257E+04  0.25295099257E+04  0.50400001928E-02 0. -1.
    10030    2    1    2    0    0  0.00000000000E+00  0.00000000000E+00 -0.23633356188E+04  0.26956842327E+04  0.12966719845E+04 0.  0.
        5    1    3    3  502    0  0.36622674458E+03  0.24321673575E+03 -0.19108430091E+03  0.47938680525E+03  0.46999998093E+01 0.  1.
       -5    1    3    3    0  502 -0.36622674458E+03 -0.24321673575E+03 -0.21722513179E+04  0.22162974274E+04  0.46999998093E+01 0. -1.
</event>
<event>
 5   0  0.9098192E-04  0.1296750E+04  0.7818609E-02  0.9032146E-01
        1   -1    0    0  501    0  0.00000000000E+00  0.00000000000E+00  0.37518655240E+03  0.37518655244E+03  0.50400001928E-02 0.  1.
       -1   -1    0    0    0  501  0.00000000000E+00  0.00000000000E+00 -0.11204835932E+04  0.11204835932E+04  0.50400001928E-02 0. -1.
    10030    2    1    2    0    0  0.00000000000E+00  0.00000000000E+00 -0.74529704077E+03  0.14956701456E+04  0.12967503636E+04 0.  0.
        1    1    3    3  502    0 -0.26688765065E+03 -0.10385449683E+03 -0.10435812328E+04  0.10821629101E+04  0.50400001928E-02 0. -1.
       -1    1    3    3    0  502  0.26688765065E+03  0.10385449683E+03  0.29828419202E+03  0.41350723550E+03  0.50400001928E-02 0.  1.
</event>
<event>
 5   0  0.9215829E-04  0.1269008E+04  0.7818609E-02  0.9054509E-01
       -1   -1    0    0    0  501  0.00000000000E+00  0.00000000000E+00  0.40242963157E+03  0.40242963160E+03  0.50400001928E-02 0. -1.
        1   -1    0    0  501    0  0.00000000000E+00  0.00000000000E+00 -0.10004120960E+04  0.10004120960E+04  0.50400001928E-02 0.  1.
    10030    2    1    2    0    0  0.00000000000E+00  0.00000000000E+00 -0.59798246439E+03  0.14028417276E+04  0.12690082289E+04 0.  0.
        3    1    3    3  502    0 -0.39219061877E+03  0.82250753094E+02  0.24484355981E+03  0.46960307369E+03  0.10100000352E+00 0. -1.
       -3    1    3    3    0  502  0.39219061877E+03 -0.82250753094E+02 -0.84282602420E+03  0.93323865388E+03  0.10100000352E+00 0.  1.
</event>
<event>
 5   0  0.1623890E-03  0.1289637E+04  0.7818609E-02  0.9037824E-01
        2   -1    0    0  501    0  0.00000000000E+00  0.00000000000E+00  0.61443036612E+03  0.61443036612E+03  0.25500000920E-02 0.  1.
       -2   -1    0    0    0  501  0.00000000000E+00  0.00000000000E+00 -0.67670932827E+03  0.67670932827E+03  0.25500000920E-02 0. -1.
    10030    2    1    2    0    0  0.00000000000E+00  0.00000000000E+00 -0.62278962147E+02  0.12911396944E+04  0.12896367866E+04 0.  0.
        3    1    3    3  502    0 -0.57143039399E+03  0.16822326393E+03 -0.27832595141E+03  0.65749304722E+03  0.10100000352E+00 0. -1.
       -3    1    3    3    0  502  0.57143039399E+03 -0.16822326393E+03  0.21604698927E+03  0.63364664718E+03  0.10100000352E+00 0.  1.
</event>
<event>
 5   0  0.1714861E-03  0.1309262E+04  0.7818609E-02  0.9022252E-01
       -2   -1    0    0    0  501  0.00000000000E+00  0.00000000000E+00  0.46666029272E+03  0.46666029273E+03  0.25500000920E-02 0.  1.
        2   -1    0    0  501    0  0.00000000000E+00  0.00000000000E+00 -0.91831624078E+03  0.91831624078E+03  0.25500000920E-02 0. -1.
    10030    2    1    2    0    0  0.00000000000E+00  0.00000000000E+00 -0.45165594806E+03  0.13849765335E+04  0.13092619688E+04 0.  0.
        1    1    3    3  502    0  0.43905624952E+03 -0.48555193148E+03 -0.22237463198E+03  0.69136209426E+03  0.50400001928E-02 0. -1.
       -1    1    3    3    0  502 -0.43905624952E+03  0.48555193148E+03 -0.22928131607E+03  0.69361443925E+03  0.50400001928E-02 0.  1.
</event>
<event>
 5   0  0.6284125E-04  0.1318881E+04  0.7818609E-02  0.9014725E-01
        3   -1    0    0  501    0  0.00000000000E+00  0.00000000000E+00  0.77702596484E+03  0.77702597140E+03  0.10100000352E+00 0. -1.
       -3   -1    0    0    0  501  0.00000000000E+00  0.00000000000E+00 -0.55964877173E+03  0.55964878085E+03  0.10100000352E+00 0.  1.
    10030    2    1    2    0    0  0.00000000000E+00  0.00000000000E+00  0.21737719311E+03  0.13366747523E+04  0.13188807942E+04 0.  0.
        4    1    3    3  502    0  0.27470247042E+03 -0.36951528624E+03  0.58713508401E+03  0.74614490134E+03  0.12699999809E+01 0. -1.
       -4    1    3    3    0  502 -0.27470247042E+03  0.36951528624E+03 -0.36975789091E+03  0.59052985091E+03  0.12699999809E+01 0.  1.
</event>
<event>
 5   0  0.1694675E-03  0.1301357E+04  0.7818609E-02  0.9028490E-01
       -2   -1    0    0    0  501  0.00000000000E+00  0.00000000000E+00  0.43515533102E+03  0.43515533103E+03  0.25500000920E-02 0.  1.
        2   -1    0    0  501    0  0.00000000000E+00  0.00000000000E+00 -0.97294580063E+03  0.97294580064E+03  0.25500000920E-02 0. -1.
    10030    2    1    2    0    0  0.00000000000E+00  0.00000000000E+00 -0.53779046961E+03  0.14081011317E+04  0.13013570639E+04 0.  0.
        4    1    3    3  502    0  0.61562400722E+02 -0.28458291281E+03  0.36073147560E+03  0.46357973838E+03  0.12699999809E+01 0.  1.
       -4    1    3    3    0  502 -0.61562400722E+02  0.28458291281E+03 -0.89852194521E+03  0.94452139329E+03  0.12699999809E+01 0. -1.
</event>
<event>
 5   0  0.9110949E-04  0.1282751E+04  0.7818609E-02  0.9043357E-01
        1   -1    0    0  501    0  0.00000000000E+00  0.00000000000E+00  0.84873938208E+03  0.84873938210E+03  0.50400001928E-02 0. -1.
       -1   -1    0    0    0  501  0.00000000000E+00  0.00000000000E+00 -0.48467475867E+03  0.48467475869E+03  0.50400001928E-02 0.  1.
    10030    2    1    2    0    0  0.00000000000E+00  0.00000000000E+00  0.36406462342E+03  0.13334141408E+04  0.12827510362E+04 0.  0.
        2    1    3    3  502    0 -0.21306412241E+03  0.42197513240E+03 -0.26856624523E+03  0.54367928111E+03  0.25500000920E-02 0.  1.
       -2    1    3    3    0  502  0.21306412241E+03 -0.42197513240E+03  0.63263086865E+03  0.78973485968E+03  0.25500000920E-02 0. -1.
</event>
<event>
 5   0  0.1667342E-03  0.1272028E+04  0.7818609E-02  0.9052046E-01
        2   -1    0    0  501    0  0.00000000000E+00  0.00000000000E+00  0.18373054285E+04  0.18373054285E+04  0.25500000920E-02 0. -1.
       -2   -1    0    0    0  501  0.00000000000E+00  0.00000000000E+00 -0.22016687577E+03  0.22016687578E+03  0.25500000920E-02 0.  1.
    10030    2    1    2    0    0  0.00000000000E+00  0.00000000000E+00  0.16171385527E+04  0.20574723042E+04  0.12720279809E+04 0.  0.
        5    1    3    3  502    0 -0.24008540272E+03 -0.14221991440E+03 -0.11583408003E+03  0.30217069472E+03  0.46999998093E+01 0.  1.
       -5    1    3    3    0  502  0.24008540272E+03  0.14221991440E+03  0.17329726327E+04  0.17553016095E+04  0.46999998093E+01 0. -1.
</event>
<event>
 5   0  0.1667342E-03  0.1341450E+04  0.7818609E-02  0.8997326E-01
        2   -1    0    0  501    0  0.00000000000E+00  0.00000000000E+00  0.39837547008E+03  0.39837547008E+03  0.25500000920E-02 0.  1.
       -2   -1    0    0    0  501  0.00000000000E+00  0.00000000000E+00 -0.11292658825E+04  0.11292658825E+04  0.25500000920E-02 0. -1.
    10030    2    1    2    0    0  0.00000000000E+00  0.00000000000E+00 -0.73089041238E+03  0.15276413525E+04  0.13414497035E+04 0.  0.
        5    1    3    3  502    0 -0.59337873699E+03 -0.51802229536E+02 -0.14318344786E+02  0.59582623431E+03  0.46999998093E+01 0.  1.
       -5    1    3    3    0  502  0.59337873699E+03  0.51802229536E+02 -0.71657206759E+03  0.93181511823E+03  0.46999998093E+01 0. -1.
</event>
<event>
 5   0  0.1623890E-03  0.1302452E+04  0.7818609E-02  0.9027623E-01
       -2   -1    0    0    0  501  0.00000000000E+00  0.00000000000E+00  0.34365791337E+03  0.34365791338E+03  0.25500000920E-02 0.  1.
        2   -1    0    0  501    0  0.00000000000E+00  0.00000000000E+00 -0.12340616514E+04  0.12340616514E+04  0.25500000920E-02 0. -1.
    10030    2    1    2    0    0  0.00000000000E+00  0.00000000000E+00 -0.89040373804E+03  0.15777195648E+04  0.13024516146E+04 0.  0.
        3    1    3    3  502    0  0.50024693184E+03  0.16966322557E+03  0.16164251915E+02  0.52848263563E+03  0.10100000352E+00 0.  1.
       -3    1    3    3    0  502 -0.50024693184E+03 -0.16966322557E+03 -0.90656798995E+03  0.10492369292E+04  0.10100000352E+00 0. -1.
</event>
<event>
 5   0  0.1667342E-03  0.1284935E+04  0.7818609E-02  0.9041598E-01
       -2   -1    0    0    0  501  0.00000000000E+00  0.00000000000E+00  0.24442171832E+03  0.24442171833E+03  0.25500000920E-02 0.  1.
        2   -1    0    0  501    0  0.00000000000E+00  0.00000000000E+00 -0.16887398157E+04  0.16887398157E+04  0.25500000920E-02 0. -1.
    10030    2    1    2    0    0  0.00000000000E+00  0.00000000000E+00 -0.14443180974E+04  0.19331615340E+04  0.12849353098E+04 0.  0.
        5    1    3    3  502    0  0.63928689216E+03 -0.32507540055E+02 -0.63978092648E+03  0.90503380850E+03  0.46999998093E+01 0.  1.
       -5    1    3    3    0  502 -0.63928689216E+03  0.32507540055E+02 -0.80453717092E+03  0.10281277255E+04  0.46999998093E+01 0. -1.
</event>
<event>
 5   0  0.1700511E-03  0.1315190E+04  0.7818609E-02  0.9017606E-01
        2   -1    0    0  501    0  0.00000000000E+00  0.00000000000E+00  0.11119872918E+04  0.11119872918E+04  0.25500000920E-02 0. -1.
       -2   -1    0    0    0  501  0.00000000000E+00  0.00000000000E+00 -0.38888113126E+03  0.38888113127E+03  0.25500000920E-02 0.  1.
    10030    2    1    2    0    0  0.00000000000E+00  0.00000000000E+00  0.72310616051E+03  0.15008684230E+04  0.13151895316E+04 0.  0.
        2    1    3    3  502    0 -0.12965125570E+03 -0.44955040621E+03 -0.16577332316E+03  0.49637265285E+03  0.25500000920E-02 0.  1.
       -2    1    3    3    0  502  0.12965125570E+03  0.44955040621E+03  0.88887948366E+03  0.10044957702E+04  0.25500000920E-02 0. -1.
</event>
<event>
 5   0  0.1667342E-03  0.1297114E+04  0.7818609E-02  0.9031857E-01
       -2   -1    0    0    0  501  0.00000000000E+00  0.00000000000E+00  0.55415609582E+03  0.55415609583E+03  0.25500000920E-02 0.  1.
        2   -1    0    0  501    0  0.00000000000E+00  0.00000000000E+00 -0.75903903929E+03  0.75903903929E+03  0.25500000920E-02 0. -1.
    10030    2    1    2    0    0  0.00000000000E+00  0.00000000000E+00 -0.20488294347E+03  0.13131951351E+04  0.12971138895E+04 0.  0.
        5    1    3    3  502    0  0.27498396771E+02 -0.36894392113E+03 -0.64170672591E+03  0.74073300915E+03  0.46999998093E+01 0. -1.
       -5    1    3    3    0  502 -0.27498396771E+02  0.36894392113E+03  0.43682378244E+03  0.57246212597E+03  0.46999998093E+01 0.  1.
</event>
<event>
 5   0  0.1700511E-03  0.1193809E+04  0.7818609E-02  0.9118293E-01
        2   -1    0    0  501    0  0.00000000000E+00  0.00000000000E+00  0.12061261642E+04  0.12061261642E+04  0.25500000920E-02 0. -1.
       -2   -1    0    0    0  501  0.00000000000E+00  0.00000000000E+00 -0.29540444737E+03  0.29540444738E+03  0.25500000920E-02 0.  1.
    10030    2    1    2    0    0  0.00000000000E+00  0.00000000000E+00  0.91072171685E+03  0.15015306116E+04  0.11938090853E+04 0.  0.
        2    1    3    3  502    0  0.67502846967E+02 -0.40670309241E+03 -0.87566667333E+02  0.42146406841E+03  0.25500000920E-02 0.  1.
       -2    1    3    3    0  502 -0.67502846967E+02  0.40670309241E+03  0.99828838418E+03  0.10800665432E+04  0.25500000920E-02 0. -1.
</event>
<event>
 5   0  0.1694675E-03  0.1305792E+04  0.7818609E-02  0.9024984E-01
       -2   -1    0    0    0  501  0.00000000000E+00  0.00000000000E+00  0.20207662364E+03  0.20207662365E+03  0.25500000920E-02 0. -1.
        2   -1    0    0  501    0  0.00000000000E+00  0.00000000000E+00 -0.21094644164E+04  0.21094644164E+04  0.25500000920E-02 0.  1.
    10030    2    1    2    0    0  0.00000000000E+00  0.00000000000E+00 -0.19073877927E+04  0.23115410400E+04  0.13057923984E+04 0.  0.
        4    1    3    3  502    0 -0.40009839861E+02  0.33140660287E+03  0.39588901457E+02  0.33615475265E+03  0.12699999809E+01 0. -1.
       -4    1    3    3    0  502  0.40009839861E+02 -0.33140660287E+03 -0.19469766942E+04  0.19753862874E+04  0.12699999809E+01 0.  1.
</event>
<event>
 5   0  0.1714861E-03  0.1297622E+04  0.7818609E-02  0.9031453E-01
        2   -1    0    0  501    0  0.00000000000E+00  0.00000000000E+00  0.46918726164E+03  0.46918726164E+03  0.25500000920E-02 0.  1.
       -2   -1    0    0    0  501  0.00000000000E+00  0.00000000000E+00 -0.89720143053E+03  0.89720143053E+03  0.25500000920E-02 0. -1.
    10030    2    1    2    0    0  0.00000000000E+00  0.00000000000E+00 -0.42801416889E+03  0.13663886922E+04  0.12976216434E+04 0.  0.
        1    1    3    3  502    0 -0.15108323431E+03  0.18737197137E+03 -0.84844934321E+03  0.88193009211E+03  0.50400001928E-02 0. -1.
       -1    1    3    3    0  502  0.15108323431E+03 -0.18737197137E+03  0.42043517432E+03  0.48445860006E+03  0.50400001928E-02 0.  1.
</event>
<event>
 5   0  0.9098192E-04  0.1311561E+04  0.7818609E-02  0.9020447E-01
       -1   -1    0    0    0  501  0.00000000000E+00  0.00000000000E+00  0.10570253330E+04  0.10570253330E+04  0.50400001928E-02 0. -1.
        1   -1    0    0  501    0  0.00000000000E+00  0.00000000000E+00 -0.40684735791E+03  0.40684735794E+03  0.50400001928E-02 0.  1.
    10030    2    1    2    0    0  0.00000000000E+00  0.00000000000E+00  0.65017797511E+03  0.14638726910E+04  0.13115608473E+04 0.  0.
        1    1    3    3  502    0  0.38756111886E+03  0.57225222080E+02  0.91206060197E+03  0.99263935474E+03  0.50400001928E-02 0. -1.
       -1    1    3    3    0  502 -0.38756111886E+03 -0.57225222080E+02 -0.26188262685E+03  0.47123333623E+03  0.50400001928E-02 0.  1.
</event>
<event>
 5   0  0.9027076E-04  0.1331745E+04  0.7818609E-02  0.9004763E-01
        1   -1    0    0  501    0  0.00000000000E+00  0.00000000000E+00  0.11936587525E+04  0.11936587525E+04  0.50400001928E-02 0.  1.
       -1   -1    0    0    0  501  0.00000000000E+00  0.00000000000E+00 -0.37145124943E+03  0.37145124947E+03  0.50400001928E-02 0. -1.
    10030    2    1    2    0    0  0.00000000000E+00  0.00000000000E+00  0.82220750305E+03  0.15651100020E+04  0.13317447729E+04 0.  0.
        5    1    3    3  502    0  0.62857809724E+02 -0.38765991675E+03 -0.22083126230E+03  0.45057724277E+03  0.46999998093E+01 0. -1.
       -5    1    3    3    0  502 -0.62857809724E+02  0.38765991675E+03  0.10430387653E+04  0.11145327592E+04  0.46999998093E+01 0.  1.
</event>
<event>
 5   0  0.9110949E-04  0.1312098E+04  0.7818609E-02  0.9020026E-01
       -1   -1    0    0    0  501  0.00000000000E+00  0.00000000000E+00  0.36414849448E+03  0.36414849451E+03  0.50400001928E-02 0.  1.
        1   -1    0    0  501    0  0.00000000000E+00  0.00000000000E+00 -0.11819368851E+04  0.11819368851E+04  0.50400001928E-02 0. -1.
    10030    2    1    2    0    0  0.00000000000E+00  0.00000000000E+00 -0.81778839066E+03  0.15460853797E+04  0.13120983764E+04 0.  0.
        2    1    3    3  502    0 -0.35286437675E+03 -0.39438383398E+03 -0.86578967017E+03  0.10147135704E+04  0.25500000920E-02 0. -1.
       -2    1    3    3    0  502  0.35286437675E+03  0.39438383398E+03  0.48001279506E+02  0.53137180931E+03  0.25500000920E-02 0.  1.
</event>
<event>
 5   0  0.9027076E-04  0.1288700E+04  0.7818609E-02  0.9038575E-01
       -1   -1    0    0    0  501  0.00000000000E+00  0.00000000000E+00  0.30184223276E+03  0.30184223280E+03  0.50400001928E-02 0.  1.
        1   -1    0    0  501    0  0.00000000000E+00  0.00000000000E+00 -0.13755093806E+04  0.13755093806E+04  0.50400001928E-02 0. -1.
    10030    2    1    2    0    0  0.00000000000E+00  0.00000000000E+00 -0.10736671478E+04  0.16773516134E+04  0.12886998450E+04 0.  0.
        5    1    3    3  502    0 -0.28509853879E+03  0.52429819084E+03 -0.22069331786E+03  0.63631548801E+03  0.46999998093E+01 0.  1.
       -5    1    3    3    0  502  0.28509853879E+03 -0.52429819084E+03 -0.85297382995E+03  0.10410361254E+04  0.46999998093E+01 0. -1.
</event>
<event>
 5   0  0.1623890E-03  0.1293728E+04  0.7818609E-02  0.9034554E-01
        2   -1    0    0  501    0  0.00000000000E+00  0.00000000000E+00  0.12626741552E+04  0.12626741552E+04  0.25500000920E-02 0. -1.
       -2   -1    0    0    0  501  0.00000000000E+00  0.00000000000E+00 -0.33138636603E+03  0.33138636604E+03  0.25500000920E-02 0.  1.
    10030    2    1    2    0    0  0.00000000000E+00  0.00000000000E+00  0.93128778913E+03  0.15940605212E+04  0.12937279463E+04 0.  0.
        3    1    3    3  502    0  0.34381997406E+03 -0.26707236985E+01 -0.20947006346E+03  0.40261274820E+03  0.10100000352E+00 0.  1.
       -3    1    3    3    0  502 -0.34381997406E+03  0.26707236985E+01  0.11407578526E+04  0.11914477730E+04  0.10100000352E+00 0. -1.
</event>
<event>
 5   0  0.1694675E-03  0.1296634E+04  0.7818609E-02  0.9032239E-01
       -2   -1    0    0    0  501  0.00000000000E+00  0.00000000000E+00  0.11013208929E+04  0.11013208929E+04  0.25500000920E-02 0.  1.
        2   -1    0    0  501    0  0.00000000000E+00  0.00000000000E+00 -0.38164604532E+03  0.38164604533E+03  0.25500000920E-02 0. -1.
    10030    2    1    2    0    0  0.00000000000E+00  0.00000000000E+00  0.71967484761E+03  0.14829669383E+04  0.12966337392E+04 0.  0.
        4    1    3    3  502    0  0.48706244223E+03 -0.38292553896E+03  0.57819638326E+03  0.84745174585E+03  0.12699999809E+01 0.  1.
       -4    1    3    3    0  502 -0.48706244223E+03  0.38292553896E+03  0.14147846435E+03  0.63551519242E+03  0.12699999809E+01 0. -1.
</event>
<event>
 5   0  0.9081324E-04  0.1296500E+04  0.7818609E-02  0.9032345E-01
        1   -1    0    0  501    0  0.00000000000E+00  0.00000000000E+00  0.44901172891E+03  0.44901172894E+03  0.50400001928E-02 0. -1.
       -1   -1    0    0    0  501  0.00000000000E+00  0.00000000000E+00 -0.93589529858E+03  0.93589529860E+03  0.50400001928E-02 0.  1.
    10030    2    1    2    0    0  0.00000000000E+00  0.00000000000E+00 -0.48688356967E+03  0.13849070275E+04  0.12964998513E+04 0.  0.
        4    1    3    3  502    0  0.27975490713E+02  0.62812761244E+03 -0.74886323033E+02  0.63319546734E+03  0.12699999809E+01 0. -1.
       -4    1    3    3    0  502 -0.27975490713E+02 -0.62812761244E+03 -0.41199724664E+03  0.75171156019E+03  0.12699999809E+01 0.  1.
</event>
<event>
 5   0  0.9110949E-04  0.1293480E+04  0.7818609E-02  0.9034752E-01
        1   -1    0    0  501    0  0.00000000000E+00  0.00000000000E+00  0.50026497387E+03  0.50026497389E+03  0.50400001928E-02 0. -1.
       -1   -1    0    0    0  501  0.00000000000E+00  0.00000000000E+00 -0.83610223234E+03  0.83610223236E+03  0.50400001928E-02 0.  1.
    10030    2    1    2    0    0  0.00000000000E+00  0.00000000000E+00 -0.33583725848E+03  0.13363672063E+04  0.12934800523E+04 0.  0.
        2    1    3    3  502    0 -0.27601637830E+03  0.17282205286E+03  0.40937470651E+03  0.52310625439E+03  0.25500000920E-02 0. -1.
       -2    1    3    3    0  502  0.27601637830E+03 -0.17282205286E+03 -0.74521196499E+03  0.81326095186E+03  0.25500000920E-02 0.  1.
</event>
<event>
 5   0  0.9110949E-04  0.1307419E+04  0.7818609E-02  0.9023703E-01
        1   -1    0    0  501    0  0.00000000000E+00  0.00000000000E+00  0.13880517992E+04  0.13880517992E+04  0.50400001928E-02 0. -1.
       -1   -1    0    0    0  501  0.00000000000E+00  0.00000000000E+00 -0.30786743333E+03  0.30786743337E+03  0.50400001928E-02 0.  1.
    10030    2    1    2    0    0  0.00000000000E+00  0.00000000000E+00  0.10801843659E+04  0.16959192326E+04  0.13074187467E+04 0.  0.
        2    1    3    3  502    0  0.64777258703E+03 -0.48292261944E+02  0.44482021006E+03  0.78727789652E+03  0.25500000920E-02 0. -1.
       -2    1    3    3    0  502 -0.64777258703E+03  0.48292261944E+02  0.63536415580E+03  0.90864133604E+03  0.25500000920E-02 0.  1.
</event>
<event>
 5   0  0.1700511E-03  0.1301110E+04  0.7818609E-02  0.9028685E-01
        2   -1    0    0  501    0  0.00000000000E+00  0.00000000000E+00  0.93371027273E+03  0.93371027273E+03  0.25500000920E-02 0.  1.
       -2   -1    0    0    0  501  0.00000000000E+00  0.00000000000E+00 -0.45326880323E+03  0.45326880324E+03  0.25500000920E-02 0. -1.
    10030    2    1    2    0    0  0.00000000000E+00  0.00000000000E+00  0.48044146950E+03  0.13869790760E+04  0.13011098922E+04 0.  0.
        2    1    3    3  502    0  0.16732801341E+02  0.52197140835E+03  0.65375003712E+03  0.83673367855E+03  0.25500000920E-02 0.  1.
       -2    1    3    3    0  502 -0.16732801341E+02 -0.52197140835E+03 -0.17330856762E+03  0.55024539743E+03  0.25500000920E-02 0. -1.
</event>
<event>
 5   0  0.9098192E-04  0.1293068E+04  0.7818609E-02  0.9035081E-01
        1   -1    0    0  501    0  0.00000000000E+00  0.00000000000E+00  0.34614096106E+03  0.34614096110E+03  0.50400001928E-02 0. -1.
       -1   -1    0    0    0  501  0.00000000000E+00  0.00000000000E+00 -0.12076177764E+04  0.12076177764E+04  0.50400001928E-02 0.  1.
    10030    2    1    2    0    0  0.00000000000E+00  0.00000000000E+00 -0.86147681529E+03  0.15537587375E+04  0.12930676359E+04 0.  0.
        1    1    3    3  502    0  0.83958558853E+02 -0.57894169493E+03 -0.76152624585E+03  0.96028368146E+03  0.50400001928E-02 0.  1.
       -1    1    3    3    0  502 -0.83958558853E+02  0.57894169493E+03 -0.99950569443E+02  0.59347505600E+03  0.50400001928E-02 0. -1.
</event>
<event>
 5   0  0.9110949E-04  0.1292915E+04  0.7818609E-02  0.9035202E-01
        1   -1    0    0  501    0  0.00000000000E+00  0.00000000000E+00  0.14712441439E+04  0.14712441439E+04  0.50400001928E-02 0.  1.
       -1   -1    0    0    0  501  0.00000000000E+00  0.00000000000E+00 -0.28405040923E+03  0.28405040927E+03  0.50400001928E-02 0. -1.
    10030    2    1    2    0    0  0.00000000000E+00  0.00000000000E+00  0.11871937347E+04  0.17552945532E+04  0.12929153123E+04 0.  0.
        2    1    3    3  502    0  0.29238942238E+02  0.56899939818E+03  0.17892673317E+03  0.59718506907E+03  0.25500000920E-02 0. -1.
       -2    1    3    3    0  502 -0.29238942238E+02 -0.56899939818E+03  0.10082670015E+04  0.11581094841E+04  0.25500000920E-02 0.  1.
</event>
<event>
 5   0  0.9215829E-04  0.1191781E+04  0.7818609E-02  0.9120081E-01
       -1   -1    0    0    0  501  0.00000000000E+00  0.00000000000E+00  0.33628710118E+03  0.33628710122E+03  0.50400001928E-02 0. -1.
        1   -1    0    0  501    0  0.00000000000E+00  0.00000000000E+00 -0.10559000557E+04  0.10559000557E+04  0.50400001928E-02 0.  1.
    10030    2    1    2    0    0  0.00000000000E+00  0.00000000000E+00 -0.71961295451E+03  0.13921871569E+04  0.11917811358E+04 0.  0.
        3    1    3    3  502    0  0.15657586134E+03 -0.19326464697E+03  0.27274616986E+03  0.36913101671E+03  0.10100000352E+00 0. -1.
       -3    1    3    3    0  502 -0.15657586134E+03  0.19326464697E+03 -0.99235912437E+03  0.10230561402E+04  0.10100000352E+00 0.  1.
</event>
<event>
 5   0  0.9081324E-04  0.1270046E+04  0.7818609E-02  0.9053662E-01
       -1   -1    0    0    0  501  0.00000000000E+00  0.00000000000E+00  0.48332604954E+03  0.48332604956E+03  0.50400001928E-02 0. -1.
        1   -1    0    0  501    0  0.00000000000E+00  0.00000000000E+00 -0.83433170944E+03  0.83433170946E+03  0.50400001928E-02 0.  1.
    10030    2    1    2    0    0  0.00000000000E+00  0.00000000000E+00 -0.35100565990E+03  0.13176577590E+04  0.12700460608E+04 0.  0.
        4    1    3    3  502    0  0.54798278582E+03  0.27922449253E+03 -0.11457658106E+02  0.61512953239E+03  0.12699999809E+01 0. -1.
       -4    1    3    3    0  502 -0.54798278582E+03 -0.27922449253E+03 -0.33954800180E+03  0.70252822663E+03  0.12699999809E+01 0.  1.
</event>
<event>
 5   0  0.1694675E-03  0.1291426E+04  0.7818609E-02  0.9036392E-01
       -2   -1    0    0    0  501  0.00000000000E+00  0.00000000000E+00  0.93272603851E+03  0.93272603851E+03  0.25500000920E-02 0. -1.
        2   -1    0    0  501    0  0.00000000000E+00  0.00000000000E+00 -0.44701773358E+03  0.44701773359E+03  0.25500000920E-02 0.  1.
    10030    2    1    2    0    0  0.00000000000E+00  0.00000000000E+00  0.48570830492E+03  0.13797437721E+04  0.12914256925E+04 0.  0.
        4    1    3    3  502    0 -0.54934499670E+03 -0.31415193841E+03  0.37997500968E+03  0.73814225369E+03  0.12699999809E+01 0.  1.
       -4    1    3    3    0  502  0.54934499670E+03  0.31415193841E+03  0.10573329524E+03  0.64160151841E+03  0.12699999809E+01 0. -1.
</event>
<event>
 5   0  0.1700511E-03  0.1298008E+04  0.7818609E-02  0.9031147E-01
        2   -1    0    0  501    0  0.00000000000E+00  0.00000000000E+00  0.84173315595E+03  0.84173315596E+03  0.25500000920E-02 0.  1.
       -2   -1    0    0    0  501  0.00000000000E+00  0.00000000000E+00 -0.50040311858E+03  0.50040311858E+03  0.25500000920E-02 0. -1.
    10030    2    1    2    0    0  0.00000000000E+00  0.00000000000E+00  0.34133003738E+03  0.13421362745E+04  0.12980075443E+04 0.  0.
        2    1    3    3  502    0  0.37567726883E+03 -0.32742886350E+03 -0.25923770946E+03  0.56173593528E+03  0.25500000920E-02 0.  1.
       -2    1    3    3    0  502 -0.37567726883E+03  0.32742886350E+03  0.60056774684E+03  0.78040033926E+03  0.25500000920E-02 0. -1.
</event>
<event>
 5   0  0.1667342E-03  0.1302002E+04  0.7818609E-02  0.9027979E-01
        2   -1    0    0  501    0  0.00000000000E+00  0.00000000000E+00  0.84396446629E+03  0.84396446629E+03  0.25500000920E-02 0. -1.
       -2   -1    0    0    0  501  0.00000000000E+00  0.00000000000E+00 -0.50215687749E+03  0.50215687750E+03  0.25500000920E-02 0.  1.
    10030    2    1    2    0    0  0.00000000000E+00  0.00000000000E+00  0.34180758879E+03  0.13461213438E+04  0.13020023980E+04 0.  0.
        5    1    3    3  502    0  0.40814234689E+03 -0.30203035150E+03  0.59211279308E+03  0.78001420389E+03  0.46999998093E+01 0. -1.
       -5    1    3    3    0  502 -0.40814234689E+03  0.30203035150E+03 -0.25030520428E+03  0.56610713990E+03  0.46999998093E+01 0.  1.
</event>
<event>
 5   0  0.1623890E-03  0.1319697E+04  0.7818609E-02  0.9014089E-01
       -2   -1    0    0    0  501  0.00000000000E+00  0.00000000000E+00  0.50040022230E+03  0.50040022231E+03  0.25500000920E-02 0.  1.
        2   -1    0    0  501    0  0.00000000000E+00  0.00000000000E+00 -0.87010386274E+03  0.87010386274E+03  0.25500000920E-02 0. -1.
    10030    2    1    2    0    0  0.00000000000E+00  0.00000000000E+00 -0.36970364043E+03  0.13705040851E+04  0.13196971870E+04 0.  0.
        3    1    3    3  502    0  0.59282210891E+02 -0.18286705570E+03  0.47067499309E+03  0.50841882333E+03  0.10100000352E+00 0.  1.
       -3    1    3    3    0  502 -0.59282210891E+02  0.18286705570E+03 -0.84037863353E+03  0.86208526172E+03  0.10100000352E+00 0. -1.
</event>
<event>
 5   0  0.1714861E-03  0.1287416E+04  0.7818609E-02  0.9039605E-01
       -2   -1    0    0    0  501  0.00000000000E+00  0.00000000000E+00  0.19965671564E+03  0.19965671565E+03  0.25500000920E-02 0. -1.
        2   -1    0    0  501    0  0.00000000000E+00  0.00000000000E+00 -0.20753606680E+04  0.20753606680E+04  0.25500000920E-02 0.  1.
    10030    2    1    2    0    0  0.00000000000E+00  0.00000000000E+00 -0.18757039524E+04  0.22750173837E+04  0.12874155425E+04 0.  0.
        1    1    3    3  502    0  0.38856616494E+03 -0.21178670022E+03 -0.11178744334E+03  0.45643587002E+03  0.50400001928E-02 0. -1.
       -1    1    3    3    0  502 -0.38856616494E+03  0.21178670022E+03 -0.17639165090E+04  0.18185815137E+04  0.50400001928E-02 0.  1.
</event>
<event>
 5   0  0.9215829E-04  0.1291638E+04  0.7818609E-02  0.9036223E-01
        1   -1    0    0  501    0  0.00000000000E+00  0.00000000000E+00  0.99300776981E+03  0.99300776983E+03  0.50400001928E-02 0.  1.
       -1   -1    0    0    0  501  0.00000000000E+00  0.00000000000E+00 -0.42001878353E+03  0.42001878356E+03  0.50400001928E-02 0. -1.
    10030    2    1    2    0    0  0.00000000000E+00  0.00000000000E+00  0.57298898628E+03  0.14130265534E+04  0.12916375893E+04 0.  0.
        3    1    3    3  502    0  0.59666293583E+03 -0.23039469338E+03  0.38430353312E+03  0.74617530749E+03  0.10100000352E+00 0. -1.
       -3    1    3    3    0  502 -0.59666293583E+03  0.23039469338E+03  0.18868545316E+03  0.66685124590E+03  0.10100000352E+00 0.  1.
</event>
<event>
 5   0  0.9215829E-04  0.1268070E+04  0.7818609E-02  0.9055276E-01
        1   -1    0    0  501    0  0.00000000000E+00  0.00000000000E+00  0.61940454795E+03  0.61940454797E+03  0.50400001928E-02 0. -1.
       -1   -1    0    0    0  501  0.00000000000E+00  0.00000000000E+00 -0.64901131270E+03  0.64901131272E+03  0.50400001928E-02 0.  1.
    10030    2    1    2    0    0  0.00000000000E+00  0.00000000000E+00 -0.29606764757E+02  0.12684158607E+04  0.12680702800E+04 0.  0.
        3    1    3    3  502    0  0.20095881728E+03  0.32553909374E+03  0.49094334919E+03  0.62240302868E+03  0.10100000352E+00 0. -1.
       -3    1    3    3    0  502 -0.20095881728E+03 -0.32553909374E+03 -0.52055011394E+03  0.64601283201E+03  0.10100000352E+00 0.  1.
</event>
<event>
 5   0  0.1667342E-03  0.1232477E+04  0.7818609E-02  0.9084895E-01
        2   -1    0    0  501    0  0.00000000000E+00  0.00000000000E+00  0.81835820160E+03  0.81835820161E+03  0.25500000920E-02 0. -1.
       -2   -1    0    0    0  501  0.00000000000E+00  0.00000000000E+00 -0.46403887452E+03  0.46403887453E+03  0.25500000920E-02 0.  1.
    10030    2    1    2    0    0  0.00000000000E+00  0.00000000000E+00  0.35431932709E+03  0.12823970761E+04  0.12324772109E+04 0.  0.
        5    1    3    3  502    0 -0.45280963579E+03 -0.28407745278E+03 -0.14183806901E+03  0.55306120210E+03  0.46999998093E+01 0.  1.
       -5    1    3    3    0  502  0.45280963579E+03  0.28407745278E+03  0.49615739610E+03  0.72933587403E+03  0.46999998093E+01 0. -1.
</event>
<event>
 5   0  0.9081324E-04  0.1312681E+04  0.7818609E-02  0.9019569E-01
       -1   -1    0    0    0  501  0.00000000000E+00  0.00000000000E+00  0.48839507588E+03  0.48839507591E+03  0.50400001928E-02 0.  1.
        1   -1    0    0  501    0  0.00000000000E+00  0.00000000000E+00 -0.88203702171E+03  0.88203702172E+03  0.50400001928E-02 0. -1.
    10030    2    1    2    0    0  0.00000000000E+00  0.00000000000E+00 -0.39364194583E+03  0.13704320976E+04  0.13126805219E+04 0.  0.
        4    1    3    3  502    0 -0.32583710000E+03  0.45988394896E+03 -0.54794785240E+03  0.78607348518E+03  0.12699999809E+01 0. -1.
       -4    1    3    3    0  502  0.32583710000E+03 -0.45988394896E+03  0.15430590658E+03  0.58435861245E+03  0.12699999809E+01 0.  1.
</event>
<event>
 5   0  0.1714861E-03  0.1316031E+04  0.7818609E-02  0.9016948E-01
       -2   -1    0    0    0  501  0.00000000000E+00  0.00000000000E+00  0.31039111436E+03  0.31039111437E+03  0.25500000920E-02 0.  1.
        2   -1    0    0  501    0  0.00000000000E+00  0.00000000000E+00 -0.13949641237E+04  0.13949641237E+04  0.25500000920E-02 0. -1.
    10030    2    1    2    0    0  0.00000000000E+00  0.00000000000E+00 -0.10845730093E+04  0.17053552381E+04  0.13160311073E+04 0.  0.
        1    1    3    3  502    0  0.45518243042E+03  0.33121009390E+03 -0.10076457593E+03  0.57187819599E+03  0.50400001928E-02 0.  1.
       -1    1    3    3    0  502 -0.45518243042E+03 -0.33121009390E+03 -0.98380843339E+03  0.11334770421E+04  0.50400001928E-02 0. -1.
</event>
<event>
 5   0  0.1623890E-03  0.1299139E+04  0.7818609E-02  0.9030248E-01
       -2   -1    0    0    0  501  0.00000000000E+00  0.00000000000E+00  0.35099309904E+03  0.35099309905E+03  0.25500000920E-02 0. -1.
        2   -1    0    0  501    0  0.00000000000E+00  0.00000000000E+00 -0.12021329257E+04  0.12021329257E+04  0.25500000920E-02 0.  1.
    10030    2    1    2    0    0  0.00000000000E+00  0.00000000000E+00 -0.85113982664E+03  0.15531260247E+04  0.12991387317E+04 0.  0.
        3    1    3    3  502    0 -0.39543759185E+03  0.95620492387E+01  0.19040845143E+03  0.43899625330E+03  0.10100000352E+00 0. -1.
       -3    1    3    3    0  502  0.39543759185E+03 -0.95620492387E+01 -0.10415482781E+04  0.11141297714E+04  0.10100000352E+00 0.  1.
</event>
<event>
 5   0  0.9098192E-04  0.1309769E+04  0.7818609E-02  0.9021854E-01
        1   -1    0    0  501    0  0.00000000000E+00  0.00000000000E+00  0.54162252568E+03  0.54162252570E+03  0.50400001928E-02 0. -1.
       -1   -1    0    0    0  501  0.00000000000E+00  0.00000000000E+00 -0.79183149121E+03  0.79183149123E+03  0.50400001928E-02 0.  1.
    10030    2    1    2    0    0  0.00000000000E+00  0.00000000000E+00 -0.25020896553E+03  0.13334540169E+04  0.13097690975E+04 0.  0.
        1    1    3    3  502    0 -0.43358773243E+03 -0.15744199945E+03  0.34815365891E+03  0.57792497363E+03  0.50400001928E-02 0. -1.
       -1    1    3    3    0  502  0.43358773243E+03  0.15744199945E+03 -0.59836262444E+03  0.75552904330E+03  0.50400001928E-02 0.  1.
</event>
<event>
 5   0  0.1623890E-03  0.1309105E+04  0.7818609E-02  0.9022376E-01
        2   -1    0    0  501    0  0.00000000000E+00  0.00000000000E+00  0.43871518469E+03  0.43871518470E+03  0.25500000920E-02 0. -1.
       -2   -1    0    0    0  501  0.00000000000E+00  0.00000000000E+00 -0.97657618108E+03  0.97657618109E+03  0.25500000920E-02 0.  1.
    10030    2    1    2    0    0  0.00000000000E+00  0.00000000000E+00 -0.53786099639E+03  0.14152913658E+04  0.13091047317E+04 0.  0.
        3    1    3    3  502    0 -0.19420137999E+03 -0.39625175617E+03  0.25371754783E+03  0.50902085864E+03  0.10100000352E+00 0. -1.
       -3    1    3    3    0  502  0.19420137999E+03  0.39625175617E+03 -0.79157854422E+03  0.90627050715E+03  0.10100000352E+00 0.  1.
</event>
<event>
 5   0  0.1714861E-03  0.1300715E+04  0.7818609E-02  0.9028999E-01
       -2   -1    0    0    0  501  0.00000000000E+00  0.00000000000E+00  0.92221464026E+03  0.92221464026E+03  0.25500000920E-02 0. -1.
        2   -1    0    0  501    0  0.00000000000E+00  0.00000000000E+00 -0.45864012912E+03  0.45864012913E+03  0.25500000920E-02 0.  1.
    10030    2    1    2    0    0  0.00000000000E+00  0.00000000000E+00  0.46357451114E+03  0.13808547694E+04  0.13007146369E+04 0.  0.
        1    1    3    3  502    0  0.51914307631E+03  0.35349904643E+03  0.52586794990E+02  0.63026699147E+03  0.50400001928E-02 0. -1.
       -1    1    3    3    0  502 -0.51914307631E+03 -0.35349904643E+03  0.41098771615E+03  0.75058777792E+03  0.50400001928E-02 0.  1.
</event>
<event>
 5   0  0.9110949E-04  0.1297444E+04  0.7818609E-02  0.9031594E-01
       -1   -1    0    0    0  501  0.00000000000E+00  0.00000000000E+00  0.41928207312E+03  0.41928207315E+03  0.50400001928E-02 0.  1.
        1   -1    0    0  501    0  0.00000000000E+00  0.00000000000E+00 -0.10037163580E+04  0.10037163580E+04  0.50400001928E-02 0. -1.
    10030    2    1    2    0    0  0.00000000000E+00  0.00000000000E+00 -0.58443428490E+03  0.14229984312E+04  0.12974440650E+04 0.  0.
        2    1    3    3  502    0  0.60687229471E+01  0.14092180287E+03 -0.98669419997E+03  0.99672525211E+03  0.25500000920E-02 0. -1.
       -2    1    3    3    0  502 -0.60687229471E+01 -0.14092180287E+03  0.40225991507E+03  0.42627317908E+03  0.25500000920E-02 0.  1.
</event>
<event>
 5   0  0.1694675E-03  0.1276213E+04  0.7818609E-02  0.9048644E-01
       -2   -1    0    0    0  501  0.00000000000E+00  0.00000000000E+00  0.24960835614E+03  0.24960835616E+03  0.25500000920E-02 0. -1.
        2   -1    0    0  501    0  0.00000000000E+00  0.00000000000E+00 -0.16312744977E+04  0.16312744977E+04  0.25500000920E-02 0.  1.
    10030    2    1    2    0    0  0.00000000000E+00  0.00000000000E+00 -0.13816661415E+04  0.18808828539E+04  0.12762127500E+04 0.  0.
        4    1    3    3  502    0  0.16279407602E+03  0.56676200639E+03 -0.33146428977E+03  0.67645492929E+03  0.12699999809E+01 0. -1.
       -4    1    3    3    0  502 -0.16279407602E+03 -0.56676200639E+03 -0.10502018518E+04  0.12044279246E+04  0.12699999809E+01 0.  1.
</event>
<event>
 5   0  0.1700511E-03  0.1302960E+04  0.7818609E-02  0.9027221E-01
        2   -1    0    0  501    0  0.00000000000E+00  0.00000000000E+00  0.66974012879E+03  0.66974012880E+03  0.25500000920E-02 0.  1.
       -2   -1    0    0    0  501  0.00000000000E+00  0.00000000000E+00 -0.63371772958E+03  0.63371772958E+03  0.25500000920E-02 0. -1.
    10030    2    1    2    0    0  0.00000000000E+00  0.00000000000E+00  0.36022399216E+02  0.13034578584E+04  0.13029600053E+04 0.  0.
        2    1    3    3  502    0  0.10521395830E+03  0.52776855212E+03 -0.34930285820E+03  0.64157782722E+03  0.25500000920E-02 0. -1.
       -2    1    3    3    0  502 -0.10521395830E+03 -0.52776855212E+03  0.38532525742E+03  0.66188003116E+03  0.25500000920E-02 0.  1.
</event>
<event>
 5   0  0.9215829E-04  0.1221882E+04  0.7818609E-02  0.9093916E-01
        1   -1    0    0  501    0  0.00000000000E+00  0.00000000000E+00  0.67754658111E+03  0.67754658113E+03  0.50400001928E-02 0. -1.
       -1   -1    0    0    0  501  0.00000000000E+00  0.00000000000E+00 -0.55088264449E+03  0.55088264451E+03  0.50400001928E-02 0.  1.
    10030    2    1    2    0    0  0.00000000000E+00  0.00000000000E+00  0.12666393662E+03  0.12284292256E+04  0.12218815857E+04 0.  0.
        3    1    3    3  502    0 -0.69010611743E+02 -0.34381183414E+03 -0.43962837848E+03  0.56235412614E+03  0.10100000352E+00 0.  1.
       -3    1    3    3    0  502  0.69010611743E+02  0.34381183414E+03  0.56629231510E+03  0.66607509950E+03  0.10100000352E+00 0. -1.
</event>
<event>
 5   0  0.9081324E-04  0.1306682E+04  0.7818609E-02  0.9024283E-01
       -1   -1    0    0    0  501  0.00000000000E+00  0.00000000000E+00  0.92434316095E+03  0.92434316097E+03  0.50400001928E-02 0. -1.
        1   -1    0    0  501    0  0.00000000000E+00  0.00000000000E+00 -0.46179234093E+03  0.46179234095E+03  0.50400001928E-02 0.  1.
    10030    2    1    2    0    0  0.00000000000E+00  0.00000000000E+00  0.46255082003E+03  0.13861355019E+04  0.13066821988E+04 0.  0.
        4    1    3    3  502    0 -0.43005896496E+03 -0.39477320472E+03  0.54246657310E+03  0.79691165906E+03  0.12699999809E+01 0. -1.
       -4    1    3    3    0  502  0.43005896496E+03  0.39477320472E+03 -0.79915753075E+02  0.58922384286E+03  0.12699999809E+01 0.  1.
</event>
<event>
 5   0  0.9027076E-04  0.1293963E+04  0.7818609E-02  0.9034366E-01
       -1   -1    0    0    0  501  0.00000000000E+00  0.00000000000E+00  0.39224720989E+03  0.39224720993E+03  0.50400001928E-02 0. -1.
        1   -1    0    0  501    0  0.00000000000E+00  0.00000000000E+00 -0.10671462953E+04  0.10671462953E+04  0.50400001928E-02 0.  1.
    10030    2    1    2    0    0  0.00000000000E+00  0.00000000000E+00 -0.67489908544E+03  0.14593935053E+04  0.12939631477E+04 0.  0.
        5    1    3    3  502    0 -0.40743915292E+03 -0.39952204176E+03  0.63841475000E+01  0.57069025971E+03  0.46999998093E+01 0. -1.
       -5    1    3    3    0  502  0.40743915292E+03  0.39952204176E+03 -0.68128323294E+03  0.88870324556E+03  0.46999998093E+01 0.  1.
</event>
<event>
 5   0  0.9081324E-04  0.1298272E+04  0.7818609E-02  0.9030937E-01
       -1   -1    0    0    0  501  0.00000000000E+00  0.00000000000E+00  0.31282970479E+03  0.31282970483E+03  0.50400001928E-02 0. -1.
        1   -1    0    0  501    0  0.00000000000E+00  0.00000000000E+00 -0.13469867051E+04  0.13469867051E+04  0.50400001928E-02 0.  1.
    10030    2    1    2    0    0  0.00000000000E+00  0.00000000000E+00 -0.10341570003E+04  0.16598164100E+04  0.12982718565E+04 0.  0.
        4    1    3    3  502    0 -0.42177436089E+03  0.74754094258E+02 -0.11406499247E+04  0.12184275316E+04  0.12699999809E+01 0.  1.
       -4    1    3    3    0  502  0.42177436089E+03 -0.74754094258E+02  0.10649292437E+03  0.44138887838E+03  0.12699999809E+01 0. -1.
</event>
<event>
 5   0  0.9098192E-04  0.1262798E+04  0.7818609E-02  0.9059598E-01
        1   -1    0    0  501    0  0.00000000000E+00  0.00000000000E+00  0.15821921809E+04  0.15821921809E+04  0.50400001928E-02 0.  1.
       -1   -1    0    0    0  501  0.00000000000E+00  0.00000000000E+00 -0.25196976964E+03  0.25196976969E+03  0.50400001928E-02 0. -1.
    10030    2    1    2    0    0  0.00000000000E+00  0.00000000000E+00  0.13302224112E+04  0.18341619506E+04  0.12627978451E+04 0.  0.
        1    1    3    3  502    0 -0.17623836368E+03 -0.56874574692E+03  0.97024137432E+03  0.11383760407E+04  0.50400001928E-02 0.  1.
       -1    1    3    3    0  502  0.17623836368E+03  0.56874574692E+03  0.35998103691E+03  0.69578590991E+03  0.50400001928E-02 0. -1.
</event>
<event>
 5   0  0.1667342E-03  0.1316345E+04  0.7818609E-02  0.9016703E-01
       -2   -1    0    0    0  501  0.00000000000E+00  0.00000000000E+00  0.26605301403E+03  0.26605301404E+03  0.25500000920E-02 0.  1.
        2   -1    0    0  501    0  0.00000000000E+00  0.00000000000E+00 -0.16282144033E+04  0.16282144033E+04  0.25500000920E-02 0. -1.
    10030    2    1    2    0    0  0.00000000000E+00  0.00000000000E+00 -0.13621613892E+04  0.18942674173E+04  0.13163454706E+04 0.  0.
        5    1    3    3  502    0 -0.32058780222E+02  0.61374685509E+03 -0.34220000711E+03  0.70344573521E+03  0.46999998093E+01 0. -1.
       -5    1    3    3    0  502  0.32058780222E+02 -0.61374685509E+03 -0.10199613821E+04  0.11908216821E+04  0.46999998093E+01 0.  1.
</event>
<event>
 5   0  0.9081324E-04  0.1309555E+04  0.7818609E-02  0.9022022E-01
       -1   -1    0    0    0  501  0.00000000000E+00  0.00000000000E+00  0.23045627170E+03  0.23045627176E+03  0.50400001928E-02 0.  1.
        1   -1    0    0  501    0  0.00000000000E+00  0.00000000000E+00 -0.18603671271E+04  0.18603671271E+04  0.50400001928E-02 0. -1.
    10030    2    1    2    0    0  0.00000000000E+00  0.00000000000E+00 -0.16299108554E+04  0.20908233988E+04  0.13095545383E+04 0.  0.
        4    1    3    3  502    0  0.15811962997E+03 -0.55745652768E+03 -0.32813365603E+03  0.66590758124E+03  0.12699999809E+01 0.  1.
       -4    1    3    3    0  502 -0.15811962997E+03  0.55745652768E+03 -0.13017771993E+04  0.14249158176E+04  0.12699999809E+01 0. -1.
</event>
<event>
 5   0  0.6284125E-04  0.1291631E+04  0.7818609E-02  0.9036228E-01
       -4   -1    0    0    0  501  0.00000000000E+00  0.00000000000E+00  0.61173964116E+03  0.61174095945E+03  0.12699999809E+01 0.  1.
        4   -1    0    0  501    0  0.00000000000E+00  0.00000000000E+00 -0.68178714240E+03  0.68178832525E+03  0.12699999809E+01 0. -1.
    10030    2    1    2    0    0  0.00000000000E+00  0.00000000000E+00 -0.70047501241E+02  0.12935292847E+04  0.12916312779E+04 0.  0.
        1    1    3    3  502    0 -0.21735761743E+03  0.18372322892E+03  0.54555158461E+03  0.61532519061E+03  0.50400001928E-02 0.  1.
       -1    1    3    3    0  502  0.21735761743E+03 -0.18372322892E+03 -0.61559908586E+03  0.67820409409E+03  0.50400001928E-02 0. -1.
</event>
<event>
 5   0  0.1623890E-03  0.1298450E+04  0.7818609E-02  0.9030795E-01
       -2   -1    0    0    0  501  0.00000000000E+00  0.00000000000E+00  0.86842896215E+03  0.86842896216E+03  0.25500000920E-02 0.  1.
        2   -1    0    0  501    0  0.00000000000E+00  0.00000000000E+00 -0.48535124792E+03  0.48535124793E+03  0.25500000920E-02 0. -1.
    10030    2    1    2    0    0  0.00000000000E+00  0.00000000000E+00  0.38307771423E+03  0.13537802101E+04  0.12984499690E+04 0.  0.
        3    1    3    3  502    0  0.58491660187E+03 -0.22326967312E+02  0.48433881004E+03  0.75974338939E+03  0.10100000352E+00 0.  1.
       -3    1    3    3    0  502 -0.58491660187E+03  0.22326967312E+02 -0.10126109581E+03  0.59403682069E+03  0.10100000352E+00 0. -1.
</event>
<event>
 5   0  0.1623890E-03  0.1314293E+04  0.7818609E-02  0.9018307E-01
        2   -1    0    0  501    0  0.00000000000E+00  0.00000000000E+00  0.91328674382E+03  0.91328674382E+03  0.25500000920E-02 0. -1.
       -2   -1    0    0    0  501  0.00000000000E+00  0.00000000000E+00 -0.47284352906E+03  0.47284352907E+03  0.25500000920E-02 0.  1.
    10030    2    1    2    0    0  0.00000000000E+00  0.00000000000E+00  0.44044321476E+03  0.13861302729E+04  0.13142933113E+04 0.  0.
        3    1    3    3  502    0 -0.18537045756E+03  0.38049613145E+03 -0.30994975581E+03  0.52460306319E+03  0.10100000352E+00 0.  1.
       -3    1    3    3    0  502  0.18537045756E+03 -0.38049613145E+03  0.75039297056E+03  0.86152720970E+03  0.10100000352E+00 0. -1.
</event>
<event>
 5   0  0.9027076E-04  0.1304610E+04  0.7818609E-02  0.9025917E-01
       -1   -1    0    0    0  501  0.00000000000E+00  0.00000000000E+00  0.36244518008E+03  0.36244518011E+03  0.50400001928E-02 0.  1.
        1   -1    0    0  501    0  0.00000000000E+00  0.00000000000E+00 -0.11739759597E+04  0.11739759597E+04  0.50400001928E-02 0. -1.
    10030    2    1    2    0    0  0.00000000000E+00  0.00000000000E+00 -0.81153077964E+03  0.15364211398E+04  0.13046101765E+04 0.  0.
        5    1    3    3  502    0 -0.10157607405E+03  0.12565821369E+03 -0.11500146332E+04  0.11613196941E+04  0.46999998093E+01 0. -1.
       -5    1    3    3    0  502  0.10157607405E+03 -0.12565821369E+03  0.33848385352E+03  0.37510144572E+03  0.46999998093E+01 0.  1.
</event>
<event>
 5   0  0.1667342E-03  0.1299708E+04  0.7818609E-02  0.9029797E-01
        2   -1    0    0  501    0  0.00000000000E+00  0.00000000000E+00  0.64373781070E+03  0.64373781070E+03  0.25500000920E-02 0. -1.
       -2   -1    0    0    0  501  0.00000000000E+00  0.00000000000E+00 -0.65602806620E+03  0.65602806621E+03  0.25500000920E-02 0.  1.
    10030    2    1    2    0    0  0.00000000000E+00  0.00000000000E+00 -0.12290255502E+02  0.12997658769E+04  0.12997077688E+04 0.  0.
        5    1    3    3  502    0 -0.44539157756E+02  0.41867374437E+03 -0.50115871289E+03  0.65456366100E+03  0.46999998093E+01 0.  1.
       -5    1    3    3    0  502  0.44539157756E+02 -0.41867374437E+03  0.48886845739E+03  0.64520221591E+03  0.46999998093E+01 0. -1.
</event>
<event>
 5   0  0.1623890E-03  0.1302522E+04  0.7818609E-02  0.9027567E-01
        2   -1    0    0  501    0  0.00000000000E+00  0.00000000000E+00  0.52938714489E+03  0.52938714490E+03  0.25500000920E-02 0. -1.
       -2   -1    0    0    0  501  0.00000000000E+00  0.00000000000E+00 -0.80119274955E+03  0.80119274955E+03  0.25500000920E-02 0.  1.
    10030    2    1    2    0    0  0.00000000000E+00  0.00000000000E+00 -0.27180560466E+03  0.13305798944E+04  0.13025223871E+04 0.  0.
        3    1    3    3  502    0 -0.45106519950E+03 -0.15326652645E+03 -0.58952987267E+03  0.75795509319E+03  0.10100000352E+00 0.  1.
       -3    1    3    3    0  502  0.45106519950E+03  0.15326652645E+03  0.31772426801E+03  0.57262480125E+03  0.10100000352E+00 0. -1.
</event>
<event>
 5   0  0.9215829E-04  0.1300489E+04  0.7818609E-02  0.9029178E-01
       -1   -1    0    0    0  501  0.00000000000E+00  0.00000000000E+00  0.40484202875E+03  0.40484202878E+03  0.50400001928E-02 0. -1.
        1   -1    0    0  501    0  0.00000000000E+00  0.00000000000E+00 -0.10444019657E+04  0.10444019657E+04  0.50400001928E-02 0.  1.
    10030    2    1    2    0    0  0.00000000000E+00  0.00000000000E+00 -0.63955993699E+03  0.14492439945E+04  0.13004888476E+04 0.  0.
        3    1    3    3  502    0  0.14014108162E+03  0.61891800160E+03 -0.47784498171E+03  0.79437702145E+03  0.10100000352E+00 0. -1.
       -3    1    3    3    0  502 -0.14014108162E+03 -0.61891800160E+03 -0.16171495527E+03  0.65486697308E+03  0.10100000352E+00 0.  1.
</event>
<event>
 5   0  0.9215829E-04  0.1310410E+04  0.7818609E-02  0.9021350E-01
       -1   -1    0    0    0  501  0.00000000000E+00  0.00000000000E+00  0.99984253364E+03  0.99984253365E+03  0.50400001928E-02 0.  1.
        1   -1    0    0  501    0  0.00000000000E+00  0.00000000000E+00 -0.42936140847E+03  0.42936140850E+03  0.50400001928E-02 0. -1.
    10030    2    1    2    0    0  0.00000000000E+00  0.00000000000E+00  0.57048112517E+03  0.14292039421E+04  0.13104103152E+04 0.  0.
        3    1    3    3  502    0 -0.35360987262E+03  0.28577621441E+03  0.79980009883E+03  0.91999358423E+03  0.10100000352E+00 0.  1.
       -3    1    3    3    0  502  0.35360987262E+03 -0.28577621441E+03 -0.22931897366E+03  0.50921035792E+03  0.10100000352E+00 0. -1.
</event>
<event>
 5   0  0.9081324E-04  0.1295059E+04  0.7818609E-02  0.9033493E-01
       -1   -1    0    0    0  501  0.00000000000E+00  0.00000000000E+00  0.16005851915E+04  0.16005851915E+04  0.50400001928E-02 0. -1.
        1   -1    0    0  501    0  0.00000000000E+00  0.00000000000E+00 -0.26196324153E+03  0.26196324158E+03  0.50400001928E-02 0.  1.
    10030    2    1    2    0    0  0.00000000000E+00  0.00000000000E+00  0.13386219500E+04  0.18625484331E+04  0.12950590491E+04 0.  0.
        4    1    3    3  502    0  0.31310354849E+03 -0.11105797096E+03  0.14686750922E+04  0.15057808089E+04  0.12699999809E+01 0. -1.
       -4    1    3    3    0  502 -0.31310354849E+03  0.11105797096E+03 -0.13005314223E+03  0.35676762422E+03  0.12699999809E+01 0.  1.
</event>
<event>
 5   0  0.1623890E-03  0.1310223E+04  0.7818609E-02  0.9021498E-01
        2   -1    0    0  501    0  0.00000000000E+00  0.00000000000E+00  0.20358072532E+04  0.20358072532E+04  0.25500000920E-02 0.  1.
       -2   -1    0    0    0  501  0.00000000000E+00  0.00000000000E+00 -0.21081110077E+03  0.21081110078E+03  0.25500000920E-02 0. -1.
    10030    2    1    2    0    0  0.00000000000E+00  0.00000000000E+00  0.18249961525E+04  0.22466183540E+04  0.13102225277E+04 0.  0.
        3    1    3    3  502    0  0.19300819302E+03 -0.76232002162E+02 -0.15296458287E+03  0.25780157979E+03  0.10100000352E+00 0. -1.
       -3    1    3    3    0  502 -0.19300819302E+03  0.76232002162E+02  0.19779607353E+04  0.19888167742E+04  0.10100000352E+00 0.  1.
</event>
<event>
 5   0  0.6284125E-04  0.1312714E+04  0.7818609E-02  0.9019543E-01
       -4   -1    0    0    0  501  0.00000000000E+00  0.00000000000E+00  0.78423027816E+03  0.78423130650E+03  0.12699999809E+01 0. -1.
        4   -1    0    0  501    0  0.00000000000E+00  0.00000000000E+00 -0.54933198614E+03  0.54933345420E+03  0.12699999809E+01 0.  1.
    10030    2    1    2    0    0  0.00000000000E+00  0.00000000000E+00  0.23489829202E+03  0.13335647607E+04  0.13127138924E+04 0.  0.
        4    1    3    3  502    0 -0.45867930262E+03  0.25693151148E+03  0.51663114201E+03  0.73709555285E+03  0.12699999809E+01 0. -1.
       -4    1    3    3    0  502  0.45867930262E+03 -0.25693151148E+03 -0.28173284999E+03  0.59646920784E+03  0.12699999809E+01 0.  1.
</event>
<event>
 5   0  0.1700511E-03  0.1296226E+04  0.7818609E-02  0.9032563E-01
        2   -1    0    0  501    0  0.00000000000E+00  0.00000000000E+00  0.11151178634E+04  0.11151178634E+04  0.25500000920E-02 0.  1.
       -2   -1    0    0    0  501  0.00000000000E+00  0.00000000000E+00 -0.37668715902E+03  0.37668715903E+03  0.25500000920E-02 0. -1.
    10030    2    1    2    0    0  0.00000000000E+00  0.00000000000E+00  0.73843070434E+03  0.14918050224E+04  0.12962261839E+04 0.  0.
        2    1    3    3  502    0 -0.28246939864E+03  0.51267994879E+03  0.68944412534E+03  0.90441301020E+03  0.25500000920E-02 0.  1.
       -2    1    3    3    0  502  0.28246939864E+03 -0.51267994879E+03  0.48986579006E+02  0.58739201219E+03  0.25500000920E-02 0. -1.
</event>
<event>
 5   0  0.1623890E-03  0.1296867E+04  0.7818609E-02  0.9032053E-01
        2   -1    0    0  501    0  0.00000000000E+00  0.00000000000E+00  0.54986188353E+03  0.54986188354E+03  0.25500000920E-02 0. -1.
       -2   -1    0    0    0  501  0.00000000000E+00  0.00000000000E+00 -0.76467609616E+03  0.76467609617E+03  0.25500000920E-02 0.  1.
    10030    2    1    2    0    0  0.00000000000E+00  0.00000000000E+00 -0.21481421263E+03  0.13145379797E+04  0.12968673618E+04 0.  0.
        3    1    3    3  502    0  0.10578671191E+03  0.48316568436E+02  0.53920413904E+03  0.55160351065E+03  0.10100000352E+00 0. -1.
       -3    1    3    3    0  502 -0.10578671191E+03 -0.48316568436E+02 -0.75401835168E+03  0.76293446905E+03  0.10100000352E+00 0.  1.
</event>
<event>
 5   0  0.9110949E-04  0.1305756E+04  0.7818609E-02  0.9025013E-01
        1   -1    0    0  501    0  0.00000000000E+00  0.00000000000E+00  0.31154169312E+03  0.31154169316E+03  0.50400001928E-02 0.  1.
       -1   -1    0    0    0  501  0.00000000000E+00  0.00000000000E+00 -0.13681947646E+04  0.13681947646E+04  0.50400001928E-02 0. -1.
    10030    2    1    2    0    0  0.00000000000E+00  0.00000000000E+00 -0.10566530715E+04  0.16797364577E+04  0.13057560469E+04 0.  0.
        2    1    3    3  502    0 -0.51511287179E+03 -0.11459265172E+03 -0.10228449604E+04  0.11509494166E+04  0.25500000920E-02 0. -1.
       -2    1    3    3    0  502  0.51511287179E+03  0.11459265172E+03 -0.33808111058E+02  0.52878704116E+03  0.25500000920E-02 0.  1.
</event>
<event>
 5   0  0.9098192E-04  0.1303544E+04  0.7818609E-02  0.9026759E-01
        1   -1    0    0  501    0  0.00000000000E+00  0.00000000000E+00  0.17869690465E+04  0.17869690465E+04  0.50400001928E-02 0.  1.
       -1   -1    0    0    0  501  0.00000000000E+00  0.00000000000E+00 -0.23772486038E+03  0.23772486043E+03  0.50400001928E-02 0. -1.
    10030    2    1    2    0    0  0.00000000000E+00  0.00000000000E+00  0.15492441861E+04  0.20246939070E+04  0.13035443485E+04 0.  0.
        1    1    3    3  502    0 -0.49096218577E+03 -0.42858170854E+03  0.78858541000E+03  0.10230313278E+04  0.50400001928E-02 0. -1.
       -1    1    3    3    0  502  0.49096218577E+03  0.42858170854E+03  0.76065877614E+03  0.10016625792E+04  0.50400001928E-02 0.  1.
</event>
<event>
 5   0  0.1623890E-03  0.1294183E+04  0.7818609E-02  0.9034191E-01
       -2   -1    0    0    0  501  0.00000000000E+00  0.00000000000E+00  0.45617783325E+03  0.45617783325E+03  0.25500000920E-02 0.  1.
        2   -1    0    0  501    0  0.00000000000E+00  0.00000000000E+00 -0.91790345280E+03  0.91790345280E+03  0.25500000920E-02 0. -1.
    10030    2    1    2    0    0  0.00000000000E+00  0.00000000000E+00 -0.46172561955E+03  0.13740812861E+04  0.12941826892E+04 0.  0.
        3    1    3    3  502    0  0.22841752181E+03  0.52604837748E+03  0.87349690697E+02  0.58011329788E+03  0.10100000352E+00 0.  1.
       -3    1    3    3    0  502 -0.22841752181E+03 -0.52604837748E+03 -0.54907531025E+03  0.79396798817E+03  0.10100000352E+00 0. -1.
</event>
<event>
 5   0  0.1667342E-03  0.1289441E+04  0.7818609E-02  0.9037981E-01
        2   -1    0    0  501    0  0.00000000000E+00  0.00000000000E+00  0.21012350190E+04  0.21012350190E+04  0.25500000920E-02 0. -1.
       -2   -1    0    0    0  501  0.00000000000E+00  0.00000000000E+00 -0.19781901736E+03  0.19781901737E+03  0.25500000920E-02 0.  1.
    10030    2    1    2    0    0  0.00000000000E+00  0.00000000000E+00  0.19034160017E+04  0.22990540364E+04  0.12894405713E+04 0.  0.
        5    1    3    3  502    0 -0.59727372476E+03 -0.11960848605E+03  0.13282518792E+04  0.14612724718E+04  0.46999998093E+01 0. -1.
       -5    1    3    3    0  502  0.59727372476E+03  0.11960848605E+03  0.57516412249E+03  0.83778156462E+03  0.46999998093E+01 0.  1.
</event>
<event>
 5   0  0.9215829E-04  0.1352705E+04  0.7818609E-02  0.8988783E-01
       -1   -1    0    0    0  501  0.00000000000E+00  0.00000000000E+00  0.25722693081E+03  0.25722693086E+03  0.50400001928E-02 0.  1.
        1   -1    0    0  501    0  0.00000000000E+00  0.00000000000E+00 -0.17784011349E+04  0.17784011349E+04  0.50400001928E-02 0. -1.
    10030    2    1    2    0    0  0.00000000000E+00  0.00000000000E+00 -0.15211742041E+04  0.20356280658E+04  0.13527049431E+04 0.  0.
        3    1    3    3  502    0 -0.20985599876E+03  0.58530836834E+03 -0.11610806089E+04  0.13170928657E+04  0.10100000352E+00 0. -1.
       -3    1    3    3    0  502  0.20985599876E+03 -0.58530836834E+03 -0.36009359520E+03  0.71853520009E+03  0.10100000352E+00 0.  1.
</event>
<event>
 5   0  0.9110949E-04  0.1293261E+04  0.7818609E-02  0.9034926E-01
       -1   -1    0    0    0  501  0.00000000000E+00  0.00000000000E+00  0.22488068132E+03  0.22488068138E+03  0.50400001928E-02 0.  1.
        1   -1    0    0  501    0  0.00000000000E+00  0.00000000000E+00 -0.18593471925E+04  0.18593471925E+04  0.50400001928E-02 0. -1.
    10030    2    1    2    0    0  0.00000000000E+00  0.00000000000E+00 -0.16344665112E+04  0.20842278739E+04  0.12932614021E+04 0.  0.
        2    1    3    3  502    0 -0.37939157137E+03  0.10956150909E+03 -0.16424472670E+04  0.16892527086E+04  0.25500000920E-02 0. -1.
       -2    1    3    3    0  502  0.37939157137E+03 -0.10956150909E+03  0.79807558289E+01  0.39497516526E+03  0.25500000920E-02 0.  1.
</event>
<event>
 5   0  0.9110949E-04  0.1249642E+04  0.7818609E-02  0.9070482E-01
       -1   -1    0    0    0  501  0.00000000000E+00  0.00000000000E+00  0.41381267925E+03  0.41381267928E+03  0.50400001928E-02 0.  1.
        1   -1    0    0  501    0  0.00000000000E+00  0.00000000000E+00 -0.94342453926E+03  0.94342453928E+03  0.50400001928E-02 0. -1.
    10030    2    1    2    0    0  0.00000000000E+00  0.00000000000E+00 -0.52961186001E+03  0.13572372186E+04  0.12496416067E+04 0.  0.
        2    1    3    3  502    0  0.37142847836E+03  0.39618966320E+03  0.70789970502E+02  0.54766466354E+03  0.25500000920E-02 0.  1.
       -2    1    3    3    0  502 -0.37142847836E+03 -0.39618966320E+03 -0.60040183051E+03  0.80957255502E+03  0.25500000920E-02 0. -1.
</event>
<event>
 5   0  0.1694675E-03  0.1295492E+04  0.7818609E-02  0.9033148E-01
        2   -1    0    0  501    0  0.00000000000E+00  0.00000000000E+00  0.52407362967E+03  0.52407362967E+03  0.25500000920E-02 0. -1.
       -2   -1    0    0    0  501  0.00000000000E+00  0.00000000000E+00 -0.80060243682E+03  0.80060243683E+03  0.25500000920E-02 0.  1.
    10030    2    1    2    0    0  0.00000000000E+00  0.00000000000E+00 -0.27652880716E+03  0.13246760665E+04  0.12954916055E+04 0.  0.
        4    1    3    3  502    0 -0.21452627356E+03 -0.56999795978E+03 -0.36380957830E+03  0.70942104449E+03  0.12699999809E+01 0.  1.
       -4    1    3    3    0  502  0.21452627356E+03  0.56999795978E+03  0.87280771143E+02  0.61525502201E+03  0.12699999809E+01 0. -1.
</event>
<event>
 5   0  0.9027076E-04  0.1302136E+04  0.7818609E-02  0.9027873E-01
        1   -1    0    0  501    0  0.00000000000E+00  0.00000000000E+00  0.63582897983E+03  0.63582897985E+03  0.50400001928E-02 0.  1.
       -1   -1    0    0    0  501  0.00000000000E+00  0.00000000000E+00 -0.66667249468E+03  0.66667249470E+03  0.50400001928E-02 0. -1.
    10030    2    1    2    0    0  0.00000000000E+00  0.00000000000E+00 -0.30843514842E+02  0.13025014746E+04  0.13021362328E+04 0.  0.
        5    1    3    3  502    0 -0.22029192825E+03 -0.38505640984E+03  0.46123118936E+03  0.63996349306E+03  0.46999998093E+01 0.  1.
       -5    1    3    3    0  502  0.22029192825E+03  0.38505640984E+03 -0.49207470420E+03  0.66253798149E+03  0.46999998093E+01 0. -1.
</event>
<event>
 5   0  0.1667342E-03  0.1298525E+04  0.7818609E-02  0.9030736E-01
        2   -1    0    0  501    0  0.00000000000E+00  0.00000000000E+00  0.48133550600E+03  0.48133550601E+03  0.25500000920E-02 0.  1.
       -2   -1    0    0    0  501  0.00000000000E+00  0.00000000000E+00 -0.87577511443E+03  0.87577511443E+03  0.25500000920E-02 0. -1.
    10030    2    1    2    0    0  0.00000000000E+00  0.00000000000E+00 -0.39443960843E+03  0.13571106204E+04  0.12985247905E+04 0.  0.
        5    1    3    3  502    0  0.47874967997E+03  0.79513632246E+02  0.25351042139E+03  0.54755209573E+03  0.46999998093E+01 0.  1.
       -5    1    3    3    0  502 -0.47874967997E+03 -0.79513632246E+02 -0.64795002982E+03  0.80955852471E+03  0.46999998093E+01 0. -1.
</event>
<event>
 5   0  0.9110949E-04  0.1305755E+04  0.7818609E-02  0.9025014E-01
       -1   -1    0    0    0  501  0.00000000000E+00  0.00000000000E+00  0.27938654288E+03  0.27938654293E+03  0.50400001928E-02 0.  1.
        1   -1    0    0  501    0  0.00000000000E+00  0.00000000000E+00 -0.15256601617E+04  0.15256601617E+04  0.50400001928E-02 0. -1.
    10030    2    1    2    0    0  0.00000000000E+00  0.00000000000E+00 -0.12462736188E+04  0.18050467046E+04  0.13057548288E+04 0.  0.
        2    1    3    3  502    0  0.38195601832E+03  0.50518448377E+03 -0.84235229914E+03  0.10538781516E+04  0.25500000920E-02 0. -1.
       -2    1    3    3    0  502 -0.38195601832E+03 -0.50518448377E+03 -0.40392131968E+03  0.75116855304E+03  0.25500000920E-02 0.  1.
</event>
<event>
 5   0  0.1714861E-03  0.1297939E+04  0.7818609E-02  0.9031201E-01
        2   -1    0    0  501    0  0.00000000000E+00  0.00000000000E+00  0.75633531772E+03  0.75633531772E+03  0.25500000920E-02 0.  1.
       -2   -1    0    0    0  501  0.00000000000E+00  0.00000000000E+00 -0.55684505924E+03  0.55684505924E+03  0.25500000920E-02 0. -1.
    10030    2    1    2    0    0  0.00000000000E+00  0.00000000000E+00  0.19949025848E+03  0.13131803770E+04  0.12979392664E+04 0.  0.
        1    1    3    3  502    0 -0.25141049499E+03  0.40546902144E+03 -0.34536320521E+03  0.58897207733E+03  0.50400001928E-02 0. -1.
       -1    1    3    3    0  502  0.25141049499E+03 -0.40546902144E+03  0.54485346369E+03  0.72420829963E+03  0.50400001928E-02 0.  1.
</event>
<event>
 5   0  0.9027076E-04  0.1286358E+04  0.7818609E-02  0.9040454E-01
       -1   -1    0    0    0  501  0.00000000000E+00  0.00000000000E+00  0.79314656283E+03  0.79314656284E+03  0.50400001928E-02 0. -1.
        1   -1    0    0  501    0  0.00000000000E+00  0.00000000000E+00 -0.52156697198E+03  0.52156697200E+03  0.50400001928E-02 0.  1.
    10030    2    1    2    0    0  0.00000000000E+00  0.00000000000E+00  0.27157959085E+03  0.13147135348E+04  0.12863577281E+04 0.  0.
        5    1    3    3  502    0 -0.45271132783E+03 -0.42324480611E+03 -0.39969738883E+02  0.62105022524E+03  0.46999998093E+01 0. -1.
       -5    1    3    3    0  502  0.45271132783E+03  0.42324480611E+03  0.31154932973E+03  0.69366330961E+03  0.46999998093E+01 0.  1.
</event>
<event>
 5   0  0.9110949E-04  0.1293525E+04  0.7818609E-02  0.9034715E-01
       -1   -1    0    0    0  501  0.00000000000E+00  0.00000000000E+00  0.46578100687E+03  0.46578100690E+03  0.50400001928E-02 0.  1.
        1   -1    0    0  501    0  0.00000000000E+00  0.00000000000E+00 -0.89806563154E+03  0.89806563156E+03  0.50400001928E-02 0. -1.
    10030    2    1    2    0    0  0.00000000000E+00  0.00000000000E+00 -0.43228462467E+03  0.13638466385E+04  0.12935252825E+04 0.  0.
        2    1    3    3  502    0 -0.63485817226E+03  0.11104923204E+03 -0.27316658241E+03  0.69999772326E+03  0.25500000920E-02 0. -1.
       -2    1    3    3    0  502  0.63485817226E+03 -0.11104923204E+03 -0.15911804226E+03  0.66384891519E+03  0.25500000920E-02 0.  1.
</event>
<event>
 5   0  0.1700511E-03  0.1405613E+04  0.7818609E-02  0.8949765E-01
       -2   -1    0    0    0  501  0.00000000000E+00  0.00000000000E+00  0.42589373836E+03  0.42589373837E+03  0.25500000920E-02 0.  1.
        2   -1    0    0  501    0  0.00000000000E+00  0.00000000000E+00 -0.11597665797E+04  0.11597665797E+04  0.25500000920E-02 0. -1.
    10030    2    1    2    0    0  0.00000000000E+00  0.00000000000E+00 -0.73387284133E+03  0.15856603181E+04  0.14056134949E+04 0.  0.
        2    1    3    3  502    0 -0.19291963471E+03  0.49686514618E+03  0.14982834646E+03  0.55366189353E+03  0.25500000920E-02 0.  1.
       -2    1    3    3    0  502  0.19291963471E+03 -0.49686514618E+03 -0.88370118779E+03  0.10319984245E+04  0.25500000920E-02 0. -1.
</event>
<event>
 5   0  0.1700511E-03  0.1194281E+04  0.7818609E-02  0.9117877E-01
       -2   -1    0    0    0  501  0.00000000000E+00  0.00000000000E+00  0.33208743033E+03  0.33208743034E+03  0.25500000920E-02 0. -1.
        2   -1    0    0  501    0  0.00000000000E+00  0.00000000000E+00 -0.10737444939E+04  0.10737444939E+04  0.25500000920E-02 0.  1.
    10030    2    1    2    0    0  0.00000000000E+00  0.00000000000E+00 -0.74165706359E+03  0.14058319243E+04  0.11942814573E+04 0.  0.
        2    1    3    3  502    0  0.16271061216E+03  0.36614910645E+03  0.15036124573E+03  0.42795842752E+03  0.25500000920E-02 0. -1.
       -2    1    3    3    0  502 -0.16271061216E+03 -0.36614910645E+03 -0.89201830933E+03  0.97787349675E+03  0.25500000920E-02 0.  1.
</event>
<event>
 5   0  0.1694675E-03  0.1317246E+04  0.7818609E-02  0.9016000E-01
        2   -1    0    0  501    0  0.00000000000E+00  0.00000000000E+00  0.11313825747E+04  0.11313825747E+04  0.25500000920E-02 0.  1.
       -2   -1    0    0    0  501  0.00000000000E+00  0.00000000000E+00 -0.38341065001E+03  0.38341065001E+03  0.25500000920E-02 0. -1.
    10030    2    1    2    0    0  0.00000000000E+00  0.00000000000E+00  0.74797192465E+03  0.15147932247E+04  0.13172458060E+04 0.  0.
        4    1    3    3  502    0  0.40386704521E+02 -0.59040348692E+03  0.41536896053E+02  0.59324049921E+03  0.12699999809E+01 0. -1.
       -4    1    3    3    0  502 -0.40386704521E+02  0.59040348692E+03  0.70643502860E+03  0.92155272546E+03  0.12699999809E+01 0.  1.
</event>
<event>
 5   0  0.1700511E-03  0.1293587E+04  0.7818609E-02  0.9034667E-01
        2   -1    0    0  501    0  0.00000000000E+00  0.00000000000E+00  0.79568391789E+03  0.79568391790E+03  0.25500000920E-02 0.  1.
       -2   -1    0    0    0  501  0.00000000000E+00  0.00000000000E+00 -0.52576354345E+03  0.52576354345E+03  0.25500000920E-02 0. -1.
    10030    2    1    2    0    0  0.00000000000E+00  0.00000000000E+00  0.26992037445E+03  0.13214474614E+04  0.12935866359E+04 0.  0.
        2    1    3    3  502    0  0.33141741556E+03 -0.98589644502E+02 -0.42342408391E+03  0.54666751886E+03  0.25500000920E-02 0. -1.
       -2    1    3    3    0  502 -0.33141741556E+03  0.98589644502E+02  0.69334445836E+03  0.77477994249E+03  0.25500000920E-02 0.  1.
</event>
<event>
 5   0  0.1700511E-03  0.1254212E+04  0.7818609E-02  0.9066685E-01
       -2   -1    0    0    0  501  0.00000000000E+00  0.00000000000E+00  0.89425802561E+03  0.89425802561E+03  0.25500000920E-02 0. -1.
        2   -1    0    0  501    0  0.00000000000E+00  0.00000000000E+00 -0.43976306502E+03  0.43976306503E+03  0.25500000920E-02 0.  1.
    10030    2    1    2    0    0  0.00000000000E+00  0.00000000000E+00  0.45449496059E+03  0.13340210906E+04  0.12542115456E+04 0.  0.
        2    1    3    3  502    0  0.41005719513E+03 -0.30725813198E+03  0.61178758128E+03  0.79802162098E+03  0.25500000920E-02 0. -1.
       -2    1    3    3    0  502 -0.41005719513E+03  0.30725813198E+03 -0.15729262069E+03  0.53599946966E+03  0.25500000920E-02 0.  1.
</event>
<event>
 5   0  0.1623890E-03  0.1328031E+04  0.7818609E-02  0.9007627E-01
       -2   -1    0    0    0  501  0.00000000000E+00  0.00000000000E+00  0.43504444897E+03  0.43504444898E+03  0.25500000920E-02 0. -1.
        2   -1    0    0  501    0  0.00000000000E+00  0.00000000000E+00 -0.10134981634E+04  0.10134981634E+04  0.25500000920E-02 0.  1.
    10030    2    1    2    0    0  0.00000000000E+00  0.00000000000E+00 -0.57845371439E+03  0.14485426123E+04  0.13280312497E+04 0.  0.
        3    1    3    3  502    0  0.16096314230E+03 -0.21214067232E+03 -0.95270429138E+03  0.98922104458E+03  0.10100000352E+00 0.  1.
       -3    1    3    3    0  502 -0.16096314230E+03  0.21214067232E+03  0.37425057699E+03  0.45932156776E+03  0.10100000352E+00 0. -1.
</event>
<event>
 5   0  0.9081324E-04  0.1301786E+04  0.7818609E-02  0.9028150E-01
        1   -1    0    0  501    0  0.00000000000E+00  0.00000000000E+00  0.56526955217E+03  0.56526955220E+03  0.50400001928E-02 0.  1.
       -1   -1    0    0    0  501  0.00000000000E+00  0.00000000000E+00 -0.74948613711E+03  0.74948613712E+03  0.50400001928E-02 0. -1.
    10030    2    1    2    0    0  0.00000000000E+00  0.00000000000E+00 -0.18421658493E+03  0.13147556893E+04  0.13017859933E+04 0.  0.
        4    1    3    3  502    0  0.50970810831E+03 -0.40477509443E+03 -0.88216661627E+02  0.65683257001E+03  0.12699999809E+01 0. -1.
       -4    1    3    3    0  502 -0.50970810831E+03  0.40477509443E+03 -0.95999923306E+02  0.65792311931E+03  0.12699999809E+01 0.  1.
</event>
<event>
 5   0  0.9098192E-04  0.1304360E+04  0.7818609E-02  0.9026114E-01
       -1   -1    0    0    0  501  0.00000000000E+00  0.00000000000E+00  0.23437561837E+03  0.23437561842E+03  0.50400001928E-02 0. -1.
        1   -1    0    0  501    0  0.00000000000E+00  0.00000000000E+00 -0.18147752092E+04  0.18147752092E+04  0.50400001928E-02 0.  1.
    10030    2    1    2    0    0  0.00000000000E+00  0.00000000000E+00 -0.15803995908E+04  0.20491508276E+04  0.13043604746E+04 0.  0.
        1    1    3    3  502    0  0.30994659423E+03 -0.13842803687E+03  0.84651170392E+02  0.34985001549E+03  0.50400001928E-02 0. -1.
       -1    1    3    3    0  502 -0.30994659423E+03  0.13842803687E+03 -0.16650507612E+04  0.16993008121E+04  0.50400001928E-02 0.  1.
</event>
<event>
 5   0  0.9215829E-04  0.1336978E+04  0.7818609E-02  0.9000744E-01
        1   -1    0    0  501    0  0.00000000000E+00  0.00000000000E+00  0.53154743581E+03  0.53154743584E+03  0.50400001928E-02 0. -1.
       -1   -1    0    0    0  501  0.00000000000E+00  0.00000000000E+00 -0.84071094139E+03  0.84071094140E+03  0.50400001928E-02 0.  1.
    10030    2    1    2    0    0  0.00000000000E+00  0.00000000000E+00 -0.30916350557E+03  0.13722583772E+04  0.13369783023E+04 0.  0.
        3    1    3    3  502    0  0.11253240539E+03 -0.46976689647E+03 -0.62887210701E+03  0.79298462562E+03  0.10100000352E+00 0.  1.
       -3    1    3    3    0  502 -0.11253240539E+03  0.46976689647E+03  0.31970860144E+03  0.57927375162E+03  0.10100000352E+00 0. -1.
</event>
<event>
 5   0  0.9110949E-04  0.1299878E+04  0.7818609E-02  0.9029662E-01
       -1   -1    0    0    0  501  0.00000000000E+00  0.00000000000E+00  0.50352034892E+03  0.50352034894E+03  0.50400001928E-02 0. -1.
        1   -1    0    0  501    0  0.00000000000E+00  0.00000000000E+00 -0.83893511547E+03  0.83893511548E+03  0.50400001928E-02 0.  1.
    10030    2    1    2    0    0  0.00000000000E+00  0.00000000000E+00 -0.33541476655E+03  0.13424554644E+04  0.12998783052E+04 0.  0.
        2    1    3    3  502    0  0.34666511791E+03 -0.26979554467E+03  0.32699675128E+03  0.54762506814E+03  0.25500000920E-02 0. -1.
       -2    1    3    3    0  502 -0.34666511791E+03  0.26979554467E+03 -0.66241151783E+03  0.79483039629E+03  0.25500000920E-02 0.  1.
</event>
<event>
 5   0  0.9098192E-04  0.1304757E+04  0.7818609E-02  0.9025801E-01
        1   -1    0    0  501    0  0.00000000000E+00  0.00000000000E+00  0.58621022200E+03  0.58621022203E+03  0.50400001928E-02 0. -1.
       -1   -1    0    0    0  501  0.00000000000E+00  0.00000000000E+00 -0.72601584953E+03  0.72601584954E+03  0.50400001928E-02 0.  1.
    10030    2    1    2    0    0  0.00000000000E+00  0.00000000000E+00 -0.13980562752E+03  0.13122260716E+04  0.13047573144E+04 0.  0.
        1    1    3    3  502    0 -0.62000650319E+03 -0.19887896606E+03 -0.29211290275E+02  0.65177772794E+03  0.50400001928E-02 0. -1.
       -1    1    3    3    0  502  0.62000650319E+03  0.19887896606E+03 -0.11059433725E+03  0.66044834362E+03  0.50400001928E-02 0.  1.
</event>
<event>
 5   0  0.1694675E-03  0.1293344E+04  0.7818609E-02  0.9034860E-01
        2   -1    0    0  501    0  0.00000000000E+00  0.00000000000E+00  0.23897881391E+04  0.23897881391E+04  0.25500000920E-02 0.  1.
       -2   -1    0    0    0  501  0.00000000000E+00  0.00000000000E+00 -0.17498818660E+03  0.17498818662E+03  0.25500000920E-02 0. -1.
    10030    2    1    2    0    0  0.00000000000E+00  0.00000000000E+00  0.22147999525E+04  0.25647763257E+04  0.12933440267E+04 0.  0.
        4    1    3    3  502    0 -0.31048235367E+03  0.51021254718E+03  0.61574974488E+03  0.85782602924E+03  0.12699999809E+01 0. -1.
       -4    1    3    3    0  502  0.31048235367E+03 -0.51021254718E+03  0.15990502076E+04  0.17069502965E+04  0.12699999809E+01 0.  1.
</event>
<event>
 5   0  0.1694675E-03  0.1304817E+04  0.7818609E-02  0.9025754E-01
       -2   -1    0    0    0  501  0.00000000000E+00  0.00000000000E+00  0.35573595926E+03  0.35573595927E+03  0.25500000920E-02 0.  1.
        2   -1    0    0  501    0  0.00000000000E+00  0.00000000000E+00 -0.11964967930E+04  0.11964967930E+04  0.25500000920E-02 0. -1.
    10030    2    1    2    0    0  0.00000000000E+00  0.00000000000E+00 -0.84076083370E+03  0.15522327522E+04  0.13048171280E+04 0.  0.
        4    1    3    3  502    0  0.44005292213E+03 -0.37912698548E+03 -0.77378174962E+03  0.96753483365E+03  0.12699999809E+01 0. -1.
       -4    1    3    3    0  502 -0.44005292213E+03  0.37912698548E+03 -0.66979084080E+02  0.58469791858E+03  0.12699999809E+01 0.  1.
</event>
<event>
 5   0  0.1700511E-03  0.1239972E+04  0.7818609E-02  0.9078571E-01
       -2   -1    0    0    0  501  0.00000000000E+00  0.00000000000E+00  0.46094455035E+03  0.46094455035E+03  0.25500000920E-02 0.  1.
        2   -1    0    0  501    0  0.00000000000E+00  0.00000000000E+00 -0.83390197176E+03  0.83390197177E+03  0.25500000920E-02 0. -1.
    10030    2    1    2    0    0  0.00000000000E+00  0.00000000000E+00 -0.37295742142E+03  0.12948465221E+04  0.12399718858E+04 0.  0.
        2    1    3    3  502    0  0.59179262582E+03  0.43751686257E+02 -0.37400850968E+03  0.70143787134E+03  0.25500000920E-02 0. -1.
       -2    1    3    3    0  502 -0.59179262582E+03 -0.43751686257E+02  0.10510882593E+01  0.59340865078E+03  0.25500000920E-02 0.  1.
</event>
<event>
 5   0  0.9027076E-04  0.1294087E+04  0.7818609E-02  0.9034268E-01
        1   -1    0    0  501    0  0.00000000000E+00  0.00000000000E+00  0.14634064947E+04  0.14634064947E+04  0.50400001928E-02 0.  1.
       -1   -1    0    0    0  501  0.00000000000E+00  0.00000000000E+00 -0.28608945699E+03  0.28608945704E+03  0.50400001928E-02 0. -1.
    10030    2    1    2    0    0  0.00000000000E+00  0.00000000000E+00  0.11773170377E+04  0.17494959518E+04  0.12940868124E+04 0.  0.
        5    1    3    3  502    0  0.35257755707E+03  0.84963977237E+02 -0.13573767852E+03  0.38726814812E+03  0.46999998093E+01 0. -1.
       -5    1    3    3    0  502 -0.35257755707E+03 -0.84963977237E+02  0.13130547163E+04  0.13622278037E+04  0.46999998093E+01 0.  1.
</event>
<event>
 5   0  0.9081324E-04  0.1250011E+04  0.7818609E-02  0.9070174E-01
        1   -1    0    0  501    0  0.00000000000E+00  0.00000000000E+00  0.88248658819E+03  0.88248658820E+03  0.50400001928E-02 0.  1.
       -1   -1    0    0    0  501  0.00000000000E+00  0.00000000000E+00 -0.44264920493E+03  0.44264920496E+03  0.50400001928E-02 0. -1.
    10030    2    1    2    0    0  0.00000000000E+00  0.00000000000E+00  0.43983738325E+03  0.13251357932E+04  0.12500111786E+04 0.  0.
        4    1    3    3  502    0 -0.60236919293E+03 -0.14842048128E+02  0.39591252950E+03  0.72098354690E+03  0.12699999809E+01 0.  1.
       -4    1    3    3    0  502  0.60236919293E+03  0.14842048128E+02  0.43924853754E+02  0.60415224626E+03  0.12699999809E+01 0. -1.
</event>
<event>
 5   0  0.9215829E-04  0.1299668E+04  0.7818609E-02  0.9029829E-01
        1   -1    0    0  501    0  0.00000000000E+00  0.00000000000E+00  0.10031933121E+04  0.10031933121E+04  0.50400001928E-02 0.  1.
       -1   -1    0    0    0  501  0.00000000000E+00  0.00000000000E+00 -0.42093995616E+03  0.42093995619E+03  0.50400001928E-02 0. -1.
    10030    2    1    2    0    0  0.00000000000E+00  0.00000000000E+00  0.58225335595E+03  0.14241332683E+04  0.12996678789E+04 0.  0.
        3    1    3    3  502    0 -0.27686182607E+03  0.19868335206E+03  0.89743014941E+03  0.95995230527E+03  0.10100000352E+00 0.  1.
       -3    1    3    3    0  502  0.27686182607E+03 -0.19868335206E+03 -0.31517679346E+03  0.46418096305E+03  0.10100000352E+00 0. -1.
</event>
<event>
 5   0  0.9081324E-04  0.1287311E+04  0.7818609E-02  0.9039688E-01
       -1   -1    0    0    0  501  0.00000000000E+00  0.00000000000E+00  0.58107126074E+03  0.58107126077E+03  0.50400001928E-02 0.  1.
        1   -1    0    0  501    0  0.00000000000E+00  0.00000000000E+00 -0.71298087916E+03  0.71298087918E+03  0.50400001928E-02 0. -1.
    10030    2    1    2    0    0  0.00000000000E+00  0.00000000000E+00 -0.13190961841E+03  0.12940521399E+04  0.12873114594E+04 0.  0.
        4    1    3    3  502    0 -0.34260616866E+03 -0.11537201390E+02  0.48167202078E+03  0.59120355406E+03  0.12699999809E+01 0.  1.
       -4    1    3    3    0  502  0.34260616866E+03  0.11537201390E+02 -0.61358163920E+03  0.70284858589E+03  0.12699999809E+01 0. -1.
</event>
<event>
 5   0  0.9081324E-04  0.1291042E+04  0.7818609E-02  0.9036700E-01
        1   -1    0    0  501    0  0.00000000000E+00  0.00000000000E+00  0.47999307559E+03  0.47999307562E+03  0.50400001928E-02 0.  1.
       -1   -1    0    0    0  501  0.00000000000E+00  0.00000000000E+00 -0.86813139256E+03  0.86813139257E+03  0.50400001928E-02 0. -1.
    10030    2    1    2    0    0  0.00000000000E+00  0.00000000000E+00 -0.38813831696E+03  0.13481244682E+04  0.12910415286E+04 0.  0.
        4    1    3    3  502    0  0.27719366147E+03 -0.14744402742E+03 -0.78302785710E+03  0.84362924622E+03  0.12699999809E+01 0. -1.
       -4    1    3    3    0  502 -0.27719366147E+03  0.14744402742E+03  0.39488954013E+03  0.50449522197E+03  0.12699999809E+01 0.  1.
</event>
<event>
 5   0  0.1623890E-03  0.1312368E+04  0.7818609E-02  0.9019814E-01
       -2   -1    0    0    0  501  0.00000000000E+00  0.00000000000E+00  0.57244241450E+03  0.57244241450E+03  0.25500000920E-02 0. -1.
        2   -1    0    0  501    0  0.00000000000E+00  0.00000000000E+00 -0.75217638856E+03  0.75217638856E+03  0.25500000920E-02 0.  1.
    10030    2    1    2    0    0  0.00000000000E+00  0.00000000000E+00 -0.17973397406E+03  0.13246188031E+04  0.13123683446E+04 0.  0.
        3    1    3    3  502    0  0.48007967896E+03 -0.14884843794E+03  0.33590632194E+03  0.60453736274E+03  0.10100000352E+00 0. -1.
       -3    1    3    3    0  502 -0.48007967896E+03  0.14884843794E+03 -0.51564029601E+03  0.72008144032E+03  0.10100000352E+00 0.  1.
</event>
<event>
 5   0  0.1700511E-03  0.1302162E+04  0.7818609E-02  0.9027852E-01
       -2   -1    0    0    0  501  0.00000000000E+00  0.00000000000E+00  0.33835690219E+03  0.33835690220E+03  0.25500000920E-02 0.  1.
        2   -1    0    0  501    0  0.00000000000E+00  0.00000000000E+00 -0.12528391717E+04  0.12528391717E+04  0.25500000920E-02 0. -1.
    10030    2    1    2    0    0  0.00000000000E+00  0.00000000000E+00 -0.91448226953E+03  0.15911960739E+04  0.13021624800E+04 0.  0.
        2    1    3    3  502    0 -0.23293818150E+03  0.22413347173E+02  0.28519065796E+03  0.36891227402E+03  0.25500000920E-02 0.  1.
       -2    1    3    3    0  502  0.23293818150E+03 -0.22413347173E+02 -0.11996729275E+04  0.12222837999E+04  0.25500000920E-02 0. -1.
</event>
<event>
 5   0  0.1623890E-03  0.1295764E+04  0.7818609E-02  0.9032931E-01
       -2   -1    0    0    0  501  0.00000000000E+00  0.00000000000E+00  0.12109989981E+04  0.12109989981E+04  0.25500000920E-02 0. -1.
        2   -1    0    0  501    0  0.00000000000E+00  0.00000000000E+00 -0.34661561351E+03  0.34661561352E+03  0.25500000920E-02 0.  1.
    10030    2    1    2    0    0  0.00000000000E+00  0.00000000000E+00  0.86438338463E+03  0.15576146117E+04  0.12957641154E+04 0.  0.
        3    1    3    3  502    0 -0.47503270366E+03 -0.36479366847E+03  0.72913429844E+03  0.94359277523E+03  0.10100000352E+00 0. -1.
       -3    1    3    3    0  502  0.47503270366E+03  0.36479366847E+03  0.13524908619E+03  0.61402183643E+03  0.10100000352E+00 0.  1.
</event>
<event>
 5   0  0.1667342E-03  0.1302274E+04  0.7818609E-02  0.9027764E-01
        2   -1    0    0  501    0  0.00000000000E+00  0.00000000000E+00  0.96225349956E+03  0.96225349956E+03  0.25500000920E-02 0. -1.
       -2   -1    0    0    0  501  0.00000000000E+00  0.00000000000E+00 -0.44061069587E+03  0.44061069588E+03  0.25500000920E-02 0.  1.
    10030    2    1    2    0    0  0.00000000000E+00  0.00000000000E+00  0.52164280369E+03  0.14028641954E+04  0.13022736795E+04 0.  0.
        5    1    3    3  502    0 -0.46051877321E+03 -0.42927953657E+03  0.43978188936E+03  0.76797699263E+03  0.46999998093E+01 0.  1.
       -5    1    3    3    0  502  0.46051877321E+03  0.42927953657E+03  0.81860914325E+02  0.63488720281E+03  0.46999998093E+01 0. -1.
</event>
<event>
 5   0  0.9027076E-04  0.1307548E+04  0.7818609E-02  0.9023601E-01
       -1   -1    0    0    0  501  0.00000000000E+00  0.00000000000E+00  0.46269163274E+03  0.46269163276E+03  0.50400001928E-02 0.  1.
        1   -1    0    0  501    0  0.00000000000E+00  0.00000000000E+00 -0.92376931988E+03  0.92376931989E+03  0.50400001928E-02 0. -1.
    10030    2    1    2    0    0  0.00000000000E+00  0.00000000000E+00 -0.46107768714E+03  0.13864609527E+04  0.13075478346E+04 0.  0.
        5    1    3    3  502    0 -0.22592875210E+02 -0.86182510723E+02 -0.91728388289E+03  0.92161254059E+03  0.46999998093E+01 0. -1.
       -5    1    3    3    0  502  0.22592875210E+02  0.86182510723E+02  0.45620619575E+03  0.46484841207E+03  0.46999998093E+01 0.  1.
</event>
<event>
 5   0  0.9110949E-04  0.1345515E+04  0.7818609E-02  0.8994230E-01
       -1   -1    0    0    0  501  0.00000000000E+00  0.00000000000E+00  0.33172197417E+03  0.33172197421E+03  0.50400001928E-02 0.  1.
        1   -1    0    0  501    0  0.00000000000E+00  0.00000000000E+00 -0.13644029913E+04  0.13644029913E+04  0.50400001928E-02 0. -1.
    10030    2    1    2    0    0  0.00000000000E+00  0.00000000000E+00 -0.10326810172E+04  0.16961249656E+04  0.13455147028E+04 0.  0.
        2    1    3    3  502    0  0.10139249764E+03  0.30341042550E+03 -0.12623892986E+04  0.13022922353E+04  0.25500000920E-02 0. -1.
       -2    1    3    3    0  502 -0.10139249764E+03 -0.30341042550E+03  0.22970828142E+03  0.39383273028E+03  0.25500000920E-02 0.  1.
</event>
<event>
 5   0  0.9027076E-04  0.1314576E+04  0.7818609E-02  0.9018086E-01
        1   -1    0    0  501    0  0.00000000000E+00  0.00000000000E+00  0.50576425656E+03  0.50576425658E+03  0.50400001928E-02 0. -1.
       -1   -1    0    0    0  501  0.00000000000E+00  0.00000000000E+00 -0.85420673424E+03  0.85420673425E+03  0.50400001928E-02 0.  1.
    10030    2    1    2    0    0  0.00000000000E+00  0.00000000000E+00 -0.34844247768E+03  0.13599709908E+04  0.13145755724E+04 0.  0.
        5    1    3    3  502    0  0.96164668282E+02  0.16494904740E+01 -0.84687000507E+03  0.85232696762E+03  0.46999998093E+01 0.  1.
       -5    1    3    3    0  502 -0.96164668282E+02 -0.16494904740E+01  0.49842752739E+03  0.50764402321E+03  0.46999998093E+01 0. -1.
</event>
<event>
 5   0  0.1700511E-03  0.1297466E+04  0.7818609E-02  0.9031577E-01
       -2   -1    0    0    0  501  0.00000000000E+00  0.00000000000E+00  0.27795036850E+03  0.27795036851E+03  0.25500000920E-02 0.  1.
        2   -1    0    0  501    0  0.00000000000E+00  0.00000000000E+00 -0.15141345568E+04  0.15141345568E+04  0.25500000920E-02 0. -1.
    10030    2    1    2    0    0  0.00000000000E+00  0.00000000000E+00 -0.12361841883E+04  0.17920849253E+04  0.12974656188E+04 0.  0.
        2    1    3    3  502    0 -0.14236434546E+03 -0.45446008160E+03 -0.96453706665E+01  0.47633455240E+03  0.25500000920E-02 0.  1.
       -2    1    3    3    0  502  0.14236434546E+03  0.45446008160E+03 -0.12265388176E+04  0.13157503729E+04  0.25500000920E-02 0. -1.
</event>
<event>
 5   0  0.1714861E-03  0.1270289E+04  0.7818609E-02  0.9053464E-01
       -2   -1    0    0    0  501  0.00000000000E+00  0.00000000000E+00  0.20355970300E+03  0.20355970302E+03  0.25500000920E-02 0. -1.
        2   -1    0    0  501    0  0.00000000000E+00  0.00000000000E+00 -0.19817688577E+04  0.19817688577E+04  0.25500000920E-02 0.  1.
    10030    2    1    2    0    0  0.00000000000E+00  0.00000000000E+00 -0.17782091547E+04  0.21853285607E+04  0.12702885973E+04 0.  0.
        1    1    3    3  502    0 -0.37324639209E+03  0.50114531656E+03 -0.10848667656E+04  0.12519566273E+04  0.50400001928E-02 0.  1.
       -1    1    3    3    0  502  0.37324639209E+03 -0.50114531656E+03 -0.69334238904E+03  0.93337193336E+03  0.50400001928E-02 0. -1.
</event>
<event>
 5   0  0.1714861E-03  0.1309625E+04  0.7818609E-02  0.9021967E-01
       -2   -1    0    0    0  501  0.00000000000E+00  0.00000000000E+00  0.16451376240E+03  0.16451376242E+03  0.25500000920E-02 0.  1.
        2   -1    0    0  501    0  0.00000000000E+00  0.00000000000E+00 -0.26063450506E+04  0.26063450506E+04  0.25500000920E-02 0. -1.
    10030    2    1    2    0    0  0.00000000000E+00  0.00000000000E+00 -0.24418312882E+04  0.27708588130E+04  0.13096253364E+04 0.  0.
        1    1    3    3  502    0  0.35132641989E+03  0.44808191156E+03 -0.53672837423E+03  0.78248642193E+03  0.50400001928E-02 0.  1.
       -1    1    3    3    0  502 -0.35132641989E+03 -0.44808191156E+03 -0.19051029140E+04  0.19883723911E+04  0.50400001928E-02 0. -1.
</event>
<event>
 5   0  0.1623890E-03  0.1299438E+04  0.7818609E-02  0.9030011E-01
       -2   -1    0    0    0  501  0.00000000000E+00  0.00000000000E+00  0.45220251163E+03  0.45220251164E+03  0.25500000920E-02 0. -1.
        2   -1    0    0  501    0  0.00000000000E+00  0.00000000000E+00 -0.93350864726E+03  0.93350864726E+03  0.25500000920E-02 0.  1.
    10030    2    1    2    0    0  0.00000000000E+00  0.00000000000E+00 -0.48130613563E+03  0.13857111589E+04  0.12994382708E+04 0.  0.
        3    1    3    3  502    0 -0.40427156715E+03  0.49319745091E+03 -0.37322807808E+03  0.73890353502E+03  0.10100000352E+00 0. -1.
       -3    1    3    3    0  502  0.40427156715E+03 -0.49319745091E+03 -0.10807805755E+03  0.64680762389E+03  0.10100000352E+00 0.  1.
</event>
<event>
 5   0  0.9081324E-04  0.1302588E+04  0.7818609E-02  0.9027515E-01
       -1   -1    0    0    0  501  0.00000000000E+00  0.00000000000E+00  0.11894035239E+04  0.11894035239E+04  0.50400001928E-02 0.  1.
        1   -1    0    0  501    0  0.00000000000E+00  0.00000000000E+00 -0.35663583955E+03  0.35663583959E+03  0.50400001928E-02 0. -1.
    10030    2    1    2    0    0  0.00000000000E+00  0.00000000000E+00  0.83276768439E+03  0.15460393635E+04  0.13025880767E+04 0.  0.
        4    1    3    3  502    0 -0.99588670596E+02 -0.17610569484E+02 -0.34725785689E+03  0.36168725101E+03  0.12699999809E+01 0. -1.
       -4    1    3    3    0  502  0.99588670596E+02  0.17610569484E+02  0.11800255413E+04  0.11843521125E+04  0.12699999809E+01 0.  1.
</event>
<event>
 5   0  0.1623890E-03  0.1298460E+04  0.7818609E-02  0.9030787E-01
        2   -1    0    0  501    0  0.00000000000E+00  0.00000000000E+00  0.16215102695E+04  0.16215102695E+04  0.25500000920E-02 0.  1.
       -2   -1    0    0    0  501  0.00000000000E+00  0.00000000000E+00 -0.25994263314E+03  0.25994263315E+03  0.25500000920E-02 0. -1.
    10030    2    1    2    0    0  0.00000000000E+00  0.00000000000E+00  0.13615676363E+04  0.18814529026E+04  0.12984600866E+04 0.  0.
        3    1    3    3  502    0  0.38882486809E+03  0.51748133779E+03  0.75363673045E+03  0.99344856167E+03  0.10100000352E+00 0. -1.
       -3    1    3    3    0  502 -0.38882486809E+03 -0.51748133779E+03  0.60793090587E+03  0.88800434094E+03  0.10100000352E+00 0.  1.
</event>
<event>
 5   0  0.9110949E-04  0.1302920E+04  0.7818609E-02  0.9027253E-01
       -1   -1    0    0    0  501  0.00000000000E+00  0.00000000000E+00  0.85711610739E+03  0.85711610740E+03  0.50400001928E-02 0.  1.
        1   -1    0    0  501    0  0.00000000000E+00  0.00000000000E+00 -0.49514862649E+03  0.49514862652E+03  0.50400001928E-02 0. -1.
    10030    2    1    2    0    0  0.00000000000E+00  0.00000000000E+00  0.36196748089E+03  0.13522647339E+04  0.13029195882E+04 0.  0.
        2    1    3    3  502    0  0.58500038234E+03 -0.28198470591E+03  0.23450257874E+03  0.69045802272E+03  0.25500000920E-02 0. -1.
       -2    1    3    3    0  502 -0.58500038234E+03  0.28198470591E+03  0.12746490216E+03  0.66180671120E+03  0.25500000920E-02 0.  1.
</event>
<event>
 5   0  0.6284125E-04  0.1301002E+04  0.7818609E-02  0.9028771E-01
        4   -1    0    0  501    0  0.00000000000E+00  0.00000000000E+00  0.35644518357E+03  0.35644744605E+03  0.12699999809E+01 0. -1.
       -4   -1    0    0    0  501  0.00000000000E+00  0.00000000000E+00 -0.11871374308E+04  0.11871381101E+04  0.12699999809E+01 0.  1.
    10030    2    1    2    0    0  0.00000000000E+00  0.00000000000E+00 -0.83069224724E+03  0.15435855562E+04  0.13010022135E+04 0.  0.
        4    1    3    3  502    0 -0.45487824526E+03  0.16715671685E+03  0.99492923183E+02  0.49472824931E+03  0.12699999809E+01 0. -1.
       -4    1    3    3    0  502  0.45487824526E+03 -0.16715671685E+03 -0.93018517043E+03  0.10488573069E+04  0.12699999809E+01 0.  1.
</event>
<event>
 5   0  0.1623890E-03  0.1289543E+04  0.7818609E-02  0.9037899E-01
       -2   -1    0    0    0  501  0.00000000000E+00  0.00000000000E+00  0.21647992234E+03  0.21647992236E+03  0.25500000920E-02 0.  1.
        2   -1    0    0  501    0  0.00000000000E+00  0.00000000000E+00 -0.19204111242E+04  0.19204111242E+04  0.25500000920E-02 0. -1.
    10030    2    1    2    0    0  0.00000000000E+00  0.00000000000E+00 -0.17039312019E+04  0.21368910466E+04  0.12895432541E+04 0.  0.
        3    1    3    3  502    0  0.51184114579E+03 -0.26532114441E+03 -0.37354585504E+03  0.68695937595E+03  0.10100000352E+00 0.  1.
       -3    1    3    3    0  502 -0.51184114579E+03  0.26532114441E+03 -0.13303853469E+04  0.14499316706E+04  0.10100000352E+00 0. -1.
</event>
<event>
 5   0  0.9110949E-04  0.1298188E+04  0.7818609E-02  0.9031003E-01
       -1   -1    0    0    0  501  0.00000000000E+00  0.00000000000E+00  0.11481758653E+04  0.11481758653E+04  0.50400001928E-02 0. -1.
        1   -1    0    0  501    0  0.00000000000E+00  0.00000000000E+00 -0.36694999794E+03  0.36694999798E+03  0.50400001928E-02 0.  1.
    10030    2    1    2    0    0  0.00000000000E+00  0.00000000000E+00  0.78122586732E+03  0.15151258632E+04  0.12981881704E+04 0.  0.
        2    1    3    3  502    0 -0.39811902406E+03 -0.45866315723E+03  0.12331593193E+03  0.61973983912E+03  0.25500000920E-02 0.  1.
       -2    1    3    3    0  502  0.39811902406E+03  0.45866315723E+03  0.65790993539E+03  0.89538602413E+03  0.25500000920E-02 0. -1.
</event>
<event>
 5   0  0.9110949E-04  0.1302628E+04  0.7818609E-02  0.9027483E-01
        1   -1    0    0  501    0  0.00000000000E+00  0.00000000000E+00  0.34772622906E+03  0.34772622910E+03  0.50400001928E-02 0.  1.
       -1   -1    0    0    0  501  0.00000000000E+00  0.00000000000E+00 -0.12199545505E+04  0.12199545505E+04  0.50400001928E-02 0. -1.
    10030    2    1    2    0    0  0.00000000000E+00  0.00000000000E+00 -0.87222832144E+03  0.15676807796E+04  0.13026284129E+04 0.  0.
        2    1    3    3  502    0  0.19107202971E+03 -0.56668478705E+03 -0.74662477745E+03  0.95660270056E+03  0.25500000920E-02 0. -1.
       -2    1    3    3    0  502 -0.19107202971E+03  0.56668478705E+03 -0.12560354399E+03  0.61107807904E+03  0.25500000920E-02 0.  1.
</event>
<event>
 5   0  0.9027076E-04  0.1301108E+04  0.7818609E-02  0.9028687E-01
        1   -1    0    0  501    0  0.00000000000E+00  0.00000000000E+00  0.58517104860E+03  0.58517104862E+03  0.50400001928E-02 0.  1.
       -1   -1    0    0    0  501  0.00000000000E+00  0.00000000000E+00 -0.72324208301E+03  0.72324208303E+03  0.50400001928E-02 0. -1.
    10030    2    1    2    0    0  0.00000000000E+00  0.00000000000E+00 -0.13807103442E+03  0.13084131317E+04  0.13011077252E+04 0.  0.
        5    1    3    3  502    0 -0.50332579958E+03 -0.34303297676E+03  0.16069794918E+03  0.62996381208E+03  0.46999998093E+01 0. -1.
       -5    1    3    3    0  502  0.50332579958E+03  0.34303297676E+03 -0.29876898359E+03  0.67844931957E+03  0.46999998093E+01 0.  1.
</event>
<event>
 5   0  0.1700511E-03  0.1295170E+04  0.7818609E-02  0.9033404E-01
        2   -1    0    0  501    0  0.00000000000E+00  0.00000000000E+00  0.93707644170E+03  0.93707644171E+03  0.25500000920E-02 0. -1.
       -2   -1    0    0    0  501  0.00000000000E+00  0.00000000000E+00 -0.44752647219E+03  0.44752647220E+03  0.25500000920E-02 0.  1.
    10030    2    1    2    0    0  0.00000000000E+00  0.00000000000E+00  0.48954996951E+03  0.13846029139E+04  0.12951702809E+04 0.  0.
        2    1    3    3  502    0 -0.53836587982E+03  0.22819061481E+03 -0.52755022391E+02  0.58710464965E+03  0.25500000920E-02 0.  1.
       -2    1    3    3    0  502  0.53836587982E+03 -0.22819061481E+03  0.54230499190E+03  0.79749826426E+03  0.25500000920E-02 0. -1.
</event>
<event>
 5   0  0.1700511E-03  0.1296205E+04  0.7818609E-02  0.9032580E-01
        2   -1    0    0  501    0  0.00000000000E+00  0.00000000000E+00  0.84666996626E+03  0.84666996626E+03  0.25500000920E-02 0. -1.
       -2   -1    0    0    0  501  0.00000000000E+00  0.00000000000E+00 -0.49610481725E+03  0.49610481725E+03  0.25500000920E-02 0.  1.
    10030    2    1    2    0    0  0.00000000000E+00  0.00000000000E+00  0.35056514901E+03  0.13427747835E+04  0.12962053061E+04 0.  0.
        2    1    3    3  502    0 -0.18229616526E+03  0.14540604771E+03  0.80170808938E+03  0.83493153681E+03  0.25500000920E-02 0. -1.
       -2    1    3    3    0  502  0.18229616526E+03 -0.14540604771E+03 -0.45114294036E+03  0.50784324671E+03  0.25500000920E-02 0.  1.
</event>
<event>
 5   0  0.9215829E-04  0.1301339E+04  0.7818609E-02  0.9028504E-01
       -1   -1    0    0    0  501  0.00000000000E+00  0.00000000000E+00  0.19122366829E+03  0.19122366836E+03  0.50400001928E-02 0.  1.
        1   -1    0    0  501    0  0.00000000000E+00  0.00000000000E+00 -0.22140095320E+04  0.22140095320E+04  0.50400001928E-02 0. -1.
    10030    2    1    2    0    0  0.00000000000E+00  0.00000000000E+00 -0.20227858638E+04  0.24052332004E+04  0.13013393477E+04 0.  0.
        3    1    3    3  502    0 -0.62708382819E+02  0.27698538728E+03  0.70626197876E+02  0.29264537596E+03  0.10100000352E+00 0.  1.
       -3    1    3    3    0  502  0.62708382819E+02 -0.27698538728E+03 -0.20934120616E+04  0.21125878244E+04  0.10100000352E+00 0. -1.
</event>
<event>
 5   0  0.1694675E-03  0.1301047E+04  0.7818609E-02  0.9028735E-01
        2   -1    0    0  501    0  0.00000000000E+00  0.00000000000E+00  0.66051846630E+03  0.66051846630E+03  0.25500000920E-02 0. -1.
       -2   -1    0    0    0  501  0.00000000000E+00  0.00000000000E+00 -0.64067954843E+03  0.64067954843E+03  0.25500000920E-02 0.  1.
    10030    2    1    2    0    0  0.00000000000E+00  0.00000000000E+00  0.19838917871E+02  0.13011980147E+04  0.13010467674E+04 0.  0.
        4    1    3    3  502    0 -0.40530512288E+03 -0.41994968288E+03 -0.27742750015E+03  0.64621792727E+03  0.12699999809E+01 0.  1.
       -4    1    3    3    0  502  0.40530512288E+03  0.41994968288E+03  0.29726641802E+03  0.65498008746E+03  0.12699999809E+01 0. -1.
</event>
<event>
 5   0  0.9098192E-04  0.1306190E+04  0.7818609E-02  0.9024671E-01
       -1   -1    0    0    0  501  0.00000000000E+00  0.00000000000E+00  0.79022136274E+03  0.79022136275E+03  0.50400001928E-02 0.  1.
        1   -1    0    0  501    0  0.00000000000E+00  0.00000000000E+00 -0.53976370338E+03  0.53976370341E+03  0.50400001928E-02 0. -1.
    10030    2    1    2    0    0  0.00000000000E+00  0.00000000000E+00  0.25045765935E+03  0.13299850662E+04  0.13061895870E+04 0.  0.
        1    1    3    3  502    0 -0.17934661013E+03 -0.50088186854E+03  0.51092358413E+03  0.73762508203E+03  0.50400001928E-02 0.  1.
       -1    1    3    3    0  502  0.17934661013E+03  0.50088186854E+03 -0.26046592478E+03  0.59235998413E+03  0.50400001928E-02 0. -1.
</event>
<event>
 5   0  0.1700511E-03  0.1307496E+04  0.7818609E-02  0.9023642E-01
       -2   -1    0    0    0  501  0.00000000000E+00  0.00000000000E+00  0.10709992666E+04  0.10709992666E+04  0.25500000920E-02 0.  1.
        2   -1    0    0  501    0  0.00000000000E+00  0.00000000000E+00 -0.39905379798E+03  0.39905379799E+03  0.25500000920E-02 0. -1.
    10030    2    1    2    0    0  0.00000000000E+00  0.00000000000E+00  0.67194546859E+03  0.14700530646E+04  0.13074958126E+04 0.  0.
        2    1    3    3  502    0 -0.64463178100E+03 -0.10864317559E+03  0.34241703031E+03  0.73797215078E+03  0.25500000920E-02 0.  1.
       -2    1    3    3    0  502  0.64463178100E+03  0.10864317559E+03  0.32952843828E+03  0.73208091378E+03  0.25500000920E-02 0. -1.
</event>
<event>
 5   0  0.9215829E-04  0.1307419E+04  0.7818609E-02  0.9023702E-01
        1   -1    0    0  501    0  0.00000000000E+00  0.00000000000E+00  0.90167094842E+03  0.90167094844E+03  0.50400001928E-02 0.  1.
       -1   -1    0    0    0  501  0.00000000000E+00  0.00000000000E+00 -0.47393832182E+03  0.47393832184E+03  0.50400001928E-02 0. -1.
    10030    2    1    2    0    0  0.00000000000E+00  0.00000000000E+00  0.42773262661E+03  0.13756092703E+04  0.13074194677E+04 0.  0.
        3    1    3    3  502    0 -0.38477913642E+03 -0.13088244783E+02  0.76972953244E+03  0.86064501932E+03  0.10100000352E+00 0. -1.
       -3    1    3    3    0  502  0.38477913642E+03  0.13088244783E+02 -0.34199690583E+03  0.51496425096E+03  0.10100000352E+00 0.  1.
</event>
<event>
 5   0  0.1714861E-03  0.1298018E+04  0.7818609E-02  0.9031138E-01
        2   -1    0    0  501    0  0.00000000000E+00  0.00000000000E+00  0.70075461986E+03  0.70075461987E+03  0.25500000920E-02 0.  1.
       -2   -1    0    0    0  501  0.00000000000E+00  0.00000000000E+00 -0.60108461926E+03  0.60108461927E+03  0.25500000920E-02 0. -1.
    10030    2    1    2    0    0  0.00000000000E+00  0.00000000000E+00  0.99670000602E+02  0.13018392391E+04  0.12980182185E+04 0.  0.
        1    1    3    3  502    0  0.51133585073E+03 -0.39299696366E+03 -0.23193204098E+02  0.64532851357E+03  0.50400001928E-02 0.  1.
       -1    1    3    3    0  502 -0.51133585073E+03  0.39299696366E+03  0.12286320470E+03  0.65651072556E+03  0.50400001928E-02 0. -1.
</event>
<event>
 5   0  0.6284125E-04  0.1292697E+04  0.7818609E-02  0.9035377E-01
       -4   -1    0    0    0  501  0.00000000000E+00  0.00000000000E+00  0.57156577532E+03  0.57156718627E+03  0.12699999809E+01 0. -1.
        4   -1    0    0  501    0  0.00000000000E+00  0.00000000000E+00 -0.73091225866E+03  0.73091336201E+03  0.12699999809E+01 0.  1.
    10030    2    1    2    0    0  0.00000000000E+00  0.00000000000E+00 -0.15934648334E+03  0.13024805483E+04  0.12926965138E+04 0.  0.
        4    1    3    3  502    0 -0.32478484885E+03  0.46309941963E+03  0.23545292785E+03  0.61268749346E+03  0.12699999809E+01 0. -1.
       -4    1    3    3    0  502  0.32478484885E+03 -0.46309941963E+03 -0.39479941119E+03  0.68979305482E+03  0.12699999809E+01 0.  1.
</event>
<event>
 5   0  0.9098192E-04  0.1361641E+04  0.7818609E-02  0.8982062E-01
        1   -1    0    0  501    0  0.00000000000E+00  0.00000000000E+00  0.92595336833E+03  0.92595336834E+03  0.50400001928E-02 0.  1.
       -1   -1    0    0    0  501  0.00000000000E+00  0.00000000000E+00 -0.50058336443E+03  0.50058336445E+03  0.50400001928E-02 0. -1.
    10030    2    1    2    0    0  0.00000000000E+00  0.00000000000E+00  0.42537000390E+03  0.14265367328E+04  0.13616414395E+04 0.  0.
        1    1    3    3  502    0 -0.57503385344E+03  0.96996531357E+02 -0.15540687590E+03  0.60350936762E+03  0.50400001928E-02 0. -1.
       -1    1    3    3    0  502  0.57503385344E+03 -0.96996531357E+02  0.58077687980E+03  0.82302736518E+03  0.50400001928E-02 0.  1.
</event>
<event>
 5   0  0.9081324E-04  0.1309596E+04  0.7818609E-02  0.9021990E-01
        1   -1    0    0  501    0  0.00000000000E+00  0.00000000000E+00  0.71926990914E+03  0.71926990916E+03  0.50400001928E-02 0.  1.
       -1   -1    0    0    0  501  0.00000000000E+00  0.00000000000E+00 -0.59610474381E+03  0.59610474383E+03  0.50400001928E-02 0. -1.
    10030    2    1    2    0    0  0.00000000000E+00  0.00000000000E+00  0.12316516534E+03  0.13153746530E+04  0.13095956703E+04 0.  0.
        4    1    3    3  502    0 -0.18194593617E+03 -0.11563975768E+03 -0.55943514956E+03  0.59953830295E+03  0.12699999809E+01 0. -1.
       -4    1    3    3    0  502  0.18194593617E+03  0.11563975768E+03  0.68260031490E+03  0.71583635004E+03  0.12699999809E+01 0.  1.
</event>
<event>
 5   0  0.9081324E-04  0.1305454E+04  0.7818609E-02  0.9025251E-01
        1   -1    0    0  501    0  0.00000000000E+00  0.00000000000E+00  0.15255988674E+04  0.15255988674E+04  0.50400001928E-02 0.  1.
       -1   -1    0    0    0  501  0.00000000000E+00  0.00000000000E+00 -0.27926909165E+03  0.27926909170E+03  0.50400001928E-02 0. -1.
    10030    2    1    2    0    0  0.00000000000E+00  0.00000000000E+00  0.12463297757E+04  0.18048679591E+04  0.13054541125E+04 0.  0.
        4    1    3    3  502    0  0.16812933933E+03  0.73233563012E+02 -0.24291827268E+03  0.30437071081E+03  0.12699999809E+01 0. -1.
       -4    1    3    3    0  502 -0.16812933933E+03 -0.73233563012E+02  0.14892480484E+04  0.15004972483E+04  0.12699999809E+01 0.  1.
</event>
<event>
 5   0  0.1700511E-03  0.1291130E+04  0.7818609E-02  0.9036629E-01
       -2   -1    0    0    0  501  0.00000000000E+00  0.00000000000E+00  0.21322381937E+03  0.21322381939E+03  0.25500000920E-02 0. -1.
        2   -1    0    0  501    0  0.00000000000E+00  0.00000000000E+00 -0.19545384140E+04  0.19545384140E+04  0.25500000920E-02 0.  1.
    10030    2    1    2    0    0  0.00000000000E+00  0.00000000000E+00 -0.17413145946E+04  0.21677622334E+04  0.12911299637E+04 0.  0.
        2    1    3    3  502    0  0.46295114560E+02 -0.19611012796E+03 -0.19003869405E+04  0.19110397545E+04  0.25500000920E-02 0.  1.
       -2    1    3    3    0  502 -0.46295114560E+02  0.19611012796E+03  0.15907234585E+03  0.25672247884E+03  0.25500000920E-02 0. -1.
</event>
<event>
 5   0  0.1700511E-03  0.1305187E+04  0.7818609E-02  0.9025462E-01
       -2   -1    0    0    0  501  0.00000000000E+00  0.00000000000E+00  0.39238465840E+03  0.39238465841E+03  0.25500000920E-02 0.  1.
        2   -1    0    0  501    0  0.00000000000E+00  0.00000000000E+00 -0.10853596464E+04  0.10853596464E+04  0.25500000920E-02 0. -1.
    10030    2    1    2    0    0  0.00000000000E+00  0.00000000000E+00 -0.69297498800E+03  0.14777443048E+04  0.13051873032E+04 0.  0.
        2    1    3    3  502    0  0.30180433031E+03 -0.27260576309E+03  0.23135912559E+03  0.46789614325E+03  0.25500000920E-02 0. -1.
       -2    1    3    3    0  502 -0.30180433031E+03  0.27260576309E+03 -0.92433411359E+03  0.10098481616E+04  0.25500000920E-02 0.  1.
</event>
<event>
 5   0  0.1694675E-03  0.1323072E+04  0.7818609E-02  0.9011466E-01
        2   -1    0    0  501    0  0.00000000000E+00  0.00000000000E+00  0.13204089451E+04  0.13204089451E+04  0.25500000920E-02 0.  1.
       -2   -1    0    0    0  501  0.00000000000E+00  0.00000000000E+00 -0.33143528102E+03  0.33143528103E+03  0.25500000920E-02 0. -1.
    10030    2    1    2    0    0  0.00000000000E+00  0.00000000000E+00  0.98897366408E+03  0.16518442261E+04  0.13230723484E+04 0.  0.
        4    1    3    3  502    0 -0.23831096962E+03  0.10611668522E+03  0.12534787621E+04  0.12803372560E+04  0.12699999809E+01 0.  1.
       -4    1    3    3    0  502  0.23831096962E+03 -0.10611668522E+03 -0.26450509800E+03  0.37150697017E+03  0.12699999809E+01 0. -1.
</event>
<event>
 5   0  0.1667342E-03  0.1304833E+04  0.7818609E-02  0.9025741E-01
        2   -1    0    0  501    0  0.00000000000E+00  0.00000000000E+00  0.12251198734E+04  0.12251198734E+04  0.25500000920E-02 0. -1.
       -2   -1    0    0    0  501  0.00000000000E+00  0.00000000000E+00 -0.34743328967E+03  0.34743328968E+03  0.25500000920E-02 0.  1.
    10030    2    1    2    0    0  0.00000000000E+00  0.00000000000E+00  0.87768658377E+03  0.15725531631E+04  0.13048332121E+04 0.  0.
        5    1    3    3  502    0  0.51281909848E+03  0.22756622932E+03  0.84010618364E+03  0.10102327981E+04  0.46999998093E+01 0. -1.
       -5    1    3    3    0  502 -0.51281909848E+03 -0.22756622932E+03  0.37580400128E+02  0.56232036506E+03  0.46999998093E+01 0.  1.
</event>
<event>
 5   0  0.1700511E-03  0.1318178E+04  0.7818609E-02  0.9015273E-01
       -2   -1    0    0    0  501  0.00000000000E+00  0.00000000000E+00  0.34995490918E+03  0.34995490918E+03  0.25500000920E-02 0. -1.
        2   -1    0    0  501    0  0.00000000000E+00  0.00000000000E+00 -0.12412973709E+04  0.12412973709E+04  0.25500000920E-02 0.  1.
    10030    2    1    2    0    0  0.00000000000E+00  0.00000000000E+00 -0.89134246173E+03  0.15912522801E+04  0.13181776947E+04 0.  0.
        2    1    3    3  502    0 -0.26955847563E+03  0.19581146046E+03 -0.11321564641E+04  0.11801619207E+04  0.25500000920E-02 0.  1.
       -2    1    3    3    0  502  0.26955847563E+03 -0.19581146046E+03  0.24081400239E+03  0.41109035939E+03  0.25500000920E-02 0. -1.
</event>
<event>
 5   0  0.1714861E-03  0.1293972E+04  0.7818609E-02  0.9034359E-01
       -2   -1    0    0    0  501  0.00000000000E+00  0.00000000000E+00  0.83107576275E+03  0.83107576275E+03  0.25500000920E-02 0.  1.
        2   -1    0    0  501    0  0.00000000000E+00  0.00000000000E+00 -0.50367328839E+03  0.50367328839E+03  0.25500000920E-02 0. -1.
    10030    2    1    2    0    0  0.00000000000E+00  0.00000000000E+00  0.32740247436E+03  0.13347490511E+04  0.12939716571E+04 0.  0.
        1    1    3    3  502    0  0.39320376590E+03 -0.98000812789E+02 -0.35655109412E+03  0.53976109860E+03  0.50400001928E-02 0. -1.
       -1    1    3    3    0  502 -0.39320376590E+03  0.98000812789E+02  0.68395356848E+03  0.79498795254E+03  0.50400001928E-02 0.  1.
</event>
<event>
 5   0  0.1694675E-03  0.1304153E+04  0.7818609E-02  0.9026279E-01
       -2   -1    0    0    0  501  0.00000000000E+00  0.00000000000E+00  0.31390101892E+03  0.31390101893E+03  0.25500000920E-02 0. -1.
        2   -1    0    0  501    0  0.00000000000E+00  0.00000000000E+00 -0.13545780931E+04  0.13545780931E+04  0.25500000920E-02 0.  1.
    10030    2    1    2    0    0  0.00000000000E+00  0.00000000000E+00 -0.10406770742E+04  0.16684791121E+04  0.13041525120E+04 0.  0.
        4    1    3    3  502    0  0.24340780092E+03  0.34854631764E+03 -0.11529034848E+04  0.12287880009E+04  0.12699999809E+01 0.  1.
       -4    1    3    3    0  502 -0.24340780092E+03 -0.34854631764E+03  0.11222641058E+03  0.43969111114E+03  0.12699999809E+01 0. -1.
</event>
<event>
 5   0  0.1694675E-03  0.1307540E+04  0.7818609E-02  0.9023607E-01
        2   -1    0    0  501    0  0.00000000000E+00  0.00000000000E+00  0.10368019423E+04  0.10368019423E+04  0.25500000920E-02 0.  1.
       -2   -1    0    0    0  501  0.00000000000E+00  0.00000000000E+00 -0.41224396572E+03  0.41224396572E+03  0.25500000920E-02 0. -1.
    10030    2    1    2    0    0  0.00000000000E+00  0.00000000000E+00  0.62455797659E+03  0.14490459080E+04  0.13075402011E+04 0.  0.
        4    1    3    3  502    0 -0.13196801663E+03 -0.53957219637E+02 -0.39480434507E+03  0.41976067318E+03  0.12699999809E+01 0. -1.
       -4    1    3    3    0  502  0.13196801663E+03  0.53957219637E+02  0.10193623217E+04  0.10292852349E+04  0.12699999809E+01 0.  1.
</event>
<event>
 5   0  0.1667342E-03  0.1299811E+04  0.7818609E-02  0.9029715E-01
       -2   -1    0    0    0  501  0.00000000000E+00  0.00000000000E+00  0.15687641152E+03  0.15687641154E+03  0.25500000920E-02 0.  1.
        2   -1    0    0  501    0  0.00000000000E+00  0.00000000000E+00 -0.26924199531E+04  0.26924199531E+04  0.25500000920E-02 0. -1.
    10030    2    1    2    0    0  0.00000000000E+00  0.00000000000E+00 -0.25355435415E+04  0.28492963646E+04  0.12998110333E+04 0.  0.
        5    1    3    3  502    0  0.12195876117E+03  0.43815397361E+03 -0.22853863158E+04  0.23302071896E+04  0.46999998093E+01 0. -1.
       -5    1    3    3    0  502 -0.12195876117E+03 -0.43815397361E+03 -0.25015722573E+03  0.51908917500E+03  0.46999998093E+01 0.  1.
</event>
<event>
 5   0  0.9081324E-04  0.1299427E+04  0.7818609E-02  0.9030020E-01
        1   -1    0    0  501    0  0.00000000000E+00  0.00000000000E+00  0.16461228565E+04  0.16461228565E+04  0.50400001928E-02 0.  1.
       -1   -1    0    0    0  501  0.00000000000E+00  0.00000000000E+00 -0.25643750887E+03  0.25643750892E+03  0.50400001928E-02 0. -1.
    10030    2    1    2    0    0  0.00000000000E+00  0.00000000000E+00  0.13896853476E+04  0.19025603654E+04  0.12994270194E+04 0.  0.
        4    1    3    3  502    0 -0.42295944575E+03 -0.15231254680E+03  0.13816417456E+04  0.14529381717E+04  0.12699999809E+01 0.  1.
       -4    1    3    3    0  502  0.42295944575E+03  0.15231254680E+03  0.80436020141E+01  0.44962219373E+03  0.12699999809E+01 0. -1.
</event>
<event>
 5   0  0.1667342E-03  0.1265482E+04  0.7818609E-02  0.9057395E-01
        2   -1    0    0  501    0  0.00000000000E+00  0.00000000000E+00  0.93020601252E+03  0.93020601252E+03  0.25500000920E-02 0.  1.
       -2   -1    0    0    0  501  0.00000000000E+00  0.00000000000E+00 -0.43040047766E+03  0.43040047767E+03  0.25500000920E-02 0. -1.
    10030    2    1    2    0    0  0.00000000000E+00  0.00000000000E+00  0.49980553486E+03  0.13606064902E+04  0.12654819037E+04 0.  0.
        5    1    3    3  502    0  0.40735680705E+03 -0.79414215451E+01 -0.27056814678E+03  0.48911332683E+03  0.46999998093E+01 0. -1.
       -5    1    3    3    0  502 -0.40735680705E+03  0.79414215451E+01  0.77037368164E+03  0.87149316336E+03  0.46999998093E+01 0.  1.
</event>
<event>
 5   0  0.1623890E-03  0.1309094E+04  0.7818609E-02  0.9022385E-01
       -2   -1    0    0    0  501  0.00000000000E+00  0.00000000000E+00  0.24839124137E+03  0.24839124138E+03  0.25500000920E-02 0.  1.
        2   -1    0    0  501    0  0.00000000000E+00  0.00000000000E+00 -0.17248258838E+04  0.17248258838E+04  0.25500000920E-02 0. -1.
    10030    2    1    2    0    0  0.00000000000E+00  0.00000000000E+00 -0.14764346424E+04  0.19732171252E+04  0.13090937972E+04 0.  0.
        3    1    3    3  502    0  0.58428826011E+03  0.28566402395E+03 -0.62709508843E+03  0.90346276382E+03  0.10100000352E+00 0.  1.
       -3    1    3    3    0  502 -0.58428826011E+03 -0.28566402395E+03 -0.84933955400E+03  0.10697543614E+04  0.10100000352E+00 0. -1.
</event>
<event>
 5   0  0.6284125E-04  0.1296402E+04  0.7818609E-02  0.9032423E-01
       -4   -1    0    0    0  501  0.00000000000E+00  0.00000000000E+00  0.64980086103E+03  0.64980210210E+03  0.12699999809E+01 0.  1.
        4   -1    0    0  501    0  0.00000000000E+00  0.00000000000E+00 -0.64660281605E+03  0.64660406326E+03  0.12699999809E+01 0. -1.
    10030    2    1    2    0    0  0.00000000000E+00  0.00000000000E+00  0.31980449784E+01  0.12964061654E+04  0.12964022208E+04 0.  0.
        1    1    3    3  502    0  0.48696825414E+03 -0.41665379666E+03  0.98688002521E+02  0.64844258703E+03  0.50400001928E-02 0. -1.
       -1    1    3    3    0  502 -0.48696825414E+03  0.41665379666E+03 -0.95489957543E+02  0.64796357832E+03  0.50400001928E-02 0.  1.
</event>
<event>
 5   0  0.9098192E-04  0.1289256E+04  0.7818609E-02  0.9038129E-01
        1   -1    0    0  501    0  0.00000000000E+00  0.00000000000E+00  0.16897526183E+04  0.16897526183E+04  0.50400001928E-02 0.  1.
       -1   -1    0    0    0  501  0.00000000000E+00  0.00000000000E+00 -0.24592070256E+03  0.24592070261E+03  0.50400001928E-02 0. -1.
    10030    2    1    2    0    0  0.00000000000E+00  0.00000000000E+00  0.14438319158E+04  0.19356733209E+04  0.12892558336E+04 0.  0.
        1    1    3    3  502    0 -0.37483842349E+03 -0.22541707039E+03  0.10967169819E+02  0.43753511652E+03  0.50400001928E-02 0. -1.
       -1    1    3    3    0  502  0.37483842349E+03  0.22541707039E+03  0.14328647459E+04  0.14981382044E+04  0.50400001928E-02 0.  1.
</event>
<event>
 5   0  0.9027076E-04  0.1292358E+04  0.7818609E-02  0.9035647E-01
        1   -1    0    0  501    0  0.00000000000E+00  0.00000000000E+00  0.13183211041E+04  0.13183211041E+04  0.50400001928E-02 0.  1.
       -1   -1    0    0    0  501  0.00000000000E+00  0.00000000000E+00 -0.31672658201E+03  0.31672658205E+03  0.50400001928E-02 0. -1.
    10030    2    1    2    0    0  0.00000000000E+00  0.00000000000E+00  0.10015945221E+04  0.16350476862E+04  0.12923580577E+04 0.  0.
        5    1    3    3  502    0 -0.52132639495E+03  0.25236804114E+03  0.86320588989E+03  0.10395274583E+04  0.46999998093E+01 0.  1.
       -5    1    3    3    0  502  0.52132639495E+03 -0.25236804114E+03  0.13838863221E+03  0.59552022786E+03  0.46999998093E+01 0. -1.
</event>
<event>
 5   0  0.9027076E-04  0.1240082E+04  0.7818609E-02  0.9078479E-01
       -1   -1    0    0    0  501  0.00000000000E+00  0.00000000000E+00  0.53907819989E+03  0.53907819991E+03  0.50400001928E-02 0. -1.
        1   -1    0    0  501    0  0.00000000000E+00  0.00000000000E+00 -0.71316289920E+03  0.71316289922E+03  0.50400001928E-02 0.  1.
    10030    2    1    2    0    0  0.00000000000E+00  0.00000000000E+00 -0.17408469931E+03  0.12522410991E+04  0.12400815650E+04 0.  0.
        5    1    3    3  502    0  0.14887716547E+03  0.18456820800E+03  0.49146129049E+03  0.54569783200E+03  0.46999998093E+01 0. -1.
       -5    1    3    3    0  502 -0.14887716547E+03 -0.18456820800E+03 -0.66554598980E+03  0.70654326714E+03  0.46999998093E+01 0.  1.
</event>
<event>
 5   0  0.1714861E-03  0.1319105E+04  0.7818609E-02  0.9014550E-01
       -2   -1    0    0    0  501  0.00000000000E+00  0.00000000000E+00  0.55749606341E+03  0.55749606342E+03  0.25500000920E-02 0. -1.
        2   -1    0    0  501    0  0.00000000000E+00  0.00000000000E+00 -0.78029217545E+03  0.78029217545E+03  0.25500000920E-02 0.  1.
    10030    2    1    2    0    0  0.00000000000E+00  0.00000000000E+00 -0.22279611203E+03  0.13377882389E+04  0.13191054789E+04 0.  0.
        1    1    3    3  502    0 -0.33043408931E+03 -0.46589097109E+03 -0.44587014433E+03  0.72459731572E+03  0.50400001928E-02 0.  1.
       -1    1    3    3    0  502  0.33043408931E+03  0.46589097109E+03  0.22307403229E+03  0.61319092315E+03  0.50400001928E-02 0. -1.
</event>
<event>
 5   0  0.1714861E-03  0.1314023E+04  0.7818609E-02  0.9018518E-01
        2   -1    0    0  501    0  0.00000000000E+00  0.00000000000E+00  0.65891763770E+03  0.65891763771E+03  0.25500000920E-02 0. -1.
       -2   -1    0    0    0  501  0.00000000000E+00  0.00000000000E+00 -0.65511105149E+03  0.65511105149E+03  0.25500000920E-02 0.  1.
    10030    2    1    2    0    0  0.00000000000E+00  0.00000000000E+00  0.38065862122E+01  0.13140286892E+04  0.13140231756E+04 0.  0.
        1    1    3    3  502    0 -0.40543082631E+03 -0.89898699765E+02  0.51103045855E+03  0.65848922598E+03  0.50400001928E-02 0. -1.
       -1    1    3    3    0  502  0.40543082631E+03  0.89898699765E+02 -0.50722387234E+03  0.65553946322E+03  0.50400001928E-02 0.  1.
</event>
<event>
 5   0  0.9081324E-04  0.1307749E+04  0.7818609E-02  0.9023442E-01
        1   -1    0    0  501    0  0.00000000000E+00  0.00000000000E+00  0.36766411235E+03  0.36766411239E+03  0.50400001928E-02 0. -1.
       -1   -1    0    0    0  501  0.00000000000E+00  0.00000000000E+00 -0.11628879888E+04  0.11628879888E+04  0.50400001928E-02 0.  1.
    10030    2    1    2    0    0  0.00000000000E+00  0.00000000000E+00 -0.79522387647E+03  0.15305521012E+04  0.13077494870E+04 0.  0.
        4    1    3    3  502    0 -0.36201705692E+03 -0.12452333176E+02 -0.10347273053E+04  0.10962999678E+04  0.12699999809E+01 0.  1.
       -4    1    3    3    0  502  0.36201705692E+03  0.12452333176E+02  0.23950342882E+03  0.43425213346E+03  0.12699999809E+01 0. -1.
</event>
<event>
 5   0  0.1700511E-03  0.1299138E+04  0.7818609E-02  0.9030249E-01
       -2   -1    0    0    0  501  0.00000000000E+00  0.00000000000E+00  0.80432336722E+03  0.80432336722E+03  0.25500000920E-02 0. -1.
        2   -1    0    0  501    0  0.00000000000E+00  0.00000000000E+00 -0.52458970288E+03  0.52458970289E+03  0.25500000920E-02 0.  1.
    10030    2    1    2    0    0  0.00000000000E+00  0.00000000000E+00  0.27973366433E+03  0.13289130701E+04  0.12991378006E+04 0.  0.
        2    1    3    3  502    0  0.24111488715E+03  0.45380727699E+03 -0.26655833935E+03  0.57890481233E+03  0.25500000920E-02 0.  1.
       -2    1    3    3    0  502 -0.24111488715E+03 -0.45380727699E+03  0.54629200368E+03  0.75000825779E+03  0.25500000920E-02 0. -1.
</event>
<event>
 5   0  0.6284125E-04  0.1295082E+04  0.7818609E-02  0.9033474E-01
       -3   -1    0    0    0  501  0.00000000000E+00  0.00000000000E+00  0.38725994074E+03  0.38725995391E+03  0.10100000352E+00 0. -1.
        3   -1    0    0  501    0  0.00000000000E+00  0.00000000000E+00 -0.10827596388E+04  0.10827596435E+04  0.10100000352E+00 0.  1.
    10030    2    1    2    0    0  0.00000000000E+00  0.00000000000E+00 -0.69549969801E+03  0.14700195974E+04  0.12950821544E+04 0.  0.
        4    1    3    3  502    0 -0.20731811886E+03  0.25862402855E+03  0.28366455228E+03  0.43627328783E+03  0.12699999809E+01 0. -1.
       -4    1    3    3    0  502  0.20731811886E+03 -0.25862402855E+03 -0.97916425029E+03  0.10337463095E+04  0.12699999809E+01 0.  1.
</event>
<event>
 5   0  0.1667342E-03  0.1306211E+04  0.7818609E-02  0.9024654E-01
        2   -1    0    0  501    0  0.00000000000E+00  0.00000000000E+00  0.64417938315E+03  0.64417938316E+03  0.25500000920E-02 0.  1.
       -2   -1    0    0    0  501  0.00000000000E+00  0.00000000000E+00 -0.66215508361E+03  0.66215508361E+03  0.25500000920E-02 0. -1.
    10030    2    1    2    0    0  0.00000000000E+00  0.00000000000E+00 -0.17975700453E+02  0.13063344668E+04  0.13062107844E+04 0.  0.
        5    1    3    3  502    0  0.55870893854E+03 -0.19695543251E+03 -0.28392740019E+03  0.65695051486E+03  0.46999998093E+01 0. -1.
       -5    1    3    3    0  502 -0.55870893854E+03  0.19695543251E+03  0.26595169973E+03  0.64938395191E+03  0.46999998093E+01 0.  1.
</event>
<event>
 5   0  0.1667342E-03  0.1300732E+04  0.7818609E-02  0.9028985E-01
        2   -1    0    0  501    0  0.00000000000E+00  0.00000000000E+00  0.71542206048E+03  0.71542206049E+03  0.25500000920E-02 0.  1.
       -2   -1    0    0    0  501  0.00000000000E+00  0.00000000000E+00 -0.59122582514E+03  0.59122582514E+03  0.25500000920E-02 0. -1.
    10030    2    1    2    0    0  0.00000000000E+00  0.00000000000E+00  0.12419623535E+03  0.13066478856E+04  0.13007320985E+04 0.  0.
        5    1    3    3  502    0 -0.22935700394E+03 -0.15308028765E+03  0.65377239465E+03  0.70956229024E+03  0.46999998093E+01 0.  1.
       -5    1    3    3    0  502  0.22935700394E+03  0.15308028765E+03 -0.52957615930E+03  0.59708559539E+03  0.46999998093E+01 0. -1.
</event>
<event>
 5   0  0.9098192E-04  0.1314013E+04  0.7818609E-02  0.9018526E-01
       -1   -1    0    0    0  501  0.00000000000E+00  0.00000000000E+00  0.87360970572E+03  0.87360970573E+03  0.50400001928E-02 0. -1.
        1   -1    0    0  501    0  0.00000000000E+00  0.00000000000E+00 -0.49410809035E+03  0.49410809037E+03  0.50400001928E-02 0.  1.
    10030    2    1    2    0    0  0.00000000000E+00  0.00000000000E+00  0.37950161537E+03  0.13677177961E+04  0.13140131254E+04 0.  0.
        1    1    3    3  502    0  0.59424770797E+03  0.20854126287E+03  0.38458508920E+03  0.73791970268E+03  0.50400001928E-02 0. -1.
       -1    1    3    3    0  502 -0.59424770797E+03 -0.20854126287E+03 -0.50834738304E+01  0.62979809342E+03  0.50400001928E-02 0.  1.
</event>
<event>
 5   0  0.9081324E-04  0.1295507E+04  0.7818609E-02  0.9033136E-01
       -1   -1    0    0    0  501  0.00000000000E+00  0.00000000000E+00  0.30884114906E+03  0.30884114910E+03  0.50400001928E-02 0.  1.
        1   -1    0    0  501    0  0.00000000000E+00  0.00000000000E+00 -0.13585769895E+04  0.13585769895E+04  0.50400001928E-02 0. -1.
    10030    2    1    2    0    0  0.00000000000E+00  0.00000000000E+00 -0.10497358404E+04  0.16674181386E+04  0.12955068175E+04 0.  0.
        4    1    3    3  502    0 -0.26767827973E+03  0.39368983430E+03  0.40479499111E+02  0.47779027807E+03  0.12699999809E+01 0.  1.
       -4    1    3    3    0  502  0.26767827973E+03 -0.39368983430E+03 -0.10902153395E+04  0.11896278605E+04  0.12699999809E+01 0. -1.
</event>
<event>
 5   0  0.1623890E-03  0.1287274E+04  0.7818609E-02  0.9039718E-01
       -2   -1    0    0    0  501  0.00000000000E+00  0.00000000000E+00  0.26895066131E+03  0.26895066132E+03  0.25500000920E-02 0.  1.
        2   -1    0    0  501    0  0.00000000000E+00  0.00000000000E+00 -0.15403155798E+04  0.15403155798E+04  0.25500000920E-02 0. -1.
    10030    2    1    2    0    0  0.00000000000E+00  0.00000000000E+00 -0.12713649185E+04  0.18092662411E+04  0.12872744755E+04 0.  0.
        3    1    3    3  502    0 -0.42111110696E+03  0.28876659797E+03 -0.11864313686E+04  0.12916424099E+04  0.10100000352E+00 0. -1.
       -3    1    3    3    0  502  0.42111110696E+03 -0.28876659797E+03 -0.84933549872E+02  0.51762383118E+03  0.10100000352E+00 0.  1.
</event>
<event>
 5   0  0.1714861E-03  0.1317233E+04  0.7818609E-02  0.9016010E-01
       -2   -1    0    0    0  501  0.00000000000E+00  0.00000000000E+00  0.21681215850E+03  0.21681215851E+03  0.25500000920E-02 0.  1.
        2   -1    0    0  501    0  0.00000000000E+00  0.00000000000E+00 -0.20006984499E+04  0.20006984499E+04  0.25500000920E-02 0. -1.
    10030    2    1    2    0    0  0.00000000000E+00  0.00000000000E+00 -0.17838862914E+04  0.22175106084E+04  0.13172330841E+04 0.  0.
        1    1    3    3  502    0  0.48065284788E+03  0.33499269069E+03 -0.38542418657E+03  0.70128387020E+03  0.50400001928E-02 0.  1.
       -1    1    3    3    0  502 -0.48065284788E+03 -0.33499269069E+03 -0.13984621049E+04  0.15162267382E+04  0.50400001928E-02 0. -1.
</event>
<event>
 5   0  0.1667342E-03  0.1298020E+04  0.7818609E-02  0.9031137E-01
        2   -1    0    0  501    0  0.00000000000E+00  0.00000000000E+00  0.48337685867E+03  0.48337685868E+03  0.25500000920E-02 0.  1.
       -2   -1    0    0    0  501  0.00000000000E+00  0.00000000000E+00 -0.87139828013E+03  0.87139828014E+03  0.25500000920E-02 0. -1.
    10030    2    1    2    0    0  0.00000000000E+00  0.00000000000E+00 -0.38802142146E+03  0.13547751388E+04  0.12980196660E+04 0.  0.
        5    1    3    3  502    0 -0.11842199118E+03  0.62688138918E+03 -0.31833067056E+03  0.71299407424E+03  0.46999998093E+01 0.  1.
       -5    1    3    3    0  502  0.11842199118E+03 -0.62688138918E+03 -0.69690750899E+02  0.64178106458E+03  0.46999998093E+01 0. -1.
</event>
<event>
 5   0  0.6284125E-04  0.1291540E+04  0.7818609E-02  0.9036301E-01
        4   -1    0    0  501    0  0.00000000000E+00  0.00000000000E+00  0.74448124737E+03  0.74448233061E+03  0.12699999809E+01 0.  1.
       -4   -1    0    0    0  501  0.00000000000E+00  0.00000000000E+00 -0.56014512622E+03  0.56014656593E+03  0.12699999809E+01 0. -1.
    10030    2    1    2    0    0  0.00000000000E+00  0.00000000000E+00  0.18433612116E+03  0.13046288965E+04  0.12915404570E+04 0.  0.
        3    1    3    3  502    0  0.52002412674E+03  0.36882521003E+03 -0.11645260774E+02  0.63764625793E+03  0.10100000352E+00 0.  1.
       -3    1    3    3    0  502 -0.52002412674E+03 -0.36882521003E+03  0.19598138193E+03  0.66698263861E+03  0.10100000352E+00 0. -1.
</event>
<event>
 5   0  0.1623890E-03  0.1286846E+04  0.7818609E-02  0.9040062E-01
        2   -1    0    0  501    0  0.00000000000E+00  0.00000000000E+00  0.11381356021E+04  0.11381356021E+04  0.25500000920E-02 0.  1.
       -2   -1    0    0    0  501  0.00000000000E+00  0.00000000000E+00 -0.36374672396E+03  0.36374672397E+03  0.25500000920E-02 0. -1.
    10030    2    1    2    0    0  0.00000000000E+00  0.00000000000E+00  0.77438887813E+03  0.15018823261E+04  0.12868459064E+04 0.  0.
        3    1    3    3  502    0  0.57217230580E+03  0.10434684970E+03  0.70835721247E+03  0.91653661314E+03  0.10100000352E+00 0.  1.
       -3    1    3    3    0  502 -0.57217230580E+03 -0.10434684970E+03  0.66031665660E+02  0.58534571293E+03  0.10100000352E+00 0. -1.
</event>
<event>
 5   0  0.1694675E-03  0.1293845E+04  0.7818609E-02  0.9034460E-01
       -2   -1    0    0    0  501  0.00000000000E+00  0.00000000000E+00  0.48945615223E+03  0.48945615223E+03  0.25500000920E-02 0. -1.
        2   -1    0    0  501    0  0.00000000000E+00  0.00000000000E+00 -0.85504890998E+03  0.85504890998E+03  0.25500000920E-02 0.  1.
    10030    2    1    2    0    0  0.00000000000E+00  0.00000000000E+00 -0.36559275775E+03  0.13445050622E+04  0.12938453531E+04 0.  0.
        4    1    3    3  502    0 -0.33545339728E+03  0.29239026017E+03  0.30514861520E+03  0.53957236424E+03  0.12699999809E+01 0. -1.
       -4    1    3    3    0  502  0.33545339728E+03 -0.29239026017E+03 -0.67074137295E+03  0.80493269798E+03  0.12699999809E+01 0.  1.
</event>
<event>
 5   0  0.9027076E-04  0.1348652E+04  0.7818609E-02  0.8991849E-01
       -1   -1    0    0    0  501  0.00000000000E+00  0.00000000000E+00  0.26768106734E+03  0.26768106739E+03  0.50400001928E-02 0.  1.
        1   -1    0    0  501    0  0.00000000000E+00  0.00000000000E+00 -0.16987222399E+04  0.16987222400E+04  0.50400001928E-02 0. -1.
    10030    2    1    2    0    0  0.00000000000E+00  0.00000000000E+00 -0.14310411726E+04  0.19664033073E+04  0.13486523382E+04 0.  0.
        5    1    3    3  502    0 -0.59523116916E+03 -0.50740145208E+02 -0.25950029989E+03  0.65133493896E+03  0.46999998093E+01 0.  1.
       -5    1    3    3    0  502  0.59523116916E+03  0.50740145208E+02 -0.11715408727E+04  0.13150683684E+04  0.46999998093E+01 0. -1.
</event>
<event>
 5   0  0.1623890E-03  0.1195955E+04  0.7818609E-02  0.9116404E-01
        2   -1    0    0  501    0  0.00000000000E+00  0.00000000000E+00  0.33911143922E+03  0.33911143923E+03  0.25500000920E-02 0.  1.
       -2   -1    0    0    0  501  0.00000000000E+00  0.00000000000E+00 -0.10544530883E+04  0.10544530883E+04  0.25500000920E-02 0. -1.
    10030    2    1    2    0    0  0.00000000000E+00  0.00000000000E+00 -0.71534164904E+03  0.13935645275E+04  0.11959550232E+04 0.  0.
        3    1    3    3  502    0  0.46414834576E+03  0.36868687222E+03 -0.44952032661E+03  0.74393025940E+03  0.10100000352E+00 0. -1.
       -3    1    3    3    0  502 -0.46414834576E+03 -0.36868687222E+03 -0.26582132243E+03  0.64963426809E+03  0.10100000352E+00 0.  1.
</event>
<event>
 5   0  0.1694675E-03  0.1299699E+04  0.7818609E-02  0.9029804E-01
        2   -1    0    0  501    0  0.00000000000E+00  0.00000000000E+00  0.20168812466E+04  0.20168812466E+04  0.25500000920E-02 0. -1.
       -2   -1    0    0    0  501  0.00000000000E+00  0.00000000000E+00 -0.20938481699E+03  0.20938481701E+03  0.25500000920E-02 0.  1.
    10030    2    1    2    0    0  0.00000000000E+00  0.00000000000E+00  0.18074964296E+04  0.22262660636E+04  0.12996989047E+04 0.  0.
        4    1    3    3  502    0  0.63702851251E+03 -0.29687389166E+02  0.11178003894E+04  0.12869211283E+04  0.12699999809E+01 0. -1.
       -4    1    3    3    0  502 -0.63702851251E+03  0.29687389166E+02  0.68969604013E+03  0.93934493531E+03  0.12699999809E+01 0.  1.
</event>
<event>
 5   0  0.1714861E-03  0.1338433E+04  0.7818609E-02  0.8999631E-01
       -2   -1    0    0    0  501  0.00000000000E+00  0.00000000000E+00  0.37991501741E+03  0.37991501742E+03  0.25500000920E-02 0.  1.
        2   -1    0    0  501    0  0.00000000000E+00  0.00000000000E+00 -0.11788183781E+04  0.11788183781E+04  0.25500000920E-02 0. -1.
    10030    2    1    2    0    0  0.00000000000E+00  0.00000000000E+00 -0.79890336069E+03  0.15587333955E+04  0.13384331207E+04 0.  0.
        1    1    3    3  502    0  0.32422876169E+03 -0.15162160620E+03 -0.10579761039E+04  0.11168826428E+04  0.50400001928E-02 0. -1.
       -1    1    3    3    0  502 -0.32422876169E+03  0.15162160620E+03  0.25907274321E+03  0.44185075272E+03  0.50400001928E-02 0.  1.
</event>
<event>
 5   0  0.9081324E-04  0.1259856E+04  0.7818609E-02  0.9062020E-01
        1   -1    0    0  501    0  0.00000000000E+00  0.00000000000E+00  0.54345441520E+03  0.54345441523E+03  0.50400001928E-02 0. -1.
       -1   -1    0    0    0  501  0.00000000000E+00  0.00000000000E+00 -0.73016062595E+03  0.73016062597E+03  0.50400001928E-02 0.  1.
    10030    2    1    2    0    0  0.00000000000E+00  0.00000000000E+00 -0.18670621075E+03  0.12736150412E+04  0.12598555727E+04 0.  0.
        4    1    3    3  502    0  0.14469994018E+03 -0.60867378123E+03 -0.16754095626E+03  0.64768312435E+03  0.12699999809E+01 0. -1.
       -4    1    3    3    0  502 -0.14469994018E+03  0.60867378123E+03 -0.19165254488E+02  0.62593191685E+03  0.12699999809E+01 0.  1.
</event>
<event>
 5   0  0.1623890E-03  0.1279434E+04  0.7818609E-02  0.9046035E-01
        2   -1    0    0  501    0  0.00000000000E+00  0.00000000000E+00  0.14517526326E+04  0.14517526326E+04  0.25500000920E-02 0. -1.
       -2   -1    0    0    0  501  0.00000000000E+00  0.00000000000E+00 -0.28189232729E+03  0.28189232730E+03  0.25500000920E-02 0.  1.
    10030    2    1    2    0    0  0.00000000000E+00  0.00000000000E+00  0.11698603053E+04  0.17336449599E+04  0.12794341378E+04 0.  0.
        3    1    3    3  502    0 -0.29211663201E+03  0.53611659554E+02  0.13526735780E+04  0.13848942759E+04  0.10100000352E+00 0. -1.
       -3    1    3    3    0  502  0.29211663201E+03 -0.53611659554E+02 -0.18281327265E+03  0.34875068400E+03  0.10100000352E+00 0.  1.
</event>
<event>
 5   0  0.1667342E-03  0.1294881E+04  0.7818609E-02  0.9033634E-01
        2   -1    0    0  501    0  0.00000000000E+00  0.00000000000E+00  0.45501260002E+03  0.45501260003E+03  0.25500000920E-02 0.  1.
       -2   -1    0    0    0  501  0.00000000000E+00  0.00000000000E+00 -0.92124800541E+03  0.92124800541E+03  0.25500000920E-02 0. -1.
    10030    2    1    2    0    0  0.00000000000E+00  0.00000000000E+00 -0.46623540539E+03  0.13762606054E+04  0.12948813849E+04 0.  0.
        5    1    3    3  502    0  0.36117895529E+03  0.53236566322E+03 -0.15578565593E+03  0.66193254771E+03  0.46999998093E+01 0. -1.
       -5    1    3    3    0  502 -0.36117895529E+03 -0.53236566322E+03 -0.31044974945E+03  0.71432805773E+03  0.46999998093E+01 0.  1.
</event>
<event>
 5   0  0.9215829E-04  0.1287784E+04  0.7818609E-02  0.9039309E-01
       -1   -1    0    0    0  501  0.00000000000E+00  0.00000000000E+00  0.55988899360E+03  0.55988899362E+03  0.50400001928E-02 0.  1.
        1   -1    0    0  501    0  0.00000000000E+00  0.00000000000E+00 -0.74049880000E+03  0.74049880002E+03  0.50400001928E-02 0. -1.
    10030    2    1    2    0    0  0.00000000000E+00  0.00000000000E+00 -0.18060980640E+03  0.13003877936E+04  0.12877843421E+04 0.  0.
        3    1    3    3  502    0  0.10813784672E+03  0.35829682560E+03 -0.61938575680E+03  0.72367750764E+03  0.10100000352E+00 0. -1.
       -3    1    3    3    0  502 -0.10813784672E+03 -0.35829682560E+03  0.43877595040E+03  0.57671028600E+03  0.10100000352E+00 0.  1.
</event>
<event>
 5   0  0.6284125E-04  0.1299450E+04  0.7818609E-02  0.9030001E-01
       -3   -1    0    0    0  501  0.00000000000E+00  0.00000000000E+00  0.53664245784E+03  0.53664246735E+03  0.10100000352E+00 0.  1.
        3   -1    0    0  501    0  0.00000000000E+00  0.00000000000E+00 -0.78663694740E+03  0.78663695389E+03  0.10100000352E+00 0. -1.
    10030    2    1    2    0    0  0.00000000000E+00  0.00000000000E+00 -0.24999448956E+03  0.13232794212E+04  0.12994503384E+04 0.  0.
        3    1    3    3  502    0  0.57908864137E+03  0.10142907390E+03  0.15668183155E+03  0.60842478429E+03  0.10100000352E+00 0.  1.
       -3    1    3    3    0  502 -0.57908864137E+03 -0.10142907390E+03 -0.40667632111E+03  0.71485463694E+03  0.10100000352E+00 0. -1.
</event>
<event>
 5   0  0.9081324E-04  0.1318030E+04  0.7818609E-02  0.9015388E-01
        1   -1    0    0  501    0  0.00000000000E+00  0.00000000000E+00  0.88167148585E+03  0.88167148586E+03  0.50400001928E-02 0.  1.
       -1   -1    0    0    0  501  0.00000000000E+00  0.00000000000E+00 -0.49258824274E+03  0.49258824276E+03  0.50400001928E-02 0. -1.
    10030    2    1    2    0    0  0.00000000000E+00  0.00000000000E+00  0.38908324311E+03  0.13742597286E+04  0.13180303607E+04 0.  0.
        4    1    3    3  502    0  0.60630215893E+03 -0.80708978137E+02 -0.61246784658E+02  0.61471052424E+03  0.12699999809E+01 0. -1.
       -4    1    3    3    0  502 -0.60630215893E+03  0.80708978137E+02  0.45033002777E+03  0.75954920439E+03  0.12699999809E+01 0.  1.
</event>
<event>
 5   0  0.1694675E-03  0.1320198E+04  0.7818609E-02  0.9013700E-01
        2   -1    0    0  501    0  0.00000000000E+00  0.00000000000E+00  0.14814036485E+04  0.14814036485E+04  0.25500000920E-02 0. -1.
       -2   -1    0    0    0  501  0.00000000000E+00  0.00000000000E+00 -0.29413360644E+03  0.29413360645E+03  0.25500000920E-02 0.  1.
    10030    2    1    2    0    0  0.00000000000E+00  0.00000000000E+00  0.11872700420E+04  0.17755372549E+04  0.13201978605E+04 0.  0.
        4    1    3    3  502    0 -0.59299942890E+02 -0.43090146215E+03  0.12614118068E+04  0.13342990341E+04  0.12699999809E+01 0. -1.
       -4    1    3    3    0  502  0.59299942890E+02  0.43090146215E+03 -0.74141764744E+02  0.44123822079E+03  0.12699999809E+01 0.  1.
</event>
<event>
 5   0  0.9215829E-04  0.1257855E+04  0.7818609E-02  0.9063671E-01
        1   -1    0    0  501    0  0.00000000000E+00  0.00000000000E+00  0.58891128581E+03  0.58891128583E+03  0.50400001928E-02 0.  1.
       -1   -1    0    0    0  501  0.00000000000E+00  0.00000000000E+00 -0.67166271629E+03  0.67166271630E+03  0.50400001928E-02 0. -1.
    10030    2    1    2    0    0  0.00000000000E+00  0.00000000000E+00 -0.82751430478E+02  0.12605740021E+04  0.12578549263E+04 0.  0.
        3    1    3    3  502    0  0.30380461654E+03 -0.23698435294E+03 -0.53953264950E+03  0.66298892800E+03  0.10100000352E+00 0. -1.
       -3    1    3    3    0  502 -0.30380461654E+03  0.23698435294E+03  0.45678121903E+03  0.59758507413E+03  0.10100000352E+00 0.  1.
</event>
<event>
 5   0  0.1667342E-03  0.1300395E+04  0.7818609E-02  0.9029252E-01
       -2   -1    0    0    0  501  0.00000000000E+00  0.00000000000E+00  0.21563133421E+03  0.21563133423E+03  0.25500000920E-02 0. -1.
        2   -1    0    0  501    0  0.00000000000E+00  0.00000000000E+00 -0.19605522498E+04  0.19605522498E+04  0.25500000920E-02 0.  1.
    10030    2    1    2    0    0  0.00000000000E+00  0.00000000000E+00 -0.17449209156E+04  0.21761835840E+04  0.13003945516E+04 0.  0.
        5    1    3    3  502    0 -0.42069490506E+03 -0.27321368206E+03 -0.15646915299E+04  0.16431407709E+04  0.46999998093E+01 0.  1.
       -5    1    3    3    0  502  0.42069490506E+03  0.27321368206E+03 -0.18022938572E+03  0.53304281318E+03  0.46999998093E+01 0. -1.
</event>
<event>
 5   0  0.1700511E-03  0.1303826E+04  0.7818609E-02  0.9026536E-01
        2   -1    0    0  501    0  0.00000000000E+00  0.00000000000E+00  0.15004029377E+04  0.15004029377E+04  0.25500000920E-02 0.  1.
       -2   -1    0    0    0  501  0.00000000000E+00  0.00000000000E+00 -0.28325110732E+03  0.28325110734E+03  0.25500000920E-02 0. -1.
    10030    2    1    2    0    0  0.00000000000E+00  0.00000000000E+00  0.12171518304E+04  0.17836540451E+04  0.13038263589E+04 0.  0.
        2    1    3    3  502    0 -0.63868918112E+02 -0.59970568362E+03  0.94718284131E+03  0.11228897900E+04  0.25500000920E-02 0. -1.
       -2    1    3    3    0  502  0.63868918112E+02  0.59970568362E+03  0.26996898910E+03  0.66076425505E+03  0.25500000920E-02 0.  1.
</event>
<event>
 5   0  0.1667342E-03  0.1301203E+04  0.7818609E-02  0.9028612E-01
       -2   -1    0    0    0  501  0.00000000000E+00  0.00000000000E+00  0.29885958407E+03  0.29885958408E+03  0.25500000920E-02 0. -1.
        2   -1    0    0  501    0  0.00000000000E+00  0.00000000000E+00 -0.14163254960E+04  0.14163254960E+04  0.25500000920E-02 0.  1.
    10030    2    1    2    0    0  0.00000000000E+00  0.00000000000E+00 -0.11174659119E+04  0.17151850801E+04  0.13012032103E+04 0.  0.
        5    1    3    3  502    0  0.67154992560E+02  0.56978149910E+03 -0.15438079043E+03  0.59415172153E+03  0.46999998093E+01 0. -1.
       -5    1    3    3    0  502 -0.67154992560E+02 -0.56978149910E+03 -0.96308512147E+03  0.11210333585E+04  0.46999998093E+01 0.  1.
</event>
<event>
 5   0  0.9027076E-04  0.1318722E+04  0.7818609E-02  0.9014848E-01
        1   -1    0    0  501    0  0.00000000000E+00  0.00000000000E+00  0.55174589309E+03  0.55174589311E+03  0.50400001928E-02 0. -1.
       -1   -1    0    0    0  501  0.00000000000E+00  0.00000000000E+00 -0.78796642398E+03  0.78796642400E+03  0.50400001928E-02 0.  1.
    10030    2    1    2    0    0  0.00000000000E+00  0.00000000000E+00 -0.23622053090E+03  0.13397123171E+04  0.13187224702E+04 0.  0.
        5    1    3    3  502    0 -0.46679335482E+03 -0.22073232336E+03 -0.53465641548E+03  0.74330233909E+03  0.46999998093E+01 0.  1.
       -5    1    3    3    0  502  0.46679335482E+03  0.22073232336E+03  0.29843588458E+03  0.59640997802E+03  0.46999998093E+01 0. -1.
</event>
<event>
 5   0  0.9081324E-04  0.1294380E+04  0.7818609E-02  0.9034034E-01
       -1   -1    0    0    0  501  0.00000000000E+00  0.00000000000E+00  0.69391943738E+03  0.69391943740E+03  0.50400001928E-02 0. -1.
        1   -1    0    0  501    0  0.00000000000E+00  0.00000000000E+00 -0.60360718970E+03  0.60360718972E+03  0.50400001928E-02 0.  1.
    10030    2    1    2    0    0  0.00000000000E+00  0.00000000000E+00  0.90312247683E+02  0.12975266271E+04  0.12943797920E+04 0.  0.
        4    1    3    3  502    0  0.53321489744E+02 -0.25888163658E+02  0.69119152078E+03  0.69372956516E+03  0.12699999809E+01 0. -1.
       -4    1    3    3    0  502 -0.53321489744E+02  0.25888163658E+02 -0.60087927309E+03  0.60379706195E+03  0.12699999809E+01 0.  1.
</event>
<event>
 5   0  0.1623890E-03  0.1307671E+04  0.7818609E-02  0.9023504E-01
        2   -1    0    0  501    0  0.00000000000E+00  0.00000000000E+00  0.41647429760E+03  0.41647429761E+03  0.25500000920E-02 0. -1.
       -2   -1    0    0    0  501  0.00000000000E+00  0.00000000000E+00 -0.10264754175E+04  0.10264754175E+04  0.25500000920E-02 0.  1.
    10030    2    1    2    0    0  0.00000000000E+00  0.00000000000E+00 -0.61000111991E+03  0.14429497151E+04  0.13076706443E+04 0.  0.
        3    1    3    3  502    0 -0.28607017351E+03 -0.69336854738E+02 -0.94922745421E+03  0.99381915539E+03  0.10100000352E+00 0.  1.
       -3    1    3    3    0  502  0.28607017351E+03  0.69336854738E+02  0.33922633430E+03  0.44913055973E+03  0.10100000352E+00 0. -1.
</event>
<event>
 5   0  0.9110949E-04  0.1305841E+04  0.7818609E-02  0.9024946E-01
        1   -1    0    0  501    0  0.00000000000E+00  0.00000000000E+00  0.76697415078E+03  0.76697415079E+03  0.50400001928E-02 0.  1.
       -1   -1    0    0    0  501  0.00000000000E+00  0.00000000000E+00 -0.55582690871E+03  0.55582690874E+03  0.50400001928E-02 0. -1.
    10030    2    1    2    0    0  0.00000000000E+00  0.00000000000E+00  0.21114724206E+03  0.13228010595E+04  0.13058405283E+04 0.  0.
        2    1    3    3  502    0 -0.39006500710E+03 -0.51774600018E+03  0.26500557820E+02  0.64877878359E+03  0.25500000920E-02 0.  1.
       -2    1    3    3    0  502  0.39006500710E+03  0.51774600018E+03  0.18464668424E+03  0.67402227594E+03  0.25500000920E-02 0. -1.
</event>
<event>
 5   0  0.1694675E-03  0.1296742E+04  0.7818609E-02  0.9032152E-01
        2   -1    0    0  501    0  0.00000000000E+00  0.00000000000E+00  0.65887091843E+03  0.65887091843E+03  0.25500000920E-02 0. -1.
       -2   -1    0    0    0  501  0.00000000000E+00  0.00000000000E+00 -0.63803885436E+03  0.63803885436E+03  0.25500000920E-02 0.  1.
    10030    2    1    2    0    0  0.00000000000E+00  0.00000000000E+00  0.20832064071E+02  0.12969097728E+04  0.12967424509E+04 0.  0.
        4    1    3    3  502    0 -0.36052254477E+03  0.26837425291E+03 -0.45695828118E+03  0.64094752402E+03  0.12699999809E+01 0.  1.
       -4    1    3    3    0  502  0.36052254477E+03 -0.26837425291E+03  0.47779034525E+03  0.65596224878E+03  0.12699999809E+01 0. -1.
</event>
<event>
 5   0  0.9081324E-04  0.1319850E+04  0.7818609E-02  0.9013971E-01
        1   -1    0    0  501    0  0.00000000000E+00  0.00000000000E+00  0.61114066530E+03  0.61114066532E+03  0.50400001928E-02 0.  1.
       -1   -1    0    0    0  501  0.00000000000E+00  0.00000000000E+00 -0.71260332888E+03  0.71260332890E+03  0.50400001928E-02 0. -1.
    10030    2    1    2    0    0  0.00000000000E+00  0.00000000000E+00 -0.10146266359E+03  0.13237439942E+04  0.13198497983E+04 0.  0.
        4    1    3    3  502    0  0.10228252738E+03 -0.65185937928E+03 -0.39887685342E+02  0.66104085056E+03  0.12699999809E+01 0. -1.
       -4    1    3    3    0  502 -0.10228252738E+03  0.65185937928E+03 -0.61574978246E+02  0.66270314366E+03  0.12699999809E+01 0.  1.
</event>
<event>
 5   0  0.9098192E-04  0.1325151E+04  0.7818609E-02  0.9009855E-01
        1   -1    0    0  501    0  0.00000000000E+00  0.00000000000E+00  0.12715460501E+04  0.12715460501E+04  0.50400001928E-02 0.  1.
       -1   -1    0    0    0  501  0.00000000000E+00  0.00000000000E+00 -0.34525383259E+03  0.34525383262E+03  0.50400001928E-02 0. -1.
    10030    2    1    2    0    0  0.00000000000E+00  0.00000000000E+00  0.92629221750E+03  0.16167998827E+04  0.13251507796E+04 0.  0.
        1    1    3    3  502    0 -0.35100009122E+03  0.31780906288E+03  0.10286174781E+04  0.11323681296E+04  0.50400001928E-02 0.  1.
       -1    1    3    3    0  502  0.35100009122E+03 -0.31780906288E+03 -0.10232526064E+03  0.48443175316E+03  0.50400001928E-02 0. -1.
</event>
<event>
 5   0  0.9027076E-04  0.1268858E+04  0.7818609E-02  0.9054632E-01
        1   -1    0    0  501    0  0.00000000000E+00  0.00000000000E+00  0.14355479035E+04  0.14355479035E+04  0.50400001928E-02 0.  1.
       -1   -1    0    0    0  501  0.00000000000E+00  0.00000000000E+00 -0.28038089924E+03  0.28038089928E+03  0.50400001928E-02 0. -1.
    10030    2    1    2    0    0  0.00000000000E+00  0.00000000000E+00  0.11551670042E+04  0.17159288027E+04  0.12688580884E+04 0.  0.
        5    1    3    3  502    0  0.19630610110E+02 -0.63864734887E+02  0.14307531898E+04  0.14323200918E+04  0.46999998093E+01 0.  1.
       -5    1    3    3    0  502 -0.19630610110E+02  0.63864734887E+02 -0.27558618562E+03  0.28360871093E+03  0.46999998093E+01 0. -1.
</event>
<event>
 5   0  0.9215829E-04  0.1283818E+04  0.7818609E-02  0.9042497E-01
       -1   -1    0    0    0  501  0.00000000000E+00  0.00000000000E+00  0.31973806688E+03  0.31973806692E+03  0.50400001928E-02 0.  1.
        1   -1    0    0  501    0  0.00000000000E+00  0.00000000000E+00 -0.12887031715E+04  0.12887031715E+04  0.50400001928E-02 0. -1.
    10030    2    1    2    0    0  0.00000000000E+00  0.00000000000E+00 -0.96896510463E+03  0.16084412384E+04  0.12838184621E+04 0.  0.
        3    1    3    3  502    0  0.44665876254E+01  0.25080701122E+03 -0.12247540470E+04  0.12501786245E+04  0.10100000352E+00 0. -1.
       -3    1    3    3    0  502 -0.44665876254E+01 -0.25080701122E+03  0.25578894240E+03  0.35826261393E+03  0.10100000352E+00 0.  1.
</event>
<event>
 5   0  0.1700511E-03  0.1297412E+04  0.7818609E-02  0.9031620E-01
       -2   -1    0    0    0  501  0.00000000000E+00  0.00000000000E+00  0.50801077796E+03  0.50801077796E+03  0.25500000920E-02 0.  1.
        2   -1    0    0  501    0  0.00000000000E+00  0.00000000000E+00 -0.82836718034E+03  0.82836718035E+03  0.25500000920E-02 0. -1.
    10030    2    1    2    0    0  0.00000000000E+00  0.00000000000E+00 -0.32035640239E+03  0.13363779583E+04  0.12974119712E+04 0.  0.
        2    1    3    3  502    0 -0.33970015234E+03 -0.51227559712E+03 -0.37376300658E+03  0.71938950924E+03  0.25500000920E-02 0. -1.
       -2    1    3    3    0  502  0.33970015234E+03  0.51227559712E+03  0.53406604199E+02  0.61698844907E+03  0.25500000920E-02 0.  1.
</event>
<event>
 5   0  0.9081324E-04  0.1297287E+04  0.7818609E-02  0.9031719E-01
       -1   -1    0    0    0  501  0.00000000000E+00  0.00000000000E+00  0.26392578324E+03  0.26392578329E+03  0.50400001928E-02 0.  1.
        1   -1    0    0  501    0  0.00000000000E+00  0.00000000000E+00 -0.15941540286E+04  0.15941540286E+04  0.50400001928E-02 0. -1.
    10030    2    1    2    0    0  0.00000000000E+00  0.00000000000E+00 -0.13302282454E+04  0.18580798119E+04  0.12972869392E+04 0.  0.
        4    1    3    3  502    0  0.45708742614E+03  0.43113744863E+03 -0.43448426381E+03  0.76392840184E+03  0.12699999809E+01 0.  1.
       -4    1    3    3    0  502 -0.45708742614E+03 -0.43113744863E+03 -0.89574398154E+03  0.10941514100E+04  0.12699999809E+01 0. -1.
</event>
<event>
 5   0  0.1667342E-03  0.1286188E+04  0.7818609E-02  0.9040590E-01
        2   -1    0    0  501    0  0.00000000000E+00  0.00000000000E+00  0.46427321958E+03  0.46427321958E+03  0.25500000920E-02 0. -1.
       -2   -1    0    0    0  501  0.00000000000E+00  0.00000000000E+00 -0.89078996076E+03  0.89078996076E+03  0.25500000920E-02 0.  1.
    10030    2    1    2    0    0  0.00000000000E+00  0.00000000000E+00 -0.42651674118E+03  0.13550631803E+04  0.12861880470E+04 0.  0.
        5    1    3    3  502    0 -0.57955601361E+03  0.26775723664E+03 -0.13186373839E+03  0.65191199267E+03  0.46999998093E+01 0.  1.
       -5    1    3    3    0  502  0.57955601361E+03 -0.26775723664E+03 -0.29465300279E+03  0.70315118768E+03  0.46999998093E+01 0. -1.
</event>
<event>
 5   0  0.6284125E-04  0.1299731E+04  0.7818609E-02  0.9029779E-01
        3   -1    0    0  501    0  0.00000000000E+00  0.00000000000E+00  0.32468132447E+03  0.32468134018E+03  0.10100000352E+00 0. -1.
       -3   -1    0    0    0  501  0.00000000000E+00  0.00000000000E+00 -0.13007370979E+04  0.13007371018E+04  0.10100000352E+00 0.  1.
    10030    2    1    2    0    0  0.00000000000E+00  0.00000000000E+00 -0.97605577344E+03  0.16254184420E+04  0.12997308332E+04 0.  0.
        5    1    3    3  502    0 -0.22884242766E+03  0.49564300998E+02  0.27007322534E+03  0.35747323491E+03  0.46999998093E+01 0. -1.
       -5    1    3    3    0  502  0.22884242766E+03 -0.49564300998E+02 -0.12461289988E+04  0.12679452071E+04  0.46999998093E+01 0.  1.
</event>
<event>
 5   0  0.1694675E-03  0.1405845E+04  0.7818609E-02  0.8949598E-01
        2   -1    0    0  501    0  0.00000000000E+00  0.00000000000E+00  0.63602436513E+03  0.63602436513E+03  0.25500000920E-02 0. -1.
       -2   -1    0    0    0  501  0.00000000000E+00  0.00000000000E+00 -0.77685712073E+03  0.77685712074E+03  0.25500000920E-02 0.  1.
    10030    2    1    2    0    0  0.00000000000E+00  0.00000000000E+00 -0.14083275560E+03  0.14128814859E+04  0.14058450228E+04 0.  0.
        4    1    3    3  502    0  0.70578651770E+02  0.25858570854E+03 -0.72347683487E+03  0.77153629742E+03  0.12699999809E+01 0.  1.
       -4    1    3    3    0  502 -0.70578651770E+02 -0.25858570854E+03  0.58264407926E+03  0.64134518845E+03  0.12699999809E+01 0. -1.
</event>
<event>
 5   0  0.9098192E-04  0.1300277E+04  0.7818609E-02  0.9029346E-01
        1   -1    0    0  501    0  0.00000000000E+00  0.00000000000E+00  0.12046793718E+04  0.12046793718E+04  0.50400001928E-02 0. -1.
       -1   -1    0    0    0  501  0.00000000000E+00  0.00000000000E+00 -0.35086493382E+03  0.35086493385E+03  0.50400001928E-02 0.  1.
    10030    2    1    2    0    0  0.00000000000E+00  0.00000000000E+00  0.85381443799E+03  0.15555443057E+04  0.13002765061E+04 0.  0.
        1    1    3    3  502    0 -0.27321567107E+03  0.36254876332E+03 -0.12985173880E+03  0.47217569061E+03  0.50400001928E-02 0.  1.
       -1    1    3    3    0  502  0.27321567107E+03 -0.36254876332E+03  0.98366617679E+03  0.10833686151E+04  0.50400001928E-02 0. -1.
</event>
<event>
 5   0  0.1667342E-03  0.1332336E+04  0.7818609E-02  0.9004308E-01
       -2   -1    0    0    0  501  0.00000000000E+00  0.00000000000E+00  0.30400798887E+03  0.30400798888E+03  0.25500000920E-02 0.  1.
        2   -1    0    0  501    0  0.00000000000E+00  0.00000000000E+00 -0.14597641562E+04  0.14597641562E+04  0.25500000920E-02 0. -1.
    10030    2    1    2    0    0  0.00000000000E+00  0.00000000000E+00 -0.11557561673E+04  0.17637721451E+04  0.13323362419E+04 0.  0.
        5    1    3    3  502    0  0.31630354869E+03 -0.91209541564E+02  0.18878435238E+03  0.37951118177E+03  0.46999998093E+01 0.  1.
       -5    1    3    3    0  502 -0.31630354869E+03  0.91209541564E+02 -0.13445405197E+04  0.13842609633E+04  0.46999998093E+01 0. -1.
</event>
<event>
 5   0  0.6284125E-04  0.1288775E+04  0.7818609E-02  0.9038514E-01
       -3   -1    0    0    0  501  0.00000000000E+00  0.00000000000E+00  0.21959023448E+03  0.21959025771E+03  0.10100000352E+00 0.  1.
        3   -1    0    0  501    0  0.00000000000E+00  0.00000000000E+00 -0.18909545307E+04  0.18909545334E+04  0.10100000352E+00 0. -1.
    10030    2    1    2    0    0  0.00000000000E+00  0.00000000000E+00 -0.16713642963E+04  0.21105447911E+04  0.12887748852E+04 0.  0.
        3    1    3    3  502    0 -0.19417229773E+03  0.10241241518E+03 -0.18278303808E+04  0.18409658050E+04  0.10100000352E+00 0. -1.
       -3    1    3    3    0  502  0.19417229773E+03 -0.10241241518E+03  0.15646608451E+03  0.26957898618E+03  0.10100000352E+00 0.  1.
</event>
<event>
 5   0  0.1714861E-03  0.1309116E+04  0.7818609E-02  0.9022367E-01
        2   -1    0    0  501    0  0.00000000000E+00  0.00000000000E+00  0.20447822611E+04  0.20447822611E+04  0.25500000920E-02 0. -1.
       -2   -1    0    0    0  501  0.00000000000E+00  0.00000000000E+00 -0.20953150837E+03  0.20953150838E+03  0.25500000920E-02 0.  1.
    10030    2    1    2    0    0  0.00000000000E+00  0.00000000000E+00  0.18352507528E+04  0.22543137695E+04  0.13091162079E+04 0.  0.
        1    1    3    3  502    0  0.57228139956E+03 -0.89745404671E+02  0.14424466928E+04  0.15544171575E+04  0.50400001928E-02 0. -1.
       -1    1    3    3    0  502 -0.57228139956E+03  0.89745404671E+02  0.39280405995E+03  0.69989661200E+03  0.50400001928E-02 0.  1.
</event>
<event>
 5   0  0.1623890E-03  0.1299878E+04  0.7818609E-02  0.9029662E-01
       -2   -1    0    0    0  501  0.00000000000E+00  0.00000000000E+00  0.29244620283E+03  0.29244620285E+03  0.25500000920E-02 0. -1.
        2   -1    0    0  501    0  0.00000000000E+00  0.00000000000E+00 -0.14444381068E+04  0.14444381068E+04  0.25500000920E-02 0.  1.
    10030    2    1    2    0    0  0.00000000000E+00  0.00000000000E+00 -0.11519919040E+04  0.17368843096E+04  0.12998775936E+04 0.  0.
        3    1    3    3  502    0 -0.47576521954E+03  0.39563478794E+03 -0.84169638209E+03  0.10446684830E+04  0.10100000352E+00 0.  1.
       -3    1    3    3    0  502  0.47576521954E+03 -0.39563478794E+03 -0.31029552186E+03  0.69221582663E+03  0.10100000352E+00 0. -1.
</event>
<event>
 5   0  0.9098192E-04  0.1307537E+04  0.7818609E-02  0.9023609E-01
       -1   -1    0    0    0  501  0.00000000000E+00  0.00000000000E+00  0.61616508654E+03  0.61616508656E+03  0.50400001928E-02 0. -1.
        1   -1    0    0  501    0  0.00000000000E+00  0.00000000000E+00 -0.69366724705E+03  0.69366724707E+03  0.50400001928E-02 0.  1.
    10030    2    1    2    0    0  0.00000000000E+00  0.00000000000E+00 -0.77502160517E+02  0.13098323336E+04  0.13075374401E+04 0.  0.
        1    1    3    3  502    0 -0.48273525654E+03 -0.34821466587E+03 -0.30964529678E+03  0.67094484966E+03  0.50400001928E-02 0.  1.
       -1    1    3    3    0  502  0.48273525654E+03  0.34821466587E+03  0.23214313627E+03  0.63888748397E+03  0.50400001928E-02 0. -1.
</event>
<event>
 5   0  0.9110949E-04  0.1302077E+04  0.7818609E-02  0.9027920E-01
       -1   -1    0    0    0  501  0.00000000000E+00  0.00000000000E+00  0.90745318720E+03  0.90745318721E+03  0.50400001928E-02 0.  1.
        1   -1    0    0  501    0  0.00000000000E+00  0.00000000000E+00 -0.46707772518E+03  0.46707772521E+03  0.50400001928E-02 0. -1.
    10030    2    1    2    0    0  0.00000000000E+00  0.00000000000E+00  0.44037546202E+03  0.13745309124E+04  0.13020770644E+04 0.  0.
        2    1    3    3  502    0  0.33819190118E+03  0.25237665804E+03 -0.30316455244E+03  0.51959261485E+03  0.25500000920E-02 0. -1.
       -2    1    3    3    0  502 -0.33819190118E+03 -0.25237665804E+03  0.74354001446E+03  0.85493829757E+03  0.25500000920E-02 0.  1.
</event>
<event>
 5   0  0.1714861E-03  0.1284216E+04  0.7818609E-02  0.9042177E-01
        2   -1    0    0  501    0  0.00000000000E+00  0.00000000000E+00  0.43326162548E+03  0.43326162549E+03  0.25500000920E-02 0. -1.
       -2   -1    0    0    0  501  0.00000000000E+00  0.00000000000E+00 -0.95162462263E+03  0.95162462263E+03  0.25500000920E-02 0.  1.
    10030    2    1    2    0    0  0.00000000000E+00  0.00000000000E+00 -0.51836299715E+03  0.13848862481E+04  0.12842156063E+04 0.  0.
        1    1    3    3  502    0 -0.26671721819E+03  0.58164088873E+03 -0.31683490423E+03  0.71402279689E+03  0.50400001928E-02 0.  1.
       -1    1    3    3    0  502  0.26671721819E+03 -0.58164088873E+03 -0.20152809292E+03  0.67086345122E+03  0.50400001928E-02 0. -1.
</event>
<event>
 5   0  0.1623890E-03  0.1299489E+04  0.7818609E-02  0.9029971E-01
        2   -1    0    0  501    0  0.00000000000E+00  0.00000000000E+00  0.17224837776E+04  0.17224837776E+04  0.25500000920E-02 0.  1.
       -2   -1    0    0    0  501  0.00000000000E+00  0.00000000000E+00 -0.24509235534E+03  0.24509235535E+03  0.25500000920E-02 0. -1.
    10030    2    1    2    0    0  0.00000000000E+00  0.00000000000E+00  0.14773914223E+04  0.19675761330E+04  0.12994885242E+04 0.  0.
        3    1    3    3  502    0  0.62146921816E+02 -0.51346377207E+03  0.13341501493E+04  0.14308961933E+04  0.10100000352E+00 0.  1.
       -3    1    3    3    0  502 -0.62146921816E+02  0.51346377207E+03  0.14324127303E+03  0.53667993965E+03  0.10100000352E+00 0. -1.
</event>
<event>
 5   0  0.9027076E-04  0.1263763E+04  0.7818609E-02  0.9058805E-01
       -1   -1    0    0    0  501  0.00000000000E+00  0.00000000000E+00  0.49427022442E+03  0.49427022444E+03  0.50400001928E-02 0.  1.
        1   -1    0    0  501    0  0.00000000000E+00  0.00000000000E+00 -0.80780579093E+03  0.80780579095E+03  0.50400001928E-02 0. -1.
    10030    2    1    2    0    0  0.00000000000E+00  0.00000000000E+00 -0.31353556651E+03  0.13020760154E+04  0.12637631892E+04 0.  0.
        5    1    3    3  502    0 -0.99271483506E+02 -0.81837122038E+02 -0.79414999059E+03  0.80451751972E+03  0.46999998093E+01 0. -1.
       -5    1    3    3    0  502  0.99271483506E+02  0.81837122038E+02  0.48061442408E+03  0.49755849567E+03  0.46999998093E+01 0.  1.
</event>
<event>
 5   0  0.1623890E-03  0.1309092E+04  0.7818609E-02  0.9022386E-01
        2   -1    0    0  501    0  0.00000000000E+00  0.00000000000E+00  0.97741650828E+03  0.97741650829E+03  0.25500000920E-02 0. -1.
       -2   -1    0    0    0  501  0.00000000000E+00  0.00000000000E+00 -0.43832929111E+03  0.43832929112E+03  0.25500000920E-02 0.  1.
    10030    2    1    2    0    0  0.00000000000E+00  0.00000000000E+00  0.53908721717E+03  0.14157457994E+04  0.13090917236E+04 0.  0.
        3    1    3    3  502    0 -0.58715539036E+03 -0.13024665383E+03 -0.97916460875E+01  0.60150771383E+03  0.10100000352E+00 0. -1.
       -3    1    3    3    0  502  0.58715539036E+03  0.13024665383E+03  0.54887886326E+03  0.81423808557E+03  0.10100000352E+00 0.  1.
</event>
<event>
 5   0  0.9081324E-04  0.1246868E+04  0.7818609E-02  0.9072794E-01
        1   -1    0    0  501    0  0.00000000000E+00  0.00000000000E+00  0.71674094879E+03  0.71674094881E+03  0.50400001928E-02 0.  1.
       -1   -1    0    0    0  501  0.00000000000E+00  0.00000000000E+00 -0.54227396553E+03  0.54227396555E+03  0.50400001928E-02 0. -1.
    10030    2    1    2    0    0  0.00000000000E+00  0.00000000000E+00  0.17446698326E+03  0.12590149144E+04  0.12468680068E+04 0.  0.
        4    1    3    3  502    0  0.50059010766E+01  0.25761997009E+03 -0.48598984210E+03  0.55007349287E+03  0.12699999809E+01 0. -1.
       -4    1    3    3    0  502 -0.50059010766E+01 -0.25761997009E+03  0.66045682536E+03  0.70894142149E+03  0.12699999809E+01 0.  1.
</event>
<event>
 5   0  0.9081324E-04  0.1311514E+04  0.7818609E-02  0.9020484E-01
       -1   -1    0    0    0  501  0.00000000000E+00  0.00000000000E+00  0.35874871506E+03  0.35874871509E+03  0.50400001928E-02 0.  1.
        1   -1    0    0  501    0  0.00000000000E+00  0.00000000000E+00 -0.11986579630E+04  0.11986579630E+04  0.50400001928E-02 0. -1.
    10030    2    1    2    0    0  0.00000000000E+00  0.00000000000E+00 -0.83990924796E+03  0.15574066781E+04  0.13115136356E+04 0.  0.
        4    1    3    3  502    0 -0.33580902493E+03 -0.50166226009E+03 -0.11584948557E+03  0.61469947180E+03  0.12699999809E+01 0.  1.
       -4    1    3    3    0  502  0.33580902493E+03  0.50166226009E+03 -0.72405976238E+03  0.94270720631E+03  0.12699999809E+01 0. -1.
</event>
<event>
 5   0  0.1623890E-03  0.1347847E+04  0.7818609E-02  0.8992459E-01
        2   -1    0    0  501    0  0.00000000000E+00  0.00000000000E+00  0.69060716028E+03  0.69060716029E+03  0.25500000920E-02 0. -1.
       -2   -1    0    0    0  501  0.00000000000E+00  0.00000000000E+00 -0.65764310636E+03  0.65764310636E+03  0.25500000920E-02 0.  1.
    10030    2    1    2    0    0  0.00000000000E+00  0.00000000000E+00  0.32964053926E+02  0.13482502667E+04  0.13478472290E+04 0.  0.
        3    1    3    3  502    0 -0.13621603029E+03 -0.53380881772E+03 -0.37179169884E+03  0.66463203227E+03  0.10100000352E+00 0.  1.
       -3    1    3    3    0  502  0.13621603029E+03  0.53380881772E+03  0.40475575277E+03  0.68361823439E+03  0.10100000352E+00 0. -1.
</event>
<event>
 5   0  0.9215829E-04  0.1292805E+04  0.7818609E-02  0.9035291E-01
       -1   -1    0    0    0  501  0.00000000000E+00  0.00000000000E+00  0.94992816052E+03  0.94992816053E+03  0.50400001928E-02 0.  1.
        1   -1    0    0  501    0  0.00000000000E+00  0.00000000000E+00 -0.43986049453E+03  0.43986049456E+03  0.50400001928E-02 0. -1.
    10030    2    1    2    0    0  0.00000000000E+00  0.00000000000E+00  0.51006766599E+03  0.13897886551E+04  0.12928045026E+04 0.  0.
        3    1    3    3  502    0  0.85974748542E+02  0.58653285744E+03  0.53209553002E+03  0.79657900645E+03  0.10100000352E+00 0.  1.
       -3    1    3    3    0  502 -0.85974748542E+02 -0.58653285744E+03 -0.22027864039E+02  0.59320964864E+03  0.10100000352E+00 0. -1.
</event>
<event>
 5   0  0.9098192E-04  0.1269914E+04  0.7818609E-02  0.9053770E-01
       -1   -1    0    0    0  501  0.00000000000E+00  0.00000000000E+00  0.58514757316E+03  0.58514757318E+03  0.50400001928E-02 0.  1.
        1   -1    0    0  501    0  0.00000000000E+00  0.00000000000E+00 -0.68900650882E+03  0.68900650884E+03  0.50400001928E-02 0. -1.
    10030    2    1    2    0    0  0.00000000000E+00  0.00000000000E+00 -0.10385893566E+03  0.12741540820E+04  0.12699141492E+04 0.  0.
        1    1    3    3  502    0  0.46198401061E+03 -0.29589254474E+03 -0.37266669489E+03  0.66322099605E+03  0.50400001928E-02 0. -1.
       -1    1    3    3    0  502 -0.46198401061E+03  0.29589254474E+03  0.26880775923E+03  0.61093308598E+03  0.50400001928E-02 0.  1.
</event>
<event>
 5   0  0.9081324E-04  0.1300481E+04  0.7818609E-02  0.9029184E-01
        1   -1    0    0  501    0  0.00000000000E+00  0.00000000000E+00  0.59204440696E+03  0.59204440698E+03  0.50400001928E-02 0. -1.
       -1   -1    0    0    0  501  0.00000000000E+00  0.00000000000E+00 -0.71415731317E+03  0.71415731319E+03  0.50400001928E-02 0.  1.
    10030    2    1    2    0    0  0.00000000000E+00  0.00000000000E+00 -0.12211290621E+03  0.13062017202E+04  0.13004812078E+04 0.  0.
        4    1    3    3  502    0 -0.35445766930E+03 -0.26646560106E+03  0.41660573124E+03  0.60844564595E+03  0.12699999809E+01 0. -1.
       -4    1    3    3    0  502  0.35445766930E+03  0.26646560106E+03 -0.53871863745E+03  0.69775607422E+03  0.12699999809E+01 0.  1.
</event>
<event>
 5   0  0.1700511E-03  0.1290332E+04  0.7818609E-02  0.9037267E-01
       -2   -1    0    0    0  501  0.00000000000E+00  0.00000000000E+00  0.32910457647E+03  0.32910457648E+03  0.25500000920E-02 0.  1.
        2   -1    0    0  501    0  0.00000000000E+00  0.00000000000E+00 -0.12647634849E+04  0.12647634849E+04  0.25500000920E-02 0. -1.
    10030    2    1    2    0    0  0.00000000000E+00  0.00000000000E+00 -0.93565890847E+03  0.15938680614E+04  0.12903324394E+04 0.  0.
        2    1    3    3  502    0 -0.62226197444E+03  0.73493407034E+02 -0.27795518271E+03  0.68547088145E+03  0.25500000920E-02 0.  1.
       -2    1    3    3    0  502  0.62226197444E+03 -0.73493407034E+02 -0.65770372576E+03  0.90839717998E+03  0.25500000920E-02 0. -1.
</event>
<event>
 5   0  0.1700511E-03  0.1313490E+04  0.7818609E-02  0.9018936E-01
        2   -1    0    0  501    0  0.00000000000E+00  0.00000000000E+00  0.12715374552E+04  0.12715374552E+04  0.25500000920E-02 0. -1.
       -2   -1    0    0    0  501  0.00000000000E+00  0.00000000000E+00 -0.33920650882E+03  0.33920650883E+03  0.25500000920E-02 0.  1.
    10030    2    1    2    0    0  0.00000000000E+00  0.00000000000E+00  0.93233094635E+03  0.16107439640E+04  0.13134896741E+04 0.  0.
        2    1    3    3  502    0  0.68248984043E+02 -0.63693108095E+03  0.64376723342E+03  0.90817144666E+03  0.25500000920E-02 0. -1.
       -2    1    3    3    0  502 -0.68248984043E+02  0.63693108095E+03  0.28856371293E+03  0.70257251734E+03  0.25500000920E-02 0.  1.
</event>
<event>
 5   0  0.1700511E-03  0.1277411E+04  0.7818609E-02  0.9047673E-01
       -2   -1    0    0    0  501  0.00000000000E+00  0.00000000000E+00  0.57773038019E+03  0.57773038019E+03  0.25500000920E-02 0.  1.
        2   -1    0    0  501    0  0.00000000000E+00  0.00000000000E+00 -0.70611578973E+03  0.70611578973E+03  0.25500000920E-02 0. -1.
    10030    2    1    2    0    0  0.00000000000E+00  0.00000000000E+00 -0.12838540954E+03  0.12838461699E+04  0.12774107306E+04 0.  0.
        2    1    3    3  502    0 -0.29397055453E+03 -0.20203343074E+03  0.46829562639E+03  0.58867392313E+03  0.25500000920E-02 0.  1.
       -2    1    3    3    0  502  0.29397055453E+03  0.20203343074E+03 -0.59668103593E+03  0.69517224679E+03  0.25500000920E-02 0. -1.
</event>
<event>
 5   0  0.9110949E-04  0.1290547E+04  0.7818609E-02  0.9037096E-01
       -1   -1    0    0    0  501  0.00000000000E+00  0.00000000000E+00  0.31198432673E+03  0.31198432677E+03  0.50400001928E-02 0.  1.
        1   -1    0    0  501    0  0.00000000000E+00  0.00000000000E+00 -0.13346108134E+04  0.13346108134E+04  0.50400001928E-02 0. -1.
    10030    2    1    2    0    0  0.00000000000E+00  0.00000000000E+00 -0.10226264867E+04  0.16465951402E+04  0.12905466379E+04 0.  0.
        2    1    3    3  502    0  0.21892208981E+03  0.39602439159E+03  0.75617445180E+02  0.45878120947E+03  0.25500000920E-02 0.  1.
       -2    1    3    3    0  502 -0.21892208981E+03 -0.39602439159E+03 -0.10982439319E+04  0.11878139307E+04  0.25500000920E-02 0. -1.
</event>
<event>
 5   0  0.9081324E-04  0.1296563E+04  0.7818609E-02  0.9032295E-01
        1   -1    0    0  501    0  0.00000000000E+00  0.00000000000E+00  0.52074172622E+03  0.52074172625E+03  0.50400001928E-02 0.  1.
       -1   -1    0    0    0  501  0.00000000000E+00  0.00000000000E+00 -0.80705861223E+03  0.80705861224E+03  0.50400001928E-02 0. -1.
    10030    2    1    2    0    0  0.00000000000E+00  0.00000000000E+00 -0.28631688600E+03  0.13278003385E+04  0.12965632957E+04 0.  0.
        4    1    3    3  502    0  0.59469147845E+03 -0.15432494093E+03 -0.35500779727E+03  0.70958177186E+03  0.12699999809E+01 0. -1.
       -4    1    3    3    0  502 -0.59469147845E+03  0.15432494093E+03  0.68690911270E+02  0.61821856663E+03  0.12699999809E+01 0.  1.
</event>
<event>
 5   0  0.9215829E-04  0.1318639E+04  0.7818609E-02  0.9014914E-01
        1   -1    0    0  501    0  0.00000000000E+00  0.00000000000E+00  0.40940066223E+03  0.40940066226E+03  0.50400001928E-02 0.  1.
       -1   -1    0    0    0  501  0.00000000000E+00  0.00000000000E+00 -0.10618012593E+04  0.10618012593E+04  0.50400001928E-02 0. -1.
    10030    2    1    2    0    0  0.00000000000E+00  0.00000000000E+00 -0.65240059704E+03  0.14712019215E+04  0.13186389024E+04 0.  0.
        3    1    3    3  502    0 -0.28979688204E+02  0.54745954969E+03  0.82441042309E+02  0.55439004007E+03  0.10100000352E+00 0.  1.
       -3    1    3    3    0  502  0.28979688204E+02 -0.54745954969E+03 -0.73484163935E+03  0.91681188147E+03  0.10100000352E+00 0. -1.
</event>
<event>
 5   0  0.1667342E-03  0.1356949E+04  0.7818609E-02  0.8985584E-01
       -2   -1    0    0    0  501  0.00000000000E+00  0.00000000000E+00  0.68670615891E+03  0.68670615891E+03  0.25500000920E-02 0. -1.
        2   -1    0    0  501    0  0.00000000000E+00  0.00000000000E+00 -0.67034162522E+03  0.67034162523E+03  0.25500000920E-02 0.  1.
    10030    2    1    2    0    0  0.00000000000E+00  0.00000000000E+00  0.16364533682E+02  0.13570477841E+04  0.13569491112E+04 0.  0.
        5    1    3    3  502    0  0.20868766077E+03  0.26926203144E+03 -0.57859121502E+03  0.67144803629E+03  0.46999998093E+01 0.  1.
       -5    1    3    3    0  502 -0.20868766077E+03 -0.26926203144E+03  0.59495574871E+03  0.68559974785E+03  0.46999998093E+01 0. -1.
</event>
<event>
 5   0  0.9081324E-04  0.1294523E+04  0.7818609E-02  0.9033920E-01
       -1   -1    0    0    0  501  0.00000000000E+00  0.00000000000E+00  0.22085315961E+03  0.22085315967E+03  0.50400001928E-02 0.  1.
        1   -1    0    0  501    0  0.00000000000E+00  0.00000000000E+00 -0.18969491153E+04  0.18969491154E+04  0.50400001928E-02 0. -1.
    10030    2    1    2    0    0  0.00000000000E+00  0.00000000000E+00 -0.16760959557E+04  0.21178022750E+04  0.12945226237E+04 0.  0.
        4    1    3    3  502    0  0.22488808684E+03  0.25188916496E+01  0.15487304839E+03  0.27307191440E+03  0.12699999809E+01 0.  1.
       -4    1    3    3    0  502 -0.22488808684E+03 -0.25188916496E+01 -0.18309690041E+04  0.18447303606E+04  0.12699999809E+01 0. -1.
</event>
<event>
 5   0  0.1667342E-03  0.1299941E+04  0.7818609E-02  0.9029612E-01
        2   -1    0    0  501    0  0.00000000000E+00  0.00000000000E+00  0.10068729355E+04  0.10068729355E+04  0.25500000920E-02 0. -1.
       -2   -1    0    0    0  501  0.00000000000E+00  0.00000000000E+00 -0.41957789778E+03  0.41957789779E+03  0.25500000920E-02 0.  1.
    10030    2    1    2    0    0  0.00000000000E+00  0.00000000000E+00  0.58729503770E+03  0.14264508333E+04  0.12999409673E+04 0.  0.
        5    1    3    3  502    0 -0.36890573196E+03  0.52434332573E+03  0.41087176036E+03  0.76148871021E+03  0.46999998093E+01 0. -1.
       -5    1    3    3    0  502  0.36890573196E+03 -0.52434332573E+03  0.17642327734E+03  0.66496212306E+03  0.46999998093E+01 0.  1.
</event>
<event>
 5   0  0.9081324E-04  0.1297233E+04  0.7818609E-02  0.9031762E-01
        1   -1    0    0  501    0  0.00000000000E+00  0.00000000000E+00  0.17366148527E+04  0.17366148527E+04  0.50400001928E-02 0.  1.
       -1   -1    0    0    0  501  0.00000000000E+00  0.00000000000E+00 -0.24225478924E+03  0.24225478929E+03  0.50400001928E-02 0. -1.
    10030    2    1    2    0    0  0.00000000000E+00  0.00000000000E+00  0.14943600634E+04  0.19788696420E+04  0.12972328475E+04 0.  0.
        4    1    3    3  502    0  0.81903375973E+02 -0.53999263084E+03  0.12808742852E+04  0.13924585278E+04  0.12699999809E+01 0.  1.
       -4    1    3    3    0  502 -0.81903375973E+02  0.53999263084E+03  0.21348577823E+03  0.58641111412E+03  0.12699999809E+01 0. -1.
</event>
<event>
 5   0  0.9027076E-04  0.1268573E+04  0.7818609E-02  0.9054865E-01
       -1   -1    0    0    0  501  0.00000000000E+00  0.00000000000E+00  0.16826289488E+04  0.16826289488E+04  0.50400001928E-02 0. -1.
        1   -1    0    0  501    0  0.00000000000E+00  0.00000000000E+00 -0.23910168567E+03  0.23910168572E+03  0.50400001928E-02 0.  1.
    10030    2    1    2    0    0  0.00000000000E+00  0.00000000000E+00  0.14435272631E+04  0.19217306345E+04  0.12685730851E+04 0.  0.
        5    1    3    3  502    0 -0.17808418070E+03 -0.29563404575E+03  0.15279051181E+04  0.15664065897E+04  0.46999998093E+01 0. -1.
       -5    1    3    3    0  502  0.17808418070E+03  0.29563404575E+03 -0.84377854956E+02  0.35532404482E+03  0.46999998093E+01 0.  1.
</event>
<event>
 5   0  0.9215829E-04  0.1303106E+04  0.7818609E-02  0.9027106E-01
        1   -1    0    0  501    0  0.00000000000E+00  0.00000000000E+00  0.13503518604E+04  0.13503518604E+04  0.50400001928E-02 0. -1.
       -1   -1    0    0    0  501  0.00000000000E+00  0.00000000000E+00 -0.31437829686E+03  0.31437829690E+03  0.50400001928E-02 0.  1.
    10030    2    1    2    0    0  0.00000000000E+00  0.00000000000E+00  0.10359735635E+04  0.16647301573E+04  0.13031060096E+04 0.  0.
        3    1    3    3  502    0  0.61665326291E+03 -0.20909870812E+03  0.48836091555E+03  0.81392868879E+03  0.10100000352E+00 0.  1.
       -3    1    3    3    0  502 -0.61665326291E+03  0.20909870812E+03  0.54761264797E+03  0.85080146851E+03  0.10100000352E+00 0. -1.
</event>
<event>
 5   0  0.9098192E-04  0.1307616E+04  0.7818609E-02  0.9023547E-01
        1   -1    0    0  501    0  0.00000000000E+00  0.00000000000E+00  0.98878615868E+03  0.98878615869E+03  0.50400001928E-02 0. -1.
       -1   -1    0    0    0  501  0.00000000000E+00  0.00000000000E+00 -0.43231293833E+03  0.43231293836E+03  0.50400001928E-02 0.  1.
    10030    2    1    2    0    0  0.00000000000E+00  0.00000000000E+00  0.55647322035E+03  0.14210990970E+04  0.13076162276E+04 0.  0.
        1    1    3    3  502    0  0.30823576692E+03 -0.54066506775E+03  0.49596585478E+03  0.79580784906E+03  0.50400001928E-02 0.  1.
       -1    1    3    3    0  502 -0.30823576692E+03  0.54066506775E+03  0.60507365573E+02  0.62529124799E+03  0.50400001928E-02 0. -1.
</event>
<event>
 5   0  0.1694675E-03  0.1301189E+04  0.7818609E-02  0.9028623E-01
       -2   -1    0    0    0  501  0.00000000000E+00  0.00000000000E+00  0.36225987737E+03  0.36225987737E+03  0.25500000920E-02 0. -1.
        2   -1    0    0  501    0  0.00000000000E+00  0.00000000000E+00 -0.11684239299E+04  0.11684239299E+04  0.25500000920E-02 0.  1.
    10030    2    1    2    0    0  0.00000000000E+00  0.00000000000E+00 -0.80616405258E+03  0.15306838073E+04  0.13011888558E+04 0.  0.
        4    1    3    3  502    0 -0.21179959029E+03 -0.37614609771E+03  0.16951885502E+03  0.46377064200E+03  0.12699999809E+01 0. -1.
       -4    1    3    3    0  502  0.21179959029E+03  0.37614609771E+03 -0.97568290760E+03  0.10669131653E+04  0.12699999809E+01 0.  1.
</event>
<event>
 5   0  0.1700511E-03  0.1304112E+04  0.7818609E-02  0.9026311E-01
       -2   -1    0    0    0  501  0.00000000000E+00  0.00000000000E+00  0.48864547635E+03  0.48864547635E+03  0.25500000920E-02 0. -1.
        2   -1    0    0  501    0  0.00000000000E+00  0.00000000000E+00 -0.87011337777E+03  0.87011337777E+03  0.25500000920E-02 0.  1.
    10030    2    1    2    0    0  0.00000000000E+00  0.00000000000E+00 -0.38146790142E+03  0.13587588541E+04  0.13041119062E+04 0.  0.
        2    1    3    3  502    0 -0.12397985557E+02  0.65600172798E+02 -0.86654305891E+03  0.86911102034E+03  0.25500000920E-02 0.  1.
       -2    1    3    3    0  502  0.12397985557E+02 -0.65600172798E+02  0.48507515749E+03  0.48964783379E+03  0.25500000920E-02 0. -1.
</event>
<event>
 5   0  0.9215829E-04  0.1296351E+04  0.7818609E-02  0.9032464E-01
       -1   -1    0    0    0  501  0.00000000000E+00  0.00000000000E+00  0.87535151537E+03  0.87535151539E+03  0.50400001928E-02 0.  1.
        1   -1    0    0  501    0  0.00000000000E+00  0.00000000000E+00 -0.47995750782E+03  0.47995750785E+03  0.50400001928E-02 0. -1.
    10030    2    1    2    0    0  0.00000000000E+00  0.00000000000E+00  0.39539400755E+03  0.13553090232E+04  0.12963510818E+04 0.  0.
        3    1    3    3  502    0 -0.17387138447E+02 -0.14197339647E+03 -0.46325203014E+03  0.48483111649E+03  0.10100000352E+00 0. -1.
       -3    1    3    3    0  502  0.17387138447E+02  0.14197339647E+03  0.85864603769E+03  0.87047790675E+03  0.10100000352E+00 0.  1.
</event>
<event>
 5   0  0.1623890E-03  0.1298340E+04  0.7818609E-02  0.9030883E-01
       -2   -1    0    0    0  501  0.00000000000E+00  0.00000000000E+00  0.25507018214E+03  0.25507018215E+03  0.25500000920E-02 0.  1.
        2   -1    0    0  501    0  0.00000000000E+00  0.00000000000E+00 -0.16521792812E+04  0.16521792812E+04  0.25500000920E-02 0. -1.
    10030    2    1    2    0    0  0.00000000000E+00  0.00000000000E+00 -0.13971090991E+04  0.19072494634E+04  0.12983399712E+04 0.  0.
        3    1    3    3  502    0  0.61627587165E+02 -0.43285709473E+01 -0.16478510938E+04  0.16490087730E+04  0.10100000352E+00 0. -1.
       -3    1    3    3    0  502 -0.61627587165E+02  0.43285709473E+01  0.25074199472E+03  0.25824069033E+03  0.10100000352E+00 0.  1.
</event>
<event>
 5   0  0.9098192E-04  0.1387780E+04  0.7818609E-02  0.8962712E-01
        1   -1    0    0  501    0  0.00000000000E+00  0.00000000000E+00  0.12073333095E+04  0.12073333096E+04  0.50400001928E-02 0. -1.
       -1   -1    0    0    0  501  0.00000000000E+00  0.00000000000E+00 -0.39879887152E+03  0.39879887155E+03  0.50400001928E-02 0.  1.
    10030    2    1    2    0    0  0.00000000000E+00  0.00000000000E+00  0.80853443803E+03  0.16061321811E+04  0.13877797540E+04 0.  0.
        1    1    3    3  502    0  0.62893755140E+03  0.29121014542E+03  0.44295368466E+03  0.82254103796E+03  0.50400001928E-02 0.  1.
       -1    1    3    3    0  502 -0.62893755140E+03 -0.29121014542E+03  0.36558075337E+03  0.78359114315E+03  0.50400001928E-02 0. -1.
</event>
<event>
 5   0  0.9081324E-04  0.1283364E+04  0.7818609E-02  0.9042863E-01
        1   -1    0    0  501    0  0.00000000000E+00  0.00000000000E+00  0.11440024099E+04  0.11440024099E+04  0.50400001928E-02 0. -1.
       -1   -1    0    0    0  501  0.00000000000E+00  0.00000000000E+00 -0.35992572451E+03  0.35992572454E+03  0.50400001928E-02 0.  1.
    10030    2    1    2    0    0  0.00000000000E+00  0.00000000000E+00  0.78407668543E+03  0.15039281345E+04  0.12833641670E+04 0.  0.
        4    1    3    3  502    0  0.14057231839E+03  0.13472537712E+01 -0.34165692280E+03  0.36945020989E+03  0.12699999809E+01 0.  1.
       -4    1    3    3    0  502 -0.14057231839E+03 -0.13472537712E+01  0.11257336082E+04  0.11344779246E+04  0.12699999809E+01 0. -1.
</event>
<event>
 5   0  0.9027076E-04  0.1296535E+04  0.7818609E-02  0.9032317E-01
        1   -1    0    0  501    0  0.00000000000E+00  0.00000000000E+00  0.71912965841E+03  0.71912965843E+03  0.50400001928E-02 0. -1.
       -1   -1    0    0    0  501  0.00000000000E+00  0.00000000000E+00 -0.58438800324E+03  0.58438800326E+03  0.50400001928E-02 0.  1.
    10030    2    1    2    0    0  0.00000000000E+00  0.00000000000E+00  0.13474165518E+03  0.13035176617E+04  0.12965349902E+04 0.  0.
        5    1    3    3  502    0 -0.25540793596E+03 -0.23661700439E+03 -0.48239021588E+03  0.59493128249E+03  0.46999998093E+01 0.  1.
       -5    1    3    3    0  502  0.25540793596E+03  0.23661700439E+03  0.61713187105E+03  0.70858637920E+03  0.46999998093E+01 0. -1.
</event>
<event>
 5   0  0.1623890E-03  0.1301002E+04  0.7818609E-02  0.9028771E-01
        2   -1    0    0  501    0  0.00000000000E+00  0.00000000000E+00  0.81566307740E+03  0.81566307740E+03  0.25500000920E-02 0.  1.
       -2   -1    0    0    0  501  0.00000000000E+00  0.00000000000E+00 -0.51878234884E+03  0.51878234884E+03  0.25500000920E-02 0. -1.
    10030    2    1    2    0    0  0.00000000000E+00  0.00000000000E+00  0.29688072856E+03  0.13344454262E+04  0.13010020863E+04 0.  0.
        3    1    3    3  502    0  0.62657744547E+03  0.14775687140E+03  0.52657842942E+02  0.64591349795E+03  0.10100000352E+00 0.  1.
       -3    1    3    3    0  502 -0.62657744547E+03 -0.14775687140E+03  0.24422288562E+03  0.68853192829E+03  0.10100000352E+00 0. -1.
</event>
<event>
 5   0  0.9098192E-04  0.1285859E+04  0.7818609E-02  0.9040855E-01
       -1   -1    0    0    0  501  0.00000000000E+00  0.00000000000E+00  0.62221196749E+03  0.62221196751E+03  0.50400001928E-02 0.  1.
        1   -1    0    0  501    0  0.00000000000E+00  0.00000000000E+00 -0.66433689789E+03  0.66433689790E+03  0.50400001928E-02 0. -1.
    10030    2    1    2    0    0  0.00000000000E+00  0.00000000000E+00 -0.42124930396E+02  0.12865488654E+04  0.12858590410E+04 0.  0.
        1    1    3    3  502    0  0.54778434276E+03  0.17938720404E+03 -0.30601502897E+03  0.65260451510E+03  0.50400001928E-02 0.  1.
       -1    1    3    3    0  502 -0.54778434276E+03 -0.17938720404E+03  0.26389009857E+03  0.63394435032E+03  0.50400001928E-02 0. -1.
</event>
<event>
 5   0  0.1714861E-03  0.1308438E+04  0.7818609E-02  0.9022900E-01
       -2   -1    0    0    0  501  0.00000000000E+00  0.00000000000E+00  0.40836194586E+03  0.40836194586E+03  0.25500000920E-02 0. -1.
        2   -1    0    0  501    0  0.00000000000E+00  0.00000000000E+00 -0.10480965009E+04  0.10480965009E+04  0.25500000920E-02 0.  1.
    10030    2    1    2    0    0  0.00000000000E+00  0.00000000000E+00 -0.63973455505E+03  0.14564584468E+04  0.13084383464E+04 0.  0.
        1    1    3    3  502    0  0.69976949749E+02  0.37207345637E+03  0.27403312990E+03  0.46736451164E+03  0.50400001928E-02 0. -1.
       -1    1    3    3    0  502 -0.69976949749E+02 -0.37207345637E+03 -0.91376768495E+03  0.98909393514E+03  0.50400001928E-02 0.  1.
</event>
<event>
 5   0  0.9081324E-04  0.1339348E+04  0.7818609E-02  0.8998931E-01
       -1   -1    0    0    0  501  0.00000000000E+00  0.00000000000E+00  0.11015106076E+04  0.11015106077E+04  0.50400001928E-02 0.  1.
        1   -1    0    0  501    0  0.00000000000E+00  0.00000000000E+00 -0.40713458059E+03  0.40713458062E+03  0.50400001928E-02 0. -1.
    10030    2    1    2    0    0  0.00000000000E+00  0.00000000000E+00  0.69437602706E+03  0.15086451883E+04  0.13393476909E+04 0.  0.
        4    1    3    3  502    0 -0.43876397734E+03 -0.36847190537E+03 -0.43295573235E+02  0.57459680857E+03  0.12699999809E+01 0. -1.
       -4    1    3    3    0  502  0.43876397734E+03  0.36847190537E+03  0.73767160029E+03  0.93404837971E+03  0.12699999809E+01 0.  1.
</event>
<event>
 5   0  0.9027076E-04  0.1297582E+04  0.7818609E-02  0.9031485E-01
        1   -1    0    0  501    0  0.00000000000E+00  0.00000000000E+00  0.42288080850E+03  0.42288080853E+03  0.50400001928E-02 0. -1.
       -1   -1    0    0    0  501  0.00000000000E+00  0.00000000000E+00 -0.99538620828E+03  0.99538620829E+03  0.50400001928E-02 0.  1.
    10030    2    1    2    0    0  0.00000000000E+00  0.00000000000E+00 -0.57250539977E+03  0.14182670168E+04  0.12975819428E+04 0.  0.
        5    1    3    3  502    0 -0.44765298373E+03  0.25131772920E+03 -0.71982535331E+03  0.88415181056E+03  0.46999998093E+01 0.  1.
       -5    1    3    3    0  502  0.44765298373E+03 -0.25131772920E+03  0.14731995354E+03  0.53411520626E+03  0.46999998093E+01 0. -1.
</event>
<event>
 5   0  0.9110949E-04  0.1295610E+04  0.7818609E-02  0.9033054E-01
        1   -1    0    0  501    0  0.00000000000E+00  0.00000000000E+00  0.14123552745E+04  0.14123552745E+04  0.50400001928E-02 0. -1.
       -1   -1    0    0    0  501  0.00000000000E+00  0.00000000000E+00 -0.29712884270E+03  0.29712884274E+03  0.50400001928E-02 0.  1.
    10030    2    1    2    0    0  0.00000000000E+00  0.00000000000E+00  0.11152264318E+04  0.17094841172E+04  0.12956102627E+04 0.  0.
        2    1    3    3  502    0  0.49537945005E+03 -0.28215947665E+03  0.15171183677E+03  0.58994173545E+03  0.25500000920E-02 0.  1.
       -2    1    3    3    0  502 -0.49537945005E+03  0.28215947665E+03  0.96351459503E+03  0.11195423818E+04  0.25500000920E-02 0. -1.
</event>
<event>
 5   0  0.9110949E-04  0.1307633E+04  0.7818609E-02  0.9023534E-01
       -1   -1    0    0    0  501  0.00000000000E+00  0.00000000000E+00  0.66806734515E+03  0.66806734517E+03  0.50400001928E-02 0. -1.
        1   -1    0    0  501    0  0.00000000000E+00  0.00000000000E+00 -0.63986933086E+03  0.63986933088E+03  0.50400001928E-02 0.  1.
    10030    2    1    2    0    0  0.00000000000E+00  0.00000000000E+00  0.28198014291E+02  0.13079366761E+04  0.13076326780E+04 0.  0.
        2    1    3    3  502    0  0.62448198264E+03  0.18424317043E+03  0.73715821916E+02  0.65525362639E+03  0.25500000920E-02 0.  1.
       -2    1    3    3    0  502 -0.62448198264E+03 -0.18424317043E+03 -0.45517807625E+02  0.65268304966E+03  0.25500000920E-02 0. -1.
</event>
<event>
 5   0  0.9027076E-04  0.1306339E+04  0.7818609E-02  0.9024554E-01
        1   -1    0    0  501    0  0.00000000000E+00  0.00000000000E+00  0.11032092119E+04  0.11032092119E+04  0.50400001928E-02 0.  1.
       -1   -1    0    0    0  501  0.00000000000E+00  0.00000000000E+00 -0.38671730631E+03  0.38671730634E+03  0.50400001928E-02 0. -1.
    10030    2    1    2    0    0  0.00000000000E+00  0.00000000000E+00  0.71649190558E+03  0.14899265182E+04  0.13063385392E+04 0.  0.
        5    1    3    3  502    0 -0.12748601903E+03  0.36382943229E+03 -0.24309196801E+03  0.45578540538E+03  0.46999998093E+01 0. -1.
       -5    1    3    3    0  502  0.12748601903E+03 -0.36382943229E+03  0.95958387358E+03  0.10341411129E+04  0.46999998093E+01 0.  1.
</event>
<event>
 5   0  0.1700511E-03  0.1302647E+04  0.7818609E-02  0.9027469E-01
        2   -1    0    0  501    0  0.00000000000E+00  0.00000000000E+00  0.12745820905E+04  0.12745820905E+04  0.25500000920E-02 0. -1.
       -2   -1    0    0    0  501  0.00000000000E+00  0.00000000000E+00 -0.33283239350E+03  0.33283239351E+03  0.25500000920E-02 0.  1.
    10030    2    1    2    0    0  0.00000000000E+00  0.00000000000E+00  0.94174969697E+03  0.16074144840E+04  0.13026468561E+04 0.  0.
        2    1    3    3  502    0 -0.29763235470E+02  0.34686112911E+03 -0.20839054736E+03  0.40574020420E+03  0.25500000920E-02 0.  1.
       -2    1    3    3    0  502  0.29763235470E+02 -0.34686112911E+03  0.11501402443E+04  0.12016742798E+04  0.25500000920E-02 0. -1.
</event>
<event>
 5   0  0.9098192E-04  0.1298397E+04  0.7818609E-02  0.9030837E-01
       -1   -1    0    0    0  501  0.00000000000E+00  0.00000000000E+00  0.30257698119E+03  0.30257698124E+03  0.50400001928E-02 0. -1.
        1   -1    0    0  501    0  0.00000000000E+00  0.00000000000E+00 -0.13928972706E+04  0.13928972706E+04  0.50400001928E-02 0.  1.
    10030    2    1    2    0    0  0.00000000000E+00  0.00000000000E+00 -0.10903202894E+04  0.16954742518E+04  0.12983969367E+04 0.  0.
        1    1    3    3  502    0  0.30809037492E+03 -0.27548294936E+03 -0.11989165238E+04  0.12681527374E+04  0.50400001928E-02 0.  1.
       -1    1    3    3    0  502 -0.30809037492E+03  0.27548294936E+03  0.10859623437E+03  0.42732151438E+03  0.50400001928E-02 0. -1.
</event>
<event>
 5   0  0.9098192E-04  0.1297359E+04  0.7818609E-02  0.9031663E-01
        1   -1    0    0  501    0  0.00000000000E+00  0.00000000000E+00  0.86439792266E+03  0.86439792267E+03  0.50400001928E-02 0. -1.
       -1   -1    0    0    0  501  0.00000000000E+00  0.00000000000E+00 -0.48679522585E+03  0.48679522588E+03  0.50400001928E-02 0.  1.
    10030    2    1    2    0    0  0.00000000000E+00  0.00000000000E+00  0.37760269680E+03  0.13511931485E+04  0.12973585195E+04 0.  0.
        1    1    3    3  502    0  0.45992051096E+03  0.63251256356E+02 -0.28305153106E+03  0.54373317638E+03  0.50400001928E-02 0.  1.
       -1    1    3    3    0  502 -0.45992051096E+03 -0.63251256356E+02  0.66065422787E+03  0.80745997217E+03  0.50400001928E-02 0. -1.
</event>
<event>
 5   0  0.9098192E-04  0.1215164E+04  0.7818609E-02  0.9099686E-01
       -1   -1    0    0    0  501  0.00000000000E+00  0.00000000000E+00  0.46043003972E+03  0.46043003975E+03  0.50400001928E-02 0. -1.
        1   -1    0    0  501    0  0.00000000000E+00  0.00000000000E+00 -0.80176330521E+03  0.80176330523E+03  0.50400001928E-02 0.  1.
    10030    2    1    2    0    0  0.00000000000E+00  0.00000000000E+00 -0.34133326549E+03  0.12621933450E+04  0.12151640391E+04 0.  0.
        1    1    3    3  502    0  0.11460620746E+03  0.53074020907E+03  0.11253192238E+03  0.55451166434E+03  0.50400001928E-02 0.  1.
       -1    1    3    3    0  502 -0.11460620746E+03 -0.53074020907E+03 -0.45386518788E+03  0.70768168063E+03  0.50400001928E-02 0. -1.
</event>
<event>
 5   0  0.6284125E-04  0.1302864E+04  0.7818609E-02  0.9027297E-01
        3   -1    0    0  501    0  0.00000000000E+00  0.00000000000E+00  0.38311889226E+03  0.38311890557E+03  0.10100000352E+00 0. -1.
       -3   -1    0    0    0  501  0.00000000000E+00  0.00000000000E+00 -0.11076553646E+04  0.11076553692E+04  0.10100000352E+00 0.  1.
    10030    2    1    2    0    0  0.00000000000E+00  0.00000000000E+00 -0.72453647233E+03  0.14907742748E+04  0.13028640906E+04 0.  0.
        5    1    3    3  502    0 -0.42675057921E+03 -0.26720967184E+03 -0.83518850021E+03  0.97523278578E+03  0.46999998093E+01 0.  1.
       -5    1    3    3    0  502  0.42675057921E+03  0.26720967184E+03  0.11065202788E+03  0.51554148897E+03  0.46999998093E+01 0. -1.
</event>
<event>
 5   0  0.1694675E-03  0.1339212E+04  0.7818609E-02  0.8999035E-01
        2   -1    0    0  501    0  0.00000000000E+00  0.00000000000E+00  0.12605942046E+04  0.12605942046E+04  0.25500000920E-02 0.  1.
       -2   -1    0    0    0  501  0.00000000000E+00  0.00000000000E+00 -0.35568326293E+03  0.35568326294E+03  0.25500000920E-02 0. -1.
    10030    2    1    2    0    0  0.00000000000E+00  0.00000000000E+00  0.90491094163E+03  0.16162774675E+04  0.13392120966E+04 0.  0.
        4    1    3    3  502    0 -0.11706002390E+03  0.44270401989E+02 -0.34144101852E+03  0.36365711834E+03  0.12699999809E+01 0. -1.
       -4    1    3    3    0  502  0.11706002390E+03 -0.44270401989E+02  0.12463519602E+04  0.12526203492E+04  0.12699999809E+01 0.  1.
</event>
<event>
 5   0  0.9215829E-04  0.1275348E+04  0.7818609E-02  0.9049346E-01
        1   -1    0    0  501    0  0.00000000000E+00  0.00000000000E+00  0.87214300129E+03  0.87214300131E+03  0.50400001928E-02 0. -1.
       -1   -1    0    0    0  501  0.00000000000E+00  0.00000000000E+00 -0.46624018467E+03  0.46624018469E+03  0.50400001928E-02 0.  1.
    10030    2    1    2    0    0  0.00000000000E+00  0.00000000000E+00  0.40590281663E+03  0.13383831860E+04  0.12753479745E+04 0.  0.
        3    1    3    3  502    0 -0.38343778948E+03  0.32923401873E+03  0.61102633907E+03  0.79295193721E+03  0.10100000352E+00 0. -1.
       -3    1    3    3    0  502  0.38343778948E+03 -0.32923401873E+03 -0.20512352244E+03  0.54543124879E+03  0.10100000352E+00 0.  1.
</event>
<event>
 5   0  0.1694675E-03  0.1302384E+04  0.7818609E-02  0.9027677E-01
        2   -1    0    0  501    0  0.00000000000E+00  0.00000000000E+00  0.78306061115E+03  0.78306061115E+03  0.25500000920E-02 0. -1.
       -2   -1    0    0    0  501  0.00000000000E+00  0.00000000000E+00 -0.54153050854E+03  0.54153050854E+03  0.25500000920E-02 0.  1.
    10030    2    1    2    0    0  0.00000000000E+00  0.00000000000E+00  0.24153010261E+03  0.13245911197E+04  0.13023842919E+04 0.  0.
        4    1    3    3  502    0 -0.33890657360E+03  0.27834559765E+03 -0.36881124562E+03  0.57302468111E+03  0.12699999809E+01 0.  1.
       -4    1    3    3    0  502  0.33890657360E+03 -0.27834559765E+03  0.61034134823E+03  0.75156643859E+03  0.12699999809E+01 0. -1.
</event>
<event>
 5   0  0.1623890E-03  0.1302643E+04  0.7818609E-02  0.9027472E-01
        2   -1    0    0  501    0  0.00000000000E+00  0.00000000000E+00  0.12562360809E+04  0.12562360809E+04  0.25500000920E-02 0.  1.
       -2   -1    0    0    0  501  0.00000000000E+00  0.00000000000E+00 -0.33769117552E+03  0.33769117552E+03  0.25500000920E-02 0. -1.
    10030    2    1    2    0    0  0.00000000000E+00  0.00000000000E+00  0.91854490540E+03  0.15939272564E+04  0.13026432188E+04 0.  0.
        3    1    3    3  502    0  0.24255050482E+03 -0.33161394856E+03  0.10776753911E+04  0.11533355180E+04  0.10100000352E+00 0.  1.
       -3    1    3    3    0  502 -0.24255050482E+03  0.33161394856E+03 -0.15913048574E+03  0.44059173842E+03  0.10100000352E+00 0. -1.
</event>
<event>
 5   0  0.1714861E-03  0.1308214E+04  0.7818609E-02  0.9023077E-01
       -2   -1    0    0    0  501  0.00000000000E+00  0.00000000000E+00  0.31217460113E+03  0.31217460114E+03  0.25500000920E-02 0.  1.
        2   -1    0    0  501    0  0.00000000000E+00  0.00000000000E+00 -0.13705664580E+04  0.13705664580E+04  0.25500000920E-02 0. -1.
    10030    2    1    2    0    0  0.00000000000E+00  0.00000000000E+00 -0.10583918568E+04  0.16827410591E+04  0.13082141069E+04 0.  0.
        1    1    3    3  502    0 -0.64062377978E+03  0.12478788192E+03 -0.47334677937E+03  0.80624314959E+03  0.50400001928E-02 0. -1.
       -1    1    3    3    0  502  0.64062377978E+03 -0.12478788192E+03 -0.58504507745E+03  0.87649790951E+03  0.50400001928E-02 0.  1.
</event>
<event>
 5   0  0.1694675E-03  0.1312105E+04  0.7818609E-02  0.9020021E-01
        2   -1    0    0  501    0  0.00000000000E+00  0.00000000000E+00  0.14673815798E+04  0.14673815798E+04  0.25500000920E-02 0. -1.
       -2   -1    0    0    0  501  0.00000000000E+00  0.00000000000E+00 -0.29331471289E+03  0.29331471290E+03  0.25500000920E-02 0.  1.
    10030    2    1    2    0    0  0.00000000000E+00  0.00000000000E+00  0.11740668669E+04  0.17606962927E+04  0.13121045794E+04 0.  0.
        4    1    3    3  502    0  0.41111409818E+02 -0.27226338484E+03  0.13860880807E+04  0.14131734781E+04  0.12699999809E+01 0. -1.
       -4    1    3    3    0  502 -0.41111409818E+02  0.27226338484E+03 -0.21202121375E+03  0.34752281468E+03  0.12699999809E+01 0.  1.
</event>
<event>
 5   0  0.9215829E-04  0.1392453E+04  0.7818609E-02  0.8959300E-01
        1   -1    0    0  501    0  0.00000000000E+00  0.00000000000E+00  0.16633630096E+04  0.16633630096E+04  0.50400001928E-02 0. -1.
       -1   -1    0    0    0  501  0.00000000000E+00  0.00000000000E+00 -0.29141629099E+03  0.29141629103E+03  0.50400001928E-02 0.  1.
    10030    2    1    2    0    0  0.00000000000E+00  0.00000000000E+00  0.13719467186E+04  0.19547793006E+04  0.13924526259E+04 0.  0.
        3    1    3    3  502    0 -0.50997160725E+03  0.22109525187E+03  0.97403218388E+02  0.56430625352E+03  0.10100000352E+00 0.  1.
       -3    1    3    3    0  502  0.50997160725E+03 -0.22109525187E+03  0.12745435002E+04  0.13904730471E+04  0.10100000352E+00 0. -1.
</event>
<event>
 5   0  0.1623890E-03  0.1285306E+04  0.7818609E-02  0.9041299E-01
       -2   -1    0    0    0  501  0.00000000000E+00  0.00000000000E+00  0.61140642174E+03  0.61140642174E+03  0.25500000920E-02 0.  1.
        2   -1    0    0  501    0  0.00000000000E+00  0.00000000000E+00 -0.67549661723E+03  0.67549661723E+03  0.25500000920E-02 0. -1.
    10030    2    1    2    0    0  0.00000000000E+00  0.00000000000E+00 -0.64090195493E+02  0.12869030390E+04  0.12853061420E+04 0.  0.
        3    1    3    3  502    0 -0.24850129343E+03  0.42338956455E+03 -0.44727874469E+03  0.66413093728E+03  0.10100000352E+00 0. -1.
       -3    1    3    3    0  502  0.24850129343E+03 -0.42338956455E+03  0.38318854920E+03  0.62277210169E+03  0.10100000352E+00 0.  1.
</event>
<event>
 5   0  0.9215829E-04  0.1297255E+04  0.7818609E-02  0.9031745E-01
        1   -1    0    0  501    0  0.00000000000E+00  0.00000000000E+00  0.85301955715E+03  0.85301955716E+03  0.50400001928E-02 0.  1.
       -1   -1    0    0    0  501  0.00000000000E+00  0.00000000000E+00 -0.49320950750E+03  0.49320950753E+03  0.50400001928E-02 0. -1.
    10030    2    1    2    0    0  0.00000000000E+00  0.00000000000E+00  0.35981004964E+03  0.13462290647E+04  0.12972545713E+04 0.  0.
        3    1    3    3  502    0 -0.37569142671E+03  0.35450234315E+03  0.58701806975E+03  0.78192466633E+03  0.10100000352E+00 0.  1.
       -3    1    3    3    0  502  0.37569142671E+03 -0.35450234315E+03 -0.22720802011E+03  0.56430439836E+03  0.10100000352E+00 0. -1.
</event>
<event>
 5   0  0.1694675E-03  0.1284643E+04  0.7818609E-02  0.9041832E-01
        2   -1    0    0  501    0  0.00000000000E+00  0.00000000000E+00  0.24672388994E+04  0.24672388994E+04  0.25500000920E-02 0.  1.
       -2   -1    0    0    0  501  0.00000000000E+00  0.00000000000E+00 -0.16722224227E+03  0.16722224229E+03  0.25500000920E-02 0. -1.
    10030    2    1    2    0    0  0.00000000000E+00  0.00000000000E+00  0.23000166571E+04  0.26344611417E+04  0.12846434852E+04 0.  0.
        4    1    3    3  502    0  0.47554311013E+03  0.36583500929E+03  0.16203336418E+04  0.17278481494E+04  0.12699999809E+01 0.  1.
       -4    1    3    3    0  502 -0.47554311013E+03 -0.36583500929E+03  0.67968301531E+03  0.90661299230E+03  0.12699999809E+01 0. -1.
</event>
<event>
 5   0  0.1700511E-03  0.1377656E+04  0.7818609E-02  0.8970153E-01
        2   -1    0    0  501    0  0.00000000000E+00  0.00000000000E+00  0.52488986769E+03  0.52488986770E+03  0.25500000920E-02 0.  1.
       -2   -1    0    0    0  501  0.00000000000E+00  0.00000000000E+00 -0.90396923680E+03  0.90396923681E+03  0.25500000920E-02 0. -1.
    10030    2    1    2    0    0  0.00000000000E+00  0.00000000000E+00 -0.37907936911E+03  0.14288591045E+04  0.13776564058E+04 0.  0.
        2    1    3    3  502    0 -0.12939022637E+03  0.10902006288E+03  0.50300265263E+03  0.53069659255E+03  0.25500000920E-02 0.  1.
       -2    1    3    3    0  502  0.12939022637E+03 -0.10902006288E+03 -0.88208202174E+03  0.89816251195E+03  0.25500000920E-02 0. -1.
</event>
<event>
 5   0  0.1714861E-03  0.1289975E+04  0.7818609E-02  0.9037553E-01
       -2   -1    0    0    0  501  0.00000000000E+00  0.00000000000E+00  0.65115731135E+03  0.65115731135E+03  0.25500000920E-02 0.  1.
        2   -1    0    0  501    0  0.00000000000E+00  0.00000000000E+00 -0.63887617176E+03  0.63887617176E+03  0.25500000920E-02 0. -1.
    10030    2    1    2    0    0  0.00000000000E+00  0.00000000000E+00  0.12281139593E+02  0.12900334831E+04  0.12899750235E+04 0.  0.
        1    1    3    3  502    0  0.15985374095E+03 -0.61179486737E+03  0.13327898652E+03  0.64622710134E+03  0.50400001928E-02 0.  1.
       -1    1    3    3    0  502 -0.15985374095E+03  0.61179486737E+03 -0.12099784693E+03  0.64380638178E+03  0.50400001928E-02 0. -1.
</event>
<event>
 5   0  0.1623890E-03  0.1295471E+04  0.7818609E-02  0.9033164E-01
       -2   -1    0    0    0  501  0.00000000000E+00  0.00000000000E+00  0.13078371750E+04  0.13078371750E+04  0.25500000920E-02 0. -1.
        2   -1    0    0  501    0  0.00000000000E+00  0.00000000000E+00 -0.32080561569E+03  0.32080561570E+03  0.25500000920E-02 0.  1.
    10030    2    1    2    0    0  0.00000000000E+00  0.00000000000E+00  0.98703155927E+03  0.16286427907E+04  0.12954713584E+04 0.  0.
        3    1    3    3  502    0  0.19386190979E+03  0.40794323594E+03 -0.90175895515E+02  0.46057770913E+03  0.10100000352E+00 0.  1.
       -3    1    3    3    0  502 -0.19386190979E+03 -0.40794323594E+03  0.10772074548E+04  0.11680650815E+04  0.10100000352E+00 0. -1.
</event>
<event>
 5   0  0.1700511E-03  0.1405126E+04  0.7818609E-02  0.8950116E-01
        2   -1    0    0  501    0  0.00000000000E+00  0.00000000000E+00  0.10069728805E+04  0.10069728805E+04  0.25500000920E-02 0.  1.
       -2   -1    0    0    0  501  0.00000000000E+00  0.00000000000E+00 -0.49017684981E+03  0.49017684981E+03  0.25500000920E-02 0. -1.
    10030    2    1    2    0    0  0.00000000000E+00  0.00000000000E+00  0.51679603073E+03  0.14971497304E+04  0.14051260362E+04 0.  0.
        2    1    3    3  502    0 -0.12783661007E+03 -0.56363077317E+03 -0.16722939457E+03  0.60165398508E+03  0.25500000920E-02 0. -1.
       -2    1    3    3    0  502  0.12783661007E+03  0.56363077317E+03  0.68402542530E+03  0.89549574528E+03  0.25500000920E-02 0.  1.
</event>
<event>
 5   0  0.9110949E-04  0.1308336E+04  0.7818609E-02  0.9022981E-01
        1   -1    0    0  501    0  0.00000000000E+00  0.00000000000E+00  0.45726706085E+03  0.45726706088E+03  0.50400001928E-02 0.  1.
       -1   -1    0    0    0  501  0.00000000000E+00  0.00000000000E+00 -0.93585475089E+03  0.93585475090E+03  0.50400001928E-02 0. -1.
    10030    2    1    2    0    0  0.00000000000E+00  0.00000000000E+00 -0.47858769004E+03  0.13931218118E+04  0.13083356624E+04 0.  0.
        2    1    3    3  502    0 -0.34682196626E+03 -0.17615156451E+03  0.32073739211E+03  0.50416993630E+03  0.25500000920E-02 0.  1.
       -2    1    3    3    0  502  0.34682196626E+03  0.17615156451E+03 -0.79932508215E+03  0.88895187548E+03  0.25500000920E-02 0. -1.
</event>
<event>
 5   0  0.9110949E-04  0.1281278E+04  0.7818609E-02  0.9044545E-01
        1   -1    0    0  501    0  0.00000000000E+00  0.00000000000E+00  0.87032219785E+03  0.87032219787E+03  0.50400001928E-02 0. -1.
       -1   -1    0    0    0  501  0.00000000000E+00  0.00000000000E+00 -0.47157070200E+03  0.47157070203E+03  0.50400001928E-02 0.  1.
    10030    2    1    2    0    0  0.00000000000E+00  0.00000000000E+00  0.39875149585E+03  0.13418928999E+04  0.12812781897E+04 0.  0.
        2    1    3    3  502    0 -0.73875803336E+02  0.46471827914E+03 -0.25592957017E+03  0.53564975327E+03  0.25500000920E-02 0.  1.
       -2    1    3    3    0  502  0.73875803336E+02 -0.46471827914E+03  0.65468106602E+03  0.80624314663E+03  0.25500000920E-02 0. -1.
</event>
<event>
 5   0  0.9081324E-04  0.1295350E+04  0.7818609E-02  0.9033261E-01
        1   -1    0    0  501    0  0.00000000000E+00  0.00000000000E+00  0.67234211660E+03  0.67234211662E+03  0.50400001928E-02 0.  1.
       -1   -1    0    0    0  501  0.00000000000E+00  0.00000000000E+00 -0.62391257693E+03  0.62391257695E+03  0.50400001928E-02 0. -1.
    10030    2    1    2    0    0  0.00000000000E+00  0.00000000000E+00  0.48429539677E+02  0.12962546936E+04  0.12953496865E+04 0.  0.
        4    1    3    3  502    0 -0.53941434943E+03  0.72240678291E+02 -0.32716376598E+03  0.63499944775E+03  0.12699999809E+01 0. -1.
       -4    1    3    3    0  502  0.53941434943E+03 -0.72240678291E+02  0.37559330566E+03  0.66125524582E+03  0.12699999809E+01 0.  1.
</event>
<event>
 5   0  0.9027076E-04  0.1300654E+04  0.7818609E-02  0.9029047E-01
       -1   -1    0    0    0  501  0.00000000000E+00  0.00000000000E+00  0.49078035821E+03  0.49078035823E+03  0.50400001928E-02 0.  1.
        1   -1    0    0  501    0  0.00000000000E+00  0.00000000000E+00 -0.86174043602E+03  0.86174043604E+03  0.50400001928E-02 0. -1.
    10030    2    1    2    0    0  0.00000000000E+00  0.00000000000E+00 -0.37096007782E+03  0.13525207943E+04  0.13006541122E+04 0.  0.
        5    1    3    3  502    0 -0.21495532768E+03  0.59761918640E+03 -0.33087224607E+03  0.71613756924E+03  0.46999998093E+01 0. -1.
       -5    1    3    3    0  502  0.21495532768E+03 -0.59761918640E+03 -0.40087831742E+02  0.63638322503E+03  0.46999998093E+01 0.  1.
</event>
<event>
 5   0  0.9027076E-04  0.1206695E+04  0.7818609E-02  0.9107016E-01
        1   -1    0    0  501    0  0.00000000000E+00  0.00000000000E+00  0.97364174055E+03  0.97364174057E+03  0.50400001928E-02 0. -1.
       -1   -1    0    0    0  501  0.00000000000E+00  0.00000000000E+00 -0.37388337208E+03  0.37388337211E+03  0.50400001928E-02 0.  1.
    10030    2    1    2    0    0  0.00000000000E+00  0.00000000000E+00  0.59975836848E+03  0.13475251127E+04  0.12066954167E+04 0.  0.
        5    1    3    3  502    0 -0.45852832951E+03  0.24766505897E+03 -0.39607351682E+02  0.52266341244E+03  0.46999998093E+01 0.  1.
       -5    1    3    3    0  502  0.45852832951E+03 -0.24766505897E+03  0.63936572016E+03  0.82486170023E+03  0.46999998093E+01 0. -1.
</event>
<event>
 5   0  0.1623890E-03  0.1215207E+04  0.7818609E-02  0.9099649E-01
       -2   -1    0    0    0  501  0.00000000000E+00  0.00000000000E+00  0.46409586740E+03  0.46409586741E+03  0.25500000920E-02 0.  1.
        2   -1    0    0  501    0  0.00000000000E+00  0.00000000000E+00 -0.79548640334E+03  0.79548640334E+03  0.25500000920E-02 0. -1.
    10030    2    1    2    0    0  0.00000000000E+00  0.00000000000E+00 -0.33139053594E+03  0.12595822708E+04  0.12152068999E+04 0.  0.
        3    1    3    3  502    0  0.48839291056E+03  0.91977039997E+01  0.20884414975E+03  0.53125146770E+03  0.10100000352E+00 0.  1.
       -3    1    3    3    0  502 -0.48839291056E+03 -0.91977039997E+01 -0.54023468569E+03  0.72833080305E+03  0.10100000352E+00 0. -1.
</event>
<event>
 5   0  0.1623890E-03  0.1296282E+04  0.7818609E-02  0.9032518E-01
        2   -1    0    0  501    0  0.00000000000E+00  0.00000000000E+00  0.10483846365E+04  0.10483846365E+04  0.25500000920E-02 0.  1.
       -2   -1    0    0    0  501  0.00000000000E+00  0.00000000000E+00 -0.40069937315E+03  0.40069937315E+03  0.25500000920E-02 0. -1.
    10030    2    1    2    0    0  0.00000000000E+00  0.00000000000E+00  0.64768526337E+03  0.14490840097E+04  0.12962824795E+04 0.  0.
        3    1    3    3  502    0 -0.14414943008E+02  0.48514380047E+03  0.80402860288E+03  0.93916681275E+03  0.10100000352E+00 0.  1.
       -3    1    3    3    0  502  0.14414943008E+02 -0.48514380047E+03 -0.15634333951E+03  0.50991719693E+03  0.10100000352E+00 0. -1.
</event>
<event>
 5   0  0.9027076E-04  0.1311317E+04  0.7818609E-02  0.9020639E-01
       -1   -1    0    0    0  501  0.00000000000E+00  0.00000000000E+00  0.33778153889E+03  0.33778153893E+03  0.50400001928E-02 0.  1.
        1   -1    0    0  501    0  0.00000000000E+00  0.00000000000E+00 -0.12726804504E+04  0.12726804504E+04  0.50400001928E-02 0. -1.
    10030    2    1    2    0    0  0.00000000000E+00  0.00000000000E+00 -0.93489891149E+03  0.16104619893E+04  0.13113168360E+04 0.  0.
        5    1    3    3  502    0  0.25493970780E+03 -0.48729972238E+03 -0.90582429249E+03  0.10597145903E+04  0.46999998093E+01 0. -1.
       -5    1    3    3    0  502 -0.25493970780E+03  0.48729972238E+03 -0.29074618997E+02  0.55074739901E+03  0.46999998093E+01 0.  1.
</event>
<event>
 5   0  0.1714861E-03  0.1297344E+04  0.7818609E-02  0.9031674E-01
        2   -1    0    0  501    0  0.00000000000E+00  0.00000000000E+00  0.11565748223E+04  0.11565748223E+04  0.25500000920E-02 0.  1.
       -2   -1    0    0    0  501  0.00000000000E+00  0.00000000000E+00 -0.36381173869E+03  0.36381173870E+03  0.25500000920E-02 0. -1.
    10030    2    1    2    0    0  0.00000000000E+00  0.00000000000E+00  0.79276308363E+03  0.15203865610E+04  0.12973442057E+04 0.  0.
        1    1    3    3  502    0 -0.13824919651E+03  0.13392203512E+03 -0.32957444865E+03  0.38166381680E+03  0.50400001928E-02 0. -1.
       -1    1    3    3    0  502  0.13824919651E+03 -0.13392203512E+03  0.11223375323E+04  0.11387227442E+04  0.50400001928E-02 0.  1.
</event>
<event>
 5   0  0.9110949E-04  0.1299359E+04  0.7818609E-02  0.9030074E-01
       -1   -1    0    0    0  501  0.00000000000E+00  0.00000000000E+00  0.16543925848E+04  0.16543925848E+04  0.50400001928E-02 0. -1.
        1   -1    0    0  501    0  0.00000000000E+00  0.00000000000E+00 -0.25512878005E+03  0.25512878010E+03  0.50400001928E-02 0.  1.
    10030    2    1    2    0    0  0.00000000000E+00  0.00000000000E+00  0.13992638048E+04  0.19095213649E+04  0.12993585524E+04 0.  0.
        2    1    3    3  502    0  0.64036165198E+03  0.10962903023E+03  0.69777746072E+03  0.95340178009E+03  0.25500000920E-02 0.  1.
       -2    1    3    3    0  502 -0.64036165198E+03 -0.10962903023E+03  0.70148634405E+03  0.95611958483E+03  0.25500000920E-02 0. -1.
</event>
<event>
 5   0  0.1623890E-03  0.1262157E+04  0.7818609E-02  0.9060126E-01
        2   -1    0    0  501    0  0.00000000000E+00  0.00000000000E+00  0.13348645364E+04  0.13348645364E+04  0.25500000920E-02 0.  1.
       -2   -1    0    0    0  501  0.00000000000E+00  0.00000000000E+00 -0.29835228807E+03  0.29835228808E+03  0.25500000920E-02 0. -1.
    10030    2    1    2    0    0  0.00000000000E+00  0.00000000000E+00  0.10365122483E+04  0.16332168244E+04  0.12621567077E+04 0.  0.
        3    1    3    3  502    0  0.11143986822E+03 -0.56741279699E+03  0.19119737365E+03  0.60904234033E+03  0.10100000352E+00 0. -1.
       -3    1    3    3    0  502 -0.11143986822E+03  0.56741279699E+03  0.84531487464E+03  0.10241744841E+04  0.10100000352E+00 0.  1.
</event>
<event>
 5   0  0.1694675E-03  0.1305594E+04  0.7818609E-02  0.9025141E-01
       -2   -1    0    0    0  501  0.00000000000E+00  0.00000000000E+00  0.76797989449E+03  0.76797989449E+03  0.25500000920E-02 0. -1.
        2   -1    0    0  501    0  0.00000000000E+00  0.00000000000E+00 -0.55488936609E+03  0.55488936609E+03  0.25500000920E-02 0.  1.
    10030    2    1    2    0    0  0.00000000000E+00  0.00000000000E+00  0.21309052840E+03  0.13228692606E+04  0.13055939290E+04 0.  0.
        4    1    3    3  502    0  0.14527060448E+03  0.62430335035E+03  0.23180973737E+03  0.68161249184E+03  0.12699999809E+01 0. -1.
       -4    1    3    3    0  502 -0.14527060448E+03 -0.62430335035E+03 -0.18719208970E+02  0.64125676875E+03  0.12699999809E+01 0.  1.
</event>
<event>
 5   0  0.1667342E-03  0.1292624E+04  0.7818609E-02  0.9035435E-01
        2   -1    0    0  501    0  0.00000000000E+00  0.00000000000E+00  0.14878605540E+04  0.14878605540E+04  0.25500000920E-02 0. -1.
       -2   -1    0    0    0  501  0.00000000000E+00  0.00000000000E+00 -0.28075168954E+03  0.28075168955E+03  0.25500000920E-02 0.  1.
    10030    2    1    2    0    0  0.00000000000E+00  0.00000000000E+00  0.12071088644E+04  0.17686122435E+04  0.12926242522E+04 0.  0.
        5    1    3    3  502    0  0.46574790560E+03 -0.42387612839E+03  0.40478254274E+03  0.74864082222E+03  0.46999998093E+01 0.  1.
       -5    1    3    3    0  502 -0.46574790560E+03  0.42387612839E+03  0.80232632171E+03  0.10199714213E+04  0.46999998093E+01 0. -1.
</event>
<event>
 5   0  0.9098192E-04  0.1288689E+04  0.7818609E-02  0.9038583E-01
       -1   -1    0    0    0  501  0.00000000000E+00  0.00000000000E+00  0.13627215765E+04  0.13627215765E+04  0.50400001928E-02 0. -1.
        1   -1    0    0  501    0  0.00000000000E+00  0.00000000000E+00 -0.30466955099E+03  0.30466955103E+03  0.50400001928E-02 0.  1.
    10030    2    1    2    0    0  0.00000000000E+00  0.00000000000E+00  0.10580520255E+04  0.16673911275E+04  0.12886889009E+04 0.  0.
        1    1    3    3  502    0 -0.47353593614E+03 -0.15067076776E+03  0.10597349010E+04  0.11704597488E+04  0.50400001928E-02 0. -1.
       -1    1    3    3    0  502  0.47353593614E+03  0.15067076776E+03 -0.16828755169E+01  0.49693137873E+03  0.50400001928E-02 0.  1.
</event>
<event>
 5   0  0.9215829E-04  0.1301919E+04  0.7818609E-02  0.9028045E-01
        1   -1    0    0  501    0  0.00000000000E+00  0.00000000000E+00  0.64147663701E+03  0.64147663703E+03  0.50400001928E-02 0. -1.
       -1   -1    0    0    0  501  0.00000000000E+00  0.00000000000E+00 -0.66058286844E+03  0.66058286846E+03  0.50400001928E-02 0.  1.
    10030    2    1    2    0    0  0.00000000000E+00  0.00000000000E+00 -0.19106231428E+02  0.13020595055E+04  0.13019193169E+04 0.  0.
        3    1    3    3  502    0 -0.20222270509E+03 -0.61874220584E+03 -0.60133842533E+01  0.65097781124E+03  0.10100000352E+00 0.  1.
       -3    1    3    3    0  502  0.20222270509E+03  0.61874220584E+03 -0.13092847175E+02  0.65108169425E+03  0.10100000352E+00 0. -1.
</event>
<event>
 5   0  0.9081324E-04  0.1230736E+04  0.7818609E-02  0.9086371E-01
       -1   -1    0    0    0  501  0.00000000000E+00  0.00000000000E+00  0.75016193295E+03  0.75016193297E+03  0.50400001928E-02 0.  1.
        1   -1    0    0  501    0  0.00000000000E+00  0.00000000000E+00 -0.50479436552E+03  0.50479436555E+03  0.50400001928E-02 0. -1.
    10030    2    1    2    0    0  0.00000000000E+00  0.00000000000E+00  0.24536756743E+03  0.12549562985E+04  0.12307355801E+04 0.  0.
        4    1    3    3  502    0  0.37799156681E+03  0.32741933777E+03 -0.24297469331E+03  0.55598503741E+03  0.12699999809E+01 0. -1.
       -4    1    3    3    0  502 -0.37799156681E+03 -0.32741933777E+03  0.48834226074E+03  0.69897126111E+03  0.12699999809E+01 0.  1.
</event>
<event>
 5   0  0.9027076E-04  0.1275161E+04  0.7818609E-02  0.9049498E-01
        1   -1    0    0  501    0  0.00000000000E+00  0.00000000000E+00  0.17240788131E+04  0.17240788131E+04  0.50400001928E-02 0. -1.
       -1   -1    0    0    0  501  0.00000000000E+00  0.00000000000E+00 -0.23578309535E+03  0.23578309541E+03  0.50400001928E-02 0.  1.
    10030    2    1    2    0    0  0.00000000000E+00  0.00000000000E+00  0.14882957178E+04  0.19598619085E+04  0.12751606005E+04 0.  0.
        5    1    3    3  502    0  0.15243883515E+03  0.16275768517E+03  0.16621590733E+04  0.16770577025E+04  0.46999998093E+01 0. -1.
       -5    1    3    3    0  502 -0.15243883515E+03 -0.16275768517E+03 -0.17386335555E+03  0.28280420603E+03  0.46999998093E+01 0.  1.
</event>
<event>
 5   0  0.1623890E-03  0.1279201E+04  0.7818609E-02  0.9046223E-01
       -2   -1    0    0    0  501  0.00000000000E+00  0.00000000000E+00  0.84902581839E+03  0.84902581839E+03  0.25500000920E-02 0. -1.
        2   -1    0    0  501    0  0.00000000000E+00  0.00000000000E+00 -0.48183336024E+03  0.48183336025E+03  0.25500000920E-02 0.  1.
    10030    2    1    2    0    0  0.00000000000E+00  0.00000000000E+00  0.36719245815E+03  0.13308591786E+04  0.12792012555E+04 0.  0.
        3    1    3    3  502    0 -0.40104413391E+03  0.44694227633E+03 -0.45512909530E+02  0.60221693005E+03  0.10100000352E+00 0.  1.
       -3    1    3    3    0  502  0.40104413391E+03 -0.44694227633E+03  0.41270536768E+03  0.72864224858E+03  0.10100000352E+00 0. -1.
</event>
<event>
 5   0  0.9110949E-04  0.1287454E+04  0.7818609E-02  0.9039573E-01
       -1   -1    0    0    0  501  0.00000000000E+00  0.00000000000E+00  0.80124646156E+03  0.80124646158E+03  0.50400001928E-02 0. -1.
        1   -1    0    0  501    0  0.00000000000E+00  0.00000000000E+00 -0.51717515185E+03  0.51717515187E+03  0.50400001928E-02 0.  1.
    10030    2    1    2    0    0  0.00000000000E+00  0.00000000000E+00  0.28407130972E+03  0.13184216135E+04  0.12874544815E+04 0.  0.
        2    1    3    3  502    0  0.38714006245E+03  0.20266848996E+03 -0.34202068201E+03  0.55491449044E+03  0.25500000920E-02 0.  1.
       -2    1    3    3    0  502 -0.38714006245E+03 -0.20266848996E+03  0.62609199172E+03  0.76350712301E+03  0.25500000920E-02 0. -1.
</event>
<event>
 5   0  0.9081324E-04  0.1311540E+04  0.7818609E-02  0.9020464E-01
        1   -1    0    0  501    0  0.00000000000E+00  0.00000000000E+00  0.11906558305E+04  0.11906558305E+04  0.50400001928E-02 0. -1.
       -1   -1    0    0    0  501  0.00000000000E+00  0.00000000000E+00 -0.36117407363E+03  0.36117407366E+03  0.50400001928E-02 0.  1.
    10030    2    1    2    0    0  0.00000000000E+00  0.00000000000E+00  0.82948175683E+03  0.15518299041E+04  0.13115395787E+04 0.  0.
        4    1    3    3  502    0 -0.58918692189E+03  0.31636262048E+02  0.75333468057E+03  0.95689959550E+03  0.12699999809E+01 0. -1.
       -4    1    3    3    0  502  0.58918692189E+03 -0.31636262048E+02  0.76147076257E+02  0.59493030863E+03  0.12699999809E+01 0.  1.
</event>
<event>
 5   0  0.9215829E-04  0.1302168E+04  0.7818609E-02  0.9027848E-01
       -1   -1    0    0    0  501  0.00000000000E+00  0.00000000000E+00  0.24913492201E+03  0.24913492206E+03  0.50400001928E-02 0.  1.
        1   -1    0    0  501    0  0.00000000000E+00  0.00000000000E+00 -0.17015293147E+04  0.17015293147E+04  0.50400001928E-02 0. -1.
    10030    2    1    2    0    0  0.00000000000E+00  0.00000000000E+00 -0.14523943927E+04  0.19506642367E+04  0.13021679971E+04 0.  0.
        3    1    3    3  502    0 -0.32430584251E+03 -0.55862272413E+03 -0.60379263768E+03  0.88419408894E+03  0.10100000352E+00 0.  1.
       -3    1    3    3    0  502  0.32430584251E+03  0.55862272413E+03 -0.84860175498E+03  0.10664701478E+04  0.10100000352E+00 0. -1.
</event>
<event>
 5   0  0.9081324E-04  0.1256043E+04  0.7818609E-02  0.9065169E-01
       -1   -1    0    0    0  501  0.00000000000E+00  0.00000000000E+00  0.51306034230E+03  0.51306034232E+03  0.50400001928E-02 0. -1.
        1   -1    0    0  501    0  0.00000000000E+00  0.00000000000E+00 -0.76874214092E+03  0.76874214094E+03  0.50400001928E-02 0.  1.
    10030    2    1    2    0    0  0.00000000000E+00  0.00000000000E+00 -0.25568179863E+03  0.12818024833E+04  0.12560431617E+04 0.  0.
        4    1    3    3  502    0 -0.11836186240E+03 -0.22436208793E+03  0.45845121932E+03  0.52395325209E+03  0.12699999809E+01 0. -1.
       -4    1    3    3    0  502  0.11836186240E+03  0.22436208793E+03 -0.71413301795E+03  0.75784923118E+03  0.12699999809E+01 0.  1.
</event>
<event>
 5   0  0.1700511E-03  0.1239821E+04  0.7818609E-02  0.9078698E-01
       -2   -1    0    0    0  501  0.00000000000E+00  0.00000000000E+00  0.28018362065E+03  0.28018362066E+03  0.25500000920E-02 0.  1.
        2   -1    0    0  501    0  0.00000000000E+00  0.00000000000E+00 -0.13715619978E+04  0.13715619978E+04  0.25500000920E-02 0. -1.
    10030    2    1    2    0    0  0.00000000000E+00  0.00000000000E+00 -0.10913783772E+04  0.16517456185E+04  0.12398212879E+04 0.  0.
        2    1    3    3  502    0 -0.61617790616E+03  0.13087471078E+02 -0.63448821046E+03  0.88454608877E+03  0.25500000920E-02 0. -1.
       -2    1    3    3    0  502  0.61617790616E+03 -0.13087471078E+02 -0.45689016672E+03  0.76719952972E+03  0.25500000920E-02 0.  1.
</event>
<event>
 5   0  0.1667342E-03  0.1290235E+04  0.7818609E-02  0.9037345E-01
        2   -1    0    0  501    0  0.00000000000E+00  0.00000000000E+00  0.58136438892E+03  0.58136438892E+03  0.25500000920E-02 0.  1.
       -2   -1    0    0    0  501  0.00000000000E+00  0.00000000000E+00 -0.71586150481E+03  0.71586150482E+03  0.25500000920E-02 0. -1.
    10030    2    1    2    0    0  0.00000000000E+00  0.00000000000E+00 -0.13449711589E+03  0.12972258937E+04  0.12902346861E+04 0.  0.
        5    1    3    3  502    0  0.38906621537E+02  0.30502299320E+03  0.50292353758E+03  0.58949718085E+03  0.46999998093E+01 0.  1.
       -5    1    3    3    0  502 -0.38906621537E+02 -0.30502299320E+03 -0.63742065348E+03  0.70772871289E+03  0.46999998093E+01 0. -1.
</event>
<event>
 5   0  0.1623890E-03  0.1305019E+04  0.7818609E-02  0.9025595E-01
        2   -1    0    0  501    0  0.00000000000E+00  0.00000000000E+00  0.66930282355E+03  0.66930282355E+03  0.25500000920E-02 0. -1.
       -2   -1    0    0    0  501  0.00000000000E+00  0.00000000000E+00 -0.63613750402E+03  0.63613750403E+03  0.25500000920E-02 0.  1.
    10030    2    1    2    0    0  0.00000000000E+00  0.00000000000E+00  0.33165319525E+02  0.13054403276E+04  0.13050189694E+04 0.  0.
        3    1    3    3  502    0  0.16292256698E+03  0.15895776048E+02  0.64842904685E+03  0.66877251553E+03  0.10100000352E+00 0. -1.
       -3    1    3    3    0  502 -0.16292256698E+03 -0.15895776048E+02 -0.61526372733E+03  0.63666781204E+03  0.10100000352E+00 0.  1.
</event>
<event>
 5   0  0.1667342E-03  0.1287883E+04  0.7818609E-02  0.9039229E-01
        2   -1    0    0  501    0  0.00000000000E+00  0.00000000000E+00  0.72741045092E+03  0.72741045092E+03  0.25500000920E-02 0. -1.
       -2   -1    0    0    0  501  0.00000000000E+00  0.00000000000E+00 -0.57005066897E+03  0.57005066897E+03  0.25500000920E-02 0.  1.
    10030    2    1    2    0    0  0.00000000000E+00  0.00000000000E+00  0.15735978195E+03  0.12974611199E+04  0.12878832465E+04 0.  0.
        5    1    3    3  502    0  0.12338211936E+03 -0.16441130509E+03 -0.53609151060E+03  0.57416933247E+03  0.46999998093E+01 0.  1.
       -5    1    3    3    0  502 -0.12338211936E+03  0.16441130509E+03  0.69345129255E+03  0.72329178742E+03  0.46999998093E+01 0. -1.
</event>
<event>
 5   0  0.9081324E-04  0.1303030E+04  0.7818609E-02  0.9027165E-01
        1   -1    0    0  501    0  0.00000000000E+00  0.00000000000E+00  0.66974343886E+03  0.66974343888E+03  0.50400001928E-02 0.  1.
       -1   -1    0    0    0  501  0.00000000000E+00  0.00000000000E+00 -0.63378308759E+03  0.63378308761E+03  0.50400001928E-02 0. -1.
    10030    2    1    2    0    0  0.00000000000E+00  0.00000000000E+00  0.35960351269E+02  0.13035265265E+04  0.13030304135E+04 0.  0.
        4    1    3    3  502    0 -0.19387758648E+03 -0.24352136429E+03 -0.55458315663E+03  0.63596797398E+03  0.12699999809E+01 0. -1.
       -4    1    3    3    0  502  0.19387758648E+03  0.24352136429E+03  0.59054350790E+03  0.66755855251E+03  0.12699999809E+01 0.  1.
</event>
<event>
 5   0  0.9215829E-04  0.1303333E+04  0.7818609E-02  0.9026926E-01
        1   -1    0    0  501    0  0.00000000000E+00  0.00000000000E+00  0.17257971219E+04  0.17257971219E+04  0.50400001928E-02 0. -1.
       -1   -1    0    0    0  501  0.00000000000E+00  0.00000000000E+00 -0.24607147306E+03  0.24607147311E+03  0.50400001928E-02 0.  1.
    10030    2    1    2    0    0  0.00000000000E+00  0.00000000000E+00  0.14797256488E+04  0.19718685950E+04  0.13033333266E+04 0.  0.
        3    1    3    3  502    0 -0.49588363102E+03 -0.25916551040E+03  0.12452900576E+04  0.13652159811E+04  0.10100000352E+00 0. -1.
       -3    1    3    3    0  502  0.49588363102E+03  0.25916551040E+03  0.23443559118E+03  0.60665261386E+03  0.10100000352E+00 0.  1.
</event>
<event>
 5   0  0.9215829E-04  0.1293342E+04  0.7818609E-02  0.9034862E-01
        1   -1    0    0  501    0  0.00000000000E+00  0.00000000000E+00  0.15449215385E+04  0.15449215385E+04  0.50400001928E-02 0. -1.
       -1   -1    0    0    0  501  0.00000000000E+00  0.00000000000E+00 -0.27068239866E+03  0.27068239871E+03  0.50400001928E-02 0.  1.
    10030    2    1    2    0    0  0.00000000000E+00  0.00000000000E+00  0.12742391398E+04  0.18156039372E+04  0.12933415138E+04 0.  0.
        3    1    3    3  502    0 -0.68282911702E+02  0.45267381249E+03  0.12782881834E+04  0.13577911572E+04  0.10100000352E+00 0. -1.
       -3    1    3    3    0  502  0.68282911702E+02 -0.45267381249E+03 -0.40490436169E+01  0.45781277996E+03  0.10100000352E+00 0.  1.
</event>
<event>
 5   0  0.9027076E-04  0.1274855E+04  0.7818609E-02  0.9049747E-01
       -1   -1    0    0    0  501  0.00000000000E+00  0.00000000000E+00  0.40728122951E+03  0.40728122954E+03  0.50400001928E-02 0.  1.
        1   -1    0    0  501    0  0.00000000000E+00  0.00000000000E+00 -0.99762453481E+03  0.99762453483E+03  0.50400001928E-02 0. -1.
    10030    2    1    2    0    0  0.00000000000E+00  0.00000000000E+00 -0.59034330530E+03  0.14049057644E+04  0.12748548892E+04 0.  0.
        5    1    3    3  502    0 -0.32668570830E+03 -0.43122846666E+03  0.76273709120E+02  0.54637103800E+03  0.46999998093E+01 0.  1.
       -5    1    3    3    0  502  0.32668570830E+03  0.43122846666E+03 -0.66661701442E+03  0.85853472637E+03  0.46999998093E+01 0. -1.
</event>
<event>
 5   0  0.1700511E-03  0.1300019E+04  0.7818609E-02  0.9029550E-01
        2   -1    0    0  501    0  0.00000000000E+00  0.00000000000E+00  0.80065705239E+03  0.80065705240E+03  0.25500000920E-02 0. -1.
       -2   -1    0    0    0  501  0.00000000000E+00  0.00000000000E+00 -0.52770723626E+03  0.52770723626E+03  0.25500000920E-02 0.  1.
    10030    2    1    2    0    0  0.00000000000E+00  0.00000000000E+00  0.27294981614E+03  0.13283642887E+04  0.13000192619E+04 0.  0.
        2    1    3    3  502    0 -0.45164517973E+02 -0.17055930338E+03 -0.50277098349E+03  0.53283109097E+03  0.25500000920E-02 0.  1.
       -2    1    3    3    0  502  0.45164517973E+02  0.17055930338E+03  0.77572079963E+03  0.79553319770E+03  0.25500000920E-02 0. -1.
</event>
<event>
 5   0  0.1623890E-03  0.1405674E+04  0.7818609E-02  0.8949721E-01
       -2   -1    0    0    0  501  0.00000000000E+00  0.00000000000E+00  0.27986169406E+03  0.27986169407E+03  0.25500000920E-02 0.  1.
        2   -1    0    0  501    0  0.00000000000E+00  0.00000000000E+00 -0.17650861310E+04  0.17650861310E+04  0.25500000920E-02 0. -1.
    10030    2    1    2    0    0  0.00000000000E+00  0.00000000000E+00 -0.14852244369E+04  0.20449478250E+04  0.14056742080E+04 0.  0.
        3    1    3    3  502    0  0.21380868362E+03  0.26834917598E+03  0.14974437416E+03  0.37436455659E+03  0.10100000352E+00 0.  1.
       -3    1    3    3    0  502 -0.21380868362E+03 -0.26834917598E+03 -0.16349688111E+04  0.16705832684E+04  0.10100000352E+00 0. -1.
</event>
<event>
 5   0  0.1623890E-03  0.1300437E+04  0.7818609E-02  0.9029218E-01
        2   -1    0    0  501    0  0.00000000000E+00  0.00000000000E+00  0.12494424703E+04  0.12494424703E+04  0.25500000920E-02 0.  1.
       -2   -1    0    0    0  501  0.00000000000E+00  0.00000000000E+00 -0.33837842083E+03  0.33837842084E+03  0.25500000920E-02 0. -1.
    10030    2    1    2    0    0  0.00000000000E+00  0.00000000000E+00  0.91106404944E+03  0.15878208911E+04  0.13004374187E+04 0.  0.
        3    1    3    3  502    0 -0.30254567839E+03  0.97354674075E+00  0.11582639532E+04  0.11971258208E+04  0.10100000352E+00 0.  1.
       -3    1    3    3    0  502  0.30254567839E+03 -0.97354674075E+00 -0.24719990380E+03  0.39069507029E+03  0.10100000352E+00 0. -1.
</event>
<event>
 5   0  0.9110949E-04  0.1231197E+04  0.7818609E-02  0.9085980E-01
        1   -1    0    0  501    0  0.00000000000E+00  0.00000000000E+00  0.82358769980E+03  0.82358769982E+03  0.50400001928E-02 0. -1.
       -1   -1    0    0    0  501  0.00000000000E+00  0.00000000000E+00 -0.46013499643E+03  0.46013499646E+03  0.50400001928E-02 0.  1.
    10030    2    1    2    0    0  0.00000000000E+00  0.00000000000E+00  0.36345270337E+03  0.12837226963E+04  0.12311970165E+04 0.  0.
        2    1    3    3  502    0  0.18658426746E+03 -0.47572100547E+03  0.53964569191E+03  0.74319690306E+03  0.25500000920E-02 0. -1.
       -2    1    3    3    0  502 -0.18658426746E+03  0.47572100547E+03 -0.17619298854E+03  0.54052579322E+03  0.25500000920E-02 0.  1.
</event>
<event>
 5   0  0.1694675E-03  0.1300164E+04  0.7818609E-02  0.9029435E-01
        2   -1    0    0  501    0  0.00000000000E+00  0.00000000000E+00  0.24592316553E+04  0.24592316553E+04  0.25500000920E-02 0. -1.
       -2   -1    0    0    0  501  0.00000000000E+00  0.00000000000E+00 -0.17184508966E+03  0.17184508968E+03  0.25500000920E-02 0.  1.
    10030    2    1    2    0    0  0.00000000000E+00  0.00000000000E+00  0.22873865657E+04  0.26310767450E+04  0.13001644270E+04 0.  0.
        4    1    3    3  502    0 -0.63806940078E+02  0.64519722786E+03  0.10476075917E+04  0.12320040859E+04  0.12699999809E+01 0.  1.
       -4    1    3    3    0  502  0.63806940078E+02 -0.64519722786E+03  0.12397789739E+04  0.13990726591E+04  0.12699999809E+01 0. -1.
</event>
<event>
 5   0  0.1623890E-03  0.1291379E+04  0.7818609E-02  0.9036429E-01
        2   -1    0    0  501    0  0.00000000000E+00  0.00000000000E+00  0.15869061737E+04  0.15869061737E+04  0.25500000920E-02 0.  1.
       -2   -1    0    0    0  501  0.00000000000E+00  0.00000000000E+00 -0.26272205015E+03  0.26272205016E+03  0.25500000920E-02 0. -1.
    10030    2    1    2    0    0  0.00000000000E+00  0.00000000000E+00  0.13241841236E+04  0.18496282239E+04  0.12913794847E+04 0.  0.
        3    1    3    3  502    0 -0.12199687500E+03  0.61663162890E+02  0.15659441319E+04  0.15718990482E+04  0.10100000352E+00 0.  1.
       -3    1    3    3    0  502  0.12199687500E+03 -0.61663162890E+02 -0.24176000838E+03  0.27772917567E+03  0.10100000352E+00 0. -1.
</event>
<event>
 5   0  0.1623890E-03  0.1338237E+04  0.7818609E-02  0.8999780E-01
        2   -1    0    0  501    0  0.00000000000E+00  0.00000000000E+00  0.90856289959E+03  0.90856289960E+03  0.25500000920E-02 0.  1.
       -2   -1    0    0    0  501  0.00000000000E+00  0.00000000000E+00 -0.49277800782E+03  0.49277800783E+03  0.25500000920E-02 0. -1.
    10030    2    1    2    0    0  0.00000000000E+00  0.00000000000E+00  0.41578489177E+03  0.14013409074E+04  0.13382373715E+04 0.  0.
        3    1    3    3  502    0  0.90223462571E+02 -0.35060297880E+02  0.90119261169E+03  0.90637609812E+03  0.10100000352E+00 0.  1.
       -3    1    3    3    0  502 -0.90223462571E+02  0.35060297880E+02 -0.48540771992E+03  0.49496480930E+03  0.10100000352E+00 0. -1.
</event>
<event>
 5   0  0.1623890E-03  0.1322873E+04  0.7818609E-02  0.9011621E-01
       -2   -1    0    0    0  501  0.00000000000E+00  0.00000000000E+00  0.42625863777E+03  0.42625863778E+03  0.25500000920E-02 0. -1.
        2   -1    0    0  501    0  0.00000000000E+00  0.00000000000E+00 -0.10263684838E+04  0.10263684838E+04  0.25500000920E-02 0.  1.
    10030    2    1    2    0    0  0.00000000000E+00  0.00000000000E+00 -0.60010984602E+03  0.14526271216E+04  0.13228732846E+04 0.  0.
        3    1    3    3  502    0 -0.45024633378E+03  0.46082121054E+03 -0.13563354563E+03  0.65838774143E+03  0.10100000352E+00 0. -1.
       -3    1    3    3    0  502  0.45024633378E+03 -0.46082121054E+03 -0.46447630039E+03  0.79423938015E+03  0.10100000352E+00 0.  1.
</event>
<event>
 5   0  0.1667342E-03  0.1308077E+04  0.7818609E-02  0.9023185E-01
        2   -1    0    0  501    0  0.00000000000E+00  0.00000000000E+00  0.10368516785E+04  0.10368516785E+04  0.25500000920E-02 0.  1.
       -2   -1    0    0    0  501  0.00000000000E+00  0.00000000000E+00 -0.41256244692E+03  0.41256244693E+03  0.25500000920E-02 0. -1.
    10030    2    1    2    0    0  0.00000000000E+00  0.00000000000E+00  0.62428923161E+03  0.14494141255E+04  0.13080765507E+04 0.  0.
        5    1    3    3  502    0  0.96117553885E+02 -0.34406132453E+03 -0.29488796999E+03  0.46324700112E+03  0.46999998093E+01 0. -1.
       -5    1    3    3    0  502 -0.96117553885E+02  0.34406132453E+03  0.91917720160E+03  0.98616712435E+03  0.46999998093E+01 0.  1.
</event>
<event>
 5   0  0.9215829E-04  0.1309273E+04  0.7818609E-02  0.9022243E-01
        1   -1    0    0  501    0  0.00000000000E+00  0.00000000000E+00  0.86709019366E+03  0.86709019368E+03  0.50400001928E-02 0.  1.
       -1   -1    0    0    0  501  0.00000000000E+00  0.00000000000E+00 -0.49423833696E+03  0.49423833698E+03  0.50400001928E-02 0. -1.
    10030    2    1    2    0    0  0.00000000000E+00  0.00000000000E+00  0.37285185670E+03  0.13613285307E+04  0.13092734097E+04 0.  0.
        3    1    3    3  502    0  0.48531903391E+03  0.91281119737E+02 -0.26040718605E+03  0.55828193616E+03  0.10100000352E+00 0. -1.
       -3    1    3    3    0  502 -0.48531903391E+03 -0.91281119737E+02  0.63325904275E+03  0.80304659449E+03  0.10100000352E+00 0.  1.
</event>
<event>
 5   0  0.6284125E-04  0.1294530E+04  0.7818609E-02  0.9033914E-01
        3   -1    0    0  501    0  0.00000000000E+00  0.00000000000E+00  0.75929582830E+03  0.75929583501E+03  0.10100000352E+00 0. -1.
       -3   -1    0    0    0  501  0.00000000000E+00  0.00000000000E+00 -0.55176362153E+03  0.55176363078E+03  0.10100000352E+00 0.  1.
    10030    2    1    2    0    0  0.00000000000E+00  0.00000000000E+00  0.20753220676E+03  0.13110594658E+04  0.12945297625E+04 0.  0.
        5    1    3    3  502    0  0.45351624479E+03 -0.88496555253E+01  0.57136977421E+03  0.72954835999E+03  0.46999998093E+01 0. -1.
       -5    1    3    3    0  502 -0.45351624479E+03  0.88496555253E+01 -0.36383756744E+03  0.58151110580E+03  0.46999998093E+01 0.  1.
</event>
<event>
 5   0  0.9110949E-04  0.1308486E+04  0.7818609E-02  0.9022863E-01
        1   -1    0    0  501    0  0.00000000000E+00  0.00000000000E+00  0.36052713210E+03  0.36052713213E+03  0.50400001928E-02 0. -1.
       -1   -1    0    0    0  501  0.00000000000E+00  0.00000000000E+00 -0.11872442016E+04  0.11872442016E+04  0.50400001928E-02 0.  1.
    10030    2    1    2    0    0  0.00000000000E+00  0.00000000000E+00 -0.82671706949E+03  0.15477713337E+04  0.13084857617E+04 0.  0.
        2    1    3    3  502    0  0.28201104998E+03  0.25502019821E+02 -0.11110056057E+04  0.11465225865E+04  0.25500000920E-02 0.  1.
       -2    1    3    3    0  502 -0.28201104998E+03 -0.25502019821E+02  0.28428853624E+03  0.40124874725E+03  0.25500000920E-02 0. -1.
</event>
<event>
 5   0  0.9081324E-04  0.1269095E+04  0.7818609E-02  0.9054439E-01
       -1   -1    0    0    0  501  0.00000000000E+00  0.00000000000E+00  0.40422487575E+03  0.40422487578E+03  0.50400001928E-02 0. -1.
        1   -1    0    0  501    0  0.00000000000E+00  0.00000000000E+00 -0.99610522789E+03  0.99610522790E+03  0.50400001928E-02 0.  1.
    10030    2    1    2    0    0  0.00000000000E+00  0.00000000000E+00 -0.59188035214E+03  0.14003301037E+04  0.12690949720E+04 0.  0.
        4    1    3    3  502    0 -0.13041782574E+02 -0.51751161674E+02 -0.99362301043E+03  0.99505606404E+03  0.12699999809E+01 0.  1.
       -4    1    3    3    0  502  0.13041782574E+02  0.51751161674E+02  0.40174265828E+03  0.40527403964E+03  0.12699999809E+01 0. -1.
</event>
<event>
 5   0  0.1623890E-03  0.1317052E+04  0.7818609E-02  0.9016151E-01
       -2   -1    0    0    0  501  0.00000000000E+00  0.00000000000E+00  0.88054993105E+03  0.88054993105E+03  0.25500000920E-02 0.  1.
        2   -1    0    0  501    0  0.00000000000E+00  0.00000000000E+00 -0.49248362508E+03  0.49248362509E+03  0.25500000920E-02 0. -1.
    10030    2    1    2    0    0  0.00000000000E+00  0.00000000000E+00  0.38806630597E+03  0.13730335561E+04  0.13170518928E+04 0.  0.
        3    1    3    3  502    0 -0.46322072714E+03 -0.33188565047E+03  0.53811499444E+03  0.78376609042E+03  0.10100000352E+00 0.  1.
       -3    1    3    3    0  502  0.46322072714E+03  0.33188565047E+03 -0.15004868848E+03  0.58926746572E+03  0.10100000352E+00 0. -1.
</event>
<event>
 5   0  0.1623890E-03  0.1289420E+04  0.7818609E-02  0.9037997E-01
       -2   -1    0    0    0  501  0.00000000000E+00  0.00000000000E+00  0.35507217293E+03  0.35507217294E+03  0.25500000920E-02 0.  1.
        2   -1    0    0  501    0  0.00000000000E+00  0.00000000000E+00 -0.11706106883E+04  0.11706106883E+04  0.25500000920E-02 0. -1.
    10030    2    1    2    0    0  0.00000000000E+00  0.00000000000E+00 -0.81553851532E+03  0.15256828612E+04  0.12894204601E+04 0.  0.
        3    1    3    3  502    0  0.39762725247E+03 -0.46016242572E+03 -0.15456220095E+03  0.62749213072E+03  0.10100000352E+00 0. -1.
       -3    1    3    3    0  502 -0.39762725247E+03  0.46016242572E+03 -0.66097631437E+03  0.89819073048E+03  0.10100000352E+00 0.  1.
</event>
<event>
 5   0  0.1714861E-03  0.1284446E+04  0.7818609E-02  0.9041991E-01
        2   -1    0    0  501    0  0.00000000000E+00  0.00000000000E+00  0.15581664181E+04  0.15581664181E+04  0.25500000920E-02 0. -1.
       -2   -1    0    0    0  501  0.00000000000E+00  0.00000000000E+00 -0.26470251264E+03  0.26470251266E+03  0.25500000920E-02 0.  1.
    10030    2    1    2    0    0  0.00000000000E+00  0.00000000000E+00  0.12934639054E+04  0.18228689307E+04  0.12844462869E+04 0.  0.
        1    1    3    3  502    0  0.42383707675E+03  0.13351993994E+03 -0.11295026375E+02  0.44451436381E+03  0.50400001928E-02 0.  1.
       -1    1    3    3    0  502 -0.42383707675E+03 -0.13351993994E+03  0.13047589318E+04  0.13783545669E+04  0.50400001928E-02 0. -1.
</event>
<event>
 5   0  0.9098192E-04  0.1302312E+04  0.7818609E-02  0.9027734E-01
        1   -1    0    0  501    0  0.00000000000E+00  0.00000000000E+00  0.93820238801E+03  0.93820238802E+03  0.50400001928E-02 0.  1.
       -1   -1    0    0    0  501  0.00000000000E+00  0.00000000000E+00 -0.45193255635E+03  0.45193255638E+03  0.50400001928E-02 0. -1.
    10030    2    1    2    0    0  0.00000000000E+00  0.00000000000E+00  0.48626983166E+03  0.13901349444E+04  0.13023121033E+04 0.  0.
        1    1    3    3  502    0 -0.32961048984E+03  0.38088140628E+03  0.68362594913E+03  0.84915143468E+03  0.50400001928E-02 0.  1.
       -1    1    3    3    0  502  0.32961048984E+03 -0.38088140628E+03 -0.19735611747E+03  0.54098350973E+03  0.50400001928E-02 0. -1.
</event>
<event>
 5   0  0.1700511E-03  0.1306532E+04  0.7818609E-02  0.9024401E-01
       -2   -1    0    0    0  501  0.00000000000E+00  0.00000000000E+00  0.44220869472E+03  0.44220869473E+03  0.25500000920E-02 0.  1.
        2   -1    0    0  501    0  0.00000000000E+00  0.00000000000E+00 -0.96505667862E+03  0.96505667862E+03  0.25500000920E-02 0. -1.
    10030    2    1    2    0    0  0.00000000000E+00  0.00000000000E+00 -0.52284798390E+03  0.14072653733E+04  0.13065319808E+04 0.  0.
        2    1    3    3  502    0 -0.39717431685E+03 -0.39093776671E+03  0.10570225569E+03  0.56723252928E+03  0.25500000920E-02 0. -1.
       -2    1    3    3    0  502  0.39717431685E+03  0.39093776671E+03 -0.62855023959E+03  0.84003284406E+03  0.25500000920E-02 0.  1.
</event>
<event>
 5   0  0.1623890E-03  0.1289811E+04  0.7818609E-02  0.9037684E-01
       -2   -1    0    0    0  501  0.00000000000E+00  0.00000000000E+00  0.58731766916E+03  0.58731766917E+03  0.25500000920E-02 0. -1.
        2   -1    0    0  501    0  0.00000000000E+00  0.00000000000E+00 -0.70814040828E+03  0.70814040828E+03  0.25500000920E-02 0.  1.
    10030    2    1    2    0    0  0.00000000000E+00  0.00000000000E+00 -0.12082273912E+03  0.12954580775E+04  0.12898114188E+04 0.  0.
        3    1    3    3  502    0  0.31520648161E+03  0.12999712373E+03 -0.61020987092E+03  0.69900677751E+03  0.10100000352E+00 0.  1.
       -3    1    3    3    0  502 -0.31520648161E+03 -0.12999712373E+03  0.48938713181E+03  0.59645129994E+03  0.10100000352E+00 0. -1.
</event>
<event>
 5   0  0.9098192E-04  0.1309069E+04  0.7818609E-02  0.9022404E-01
        1   -1    0    0  501    0  0.00000000000E+00  0.00000000000E+00  0.35907922905E+03  0.35907922909E+03  0.50400001928E-02 0. -1.
       -1   -1    0    0    0  501  0.00000000000E+00  0.00000000000E+00 -0.11930937939E+04  0.11930937939E+04  0.50400001928E-02 0.  1.
    10030    2    1    2    0    0  0.00000000000E+00  0.00000000000E+00 -0.83401456483E+03  0.15521730230E+04  0.13090686762E+04 0.  0.
        1    1    3    3  502    0 -0.12606946549E+02 -0.19248948396E+03  0.32460920856E+03  0.37760068173E+03  0.50400001928E-02 0. -1.
       -1    1    3    3    0  502  0.12606946549E+02  0.19248948396E+03 -0.11586237734E+04  0.11745723412E+04  0.50400001928E-02 0.  1.
</event>
<event>
 5   0  0.1694675E-03  0.1308863E+04  0.7818609E-02  0.9022566E-01
       -2   -1    0    0    0  501  0.00000000000E+00  0.00000000000E+00  0.34226530689E+03  0.34226530690E+03  0.25500000920E-02 0. -1.
        2   -1    0    0  501    0  0.00000000000E+00  0.00000000000E+00 -0.12513109519E+04  0.12513109519E+04  0.25500000920E-02 0.  1.
    10030    2    1    2    0    0  0.00000000000E+00  0.00000000000E+00 -0.90904564500E+03  0.15935762588E+04  0.13088626008E+04 0.  0.
        4    1    3    3  502    0 -0.35771802918E+03 -0.54793969819E+03 -0.46531789244E+03  0.80294610976E+03  0.12699999809E+01 0. -1.
       -4    1    3    3    0  502  0.35771802918E+03  0.54793969819E+03 -0.44372775256E+03  0.79063014902E+03  0.12699999809E+01 0.  1.
</event>
<event>
 5   0  0.9027076E-04  0.1291556E+04  0.7818609E-02  0.9036288E-01
        1   -1    0    0  501    0  0.00000000000E+00  0.00000000000E+00  0.42919815316E+03  0.42919815319E+03  0.50400001928E-02 0.  1.
       -1   -1    0    0    0  501  0.00000000000E+00  0.00000000000E+00 -0.97164686866E+03  0.97164686867E+03  0.50400001928E-02 0. -1.
    10030    2    1    2    0    0  0.00000000000E+00  0.00000000000E+00 -0.54244871550E+03  0.14008450219E+04  0.12915557155E+04 0.  0.
        5    1    3    3  502    0 -0.25691880508E+02 -0.26336213168E+03  0.36767685761E+03  0.45302102241E+03  0.46999998093E+01 0.  1.
       -5    1    3    3    0  502  0.25691880508E+02  0.26336213168E+03 -0.91012557310E+03  0.94782399945E+03  0.46999998093E+01 0. -1.
</event>
<event>
 5   0  0.1667342E-03  0.1135317E+04  0.7818609E-02  0.9171437E-01
       -2   -1    0    0    0  501  0.00000000000E+00  0.00000000000E+00  0.47200757717E+03  0.47200757718E+03  0.25500000920E-02 0. -1.
        2   -1    0    0  501    0  0.00000000000E+00  0.00000000000E+00 -0.68269282546E+03  0.68269282547E+03  0.25500000920E-02 0.  1.
    10030    2    1    2    0    0  0.00000000000E+00  0.00000000000E+00 -0.21068524829E+03  0.11547004026E+04  0.11353170245E+04 0.  0.
        5    1    3    3  502    0  0.27377913611E+03  0.39148786949E+03 -0.41716524233E+03  0.63424498163E+03  0.46999998093E+01 0.  1.
       -5    1    3    3    0  502 -0.27377913611E+03 -0.39148786949E+03  0.20647999403E+03  0.52045542101E+03  0.46999998093E+01 0. -1.
</event>
<event>
 5   0  0.1694675E-03  0.1295593E+04  0.7818609E-02  0.9033068E-01
       -2   -1    0    0    0  501  0.00000000000E+00  0.00000000000E+00  0.11209261593E+04  0.11209261593E+04  0.25500000920E-02 0. -1.
        2   -1    0    0  501    0  0.00000000000E+00  0.00000000000E+00 -0.37436908606E+03  0.37436908607E+03  0.25500000920E-02 0.  1.
    10030    2    1    2    0    0  0.00000000000E+00  0.00000000000E+00  0.74655707326E+03  0.14952952454E+04  0.12955926857E+04 0.  0.
        4    1    3    3  502    0 -0.11463451033E+02  0.99430099110E+02 -0.36538971017E+03  0.37885222517E+03  0.12699999809E+01 0.  1.
       -4    1    3    3    0  502  0.11463451033E+02 -0.99430099110E+02  0.11119467834E+04  0.11164430202E+04  0.12699999809E+01 0. -1.
</event>
<event>
 5   0  0.1623890E-03  0.1299765E+04  0.7818609E-02  0.9029752E-01
       -2   -1    0    0    0  501  0.00000000000E+00  0.00000000000E+00  0.51945002353E+03  0.51945002354E+03  0.25500000920E-02 0.  1.
        2   -1    0    0  501    0  0.00000000000E+00  0.00000000000E+00 -0.81306598923E+03  0.81306598923E+03  0.25500000920E-02 0. -1.
    10030    2    1    2    0    0  0.00000000000E+00  0.00000000000E+00 -0.29361596570E+03  0.13325160128E+04  0.12997648206E+04 0.  0.
        3    1    3    3  502    0 -0.37646622879E+03 -0.48057547360E+02  0.39403684233E+03  0.54708444741E+03  0.10100000352E+00 0.  1.
       -3    1    3    3    0  502  0.37646622879E+03  0.48057547360E+02 -0.68765280803E+03  0.78543156536E+03  0.10100000352E+00 0. -1.
</event>
<event>
 5   0  0.1623890E-03  0.1319672E+04  0.7818609E-02  0.9014109E-01
       -2   -1    0    0    0  501  0.00000000000E+00  0.00000000000E+00  0.58177925229E+03  0.58177925230E+03  0.25500000920E-02 0. -1.
        2   -1    0    0  501    0  0.00000000000E+00  0.00000000000E+00 -0.74836600760E+03  0.74836600760E+03  0.25500000920E-02 0.  1.
    10030    2    1    2    0    0  0.00000000000E+00  0.00000000000E+00 -0.16658675531E+03  0.13301452599E+04  0.13196724084E+04 0.  0.
        3    1    3    3  502    0  0.29919048070E+03 -0.37263626214E+02  0.50828885238E+03  0.59098315478E+03  0.10100000352E+00 0. -1.
       -3    1    3    3    0  502 -0.29919048070E+03  0.37263626214E+02 -0.67487560769E+03  0.73916210511E+03  0.10100000352E+00 0.  1.
</event>
<event>
 5   0  0.1694675E-03  0.1288145E+04  0.7818609E-02  0.9039020E-01
       -2   -1    0    0    0  501  0.00000000000E+00  0.00000000000E+00  0.39105438791E+03  0.39105438792E+03  0.25500000920E-02 0.  1.
        2   -1    0    0  501    0  0.00000000000E+00  0.00000000000E+00 -0.10607964575E+04  0.10607964575E+04  0.25500000920E-02 0. -1.
    10030    2    1    2    0    0  0.00000000000E+00  0.00000000000E+00 -0.66974206963E+03  0.14518508455E+04  0.12881445717E+04 0.  0.
        4    1    3    3  502    0 -0.42272015333E+03 -0.19199844847E+03  0.16825903859E+03  0.49383038507E+03  0.12699999809E+01 0.  1.
       -4    1    3    3    0  502  0.42272015333E+03  0.19199844847E+03 -0.83800110822E+03  0.95802046039E+03  0.12699999809E+01 0. -1.
</event>
<event>
 5   0  0.1623890E-03  0.1298905E+04  0.7818609E-02  0.9030434E-01
       -2   -1    0    0    0  501  0.00000000000E+00  0.00000000000E+00  0.44795368213E+03  0.44795368214E+03  0.25500000920E-02 0. -1.
        2   -1    0    0  501    0  0.00000000000E+00  0.00000000000E+00 -0.94158923756E+03  0.94158923756E+03  0.25500000920E-02 0.  1.
    10030    2    1    2    0    0  0.00000000000E+00  0.00000000000E+00 -0.49363555542E+03  0.13895429197E+04  0.12989047171E+04 0.  0.
        3    1    3    3  502    0  0.44623136367E+03 -0.11503223370E+03  0.24275556056E+03  0.52085037880E+03  0.10100000352E+00 0. -1.
       -3    1    3    3    0  502 -0.44623136367E+03  0.11503223370E+03 -0.73639111598E+03  0.86869254090E+03  0.10100000352E+00 0.  1.
</event>
<event>
 5   0  0.6284125E-04  0.1238431E+04  0.7818609E-02  0.9079867E-01
       -3   -1    0    0    0  501  0.00000000000E+00  0.00000000000E+00  0.77723904891E+03  0.77723905547E+03  0.10100000352E+00 0.  1.
        3   -1    0    0  501    0  0.00000000000E+00  0.00000000000E+00 -0.49332058808E+03  0.49332059842E+03  0.10100000352E+00 0. -1.
    10030    2    1    2    0    0  0.00000000000E+00  0.00000000000E+00  0.28391846082E+03  0.12705596539E+04  0.12384313230E+04 0.  0.
        5    1    3    3  502    0  0.50061458028E+03  0.35173753718E+03  0.44242868357E+02  0.61344419017E+03  0.46999998093E+01 0.  1.
       -5    1    3    3    0  502 -0.50061458028E+03 -0.35173753718E+03  0.23967559247E+03  0.65711546373E+03  0.46999998093E+01 0. -1.
</event>
<event>
 5   0  0.9027076E-04  0.1253031E+04  0.7818609E-02  0.9067665E-01
        1   -1    0    0  501    0  0.00000000000E+00  0.00000000000E+00  0.54133573485E+03  0.54133573487E+03  0.50400001928E-02 0.  1.
       -1   -1    0    0    0  501  0.00000000000E+00  0.00000000000E+00 -0.72509794600E+03  0.72509794601E+03  0.50400001928E-02 0. -1.
    10030    2    1    2    0    0  0.00000000000E+00  0.00000000000E+00 -0.18376221115E+03  0.12664336809E+04  0.12530306133E+04 0.  0.
        5    1    3    3  502    0  0.50606515549E+03  0.13054079733E+03  0.25729442733E+03  0.58255073059E+03  0.46999998093E+01 0.  1.
       -5    1    3    3    0  502 -0.50606515549E+03 -0.13054079733E+03 -0.44105663848E+03  0.68388295030E+03  0.46999998093E+01 0. -1.
</event>
<event>
 5   0  0.1714861E-03  0.1311991E+04  0.7818609E-02  0.9020110E-01
       -2   -1    0    0    0  501  0.00000000000E+00  0.00000000000E+00  0.22063297593E+03  0.22063297595E+03  0.25500000920E-02 0. -1.
        2   -1    0    0  501    0  0.00000000000E+00  0.00000000000E+00 -0.19504355571E+04  0.19504355571E+04  0.25500000920E-02 0.  1.
    10030    2    1    2    0    0  0.00000000000E+00  0.00000000000E+00 -0.17298025812E+04  0.21710685331E+04  0.13119914654E+04 0.  0.
        1    1    3    3  502    0  0.34576307294E+03 -0.30592481500E+03 -0.93712440005E+02  0.47108822579E+03  0.50400001928E-02 0. -1.
       -1    1    3    3    0  502 -0.34576307294E+03  0.30592481500E+03 -0.16360901412E+04  0.16999803073E+04  0.50400001928E-02 0.  1.
</event>
<event>
 5   0  0.9215829E-04  0.1288729E+04  0.7818609E-02  0.9038552E-01
        1   -1    0    0  501    0  0.00000000000E+00  0.00000000000E+00  0.70688903318E+03  0.70688903320E+03  0.50400001928E-02 0.  1.
       -1   -1    0    0    0  501  0.00000000000E+00  0.00000000000E+00 -0.58736989265E+03  0.58736989267E+03  0.50400001928E-02 0. -1.
    10030    2    1    2    0    0  0.00000000000E+00  0.00000000000E+00  0.11951914053E+03  0.12942589259E+04  0.12887285759E+04 0.  0.
        3    1    3    3  502    0 -0.40211792059E+02  0.48830628975E+03  0.48005915378E+03  0.68594228778E+03  0.10100000352E+00 0.  1.
       -3    1    3    3    0  502  0.40211792059E+02 -0.48830628975E+03 -0.36054001325E+03  0.60831663810E+03  0.10100000352E+00 0. -1.
</event>
<event>
 5   0  0.1694675E-03  0.1305888E+04  0.7818609E-02  0.9024909E-01
        2   -1    0    0  501    0  0.00000000000E+00  0.00000000000E+00  0.16198265491E+04  0.16198265491E+04  0.25500000920E-02 0. -1.
       -2   -1    0    0    0  501  0.00000000000E+00  0.00000000000E+00 -0.26319846129E+03  0.26319846130E+03  0.25500000920E-02 0.  1.
    10030    2    1    2    0    0  0.00000000000E+00  0.00000000000E+00  0.13566280878E+04  0.18830250104E+04  0.13058879819E+04 0.  0.
        4    1    3    3  502    0 -0.10099255438E+03  0.13401696891E+03  0.15881994944E+04  0.15970407918E+04  0.12699999809E+01 0. -1.
       -4    1    3    3    0  502  0.10099255438E+03 -0.13401696891E+03 -0.23157140659E+03  0.28598421853E+03  0.12699999809E+01 0.  1.
</event>
<event>
 5   0  0.1714861E-03  0.1305651E+04  0.7818609E-02  0.9025096E-01
       -2   -1    0    0    0  501  0.00000000000E+00  0.00000000000E+00  0.67341531544E+03  0.67341531545E+03  0.25500000920E-02 0.  1.
        2   -1    0    0  501    0  0.00000000000E+00  0.00000000000E+00 -0.63286536439E+03  0.63286536440E+03  0.25500000920E-02 0. -1.
    10030    2    1    2    0    0  0.00000000000E+00  0.00000000000E+00  0.40549951046E+02  0.13062806798E+04  0.13056511464E+04 0.  0.
        1    1    3    3  502    0 -0.11092508601E+02  0.56276242658E+03 -0.31057562036E+03  0.64286997791E+03  0.50400001928E-02 0.  1.
       -1    1    3    3    0  502  0.11092508601E+02 -0.56276242658E+03  0.35112557141E+03  0.66341070193E+03  0.50400001928E-02 0. -1.
</event>
<event>
 5   0  0.6284125E-04  0.1297594E+04  0.7818609E-02  0.9031475E-01
       -3   -1    0    0    0  501  0.00000000000E+00  0.00000000000E+00  0.46165328003E+03  0.46165329107E+03  0.10100000352E+00 0.  1.
        3   -1    0    0  501    0  0.00000000000E+00  0.00000000000E+00 -0.91180417018E+03  0.91180417578E+03  0.10100000352E+00 0. -1.
    10030    2    1    2    0    0  0.00000000000E+00  0.00000000000E+00 -0.45015089016E+03  0.13734574669E+04  0.12975937690E+04 0.  0.
        4    1    3    3  502    0 -0.41580491198E+03 -0.41674472006E+03  0.63569114591E+02  0.59212543583E+03  0.12699999809E+01 0.  1.
       -4    1    3    3    0  502  0.41580491198E+03  0.41674472006E+03 -0.51372000475E+03  0.78133203102E+03  0.12699999809E+01 0. -1.
</event>
<event>
 5   0  0.1694675E-03  0.1297612E+04  0.7818609E-02  0.9031461E-01
        2   -1    0    0  501    0  0.00000000000E+00  0.00000000000E+00  0.60090376330E+03  0.60090376331E+03  0.25500000920E-02 0.  1.
       -2   -1    0    0    0  501  0.00000000000E+00  0.00000000000E+00 -0.70052698959E+03  0.70052698960E+03  0.25500000920E-02 0. -1.
    10030    2    1    2    0    0  0.00000000000E+00  0.00000000000E+00 -0.99623226290E+02  0.13014307529E+04  0.12976121213E+04 0.  0.
        4    1    3    3  502    0  0.30855805879E+03  0.55505655674E+03 -0.18306280316E+03  0.66091562217E+03  0.12699999809E+01 0. -1.
       -4    1    3    3    0  502 -0.30855805879E+03 -0.55505655674E+03  0.83439576867E+02  0.64051513074E+03  0.12699999809E+01 0.  1.
</event>
<event>
 5   0  0.1714861E-03  0.1322765E+04  0.7818609E-02  0.9011705E-01
        2   -1    0    0  501    0  0.00000000000E+00  0.00000000000E+00  0.69826015280E+03  0.69826015281E+03  0.25500000920E-02 0. -1.
       -2   -1    0    0    0  501  0.00000000000E+00  0.00000000000E+00 -0.62645223238E+03  0.62645223239E+03  0.25500000920E-02 0.  1.
    10030    2    1    2    0    0  0.00000000000E+00  0.00000000000E+00  0.71807920423E+02  0.13247123852E+04  0.13227647282E+04 0.  0.
        1    1    3    3  502    0 -0.28623488759E+03 -0.60189752558E+02 -0.55815864904E+03  0.63015418328E+03  0.50400001928E-02 0.  1.
       -1    1    3    3    0  502  0.28623488759E+03  0.60189752558E+02  0.62996656946E+03  0.69455820191E+03  0.50400001928E-02 0. -1.
</event>
<event>
 5   0  0.9081324E-04  0.1308153E+04  0.7818609E-02  0.9023125E-01
        1   -1    0    0  501    0  0.00000000000E+00  0.00000000000E+00  0.45052513560E+03  0.45052513563E+03  0.50400001928E-02 0. -1.
       -1   -1    0    0    0  501  0.00000000000E+00  0.00000000000E+00 -0.94959432810E+03  0.94959432812E+03  0.50400001928E-02 0.  1.
    10030    2    1    2    0    0  0.00000000000E+00  0.00000000000E+00 -0.49906919250E+03  0.14001194637E+04  0.13081530697E+04 0.  0.
        4    1    3    3  502    0  0.34443533632E+03  0.97300947506E+02 -0.83548128634E+03  0.90891901070E+03  0.12699999809E+01 0.  1.
       -4    1    3    3    0  502 -0.34443533632E+03 -0.97300947506E+02  0.33641209383E+03  0.49120045304E+03  0.12699999809E+01 0. -1.
</event>
<event>
 5   0  0.6284125E-04  0.1288684E+04  0.7818609E-02  0.9038588E-01
       -3   -1    0    0    0  501  0.00000000000E+00  0.00000000000E+00  0.55550049773E+03  0.55550050691E+03  0.10100000352E+00 0.  1.
        3   -1    0    0  501    0  0.00000000000E+00  0.00000000000E+00 -0.74739141171E+03  0.74739141853E+03  0.10100000352E+00 0. -1.
    10030    2    1    2    0    0  0.00000000000E+00  0.00000000000E+00 -0.19189091398E+03  0.13028919254E+04  0.12886835323E+04 0.  0.
        1    1    3    3  502    0  0.45876427194E+03 -0.10707222330E+03 -0.54039115962E+03  0.71690426393E+03  0.50400001928E-02 0. -1.
       -1    1    3    3    0  502 -0.45876427194E+03  0.10707222330E+03  0.34850024564E+03  0.58598766152E+03  0.50400001928E-02 0.  1.
</event>
<event>
 5   0  0.9027076E-04  0.1298839E+04  0.7818609E-02  0.9030486E-01
        1   -1    0    0  501    0  0.00000000000E+00  0.00000000000E+00  0.94476573434E+03  0.94476573436E+03  0.50400001928E-02 0. -1.
       -1   -1    0    0    0  501  0.00000000000E+00  0.00000000000E+00 -0.44640228384E+03  0.44640228386E+03  0.50400001928E-02 0.  1.
    10030    2    1    2    0    0  0.00000000000E+00  0.00000000000E+00  0.49836345051E+03  0.13911680182E+04  0.12988388376E+04 0.  0.
        5    1    3    3  502    0 -0.15550125742E+03 -0.22158821595E+03 -0.38306889512E+03  0.46909044641E+03  0.46999998093E+01 0.  1.
       -5    1    3    3    0  502  0.15550125742E+03  0.22158821595E+03  0.88143234563E+03  0.92207757181E+03  0.46999998093E+01 0. -1.
</event>
<event>
 5   0  0.1694675E-03  0.1297737E+04  0.7818609E-02  0.9031361E-01
       -2   -1    0    0    0  501  0.00000000000E+00  0.00000000000E+00  0.87077402491E+03  0.87077402492E+03  0.25500000920E-02 0.  1.
        2   -1    0    0  501    0  0.00000000000E+00  0.00000000000E+00 -0.48351306362E+03  0.48351306362E+03  0.25500000920E-02 0. -1.
    10030    2    1    2    0    0  0.00000000000E+00  0.00000000000E+00  0.38726096130E+03  0.13542870885E+04  0.12977374411E+04 0.  0.
        4    1    3    3  502    0  0.17779751934E+03 -0.14788110515E+03  0.82630605485E+03  0.85805832455E+03  0.12699999809E+01 0.  1.
       -4    1    3    3    0  502 -0.17779751934E+03  0.14788110515E+03 -0.43904509355E+03  0.49622876400E+03  0.12699999809E+01 0. -1.
</event>
<event>
 5   0  0.1714861E-03  0.1263807E+04  0.7818609E-02  0.9058770E-01
        2   -1    0    0  501    0  0.00000000000E+00  0.00000000000E+00  0.12351208029E+04  0.12351208029E+04  0.25500000920E-02 0.  1.
       -2   -1    0    0    0  501  0.00000000000E+00  0.00000000000E+00 -0.32328972409E+03  0.32328972410E+03  0.25500000920E-02 0. -1.
    10030    2    1    2    0    0  0.00000000000E+00  0.00000000000E+00  0.91183107879E+03  0.15584105270E+04  0.12638067314E+04 0.  0.
        1    1    3    3  502    0  0.17068975764E+03  0.54255711339E+03  0.79540941277E+03  0.97784423535E+03  0.50400001928E-02 0.  1.
       -1    1    3    3    0  502 -0.17068975764E+03 -0.54255711339E+03  0.11642166602E+03  0.58056629165E+03  0.50400001928E-02 0. -1.
</event>
<event>
 5   0  0.1700511E-03  0.1311181E+04  0.7818609E-02  0.9020745E-01
        2   -1    0    0  501    0  0.00000000000E+00  0.00000000000E+00  0.91736943107E+03  0.91736943108E+03  0.25500000920E-02 0.  1.
       -2   -1    0    0    0  501  0.00000000000E+00  0.00000000000E+00 -0.46851213666E+03  0.46851213667E+03  0.25500000920E-02 0. -1.
    10030    2    1    2    0    0  0.00000000000E+00  0.00000000000E+00  0.44885729441E+03  0.13858815677E+04  0.13111807080E+04 0.  0.
        2    1    3    3  502    0 -0.33225591272E+03  0.35491374815E+03  0.68930534619E+03  0.84350436896E+03  0.25500000920E-02 0.  1.
       -2    1    3    3    0  502  0.33225591272E+03 -0.35491374815E+03 -0.24044805177E+03  0.54237719879E+03  0.25500000920E-02 0. -1.
</event>
<event>
 5   0  0.1667342E-03  0.1297990E+04  0.7818609E-02  0.9031161E-01
        2   -1    0    0  501    0  0.00000000000E+00  0.00000000000E+00  0.20165583588E+04  0.20165583588E+04  0.25500000920E-02 0. -1.
       -2   -1    0    0    0  501  0.00000000000E+00  0.00000000000E+00 -0.20886786116E+03  0.20886786118E+03  0.25500000920E-02 0.  1.
    10030    2    1    2    0    0  0.00000000000E+00  0.00000000000E+00  0.18076904976E+04  0.22254262200E+04  0.12979895706E+04 0.  0.
        5    1    3    3  502    0 -0.10734029859E+03 -0.35799899347E+03 -0.57980175769E+01  0.37381937622E+03  0.46999998093E+01 0.  1.
       -5    1    3    3    0  502  0.10734029859E+03  0.35799899347E+03  0.18134885152E+04  0.18516068437E+04  0.46999998093E+01 0. -1.
</event>
<event>
 5   0  0.1700511E-03  0.1290392E+04  0.7818609E-02  0.9037219E-01
       -2   -1    0    0    0  501  0.00000000000E+00  0.00000000000E+00  0.20985565965E+03  0.20985565967E+03  0.25500000920E-02 0. -1.
        2   -1    0    0  501    0  0.00000000000E+00  0.00000000000E+00 -0.19836381764E+04  0.19836381764E+04  0.25500000920E-02 0.  1.
    10030    2    1    2    0    0  0.00000000000E+00  0.00000000000E+00 -0.17737825168E+04  0.21934938361E+04  0.12903917204E+04 0.  0.
        2    1    3    3  502    0 -0.37957549868E+03 -0.44983979118E+03 -0.13361332444E+04  0.14600292612E+04  0.25500000920E-02 0.  1.
       -2    1    3    3    0  502  0.37957549868E+03  0.44983979118E+03 -0.43764927239E+03  0.73346457485E+03  0.25500000920E-02 0. -1.
</event>
<event>
 5   0  0.9215829E-04  0.1304176E+04  0.7818609E-02  0.9026260E-01
       -1   -1    0    0    0  501  0.00000000000E+00  0.00000000000E+00  0.40529936428E+03  0.40529936431E+03  0.50400001928E-02 0.  1.
        1   -1    0    0  501    0  0.00000000000E+00  0.00000000000E+00 -0.10491479601E+04  0.10491479602E+04  0.50400001928E-02 0. -1.
    10030    2    1    2    0    0  0.00000000000E+00  0.00000000000E+00 -0.64384859586E+03  0.14544473245E+04  0.13041763705E+04 0.  0.
        3    1    3    3  502    0 -0.30255962634E+03  0.41064867305E+03  0.13114222732E+03  0.52666208726E+03  0.10100000352E+00 0.  1.
       -3    1    3    3    0  502  0.30255962634E+03 -0.41064867305E+03 -0.77499082317E+03  0.92778523720E+03  0.10100000352E+00 0. -1.
</event>
<event>
 5   0  0.1714861E-03  0.1269545E+04  0.7818609E-02  0.9054071E-01
       -2   -1    0    0    0  501  0.00000000000E+00  0.00000000000E+00  0.85017454733E+03  0.85017454734E+03  0.25500000920E-02 0.  1.
        2   -1    0    0  501    0  0.00000000000E+00  0.00000000000E+00 -0.47394488147E+03  0.47394488148E+03  0.25500000920E-02 0. -1.
    10030    2    1    2    0    0  0.00000000000E+00  0.00000000000E+00  0.37622966587E+03  0.13241194288E+04  0.12695446035E+04 0.  0.
        1    1    3    3  502    0 -0.22400422574E+03  0.38533185456E+03  0.65951452586E+03  0.79600121930E+03  0.50400001928E-02 0.  1.
       -1    1    3    3    0  502  0.22400422574E+03 -0.38533185456E+03 -0.28328485999E+03  0.52811820951E+03  0.50400001928E-02 0. -1.
</event>
<event>
 5   0  0.9110949E-04  0.1284842E+04  0.7818609E-02  0.9041672E-01
       -1   -1    0    0    0  501  0.00000000000E+00  0.00000000000E+00  0.61272969642E+03  0.61272969644E+03  0.50400001928E-02 0.  1.
        1   -1    0    0  501    0  0.00000000000E+00  0.00000000000E+00 -0.67355142056E+03  0.67355142058E+03  0.50400001928E-02 0. -1.
    10030    2    1    2    0    0  0.00000000000E+00  0.00000000000E+00 -0.60821724136E+02  0.12862811170E+04  0.12848423366E+04 0.  0.
        2    1    3    3  502    0 -0.54843494164E+03  0.25318589689E+03 -0.24933581434E+03  0.65349241152E+03  0.25500000920E-02 0.  1.
       -2    1    3    3    0  502  0.54843494164E+03 -0.25318589689E+03  0.18851409021E+03  0.63278870550E+03  0.25500000920E-02 0. -1.
</event>
<event>
 5   0  0.9081324E-04  0.1286874E+04  0.7818609E-02  0.9040040E-01
       -1   -1    0    0    0  501  0.00000000000E+00  0.00000000000E+00  0.79490029002E+03  0.79490029004E+03  0.50400001928E-02 0. -1.
        1   -1    0    0  501    0  0.00000000000E+00  0.00000000000E+00 -0.52083373506E+03  0.52083373509E+03  0.50400001928E-02 0.  1.
    10030    2    1    2    0    0  0.00000000000E+00  0.00000000000E+00  0.27406655496E+03  0.13157340251E+04  0.12868735557E+04 0.  0.
        4    1    3    3  502    0 -0.40018248454E+03 -0.38043066327E+03 -0.20073260150E+03  0.58751059624E+03  0.12699999809E+01 0.  1.
       -4    1    3    3    0  502  0.40018248454E+03  0.38043066327E+03  0.47479915646E+03  0.72822342888E+03  0.12699999809E+01 0. -1.
</event>
<event>
 5   0  0.1623890E-03  0.1299997E+04  0.7818609E-02  0.9029568E-01
       -2   -1    0    0    0  501  0.00000000000E+00  0.00000000000E+00  0.79121457685E+03  0.79121457685E+03  0.25500000920E-02 0. -1.
        2   -1    0    0  501    0  0.00000000000E+00  0.00000000000E+00 -0.53398667581E+03  0.53398667582E+03  0.25500000920E-02 0.  1.
    10030    2    1    2    0    0  0.00000000000E+00  0.00000000000E+00  0.25722790104E+03  0.13252012527E+04  0.12999969873E+04 0.  0.
        3    1    3    3  502    0 -0.61236111260E+03 -0.14665041843E+03  0.29300287260E+03  0.69450930231E+03  0.10100000352E+00 0. -1.
       -3    1    3    3    0  502  0.61236111260E+03  0.14665041843E+03 -0.35774971561E+02  0.63069195035E+03  0.10100000352E+00 0.  1.
</event>
<event>
 5   0  0.1667342E-03  0.1300699E+04  0.7818609E-02  0.9029011E-01
       -2   -1    0    0    0  501  0.00000000000E+00  0.00000000000E+00  0.37532143299E+03  0.37532143300E+03  0.25500000920E-02 0.  1.
        2   -1    0    0  501    0  0.00000000000E+00  0.00000000000E+00 -0.11269134324E+04  0.11269134324E+04  0.25500000920E-02 0. -1.
    10030    2    1    2    0    0  0.00000000000E+00  0.00000000000E+00 -0.75159199943E+03  0.15022348654E+04  0.13006994493E+04 0.  0.
        5    1    3    3  502    0 -0.42154193779E+03 -0.39631310371E+03 -0.71874042416E+03  0.92269798353E+03  0.46999998093E+01 0. -1.
       -5    1    3    3    0  502  0.42154193779E+03  0.39631310371E+03 -0.32851575270E+02  0.57953688190E+03  0.46999998093E+01 0.  1.
</event>
<event>
 5   0  0.6284125E-04  0.1328933E+04  0.7818609E-02  0.9006931E-01
       -3   -1    0    0    0  501  0.00000000000E+00  0.00000000000E+00  0.72882983178E+03  0.72882983878E+03  0.10100000352E+00 0. -1.
        3   -1    0    0  501    0  0.00000000000E+00  0.00000000000E+00 -0.60578692095E+03  0.60578692937E+03  0.10100000352E+00 0.  1.
    10030    2    1    2    0    0  0.00000000000E+00  0.00000000000E+00  0.12304291083E+03  0.13346167682E+04  0.13289327898E+04 0.  0.
        1    1    3    3  502    0 -0.19334502664E+03  0.21025116280E+03  0.66402723741E+03  0.72285546469E+03  0.50400001928E-02 0. -1.
       -1    1    3    3    0  502  0.19334502664E+03 -0.21025116280E+03 -0.54098432658E+03  0.61176130346E+03  0.50400001928E-02 0.  1.
</event>
<event>
 5   0  0.1667342E-03  0.1342832E+04  0.7818609E-02  0.8996272E-01
       -2   -1    0    0    0  501  0.00000000000E+00  0.00000000000E+00  0.37153847306E+03  0.37153847306E+03  0.25500000920E-02 0. -1.
        2   -1    0    0  501    0  0.00000000000E+00  0.00000000000E+00 -0.12133316208E+04  0.12133316208E+04  0.25500000920E-02 0.  1.
    10030    2    1    2    0    0  0.00000000000E+00  0.00000000000E+00 -0.84179314778E+03  0.15848700939E+04  0.13428318997E+04 0.  0.
        5    1    3    3  502    0  0.89138818454E+02  0.16416522473E+02 -0.12060582784E+04  0.12094684336E+04  0.46999998093E+01 0.  1.
       -5    1    3    3    0  502 -0.89138818454E+02 -0.16416522473E+02  0.36426513059E+03  0.37540166026E+03  0.46999998093E+01 0. -1.
</event>
<event>
 5   0  0.1714861E-03  0.1316940E+04  0.7818609E-02  0.9016238E-01
        2   -1    0    0  501    0  0.00000000000E+00  0.00000000000E+00  0.11285398506E+04  0.11285398506E+04  0.25500000920E-02 0.  1.
       -2   -1    0    0    0  501  0.00000000000E+00  0.00000000000E+00 -0.38419805872E+03  0.38419805873E+03  0.25500000920E-02 0. -1.
    10030    2    1    2    0    0  0.00000000000E+00  0.00000000000E+00  0.74434179188E+03  0.15127379093E+04  0.13169401198E+04 0.  0.
        1    1    3    3  502    0 -0.47463211995E+03 -0.29942248142E+03 -0.23503238347E+02  0.56167773136E+03  0.50400001928E-02 0. -1.
       -1    1    3    3    0  502  0.47463211995E+03  0.29942248142E+03  0.76784503023E+03  0.95106017798E+03  0.50400001928E-02 0.  1.
</event>
<event>
 5   0  0.9081324E-04  0.1299746E+04  0.7818609E-02  0.9029767E-01
        1   -1    0    0  501    0  0.00000000000E+00  0.00000000000E+00  0.71443050579E+03  0.71443050581E+03  0.50400001928E-02 0.  1.
       -1   -1    0    0    0  501  0.00000000000E+00  0.00000000000E+00 -0.59114868483E+03  0.59114868485E+03  0.50400001928E-02 0. -1.
    10030    2    1    2    0    0  0.00000000000E+00  0.00000000000E+00  0.12328182096E+03  0.13055791907E+04  0.12997455965E+04 0.  0.
        4    1    3    3  502    0  0.32685123579E+03 -0.17833872298E+03 -0.47338145624E+03  0.60226908145E+03  0.12699999809E+01 0. -1.
       -4    1    3    3    0  502 -0.32685123579E+03  0.17833872298E+03  0.59666327720E+03  0.70331010921E+03  0.12699999809E+01 0.  1.
</event>
<event>
 5   0  0.9027076E-04  0.1292363E+04  0.7818609E-02  0.9035643E-01
       -1   -1    0    0    0  501  0.00000000000E+00  0.00000000000E+00  0.37470711740E+03  0.37470711743E+03  0.50400001928E-02 0.  1.
        1   -1    0    0  501    0  0.00000000000E+00  0.00000000000E+00 -0.11143389489E+04  0.11143389489E+04  0.50400001928E-02 0. -1.
    10030    2    1    2    0    0  0.00000000000E+00  0.00000000000E+00 -0.73963183153E+03  0.14890460664E+04  0.12923633164E+04 0.  0.
        5    1    3    3  502    0 -0.40973693978E+03 -0.61425618125E+02  0.20150131628E+03  0.46074107354E+03  0.46999998093E+01 0.  1.
       -5    1    3    3    0  502  0.40973693978E+03  0.61425618125E+02 -0.94113314782E+03  0.10283049928E+04  0.46999998093E+01 0. -1.
</event>
<event>
 5   0  0.1667342E-03  0.1311489E+04  0.7818609E-02  0.9020504E-01
       -2   -1    0    0    0  501  0.00000000000E+00  0.00000000000E+00  0.14662538885E+03  0.14662538887E+03  0.25500000920E-02 0.  1.
        2   -1    0    0  501    0  0.00000000000E+00  0.00000000000E+00 -0.29326475318E+04  0.29326475318E+04  0.25500000920E-02 0. -1.
    10030    2    1    2    0    0  0.00000000000E+00  0.00000000000E+00 -0.27860221429E+04  0.30792729207E+04  0.13114885966E+04 0.  0.
        5    1    3    3  502    0 -0.53215094036E+03 -0.38022439672E+03 -0.15037195039E+04  0.16398017111E+04  0.46999998093E+01 0. -1.
       -5    1    3    3    0  502  0.53215094036E+03  0.38022439672E+03 -0.12823026390E+04  0.14394712096E+04  0.46999998093E+01 0.  1.
</event>
<event>
 5   0  0.1700511E-03  0.1307823E+04  0.7818609E-02  0.9023384E-01
       -2   -1    0    0    0  501  0.00000000000E+00  0.00000000000E+00  0.41318998311E+03  0.41318998311E+03  0.25500000920E-02 0.  1.
        2   -1    0    0  501    0  0.00000000000E+00  0.00000000000E+00 -0.10348762013E+04  0.10348762014E+04  0.25500000920E-02 0. -1.
    10030    2    1    2    0    0  0.00000000000E+00  0.00000000000E+00 -0.62168621824E+03  0.14480661845E+04  0.13078233522E+04 0.  0.
        2    1    3    3  502    0  0.31848684260E+03 -0.56222310388E+03 -0.42196323215E+03  0.77173937099E+03  0.25500000920E-02 0. -1.
       -2    1    3    3    0  502 -0.31848684260E+03  0.56222310388E+03 -0.19972298609E+03  0.67632681348E+03  0.25500000920E-02 0.  1.
</event>
<event>
 5   0  0.1623890E-03  0.1251511E+04  0.7818609E-02  0.9068926E-01
        2   -1    0    0  501    0  0.00000000000E+00  0.00000000000E+00  0.16944026773E+04  0.16944026773E+04  0.25500000920E-02 0. -1.
       -2   -1    0    0    0  501  0.00000000000E+00  0.00000000000E+00 -0.23109632703E+03  0.23109632704E+03  0.25500000920E-02 0.  1.
    10030    2    1    2    0    0  0.00000000000E+00  0.00000000000E+00  0.14633063503E+04  0.19254990044E+04  0.12515114626E+04 0.  0.
        3    1    3    3  502    0 -0.97691178549E+02 -0.25830009099E+03  0.15955776346E+04  0.16192993861E+04  0.10100000352E+00 0. -1.
       -3    1    3    3    0  502  0.97691178549E+02  0.25830009099E+03 -0.13227128436E+03  0.30619961828E+03  0.10100000352E+00 0.  1.
</event>
<event>
 5   0  0.9098192E-04  0.1298035E+04  0.7818609E-02  0.9031125E-01
        1   -1    0    0  501    0  0.00000000000E+00  0.00000000000E+00  0.12388784511E+04  0.12388784511E+04  0.50400001928E-02 0.  1.
       -1   -1    0    0    0  501  0.00000000000E+00  0.00000000000E+00 -0.34000411578E+03  0.34000411582E+03  0.50400001928E-02 0. -1.
    10030    2    1    2    0    0  0.00000000000E+00  0.00000000000E+00  0.89887433529E+03  0.15788825669E+04  0.12980350879E+04 0.  0.
        1    1    3    3  502    0 -0.27252957793E+03  0.16039234668E+03 -0.23995847969E+03  0.39696114133E+03  0.50400001928E-02 0. -1.
       -1    1    3    3    0  502  0.27252957793E+03 -0.16039234668E+03  0.11388328150E+04  0.11819214256E+04  0.50400001928E-02 0.  1.
</event>
<event>
 5   0  0.1623890E-03  0.1332311E+04  0.7818609E-02  0.9004328E-01
        2   -1    0    0  501    0  0.00000000000E+00  0.00000000000E+00  0.96532889719E+03  0.96532889720E+03  0.25500000920E-02 0.  1.
       -2   -1    0    0    0  501  0.00000000000E+00  0.00000000000E+00 -0.45970130010E+03  0.45970130010E+03  0.25500000920E-02 0. -1.
    10030    2    1    2    0    0  0.00000000000E+00  0.00000000000E+00  0.50562759709E+03  0.14250301973E+04  0.13323106981E+04 0.  0.
        3    1    3    3  502    0 -0.36800297371E+03 -0.36456028542E+03 -0.19518168783E+03  0.55355784868E+03  0.10100000352E+00 0. -1.
       -3    1    3    3    0  502  0.36800297371E+03  0.36456028542E+03  0.70080928493E+03  0.87147234862E+03  0.10100000352E+00 0.  1.
</event>
<event>
 5   0  0.1667342E-03  0.1360537E+04  0.7818609E-02  0.8982890E-01
        2   -1    0    0  501    0  0.00000000000E+00  0.00000000000E+00  0.17688724442E+04  0.17688724442E+04  0.25500000920E-02 0.  1.
       -2   -1    0    0    0  501  0.00000000000E+00  0.00000000000E+00 -0.26161582233E+03  0.26161582234E+03  0.25500000920E-02 0. -1.
    10030    2    1    2    0    0  0.00000000000E+00  0.00000000000E+00  0.15072566219E+04  0.20304882666E+04  0.13605366869E+04 0.  0.
        5    1    3    3  502    0  0.10772612591E+03  0.21794184661E+03 -0.19454337613E+03  0.31140453096E+03  0.46999998093E+01 0. -1.
       -5    1    3    3    0  502 -0.10772612591E+03 -0.21794184661E+03  0.17017999980E+04  0.17190837356E+04  0.46999998093E+01 0.  1.
</event>
<event>
 5   0  0.9098192E-04  0.1283888E+04  0.7818609E-02  0.9042440E-01
        1   -1    0    0  501    0  0.00000000000E+00  0.00000000000E+00  0.70727515373E+03  0.70727515375E+03  0.50400001928E-02 0.  1.
       -1   -1    0    0    0  501  0.00000000000E+00  0.00000000000E+00 -0.58264766912E+03  0.58264766914E+03  0.50400001928E-02 0. -1.
    10030    2    1    2    0    0  0.00000000000E+00  0.00000000000E+00  0.12462748461E+03  0.12899228229E+04  0.12838881879E+04 0.  0.
        1    1    3    3  502    0 -0.24703473408E+03  0.47996726980E+03  0.41136212066E+03  0.67868515106E+03  0.50400001928E-02 0.  1.
       -1    1    3    3    0  502  0.24703473408E+03 -0.47996726980E+03 -0.28673463605E+03  0.61123767183E+03  0.50400001928E-02 0. -1.
</event>
<event>
 5   0  0.9110949E-04  0.1148772E+04  0.7818609E-02  0.9158917E-01
       -1   -1    0    0    0  501  0.00000000000E+00  0.00000000000E+00  0.29292627110E+03  0.29292627114E+03  0.50400001928E-02 0. -1.
        1   -1    0    0  501    0  0.00000000000E+00  0.00000000000E+00 -0.11262881595E+04  0.11262881595E+04  0.50400001928E-02 0.  1.
    10030    2    1    2    0    0  0.00000000000E+00  0.00000000000E+00 -0.83336188841E+03  0.14192144307E+04  0.11487721981E+04 0.  0.
        2    1    3    3  502    0  0.94732533863E+02 -0.42998988059E+02  0.28118970778E+03  0.29981797430E+03  0.25500000920E-02 0. -1.
       -2    1    3    3    0  502 -0.94732533863E+02  0.42998988059E+02 -0.11145515962E+04  0.11193964564E+04  0.25500000920E-02 0.  1.
</event>
<event>
 5   0  0.1694675E-03  0.1481830E+04  0.7818609E-02  0.8896626E-01
       -2   -1    0    0    0  501  0.00000000000E+00  0.00000000000E+00  0.30980662124E+03  0.30980662125E+03  0.25500000920E-02 0. -1.
        2   -1    0    0  501    0  0.00000000000E+00  0.00000000000E+00 -0.17719281431E+04  0.17719281431E+04  0.25500000920E-02 0.  1.
    10030    2    1    2    0    0  0.00000000000E+00  0.00000000000E+00 -0.14621215218E+04  0.20817347643E+04  0.14818300457E+04 0.  0.
        4    1    3    3  502    0  0.52848176187E+03  0.24750925364E+03 -0.13723818129E+04  0.14913038780E+04  0.12699999809E+01 0.  1.
       -4    1    3    3    0  502 -0.52848176187E+03 -0.24750925364E+03 -0.89739708939E+02  0.59043088632E+03  0.12699999809E+01 0. -1.
</event>
<event>
 5   0  0.1694675E-03  0.1327298E+04  0.7818609E-02  0.9008194E-01
        2   -1    0    0  501    0  0.00000000000E+00  0.00000000000E+00  0.90524547353E+03  0.90524547353E+03  0.25500000920E-02 0.  1.
       -2   -1    0    0    0  501  0.00000000000E+00  0.00000000000E+00 -0.48653087035E+03  0.48653087035E+03  0.25500000920E-02 0. -1.
    10030    2    1    2    0    0  0.00000000000E+00  0.00000000000E+00  0.41871460319E+03  0.13917763439E+04  0.13272978085E+04 0.  0.
        4    1    3    3  502    0  0.17133908067E+03  0.45967781431E+03 -0.25930872256E+03  0.55489043966E+03  0.12699999809E+01 0. -1.
       -4    1    3    3    0  502 -0.17133908067E+03 -0.45967781431E+03  0.67802332574E+03  0.83688590422E+03  0.12699999809E+01 0.  1.
</event>
<event>
 5   0  0.1700511E-03  0.1294829E+04  0.7818609E-02  0.9033676E-01
       -2   -1    0    0    0  501  0.00000000000E+00  0.00000000000E+00  0.28502138899E+03  0.28502138900E+03  0.25500000920E-02 0.  1.
        2   -1    0    0  501    0  0.00000000000E+00  0.00000000000E+00 -0.14705748611E+04  0.14705748611E+04  0.25500000920E-02 0. -1.
    10030    2    1    2    0    0  0.00000000000E+00  0.00000000000E+00 -0.11855534721E+04  0.17555962501E+04  0.12948286212E+04 0.  0.
        2    1    3    3  502    0 -0.11753092130E+03  0.60256350978E+03 -0.87146617625E+03  0.10659969968E+04  0.25500000920E-02 0. -1.
       -2    1    3    3    0  502  0.11753092130E+03 -0.60256350978E+03 -0.31408729588E+03  0.68959925335E+03  0.25500000920E-02 0.  1.
</event>
<event>
 5   0  0.1714861E-03  0.1295442E+04  0.7818609E-02  0.9033188E-01
       -2   -1    0    0    0  501  0.00000000000E+00  0.00000000000E+00  0.10649340002E+04  0.10649340002E+04  0.25500000920E-02 0.  1.
        2   -1    0    0  501    0  0.00000000000E+00  0.00000000000E+00 -0.39396073805E+03  0.39396073805E+03  0.25500000920E-02 0. -1.
    10030    2    1    2    0    0  0.00000000000E+00  0.00000000000E+00  0.67097326217E+03  0.14588947383E+04  0.12954415227E+04 0.  0.
        1    1    3    3  502    0 -0.52254241335E+03 -0.38152855382E+03  0.36978554136E+03  0.74522208620E+03  0.50400001928E-02 0.  1.
       -1    1    3    3    0  502  0.52254241335E+03  0.38152855382E+03  0.30118772081E+03  0.71367265207E+03  0.50400001928E-02 0. -1.
</event>
<event>
 5   0  0.1694675E-03  0.1311842E+04  0.7818609E-02  0.9020227E-01
        2   -1    0    0  501    0  0.00000000000E+00  0.00000000000E+00  0.10653398664E+04  0.10653398664E+04  0.25500000920E-02 0.  1.
       -2   -1    0    0    0  501  0.00000000000E+00  0.00000000000E+00 -0.40384523971E+03  0.40384523972E+03  0.25500000920E-02 0. -1.
    10030    2    1    2    0    0  0.00000000000E+00  0.00000000000E+00  0.66149462664E+03  0.14691851061E+04  0.13118421151E+04 0.  0.
        4    1    3    3  502    0  0.31641255641E+03 -0.93518601384E+01 -0.31263530933E+03  0.44491214041E+03  0.12699999809E+01 0. -1.
       -4    1    3    3    0  502 -0.31641255641E+03  0.93518601384E+01  0.97412993597E+03  0.10242729657E+04  0.12699999809E+01 0.  1.
</event>
<event>
 5   0  0.1667342E-03  0.1305455E+04  0.7818609E-02  0.9025250E-01
        2   -1    0    0  501    0  0.00000000000E+00  0.00000000000E+00  0.22626084924E+04  0.22626084924E+04  0.25500000920E-02 0.  1.
       -2   -1    0    0    0  501  0.00000000000E+00  0.00000000000E+00 -0.18830176881E+03  0.18830176883E+03  0.25500000920E-02 0. -1.
    10030    2    1    2    0    0  0.00000000000E+00  0.00000000000E+00  0.20743067236E+04  0.24509102613E+04  0.13054549878E+04 0.  0.
        5    1    3    3  502    0 -0.31802486173E+03  0.56746521759E+03  0.11378110785E+04  0.13106459194E+04  0.46999998093E+01 0.  1.
       -5    1    3    3    0  502  0.31802486173E+03 -0.56746521759E+03  0.93649564513E+03  0.11402643418E+04  0.46999998093E+01 0. -1.
</event>
<event>
 5   0  0.9215829E-04  0.1393619E+04  0.7818609E-02  0.8958450E-01
        1   -1    0    0  501    0  0.00000000000E+00  0.00000000000E+00  0.12824790603E+04  0.12824790603E+04  0.50400001928E-02 0.  1.
       -1   -1    0    0    0  501  0.00000000000E+00  0.00000000000E+00 -0.37859783090E+03  0.37859783093E+03  0.50400001928E-02 0. -1.
    10030    2    1    2    0    0  0.00000000000E+00  0.00000000000E+00  0.90388122935E+03  0.16610768912E+04  0.13936194465E+04 0.  0.
        3    1    3    3  502    0 -0.34596702190E+03  0.56627694613E+03  0.70529215875E+03  0.96840063989E+03  0.10100000352E+00 0.  1.
       -3    1    3    3    0  502  0.34596702190E+03 -0.56627694613E+03  0.19858907060E+03  0.69267625130E+03  0.10100000352E+00 0. -1.
</event>
<event>
 5   0  0.9215829E-04  0.1308647E+04  0.7818609E-02  0.9022736E-01
       -1   -1    0    0    0  501  0.00000000000E+00  0.00000000000E+00  0.82783210075E+03  0.82783210077E+03  0.50400001928E-02 0.  1.
        1   -1    0    0  501    0  0.00000000000E+00  0.00000000000E+00 -0.51718159810E+03  0.51718159813E+03  0.50400001928E-02 0. -1.
    10030    2    1    2    0    0  0.00000000000E+00  0.00000000000E+00  0.31065050265E+03  0.13450136989E+04  0.13086474374E+04 0.  0.
        3    1    3    3  502    0 -0.58255061772E+03  0.82347937304E+02  0.44962692914E+03  0.74048010817E+03  0.10100000352E+00 0.  1.
       -3    1    3    3    0  502  0.58255061772E+03 -0.82347937304E+02 -0.13897642650E+03  0.60453359072E+03  0.10100000352E+00 0. -1.
</event>
<event>
 5   0  0.9081324E-04  0.1285827E+04  0.7818609E-02  0.9040881E-01
       -1   -1    0    0    0  501  0.00000000000E+00  0.00000000000E+00  0.59326827539E+03  0.59326827541E+03  0.50400001928E-02 0. -1.
        1   -1    0    0  501    0  0.00000000000E+00  0.00000000000E+00 -0.69671256842E+03  0.69671256844E+03  0.50400001928E-02 0.  1.
    10030    2    1    2    0    0  0.00000000000E+00  0.00000000000E+00 -0.10344429303E+03  0.12899808439E+04  0.12858265263E+04 0.  0.
        4    1    3    3  502    0  0.29193038276E+03  0.36905019364E+03 -0.49121794358E+03  0.68023383832E+03  0.12699999809E+01 0.  1.
       -4    1    3    3    0  502 -0.29193038276E+03 -0.36905019364E+03  0.38777365054E+03  0.60974700553E+03  0.12699999809E+01 0. -1.
</event>
<event>
 5   0  0.9098192E-04  0.1300316E+04  0.7818609E-02  0.9029315E-01
       -1   -1    0    0    0  501  0.00000000000E+00  0.00000000000E+00  0.77061975542E+03  0.77061975544E+03  0.50400001928E-02 0.  1.
        1   -1    0    0  501    0  0.00000000000E+00  0.00000000000E+00 -0.54852666144E+03  0.54852666146E+03  0.50400001928E-02 0. -1.
    10030    2    1    2    0    0  0.00000000000E+00  0.00000000000E+00  0.22209309398E+03  0.13191464169E+04  0.13003160873E+04 0.  0.
        1    1    3    3  502    0 -0.47452306643E+03  0.14106156479E+03 -0.31652451792E+03  0.58758682431E+03  0.50400001928E-02 0. -1.
       -1    1    3    3    0  502  0.47452306643E+03 -0.14106156479E+03  0.53861761191E+03  0.73155959259E+03  0.50400001928E-02 0.  1.
</event>
<event>
 5   0  0.1714861E-03  0.1303491E+04  0.7818609E-02  0.9026801E-01
        2   -1    0    0  501    0  0.00000000000E+00  0.00000000000E+00  0.12881702626E+04  0.12881702626E+04  0.25500000920E-02 0.  1.
       -2   -1    0    0    0  501  0.00000000000E+00  0.00000000000E+00 -0.32974846322E+03  0.32974846323E+03  0.25500000920E-02 0. -1.
    10030    2    1    2    0    0  0.00000000000E+00  0.00000000000E+00  0.95842179934E+03  0.16179187258E+04  0.13034909504E+04 0.  0.
        1    1    3    3  502    0 -0.16703592978E+03  0.41567004067E+02 -0.30102516029E+03  0.34676355751E+03  0.50400001928E-02 0. -1.
       -1    1    3    3    0  502  0.16703592978E+03 -0.41567004067E+02  0.12594469596E+04  0.12711551683E+04  0.50400001928E-02 0.  1.
</event>
<event>
 5   0  0.1694675E-03  0.1258847E+04  0.7818609E-02  0.9062852E-01
       -2   -1    0    0    0  501  0.00000000000E+00  0.00000000000E+00  0.83412272189E+03  0.83412272189E+03  0.25500000920E-02 0. -1.
        2   -1    0    0  501    0  0.00000000000E+00  0.00000000000E+00 -0.47495896476E+03  0.47495896476E+03  0.25500000920E-02 0.  1.
    10030    2    1    2    0    0  0.00000000000E+00  0.00000000000E+00  0.35916375713E+03  0.13090816867E+04  0.12588471940E+04 0.  0.
        4    1    3    3  502    0 -0.19706717547E+03 -0.59167188099E+03  0.26819598651E+03  0.67885328790E+03  0.12699999809E+01 0.  1.
       -4    1    3    3    0  502  0.19706717547E+03  0.59167188099E+03  0.90967770623E+02  0.63022839876E+03  0.12699999809E+01 0. -1.
</event>
<event>
 5   0  0.1700511E-03  0.1301223E+04  0.7818609E-02  0.9028596E-01
       -2   -1    0    0    0  501  0.00000000000E+00  0.00000000000E+00  0.17421619849E+03  0.17421619850E+03  0.25500000920E-02 0. -1.
        2   -1    0    0  501    0  0.00000000000E+00  0.00000000000E+00 -0.24297112732E+04  0.24297112732E+04  0.25500000920E-02 0.  1.
    10030    2    1    2    0    0  0.00000000000E+00  0.00000000000E+00 -0.22554950747E+04  0.26039274717E+04  0.13012225966E+04 0.  0.
        2    1    3    3  502    0 -0.16330610421E+03  0.48797126996E+03 -0.19244679016E+04  0.19920746844E+04  0.25500000920E-02 0.  1.
       -2    1    3    3    0  502  0.16330610421E+03 -0.48797126996E+03 -0.33102717313E+03  0.61185278731E+03  0.25500000920E-02 0. -1.
</event>
<event>
 5   0  0.9027076E-04  0.1307801E+04  0.7818609E-02  0.9023401E-01
       -1   -1    0    0    0  501  0.00000000000E+00  0.00000000000E+00  0.37505067984E+03  0.37505067987E+03  0.50400001928E-02 0.  1.
        1   -1    0    0  501    0  0.00000000000E+00  0.00000000000E+00 -0.11400755280E+04  0.11400755280E+04  0.50400001928E-02 0. -1.
    10030    2    1    2    0    0  0.00000000000E+00  0.00000000000E+00 -0.76502484815E+03  0.15151262079E+04  0.13078013639E+04 0.  0.
        5    1    3    3  502    0  0.17073679276E+03 -0.26684792231E+03 -0.10452126017E+04  0.10921768808E+04  0.46999998093E+01 0. -1.
       -5    1    3    3    0  502 -0.17073679276E+03  0.26684792231E+03  0.28018775359E+03  0.42294932711E+03  0.46999998093E+01 0.  1.
</event>
<event>
 5   0  0.9215829E-04  0.1301223E+04  0.7818609E-02  0.9028595E-01
        1   -1    0    0  501    0  0.00000000000E+00  0.00000000000E+00  0.95908384284E+03  0.95908384285E+03  0.50400001928E-02 0. -1.
       -1   -1    0    0    0  501  0.00000000000E+00  0.00000000000E+00 -0.44135415578E+03  0.44135415581E+03  0.50400001928E-02 0.  1.
    10030    2    1    2    0    0  0.00000000000E+00  0.00000000000E+00  0.51772968706E+03  0.14004379987E+04  0.13012234855E+04 0.  0.
        3    1    3    3  502    0 -0.15260009583E+03 -0.50455395354E+03 -0.15157091315E+03  0.54848448765E+03  0.10100000352E+00 0.  1.
       -3    1    3    3    0  502  0.15260009583E+03  0.50455395354E+03  0.66930060021E+03  0.85195351101E+03  0.10100000352E+00 0. -1.
</event>
<event>
 5   0  0.1714861E-03  0.1296862E+04  0.7818609E-02  0.9032057E-01
        2   -1    0    0  501    0  0.00000000000E+00  0.00000000000E+00  0.16772955150E+04  0.16772955150E+04  0.25500000920E-02 0.  1.
       -2   -1    0    0    0  501  0.00000000000E+00  0.00000000000E+00 -0.25067893252E+03  0.25067893253E+03  0.25500000920E-02 0. -1.
    10030    2    1    2    0    0  0.00000000000E+00  0.00000000000E+00  0.14266165825E+04  0.19279744475E+04  0.12968618264E+04 0.  0.
        1    1    3    3  502    0  0.15729824956E+01 -0.44957325923E+03  0.14079778326E+04  0.14780122350E+04  0.50400001928E-02 0.  1.
       -1    1    3    3    0  502 -0.15729824956E+01  0.44957325923E+03  0.18638749891E+02  0.44996221254E+03  0.50400001928E-02 0. -1.
</event>
<event>
 5   0  0.9081324E-04  0.1294865E+04  0.7818609E-02  0.9033647E-01
       -1   -1    0    0    0  501  0.00000000000E+00  0.00000000000E+00  0.19985561587E+03  0.19985561593E+03  0.50400001928E-02 0.  1.
        1   -1    0    0  501    0  0.00000000000E+00  0.00000000000E+00 -0.20973572279E+04  0.20973572279E+04  0.50400001928E-02 0. -1.
    10030    2    1    2    0    0  0.00000000000E+00  0.00000000000E+00 -0.18975016120E+04  0.22972128439E+04  0.12948646579E+04 0.  0.
        4    1    3    3  502    0  0.27785427918E+03 -0.50158411519E+03 -0.41540763561E+03  0.70806408022E+03  0.12699999809E+01 0.  1.
       -4    1    3    3    0  502 -0.27785427918E+03  0.50158411519E+03 -0.14820939764E+04  0.15891487636E+04  0.12699999809E+01 0. -1.
</event>
<event>
 5   0  0.9215829E-04  0.1276079E+04  0.7818609E-02  0.9048753E-01
       -1   -1    0    0    0  501  0.00000000000E+00  0.00000000000E+00  0.33296049067E+03  0.33296049071E+03  0.50400001928E-02 0. -1.
        1   -1    0    0  501    0  0.00000000000E+00  0.00000000000E+00 -0.12226501916E+04  0.12226501917E+04  0.50400001928E-02 0.  1.
    10030    2    1    2    0    0  0.00000000000E+00  0.00000000000E+00 -0.88968970097E+03  0.15556106824E+04  0.12760786931E+04 0.  0.
        3    1    3    3  502    0 -0.50241261088E+03 -0.32484137003E+03 -0.71511758198E+03  0.93238056260E+03  0.10100000352E+00 0.  1.
       -3    1    3    3    0  502  0.50241261088E+03  0.32484137003E+03 -0.17457211899E+03  0.62323011977E+03  0.10100000352E+00 0. -1.
</event>
<event>
 5   0  0.9098192E-04  0.1299054E+04  0.7818609E-02  0.9030316E-01
       -1   -1    0    0    0  501  0.00000000000E+00  0.00000000000E+00  0.91090235895E+03  0.91090235896E+03  0.50400001928E-02 0.  1.
        1   -1    0    0  501    0  0.00000000000E+00  0.00000000000E+00 -0.46315068338E+03  0.46315068341E+03  0.50400001928E-02 0. -1.
    10030    2    1    2    0    0  0.00000000000E+00  0.00000000000E+00  0.44775167556E+03  0.13740530424E+04  0.12990535787E+04 0.  0.
        1    1    3    3  502    0  0.49765316205E+03  0.11874720265E+03  0.64713528431E+03  0.82495069190E+03  0.50400001928E-02 0.  1.
       -1    1    3    3    0  502 -0.49765316205E+03 -0.11874720265E+03 -0.19938360875E+03  0.54910235047E+03  0.50400001928E-02 0. -1.
</event>
<event>
 5   0  0.9027076E-04  0.1298974E+04  0.7818609E-02  0.9030379E-01
       -1   -1    0    0    0  501  0.00000000000E+00  0.00000000000E+00  0.43179483769E+03  0.43179483772E+03  0.50400001928E-02 0.  1.
        1   -1    0    0  501    0  0.00000000000E+00  0.00000000000E+00 -0.97693021467E+03  0.97693021468E+03  0.50400001928E-02 0. -1.
    10030    2    1    2    0    0  0.00000000000E+00  0.00000000000E+00 -0.54513537697E+03  0.14087250524E+04  0.12989740929E+04 0.  0.
        5    1    3    3  502    0  0.20359863371E+02  0.19611415051E+03  0.39853483966E+03  0.44466548380E+03  0.46999998093E+01 0.  1.
       -5    1    3    3    0  502 -0.20359863371E+02 -0.19611415051E+03 -0.94367021663E+03  0.96405956860E+03  0.46999998093E+01 0. -1.
</event>
<event>
 5   0  0.9215829E-04  0.1292517E+04  0.7818609E-02  0.9035520E-01
       -1   -1    0    0    0  501  0.00000000000E+00  0.00000000000E+00  0.13252785841E+03  0.13252785851E+03  0.50400001928E-02 0. -1.
        1   -1    0    0  501    0  0.00000000000E+00  0.00000000000E+00 -0.31514152786E+04  0.31514152786E+04  0.50400001928E-02 0.  1.
    10030    2    1    2    0    0  0.00000000000E+00  0.00000000000E+00 -0.30188874202E+04  0.32839431371E+04  0.12925174165E+04 0.  0.
        3    1    3    3  502    0 -0.22133159209E+03  0.99216296926E+01  0.33022986997E+02  0.22400142916E+03  0.10100000352E+00 0. -1.
       -3    1    3    3    0  502  0.22133159209E+03 -0.99216296926E+01 -0.30519104072E+04  0.30599417080E+04  0.10100000352E+00 0.  1.
</event>
<event>
 5   0  0.1694675E-03  0.1323671E+04  0.7818609E-02  0.9011001E-01
        2   -1    0    0  501    0  0.00000000000E+00  0.00000000000E+00  0.12030947896E+04  0.12030947896E+04  0.25500000920E-02 0. -1.
       -2   -1    0    0    0  501  0.00000000000E+00  0.00000000000E+00 -0.36408304614E+03  0.36408304615E+03  0.25500000920E-02 0.  1.
    10030    2    1    2    0    0  0.00000000000E+00  0.00000000000E+00  0.83901174347E+03  0.15671778358E+04  0.13236712822E+04 0.  0.
        4    1    3    3  502    0 -0.27679277725E+03 -0.24416871480E+03 -0.23091151143E+03  0.43537838926E+03  0.12699999809E+01 0.  1.
       -4    1    3    3    0  502  0.27679277725E+03  0.24416871480E+03  0.10699232549E+04  0.11317994465E+04  0.12699999809E+01 0. -1.
</event>
<event>
 5   0  0.1714861E-03  0.1295900E+04  0.7818609E-02  0.9032823E-01
       -2   -1    0    0    0  501  0.00000000000E+00  0.00000000000E+00  0.34174490198E+03  0.34174490199E+03  0.25500000920E-02 0.  1.
        2   -1    0    0  501    0  0.00000000000E+00  0.00000000000E+00 -0.12285161503E+04  0.12285161503E+04  0.25500000920E-02 0. -1.
    10030    2    1    2    0    0  0.00000000000E+00  0.00000000000E+00 -0.88677124831E+03  0.15702610523E+04  0.12958998902E+04 0.  0.
        1    1    3    3  502    0 -0.56822672239E+03 -0.15962940843E+03 -0.76733746396E+03  0.96807537914E+03  0.50400001928E-02 0. -1.
       -1    1    3    3    0  502  0.56822672239E+03  0.15962940843E+03 -0.11943378435E+03  0.60218567315E+03  0.50400001928E-02 0.  1.
</event>
<event>
 5   0  0.9081324E-04  0.1297957E+04  0.7818609E-02  0.9031187E-01
       -1   -1    0    0    0  501  0.00000000000E+00  0.00000000000E+00  0.60832026645E+03  0.60832026647E+03  0.50400001928E-02 0. -1.
        1   -1    0    0  501    0  0.00000000000E+00  0.00000000000E+00 -0.69235457401E+03  0.69235457403E+03  0.50400001928E-02 0.  1.
    10030    2    1    2    0    0  0.00000000000E+00  0.00000000000E+00 -0.84034307556E+02  0.13006748405E+04  0.12979573475E+04 0.  0.
        4    1    3    3  502    0  0.38194388880E+03  0.49286083128E+03  0.13830060922E+03  0.63868740759E+03  0.12699999809E+01 0. -1.
       -4    1    3    3    0  502 -0.38194388880E+03 -0.49286083128E+03 -0.22233491678E+03  0.66198743291E+03  0.12699999809E+01 0.  1.
</event>
<event>
 5   0  0.1667342E-03  0.1313052E+04  0.7818609E-02  0.9019278E-01
        2   -1    0    0  501    0  0.00000000000E+00  0.00000000000E+00  0.76509242985E+03  0.76509242986E+03  0.25500000920E-02 0. -1.
       -2   -1    0    0    0  501  0.00000000000E+00  0.00000000000E+00 -0.56336514762E+03  0.56336514762E+03  0.25500000920E-02 0.  1.
    10030    2    1    2    0    0  0.00000000000E+00  0.00000000000E+00  0.20172728224E+03  0.13284575775E+04  0.13130520320E+04 0.  0.
        5    1    3    3  502    0  0.31382792980E+03  0.57286122734E+03  0.16756409985E+03  0.67435730356E+03  0.46999998093E+01 0. -1.
       -5    1    3    3    0  502 -0.31382792980E+03 -0.57286122734E+03  0.34163182385E+02  0.65410027392E+03  0.46999998093E+01 0.  1.
</event>
<event>
 5   0  0.9081324E-04  0.1307537E+04  0.7818609E-02  0.9023610E-01
        1   -1    0    0  501    0  0.00000000000E+00  0.00000000000E+00  0.26275248753E+03  0.26275248757E+03  0.50400001928E-02 0. -1.
       -1   -1    0    0    0  501  0.00000000000E+00  0.00000000000E+00 -0.16266757629E+04  0.16266757629E+04  0.50400001928E-02 0.  1.
    10030    2    1    2    0    0  0.00000000000E+00  0.00000000000E+00 -0.13639232753E+04  0.18894282505E+04  0.13075367729E+04 0.  0.
        4    1    3    3  502    0 -0.22831521578E+03  0.17838302115E+03 -0.15288312845E+04  0.15560446810E+04  0.12699999809E+01 0.  1.
       -4    1    3    3    0  502  0.22831521578E+03 -0.17838302115E+03  0.16490800914E+03  0.33338356944E+03  0.12699999809E+01 0. -1.
</event>
<event>
 5   0  0.9098192E-04  0.1311813E+04  0.7818609E-02  0.9020250E-01
        1   -1    0    0  501    0  0.00000000000E+00  0.00000000000E+00  0.97446536934E+03  0.97446536935E+03  0.50400001928E-02 0.  1.
       -1   -1    0    0    0  501  0.00000000000E+00  0.00000000000E+00 -0.44148628746E+03  0.44148628749E+03  0.50400001928E-02 0. -1.
    10030    2    1    2    0    0  0.00000000000E+00  0.00000000000E+00  0.53297908188E+03  0.14159516568E+04  0.13118126363E+04 0.  0.
        1    1    3    3  502    0  0.17930937671E+03 -0.14682904403E+03  0.92879835561E+03  0.95727582553E+03  0.50400001928E-02 0.  1.
       -1    1    3    3    0  502 -0.17930937671E+03  0.14682904403E+03 -0.39581927373E+03  0.45867583131E+03  0.50400001928E-02 0. -1.
</event>
<event>
 5   0  0.9098192E-04  0.1288490E+04  0.7818609E-02  0.9038743E-01
        1   -1    0    0  501    0  0.00000000000E+00  0.00000000000E+00  0.38930471444E+03  0.38930471447E+03  0.50400001928E-02 0.  1.
       -1   -1    0    0    0  501  0.00000000000E+00  0.00000000000E+00 -0.10661358655E+04  0.10661358655E+04  0.50400001928E-02 0. -1.
    10030    2    1    2    0    0  0.00000000000E+00  0.00000000000E+00 -0.67683115101E+03  0.14554405799E+04  0.12884901531E+04 0.  0.
        1    1    3    3  502    0  0.62899155742E+03  0.92422697243E+01 -0.49548649774E+03  0.80076380308E+03  0.50400001928E-02 0.  1.
       -1    1    3    3    0  502 -0.62899155742E+03 -0.92422697243E+01 -0.18134465327E+03  0.65467677685E+03  0.50400001928E-02 0. -1.
</event>
<event>
 5   0  0.9215829E-04  0.1294412E+04  0.7818609E-02  0.9034008E-01
        1   -1    0    0  501    0  0.00000000000E+00  0.00000000000E+00  0.22068216592E+04  0.22068216592E+04  0.50400001928E-02 0.  1.
       -1   -1    0    0    0  501  0.00000000000E+00  0.00000000000E+00 -0.18980956114E+03  0.18980956121E+03  0.50400001928E-02 0. -1.
    10030    2    1    2    0    0  0.00000000000E+00  0.00000000000E+00  0.20170120981E+04  0.23966312204E+04  0.12944123775E+04 0.  0.
        3    1    3    3  502    0 -0.58367649807E+03  0.25823785986E+03  0.12071526754E+04  0.13654972130E+04  0.10100000352E+00 0.  1.
       -3    1    3    3    0  502  0.58367649807E+03 -0.25823785986E+03  0.80985942267E+03  0.10311340075E+04  0.10100000352E+00 0. -1.
</event>
<event>
 5   0  0.1667342E-03  0.1305096E+04  0.7818609E-02  0.9025534E-01
       -2   -1    0    0    0  501  0.00000000000E+00  0.00000000000E+00  0.19908332499E+03  0.19908332500E+03  0.25500000920E-02 0. -1.
        2   -1    0    0  501    0  0.00000000000E+00  0.00000000000E+00 -0.21388982503E+04  0.21388982503E+04  0.25500000920E-02 0.  1.
    10030    2    1    2    0    0  0.00000000000E+00  0.00000000000E+00 -0.19398149253E+04  0.23379815753E+04  0.13050961275E+04 0.  0.
        5    1    3    3  502    0  0.83055328449E+02 -0.35912823371E+03 -0.53194224542E+01  0.36867555124E+03  0.46999998093E+01 0. -1.
       -5    1    3    3    0  502 -0.83055328449E+02  0.35912823371E+03 -0.19344955029E+04  0.19693060241E+04  0.46999998093E+01 0.  1.
</event>
<event>
 5   0  0.1714861E-03  0.1310180E+04  0.7818609E-02  0.9021531E-01
       -2   -1    0    0    0  501  0.00000000000E+00  0.00000000000E+00  0.58611694583E+03  0.58611694583E+03  0.25500000920E-02 0.  1.
        2   -1    0    0  501    0  0.00000000000E+00  0.00000000000E+00 -0.73217966410E+03  0.73217966410E+03  0.25500000920E-02 0. -1.
    10030    2    1    2    0    0  0.00000000000E+00  0.00000000000E+00 -0.14606271827E+03  0.13182966099E+04  0.13101800006E+04 0.  0.
        1    1    3    3  502    0  0.30912382500E+03 -0.27598782219E+03  0.43747365875E+03  0.60258610945E+03  0.50400001928E-02 0.  1.
       -1    1    3    3    0  502 -0.30912382500E+03  0.27598782219E+03 -0.58353637702E+03  0.71571050049E+03  0.50400001928E-02 0. -1.
</event>
<event>
 5   0  0.9081324E-04  0.1306303E+04  0.7818609E-02  0.9024582E-01
        1   -1    0    0  501    0  0.00000000000E+00  0.00000000000E+00  0.51723782810E+03  0.51723782812E+03  0.50400001928E-02 0. -1.
       -1   -1    0    0    0  501  0.00000000000E+00  0.00000000000E+00 -0.82477855313E+03  0.82477855315E+03  0.50400001928E-02 0.  1.
    10030    2    1    2    0    0  0.00000000000E+00  0.00000000000E+00 -0.30754072503E+03  0.13420163813E+04  0.13063026717E+04 0.  0.
        4    1    3    3  502    0  0.55454264002E+03 -0.15535800133E+03 -0.47033667906E+03  0.74355353052E+03  0.12699999809E+01 0.  1.
       -4    1    3    3    0  502 -0.55454264002E+03  0.15535800133E+03  0.16279595403E+03  0.59846285075E+03  0.12699999809E+01 0. -1.
</event>
<event>
 5   0  0.9215829E-04  0.1270473E+04  0.7818609E-02  0.9053314E-01
        1   -1    0    0  501    0  0.00000000000E+00  0.00000000000E+00  0.17013049348E+04  0.17013049348E+04  0.50400001928E-02 0.  1.
       -1   -1    0    0    0  501  0.00000000000E+00  0.00000000000E+00 -0.23718564320E+03  0.23718564325E+03  0.50400001928E-02 0. -1.
    10030    2    1    2    0    0  0.00000000000E+00  0.00000000000E+00  0.14641192916E+04  0.19384905781E+04  0.12704725189E+04 0.  0.
        3    1    3    3  502    0 -0.30029117977E+03 -0.19449866343E+03 -0.68835082536E+02  0.36433885535E+03  0.10100000352E+00 0. -1.
       -3    1    3    3    0  502  0.30029117977E+03  0.19449866343E+03  0.15329543742E+04  0.15741517227E+04  0.10100000352E+00 0.  1.
</event>
<event>
 5   0  0.1667342E-03  0.1315986E+04  0.7818609E-02  0.9016983E-01
        2   -1    0    0  501    0  0.00000000000E+00  0.00000000000E+00  0.15747168754E+04  0.15747168754E+04  0.25500000920E-02 0. -1.
       -2   -1    0    0    0  501  0.00000000000E+00  0.00000000000E+00 -0.27494141697E+03  0.27494141698E+03  0.25500000920E-02 0.  1.
    10030    2    1    2    0    0  0.00000000000E+00  0.00000000000E+00  0.12997754584E+04  0.18496582924E+04  0.13159861535E+04 0.  0.
        5    1    3    3  502    0 -0.30072228980E+02  0.62487185898E+03  0.36334006898E+03  0.72346891767E+03  0.46999998093E+01 0. -1.
       -5    1    3    3    0  502  0.30072228980E+02 -0.62487185898E+03  0.93643538945E+03  0.11261893747E+04  0.46999998093E+01 0.  1.
</event>
<event>
 5   0  0.9215829E-04  0.1298006E+04  0.7818609E-02  0.9031148E-01
        1   -1    0    0  501    0  0.00000000000E+00  0.00000000000E+00  0.73849509325E+03  0.73849509327E+03  0.50400001928E-02 0. -1.
       -1   -1    0    0    0  501  0.00000000000E+00  0.00000000000E+00 -0.57035574011E+03  0.57035574014E+03  0.50400001928E-02 0.  1.
    10030    2    1    2    0    0  0.00000000000E+00  0.00000000000E+00  0.16813935314E+03  0.13088508334E+04  0.12980060331E+04 0.  0.
        3    1    3    3  502    0  0.45626321217E+03  0.32330313219E+03  0.41622105529E+03  0.69709469309E+03  0.10100000352E+00 0. -1.
       -3    1    3    3    0  502 -0.45626321217E+03 -0.32330313219E+03 -0.24808170215E+03  0.61175614031E+03  0.10100000352E+00 0.  1.
</event>
<event>
 5   0  0.9215829E-04  0.1302488E+04  0.7818609E-02  0.9027594E-01
       -1   -1    0    0    0  501  0.00000000000E+00  0.00000000000E+00  0.85619636212E+03  0.85619636214E+03  0.50400001928E-02 0. -1.
        1   -1    0    0  501    0  0.00000000000E+00  0.00000000000E+00 -0.49535256148E+03  0.49535256150E+03  0.50400001928E-02 0.  1.
    10030    2    1    2    0    0  0.00000000000E+00  0.00000000000E+00  0.36084380064E+03  0.13515489236E+04  0.13024884815E+04 0.  0.
        3    1    3    3  502    0  0.10579486603E+03 -0.23315211774E+03  0.80178117976E+03  0.84166830409E+03  0.10100000352E+00 0.  1.
       -3    1    3    3    0  502 -0.10579486603E+03  0.23315211774E+03 -0.44093737912E+03  0.50988061955E+03  0.10100000352E+00 0. -1.
</event>
<event>
 5   0  0.1694675E-03  0.1334828E+04  0.7818609E-02  0.9002393E-01
       -2   -1    0    0    0  501  0.00000000000E+00  0.00000000000E+00  0.42703687638E+03  0.42703687638E+03  0.25500000920E-02 0.  1.
        2   -1    0    0  501    0  0.00000000000E+00  0.00000000000E+00 -0.10430987419E+04  0.10430987419E+04  0.25500000920E-02 0. -1.
    10030    2    1    2    0    0  0.00000000000E+00  0.00000000000E+00 -0.61606186552E+03  0.14701356183E+04  0.13348282714E+04 0.  0.
        4    1    3    3  502    0 -0.26146326563E+02  0.20648881083E+03  0.39037700821E+03  0.44239923241E+03  0.12699999809E+01 0.  1.
       -4    1    3    3    0  502  0.26146326563E+02 -0.20648881083E+03 -0.10064388737E+04  0.10277363859E+04  0.12699999809E+01 0. -1.
</event>
<event>
 5   0  0.1700511E-03  0.1306199E+04  0.7818609E-02  0.9024664E-01
        2   -1    0    0  501    0  0.00000000000E+00  0.00000000000E+00  0.11792592440E+04  0.11792592440E+04  0.25500000920E-02 0.  1.
       -2   -1    0    0    0  501  0.00000000000E+00  0.00000000000E+00 -0.36170068376E+03  0.36170068377E+03  0.25500000920E-02 0. -1.
    10030    2    1    2    0    0  0.00000000000E+00  0.00000000000E+00  0.81755856026E+03  0.15409599278E+04  0.13061988745E+04 0.  0.
        2    1    3    3  502    0  0.53046662935E+03 -0.37877624718E+03  0.45702692175E+03  0.79607782125E+03  0.25500000920E-02 0.  1.
       -2    1    3    3    0  502 -0.53046662935E+03  0.37877624718E+03  0.36053163851E+03  0.74488210655E+03  0.25500000920E-02 0. -1.
</event>
<event>
 5   0  0.9110949E-04  0.1298597E+04  0.7818609E-02  0.9030678E-01
       -1   -1    0    0    0  501  0.00000000000E+00  0.00000000000E+00  0.48670706219E+03  0.48670706221E+03  0.50400001928E-02 0.  1.
        1   -1    0    0  501    0  0.00000000000E+00  0.00000000000E+00 -0.86620642699E+03  0.86620642701E+03  0.50400001928E-02 0. -1.
    10030    2    1    2    0    0  0.00000000000E+00  0.00000000000E+00 -0.37949936481E+03  0.13529134892E+04  0.12985973746E+04 0.  0.
        2    1    3    3  502    0 -0.60192479857E+03 -0.12104559953E+03  0.30328137770E+02  0.61472375604E+03  0.25500000920E-02 0.  1.
       -2    1    3    3    0  502  0.60192479857E+03  0.12104559953E+03 -0.40982750258E+03  0.73818973318E+03  0.25500000920E-02 0. -1.
</event>
<event>
 5   0  0.1700511E-03  0.1319631E+04  0.7818609E-02  0.9014141E-01
        2   -1    0    0  501    0  0.00000000000E+00  0.00000000000E+00  0.16822824282E+04  0.16822824283E+04  0.25500000920E-02 0.  1.
       -2   -1    0    0    0  501  0.00000000000E+00  0.00000000000E+00 -0.25878908639E+03  0.25878908641E+03  0.25500000920E-02 0. -1.
    10030    2    1    2    0    0  0.00000000000E+00  0.00000000000E+00  0.14234933419E+04  0.19410715147E+04  0.13196307554E+04 0.  0.
        2    1    3    3  502    0  0.31539457309E+03  0.37530631525E+02  0.15624346983E+04  0.15943915678E+04  0.25500000920E-02 0.  1.
       -2    1    3    3    0  502 -0.31539457309E+03 -0.37530631525E+02 -0.13894135641E+03  0.34667994688E+03  0.25500000920E-02 0. -1.
</event>
<event>
 5   0  0.9110949E-04  0.1301375E+04  0.7818609E-02  0.9028475E-01
       -1   -1    0    0    0  501  0.00000000000E+00  0.00000000000E+00  0.25196686547E+03  0.25196686552E+03  0.50400001928E-02 0.  1.
        1   -1    0    0  501    0  0.00000000000E+00  0.00000000000E+00 -0.16803568368E+04  0.16803568368E+04  0.50400001928E-02 0. -1.
    10030    2    1    2    0    0  0.00000000000E+00  0.00000000000E+00 -0.14283899714E+04  0.19323237024E+04  0.13013750345E+04 0.  0.
        2    1    3    3  502    0  0.24095229659E+03  0.17457167033E+03  0.14503549330E+03  0.33101143732E+03  0.25500000920E-02 0.  1.
       -2    1    3    3    0  502 -0.24095229659E+03 -0.17457167033E+03 -0.15734254647E+04  0.16013122650E+04  0.25500000920E-02 0. -1.
</event>
<event>
 5   0  0.6284125E-04  0.1288788E+04  0.7818609E-02  0.9038504E-01
       -3   -1    0    0    0  501  0.00000000000E+00  0.00000000000E+00  0.34599248963E+03  0.34599250437E+03  0.10100000352E+00 0.  1.
        3   -1    0    0  501    0  0.00000000000E+00  0.00000000000E+00 -0.12001515132E+04  0.12001515175E+04  0.10100000352E+00 0. -1.
    10030    2    1    2    0    0  0.00000000000E+00  0.00000000000E+00 -0.85415902359E+03  0.15461440219E+04  0.12887876857E+04 0.  0.
        4    1    3    3  502    0 -0.62460019788E+03 -0.13451470295E+03 -0.52761170166E+03  0.82861048336E+03  0.12699999809E+01 0.  1.
       -4    1    3    3    0  502  0.62460019788E+03  0.13451470295E+03 -0.32654732193E+03  0.71753353849E+03  0.12699999809E+01 0. -1.
</event>
<event>
 5   0  0.9098192E-04  0.1301756E+04  0.7818609E-02  0.9028174E-01
       -1   -1    0    0    0  501  0.00000000000E+00  0.00000000000E+00  0.61990664716E+03  0.61990664718E+03  0.50400001928E-02 0.  1.
        1   -1    0    0  501    0  0.00000000000E+00  0.00000000000E+00 -0.68339681222E+03  0.68339681224E+03  0.50400001928E-02 0. -1.
    10030    2    1    2    0    0  0.00000000000E+00  0.00000000000E+00 -0.63490165060E+02  0.13033034594E+04  0.13017560856E+04 0.  0.
        1    1    3    3  502    0 -0.36251393203E+02  0.32997311338E+03  0.52878272683E+03  0.62434573058E+03  0.50400001928E-02 0.  1.
       -1    1    3    3    0  502  0.36251393203E+02 -0.32997311338E+03 -0.59227289189E+03  0.67895772885E+03  0.50400001928E-02 0. -1.
</event>
<event>
 5   0  0.1700511E-03  0.1316058E+04  0.7818609E-02  0.9016927E-01
        2   -1    0    0  501    0  0.00000000000E+00  0.00000000000E+00  0.13400781776E+04  0.13400781776E+04  0.25500000920E-02 0.  1.
       -2   -1    0    0    0  501  0.00000000000E+00  0.00000000000E+00 -0.32311699767E+03  0.32311699768E+03  0.25500000920E-02 0. -1.
    10030    2    1    2    0    0  0.00000000000E+00  0.00000000000E+00  0.10169611799E+04  0.16631951753E+04  0.13160578063E+04 0.  0.
        2    1    3    3  502    0 -0.27369968732E+03  0.11337430679E+03  0.12510324371E+04  0.12856311333E+04  0.25500000920E-02 0.  1.
       -2    1    3    3    0  502  0.27369968732E+03 -0.11337430679E+03 -0.23407125722E+03  0.37756404191E+03  0.25500000920E-02 0. -1.
</event>
<event>
 5   0  0.1694675E-03  0.1291245E+04  0.7818609E-02  0.9036537E-01
        2   -1    0    0  501    0  0.00000000000E+00  0.00000000000E+00  0.87664537158E+03  0.87664537159E+03  0.25500000920E-02 0. -1.
       -2   -1    0    0    0  501  0.00000000000E+00  0.00000000000E+00 -0.47548108619E+03  0.47548108619E+03  0.25500000920E-02 0.  1.
    10030    2    1    2    0    0  0.00000000000E+00  0.00000000000E+00  0.40116428539E+03  0.13521264578E+04  0.12912448157E+04 0.  0.
        4    1    3    3  502    0 -0.57319612505E+03  0.24261995517E+03  0.38015666305E+03  0.72934144389E+03  0.12699999809E+01 0. -1.
       -4    1    3    3    0  502  0.57319612505E+03 -0.24261995517E+03  0.21007622349E+02  0.62278501389E+03  0.12699999809E+01 0.  1.
</event>
<event>
 5   0  0.1714861E-03  0.1298233E+04  0.7818609E-02  0.9030967E-01
        2   -1    0    0  501    0  0.00000000000E+00  0.00000000000E+00  0.11131832356E+04  0.11131832356E+04  0.25500000920E-02 0. -1.
       -2   -1    0    0    0  501  0.00000000000E+00  0.00000000000E+00 -0.37851135303E+03  0.37851135303E+03  0.25500000920E-02 0.  1.
    10030    2    1    2    0    0  0.00000000000E+00  0.00000000000E+00  0.73467188260E+03  0.14916945887E+04  0.12982334038E+04 0.  0.
        1    1    3    3  502    0  0.41441002630E+03  0.42240659797E+03  0.60762116672E+02  0.59485715828E+03  0.50400001928E-02 0.  1.
       -1    1    3    3    0  502 -0.41441002630E+03 -0.42240659797E+03  0.67390976593E+03  0.89683743039E+03  0.50400001928E-02 0. -1.
</event>
<event>
 5   0  0.1714861E-03  0.1312259E+04  0.7818609E-02  0.9019900E-01
        2   -1    0    0  501    0  0.00000000000E+00  0.00000000000E+00  0.56075980794E+03  0.56075980795E+03  0.25500000920E-02 0. -1.
       -2   -1    0    0    0  501  0.00000000000E+00  0.00000000000E+00 -0.76771872171E+03  0.76771872171E+03  0.25500000920E-02 0.  1.
    10030    2    1    2    0    0  0.00000000000E+00  0.00000000000E+00 -0.20695891377E+03  0.13284785297E+04  0.13122588204E+04 0.  0.
        1    1    3    3  502    0 -0.50368861761E+03  0.27047648508E+03 -0.42939976183E+03  0.71501322224E+03  0.50400001928E-02 0.  1.
       -1    1    3    3    0  502  0.50368861761E+03 -0.27047648508E+03  0.22244084806E+03  0.61346530742E+03  0.50400001928E-02 0. -1.
</event>
<event>
 5   0  0.9110949E-04  0.1287032E+04  0.7818609E-02  0.9039913E-01
       -1   -1    0    0    0  501  0.00000000000E+00  0.00000000000E+00  0.43474343201E+03  0.43474343204E+03  0.50400001928E-02 0. -1.
        1   -1    0    0  501    0  0.00000000000E+00  0.00000000000E+00 -0.95254530159E+03  0.95254530160E+03  0.50400001928E-02 0.  1.
    10030    2    1    2    0    0  0.00000000000E+00  0.00000000000E+00 -0.51780186958E+03  0.13872887336E+04  0.12870319554E+04 0.  0.
        2    1    3    3  502    0 -0.37830667702E+03  0.44578364003E+02 -0.81796483744E+03  0.90231349747E+03  0.25500000920E-02 0.  1.
       -2    1    3    3    0  502  0.37830667702E+03 -0.44578364003E+02  0.30016296786E+03  0.48497523617E+03  0.25500000920E-02 0. -1.
</event>
<event>
 5   0  0.6284125E-04  0.1290339E+04  0.7818609E-02  0.9037262E-01
       -4   -1    0    0    0  501  0.00000000000E+00  0.00000000000E+00  0.69778404587E+03  0.69778520160E+03  0.12699999809E+01 0. -1.
        4   -1    0    0  501    0  0.00000000000E+00  0.00000000000E+00 -0.59651999799E+03  0.59652134991E+03  0.12699999809E+01 0.  1.
    10030    2    1    2    0    0  0.00000000000E+00  0.00000000000E+00  0.10126404788E+03  0.12943065515E+04  0.12903391190E+04 0.  0.
        3    1    3    3  502    0  0.36535784929E+02  0.57513760080E+03 -0.24030396179E+03  0.62439100545E+03  0.10100000352E+00 0.  1.
       -3    1    3    3    0  502 -0.36535784929E+02 -0.57513760080E+03  0.34156800967E+03  0.66991554607E+03  0.10100000352E+00 0. -1.
</event>
<event>
 5   0  0.1714861E-03  0.1288427E+04  0.7818609E-02  0.9038794E-01
        2   -1    0    0  501    0  0.00000000000E+00  0.00000000000E+00  0.54443834199E+03  0.54443834200E+03  0.25500000920E-02 0. -1.
       -2   -1    0    0    0  501  0.00000000000E+00  0.00000000000E+00 -0.76227325726E+03  0.76227325727E+03  0.25500000920E-02 0.  1.
    10030    2    1    2    0    0  0.00000000000E+00  0.00000000000E+00 -0.21783491527E+03  0.13067115993E+04  0.12884266193E+04 0.  0.
        1    1    3    3  502    0 -0.34243623030E+03  0.29625842605E+02  0.44367327634E+03  0.56123634819E+03  0.50400001928E-02 0. -1.
       -1    1    3    3    0  502  0.34243623030E+03 -0.29625842605E+02 -0.66150819161E+03  0.74547525107E+03  0.50400001928E-02 0.  1.
</event>
<event>
 5   0  0.1667342E-03  0.1296723E+04  0.7818609E-02  0.9032168E-01
       -2   -1    0    0    0  501  0.00000000000E+00  0.00000000000E+00  0.40049394338E+03  0.40049394339E+03  0.25500000920E-02 0. -1.
        2   -1    0    0  501    0  0.00000000000E+00  0.00000000000E+00 -0.10496349333E+04  0.10496349333E+04  0.25500000920E-02 0.  1.
    10030    2    1    2    0    0  0.00000000000E+00  0.00000000000E+00 -0.64914098994E+03  0.14501288767E+04  0.12967226898E+04 0.  0.
        5    1    3    3  502    0  0.41770590071E+03 -0.99988641937E+02  0.21855462642E+03  0.48193792415E+03  0.46999998093E+01 0. -1.
       -5    1    3    3    0  502 -0.41770590071E+03  0.99988641937E+02 -0.86769561636E+03  0.96819095258E+03  0.46999998093E+01 0.  1.
</event>
<event>
 5   0  0.1694675E-03  0.1303765E+04  0.7818609E-02  0.9026585E-01
        2   -1    0    0  501    0  0.00000000000E+00  0.00000000000E+00  0.15748432475E+04  0.15748432475E+04  0.25500000920E-02 0. -1.
       -2   -1    0    0    0  501  0.00000000000E+00  0.00000000000E+00 -0.26983691712E+03  0.26983691713E+03  0.25500000920E-02 0.  1.
    10030    2    1    2    0    0  0.00000000000E+00  0.00000000000E+00  0.13050063304E+04  0.18446801647E+04  0.13037650814E+04 0.  0.
        4    1    3    3  502    0  0.28823045612E+03  0.44287653220E+03  0.11926357902E+04  0.13044532033E+04  0.12699999809E+01 0. -1.
       -4    1    3    3    0  502 -0.28823045612E+03 -0.44287653220E+03  0.11237054025E+03  0.54022696141E+03  0.12699999809E+01 0.  1.
</event>
<event>
 5   0  0.9098192E-04  0.1296250E+04  0.7818609E-02  0.9032544E-01
        1   -1    0    0  501    0  0.00000000000E+00  0.00000000000E+00  0.43085491135E+03  0.43085491138E+03  0.50400001928E-02 0. -1.
       -1   -1    0    0    0  501  0.00000000000E+00  0.00000000000E+00 -0.97495908667E+03  0.97495908669E+03  0.50400001928E-02 0.  1.
    10030    2    1    2    0    0  0.00000000000E+00  0.00000000000E+00 -0.54410417533E+03  0.14058139981E+04  0.12962498384E+04 0.  0.
        1    1    3    3  502    0 -0.61837514669E+03  0.13554263604E+03 -0.12136068411E+03  0.64458362057E+03  0.50400001928E-02 0. -1.
       -1    1    3    3    0  502  0.61837514669E+03 -0.13554263604E+03 -0.42274349121E+03  0.76123037750E+03  0.50400001928E-02 0.  1.
</event>
<event>
 5   0  0.1623890E-03  0.1295977E+04  0.7818609E-02  0.9032762E-01
        2   -1    0    0  501    0  0.00000000000E+00  0.00000000000E+00  0.91502117525E+03  0.91502117525E+03  0.25500000920E-02 0. -1.
       -2   -1    0    0    0  501  0.00000000000E+00  0.00000000000E+00 -0.45888447443E+03  0.45888447444E+03  0.25500000920E-02 0.  1.
    10030    2    1    2    0    0  0.00000000000E+00  0.00000000000E+00  0.45613670081E+03  0.13739056497E+04  0.12959768688E+04 0.  0.
        3    1    3    3  502    0 -0.16155817595E+03 -0.45488675048E+03  0.68634191421E+03  0.83909965641E+03  0.10100000352E+00 0. -1.
       -3    1    3    3    0  502  0.16155817595E+03  0.45488675048E+03 -0.23020521340E+03  0.53480599329E+03  0.10100000352E+00 0.  1.
</event>
<event>
 5   0  0.1714861E-03  0.1317348E+04  0.7818609E-02  0.9015920E-01
       -2   -1    0    0    0  501  0.00000000000E+00  0.00000000000E+00  0.43032877214E+03  0.43032877215E+03  0.25500000920E-02 0. -1.
        2   -1    0    0  501    0  0.00000000000E+00  0.00000000000E+00 -0.10081860439E+04  0.10081860439E+04  0.25500000920E-02 0.  1.
    10030    2    1    2    0    0  0.00000000000E+00  0.00000000000E+00 -0.57785727177E+03  0.14385148161E+04  0.13173480366E+04 0.  0.
        1    1    3    3  502    0 -0.59823328930E+03  0.73921491175E+02 -0.57887703225E+03  0.83573086204E+03  0.50400001928E-02 0.  1.
       -1    1    3    3    0  502  0.59823328930E+03 -0.73921491175E+02  0.10197604767E+01  0.60278395402E+03  0.50400001928E-02 0. -1.
</event>
<event>
 5   0  0.9081324E-04  0.1299588E+04  0.7818609E-02  0.9029892E-01
        1   -1    0    0  501    0  0.00000000000E+00  0.00000000000E+00  0.54774533416E+03  0.54774533418E+03  0.50400001928E-02 0. -1.
       -1   -1    0    0    0  501  0.00000000000E+00  0.00000000000E+00 -0.77085498308E+03  0.77085498310E+03  0.50400001928E-02 0.  1.
    10030    2    1    2    0    0  0.00000000000E+00  0.00000000000E+00 -0.22310964892E+03  0.13186003173E+04  0.12995879660E+04 0.  0.
        4    1    3    3  502    0 -0.44865807578E+03 -0.31037092916E+03 -0.46971534490E+03  0.71990159103E+03  0.12699999809E+01 0.  1.
       -4    1    3    3    0  502  0.44865807578E+03  0.31037092916E+03  0.24660569598E+03  0.59869872625E+03  0.12699999809E+01 0. -1.
</event>
<event>
 5   0  0.1623890E-03  0.1191431E+04  0.7818609E-02  0.9120390E-01
       -2   -1    0    0    0  501  0.00000000000E+00  0.00000000000E+00  0.29654833998E+03  0.29654833999E+03  0.25500000920E-02 0.  1.
        2   -1    0    0  501    0  0.00000000000E+00  0.00000000000E+00 -0.11966911156E+04  0.11966911156E+04  0.25500000920E-02 0. -1.
    10030    2    1    2    0    0  0.00000000000E+00  0.00000000000E+00 -0.90014277560E+03  0.14932394556E+04  0.11914306758E+04 0.  0.
        3    1    3    3  502    0  0.68837487753E+02  0.31487502535E+03 -0.10779714240E+04  0.11251254519E+04  0.10100000352E+00 0. -1.
       -3    1    3    3    0  502 -0.68837487753E+02 -0.31487502535E+03  0.17782864840E+03  0.36811400368E+03  0.10100000352E+00 0.  1.
</event>
<event>
 5   0  0.1714861E-03  0.1291203E+04  0.7818609E-02  0.9036570E-01
       -2   -1    0    0    0  501  0.00000000000E+00  0.00000000000E+00  0.32908679966E+03  0.32908679967E+03  0.25500000920E-02 0. -1.
        2   -1    0    0  501    0  0.00000000000E+00  0.00000000000E+00 -0.12665395949E+04  0.12665395949E+04  0.25500000920E-02 0.  1.
    10030    2    1    2    0    0  0.00000000000E+00  0.00000000000E+00 -0.93745279527E+03  0.15956263946E+04  0.12912032558E+04 0.  0.
        1    1    3    3  502    0  0.83208736759E+02 -0.28926754735E+03  0.23707082493E+03  0.38314747015E+03  0.50400001928E-02 0. -1.
       -1    1    3    3    0  502 -0.83208736759E+02  0.28926754735E+03 -0.11745236202E+04  0.12124789245E+04  0.50400001928E-02 0.  1.
</event>
<event>
 5   0  0.9110949E-04  0.1352059E+04  0.7818609E-02  0.8989271E-01
       -1   -1    0    0    0  501  0.00000000000E+00  0.00000000000E+00  0.78825252688E+03  0.78825252690E+03  0.50400001928E-02 0. -1.
        1   -1    0    0  501    0  0.00000000000E+00  0.00000000000E+00 -0.57978354400E+03  0.57978354402E+03  0.50400001928E-02 0.  1.
    10030    2    1    2    0    0  0.00000000000E+00  0.00000000000E+00  0.20846898288E+03  0.13680360709E+04  0.13520589390E+04 0.  0.
        2    1    3    3  502    0  0.26499465163E+03 -0.61617693530E+03  0.18960967141E+03  0.69702798257E+03  0.25500000920E-02 0.  1.
       -2    1    3    3    0  502 -0.26499465163E+03  0.61617693530E+03  0.18859311473E+02  0.67100808835E+03  0.25500000920E-02 0. -1.
</event>
<event>
 5   0  0.1667342E-03  0.1297464E+04  0.7818609E-02  0.9031579E-01
        2   -1    0    0  501    0  0.00000000000E+00  0.00000000000E+00  0.11353268982E+04  0.11353268982E+04  0.25500000920E-02 0. -1.
       -2   -1    0    0    0  501  0.00000000000E+00  0.00000000000E+00 -0.37068879136E+03  0.37068879137E+03  0.25500000920E-02 0.  1.
    10030    2    1    2    0    0  0.00000000000E+00  0.00000000000E+00  0.76463810683E+03  0.15060156896E+04  0.12974636114E+04 0.  0.
        5    1    3    3  502    0  0.34050105364E+03 -0.27769066358E+03  0.93629384235E+03  0.10342733301E+04  0.46999998093E+01 0. -1.
       -5    1    3    3    0  502 -0.34050105364E+03  0.27769066358E+03 -0.17165573551E+03  0.47174235945E+03  0.46999998093E+01 0.  1.
</event>
<event>
 5   0  0.9098192E-04  0.1292953E+04  0.7818609E-02  0.9035172E-01
        1   -1    0    0  501    0  0.00000000000E+00  0.00000000000E+00  0.61115440863E+03  0.61115440865E+03  0.50400001928E-02 0. -1.
       -1   -1    0    0    0  501  0.00000000000E+00  0.00000000000E+00 -0.68383992793E+03  0.68383992795E+03  0.50400001928E-02 0.  1.
    10030    2    1    2    0    0  0.00000000000E+00  0.00000000000E+00 -0.72685519301E+02  0.12949943366E+04  0.12929528789E+04 0.  0.
        1    1    3    3  502    0  0.52511869714E+03 -0.26781256093E+03 -0.30220220404E+03  0.66241934304E+03  0.50400001928E-02 0.  1.
       -1    1    3    3    0  502 -0.52511869714E+03  0.26781256093E+03  0.22951668474E+03  0.63257499356E+03  0.50400001928E-02 0. -1.
</event>
<event>
 5   0  0.1714861E-03  0.1286284E+04  0.7818609E-02  0.9040513E-01
        2   -1    0    0  501    0  0.00000000000E+00  0.00000000000E+00  0.46841736347E+03  0.46841736348E+03  0.25500000920E-02 0.  1.
       -2   -1    0    0    0  501  0.00000000000E+00  0.00000000000E+00 -0.88304138794E+03  0.88304138794E+03  0.25500000920E-02 0. -1.
    10030    2    1    2    0    0  0.00000000000E+00  0.00000000000E+00 -0.41462402446E+03  0.13514587514E+04  0.12862844457E+04 0.  0.
        1    1    3    3  502    0  0.87408929218E+02  0.53561373066E+03  0.15529736527E+03  0.56448176327E+03  0.50400001928E-02 0.  1.
       -1    1    3    3    0  502 -0.87408929218E+02 -0.53561373066E+03 -0.56992138973E+03  0.78697698815E+03  0.50400001928E-02 0. -1.
</event>
<event>
 5   0  0.1700511E-03  0.1298360E+04  0.7818609E-02  0.9030867E-01
       -2   -1    0    0    0  501  0.00000000000E+00  0.00000000000E+00  0.20091152765E+03  0.20091152767E+03  0.25500000920E-02 0. -1.
        2   -1    0    0  501    0  0.00000000000E+00  0.00000000000E+00 -0.20976121499E+04  0.20976121499E+04  0.25500000920E-02 0.  1.
    10030    2    1    2    0    0  0.00000000000E+00  0.00000000000E+00 -0.18967006223E+04  0.22985236776E+04  0.12983596751E+04 0.  0.
        2    1    3    3  502    0 -0.20504435859E+03  0.55448879775E+03 -0.47354081613E+03  0.75745753701E+03  0.25500000920E-02 0. -1.
       -2    1    3    3    0  502  0.20504435859E+03 -0.55448879775E+03 -0.14231598062E+04  0.15410661406E+04  0.25500000920E-02 0.  1.
</event>
<event>
 5   0  0.9027076E-04  0.1299222E+04  0.7818609E-02  0.9030182E-01
       -1   -1    0    0    0  501  0.00000000000E+00  0.00000000000E+00  0.58648969458E+03  0.58648969460E+03  0.50400001928E-02 0. -1.
        1   -1    0    0  501    0  0.00000000000E+00  0.00000000000E+00 -0.71952583265E+03  0.71952583267E+03  0.50400001928E-02 0.  1.
    10030    2    1    2    0    0  0.00000000000E+00  0.00000000000E+00 -0.13303613807E+03  0.13060155273E+04  0.12992220532E+04 0.  0.
        5    1    3    3  502    0 -0.64485961732E+03  0.74440847792E+02 -0.42162678300E+02  0.65052682290E+03  0.46999998093E+01 0.  1.
       -5    1    3    3    0  502  0.64485961732E+03 -0.74440847792E+02 -0.90873459772E+02  0.65548870438E+03  0.46999998093E+01 0. -1.
</event>
<event>
 5   0  0.9215829E-04  0.1070939E+04  0.7818609E-02  0.9233988E-01
        1   -1    0    0  501    0  0.00000000000E+00  0.00000000000E+00  0.85670819854E+03  0.85670819855E+03  0.50400001928E-02 0. -1.
       -1   -1    0    0    0  501  0.00000000000E+00  0.00000000000E+00 -0.33468551077E+03  0.33468551081E+03  0.50400001928E-02 0.  1.
    10030    2    1    2    0    0  0.00000000000E+00  0.00000000000E+00  0.52202268776E+03  0.11913937094E+04  0.10709394400E+04 0.  0.
        3    1    3    3  502    0 -0.11046937088E+03 -0.13304933671E+03 -0.30276477205E+03  0.34867194510E+03  0.10100000352E+00 0.  1.
       -3    1    3    3    0  502  0.11046937088E+03  0.13304933671E+03  0.82478745981E+03  0.84272176427E+03  0.10100000352E+00 0. -1.
</event>
<event>
 5   0  0.1623890E-03  0.1312528E+04  0.7818609E-02  0.9019689E-01
        2   -1    0    0  501    0  0.00000000000E+00  0.00000000000E+00  0.23855956277E+04  0.23855956277E+04  0.25500000920E-02 0. -1.
       -2   -1    0    0    0  501  0.00000000000E+00  0.00000000000E+00 -0.18053452484E+03  0.18053452486E+03  0.25500000920E-02 0.  1.
    10030    2    1    2    0    0  0.00000000000E+00  0.00000000000E+00  0.22050611028E+04  0.25661301525E+04  0.13125279016E+04 0.  0.
        3    1    3    3  502    0  0.16676357388E+03  0.62520444529E+03  0.88843380902E+03  0.10990929584E+04  0.10100000352E+00 0.  1.
       -3    1    3    3    0  502 -0.16676357388E+03 -0.62520444529E+03  0.13166272938E+04  0.14670371941E+04  0.10100000352E+00 0. -1.
</event>
<event>
 5   0  0.1667342E-03  0.1243787E+04  0.7818609E-02  0.9075371E-01
       -2   -1    0    0    0  501  0.00000000000E+00  0.00000000000E+00  0.93962088125E+03  0.93962088126E+03  0.25500000920E-02 0.  1.
        2   -1    0    0  501    0  0.00000000000E+00  0.00000000000E+00 -0.41160355070E+03  0.41160355071E+03  0.25500000920E-02 0. -1.
    10030    2    1    2    0    0  0.00000000000E+00  0.00000000000E+00  0.52801733056E+03  0.13512244320E+04  0.12437866232E+04 0.  0.
        5    1    3    3  502    0 -0.59348525489E+03 -0.13762236471E+03  0.12847420691E+03  0.62264947995E+03  0.46999998093E+01 0.  1.
       -5    1    3    3    0  502  0.59348525489E+03  0.13762236471E+03  0.39954312364E+03  0.72857495201E+03  0.46999998093E+01 0. -1.
</event>
<event>
 5   0  0.9027076E-04  0.1299472E+04  0.7818609E-02  0.9029984E-01
       -1   -1    0    0    0  501  0.00000000000E+00  0.00000000000E+00  0.64623397145E+03  0.64623397147E+03  0.50400001928E-02 0. -1.
        1   -1    0    0  501    0  0.00000000000E+00  0.00000000000E+00 -0.65325677381E+03  0.65325677383E+03  0.50400001928E-02 0.  1.
    10030    2    1    2    0    0  0.00000000000E+00  0.00000000000E+00 -0.70228023606E+01  0.12994907453E+04  0.12994717686E+04 0.  0.
        5    1    3    3  502    0  0.29284310060E+03 -0.51878896512E+03  0.25579058724E+03  0.64834403399E+03  0.46999998093E+01 0. -1.
       -5    1    3    3    0  502 -0.29284310060E+03  0.51878896512E+03 -0.26281338960E+03  0.65114671131E+03  0.46999998093E+01 0.  1.
</event>
<event>
 5   0  0.1714861E-03  0.1307948E+04  0.7818609E-02  0.9023286E-01
       -2   -1    0    0    0  501  0.00000000000E+00  0.00000000000E+00  0.32044401571E+03  0.32044401572E+03  0.25500000920E-02 0. -1.
        2   -1    0    0  501    0  0.00000000000E+00  0.00000000000E+00 -0.13346546648E+04  0.13346546648E+04  0.25500000920E-02 0.  1.
    10030    2    1    2    0    0  0.00000000000E+00  0.00000000000E+00 -0.10142106490E+04  0.16550986805E+04  0.13079481647E+04 0.  0.
        1    1    3    3  502    0 -0.36681000198E+03 -0.52126234115E+03 -0.69229798670E+03  0.94103161916E+03  0.50400001928E-02 0.  1.
       -1    1    3    3    0  502  0.36681000198E+03  0.52126234115E+03 -0.32191266234E+03  0.71406706132E+03  0.50400001928E-02 0. -1.
</event>
<event>
 5   0  0.9098192E-04  0.1285910E+04  0.7818609E-02  0.9040814E-01
        1   -1    0    0  501    0  0.00000000000E+00  0.00000000000E+00  0.77812329416E+03  0.77812329418E+03  0.50400001928E-02 0. -1.
       -1   -1    0    0    0  501  0.00000000000E+00  0.00000000000E+00 -0.53126676055E+03  0.53126676058E+03  0.50400001928E-02 0.  1.
    10030    2    1    2    0    0  0.00000000000E+00  0.00000000000E+00  0.24685653361E+03  0.13093900548E+04  0.12859098597E+04 0.  0.
        1    1    3    3  502    0 -0.19826689197E+03 -0.60481213815E+03  0.30752328009E+02  0.63722302893E+03  0.50400001928E-02 0.  1.
       -1    1    3    3    0  502  0.19826689197E+03  0.60481213815E+03  0.21610420560E+03  0.67216702582E+03  0.50400001928E-02 0. -1.
</event>
<event>
 5   0  0.1623890E-03  0.1301322E+04  0.7818609E-02  0.9028517E-01
        2   -1    0    0  501    0  0.00000000000E+00  0.00000000000E+00  0.16783666604E+04  0.16783666604E+04  0.25500000920E-02 0. -1.
       -2   -1    0    0    0  501  0.00000000000E+00  0.00000000000E+00 -0.25224522612E+03  0.25224522613E+03  0.25500000920E-02 0.  1.
    10030    2    1    2    0    0  0.00000000000E+00  0.00000000000E+00  0.14261214343E+04  0.19306118866E+04  0.13013223702E+04 0.  0.
        3    1    3    3  502    0 -0.49185048689E+02  0.33953550666E+03  0.15332741061E+04  0.15711884113E+04  0.10100000352E+00 0. -1.
       -3    1    3    3    0  502  0.49185048689E+02 -0.33953550666E+03 -0.10715267176E+03  0.35942347526E+03  0.10100000352E+00 0.  1.
</event>
<event>
 5   0  0.1694675E-03  0.1285453E+04  0.7818609E-02  0.9041181E-01
       -2   -1    0    0    0  501  0.00000000000E+00  0.00000000000E+00  0.54170818989E+03  0.54170818989E+03  0.25500000920E-02 0.  1.
        2   -1    0    0  501    0  0.00000000000E+00  0.00000000000E+00 -0.76258324721E+03  0.76258324721E+03  0.25500000920E-02 0. -1.
    10030    2    1    2    0    0  0.00000000000E+00  0.00000000000E+00 -0.22087505732E+03  0.13042914371E+04  0.12854533683E+04 0.  0.
        4    1    3    3  502    0 -0.53188319346E+03 -0.33227554208E+03  0.32298151123E+02  0.62797416413E+03  0.12699999809E+01 0.  1.
       -4    1    3    3    0  502  0.53188319346E+03  0.33227554208E+03 -0.25317320844E+03  0.67631727298E+03  0.12699999809E+01 0. -1.
</event>
<event>
 5   0  0.1700511E-03  0.1305972E+04  0.7818609E-02  0.9024843E-01
        2   -1    0    0  501    0  0.00000000000E+00  0.00000000000E+00  0.84963427075E+03  0.84963427075E+03  0.25500000920E-02 0. -1.
       -2   -1    0    0    0  501  0.00000000000E+00  0.00000000000E+00 -0.50185208326E+03  0.50185208327E+03  0.25500000920E-02 0.  1.
    10030    2    1    2    0    0  0.00000000000E+00  0.00000000000E+00  0.34778218749E+03  0.13514863540E+04  0.13059720193E+04 0.  0.
        2    1    3    3  502    0  0.30726366059E+03  0.50857596951E+03 -0.10634197982E+03  0.60362992848E+03  0.25500000920E-02 0.  1.
       -2    1    3    3    0  502 -0.30726366059E+03 -0.50857596951E+03  0.45412416731E+03  0.74785642554E+03  0.25500000920E-02 0. -1.
</event>
<event>
 5   0  0.1694675E-03  0.1315789E+04  0.7818609E-02  0.9017137E-01
        2   -1    0    0  501    0  0.00000000000E+00  0.00000000000E+00  0.14526897171E+04  0.14526897171E+04  0.25500000920E-02 0.  1.
       -2   -1    0    0    0  501  0.00000000000E+00  0.00000000000E+00 -0.29794762330E+03  0.29794762331E+03  0.25500000920E-02 0. -1.
    10030    2    1    2    0    0  0.00000000000E+00  0.00000000000E+00  0.11547420938E+04  0.17506373404E+04  0.13157894187E+04 0.  0.
        4    1    3    3  502    0 -0.81366129507E+02  0.27375333648E+03 -0.21117251744E+03  0.35518555895E+03  0.12699999809E+01 0. -1.
       -4    1    3    3    0  502  0.81366129507E+02 -0.27375333648E+03  0.13659146113E+04  0.13954517815E+04  0.12699999809E+01 0.  1.
</event>
<event>
 5   0  0.1714861E-03  0.1303359E+04  0.7818609E-02  0.9026905E-01
        2   -1    0    0  501    0  0.00000000000E+00  0.00000000000E+00  0.63623930612E+03  0.63623930613E+03  0.25500000920E-02 0.  1.
       -2   -1    0    0    0  501  0.00000000000E+00  0.00000000000E+00 -0.66749475794E+03  0.66749475794E+03  0.25500000920E-02 0. -1.
    10030    2    1    2    0    0  0.00000000000E+00  0.00000000000E+00 -0.31255451812E+02  0.13037340641E+04  0.13033593543E+04 0.  0.
        1    1    3    3  502    0  0.40689315422E+01  0.60782076329E+03  0.21943720733E+03  0.64623163376E+03  0.50400001928E-02 0.  1.
       -1    1    3    3    0  502 -0.40689315422E+01 -0.60782076329E+03 -0.25069265915E+03  0.65750243031E+03  0.50400001928E-02 0. -1.
</event>
<event>
 5   0  0.9027076E-04  0.1177622E+04  0.7818609E-02  0.9132673E-01
       -1   -1    0    0    0  501  0.00000000000E+00  0.00000000000E+00  0.34526627764E+03  0.34526627768E+03  0.50400001928E-02 0.  1.
        1   -1    0    0  501    0  0.00000000000E+00  0.00000000000E+00 -0.10041476724E+04  0.10041476724E+04  0.50400001928E-02 0. -1.
    10030    2    1    2    0    0  0.00000000000E+00  0.00000000000E+00 -0.65888139473E+03  0.13494139501E+04  0.11776218902E+04 0.  0.
        5    1    3    3  502    0 -0.27959365364E+03 -0.45550368123E+03 -0.61249874950E+03  0.81291636895E+03  0.46999998093E+01 0. -1.
       -5    1    3    3    0  502  0.27959365364E+03  0.45550368123E+03 -0.46382645233E+02  0.53649758112E+03  0.46999998093E+01 0.  1.
</event>
<event>
 5   0  0.9098192E-04  0.1282281E+04  0.7818609E-02  0.9043736E-01
        1   -1    0    0  501    0  0.00000000000E+00  0.00000000000E+00  0.13717120921E+04  0.13717120921E+04  0.50400001928E-02 0. -1.
       -1   -1    0    0    0  501  0.00000000000E+00  0.00000000000E+00 -0.29967007846E+03  0.29967007850E+03  0.50400001928E-02 0.  1.
    10030    2    1    2    0    0  0.00000000000E+00  0.00000000000E+00  0.10720420136E+04  0.16713821706E+04  0.12822808901E+04 0.  0.
        1    1    3    3  502    0 -0.15339666506E+03 -0.58416869164E+03  0.25562139133E+03  0.65583983782E+03  0.50400001928E-02 0.  1.
       -1    1    3    3    0  502  0.15339666506E+03  0.58416869164E+03  0.81642062231E+03  0.10155423328E+04  0.50400001928E-02 0. -1.
</event>
<event>
 5   0  0.1714861E-03  0.1307797E+04  0.7818609E-02  0.9023405E-01
        2   -1    0    0  501    0  0.00000000000E+00  0.00000000000E+00  0.70758485680E+03  0.70758485681E+03  0.25500000920E-02 0. -1.
       -2   -1    0    0    0  501  0.00000000000E+00  0.00000000000E+00 -0.60428578880E+03  0.60428578881E+03  0.25500000920E-02 0.  1.
    10030    2    1    2    0    0  0.00000000000E+00  0.00000000000E+00  0.10329906800E+03  0.13118706456E+04  0.13077973442E+04 0.  0.
        1    1    3    3  502    0 -0.34427424079E+03  0.53488926444E+03 -0.10032215077E+03  0.64396879741E+03  0.50400001928E-02 0. -1.
       -1    1    3    3    0  502  0.34427424079E+03 -0.53488926444E+03  0.20362121877E+03  0.66790184820E+03  0.50400001928E-02 0.  1.
</event>
<event>
 5   0  0.9110949E-04  0.1232322E+04  0.7818609E-02  0.9085026E-01
       -1   -1    0    0    0  501  0.00000000000E+00  0.00000000000E+00  0.35708793202E+03  0.35708793206E+03  0.50400001928E-02 0. -1.
        1   -1    0    0  501    0  0.00000000000E+00  0.00000000000E+00 -0.10631964749E+04  0.10631964749E+04  0.50400001928E-02 0.  1.
    10030    2    1    2    0    0  0.00000000000E+00  0.00000000000E+00 -0.70610854287E+03  0.14202844070E+04  0.12323224101E+04 0.  0.
        2    1    3    3  502    0 -0.29047030242E+03  0.31542131753E+03  0.15691894100E+03  0.45660394018E+03  0.25500000920E-02 0. -1.
       -2    1    3    3    0  502  0.29047030242E+03 -0.31542131753E+03 -0.86302748386E+03  0.96368046678E+03  0.25500000920E-02 0.  1.
</event>
<event>
 5   0  0.9215829E-04  0.1303114E+04  0.7818609E-02  0.9027099E-01
        1   -1    0    0  501    0  0.00000000000E+00  0.00000000000E+00  0.12375117545E+04  0.12375117545E+04  0.50400001928E-02 0. -1.
       -1   -1    0    0    0  501  0.00000000000E+00  0.00000000000E+00 -0.34304840118E+03  0.34304840121E+03  0.50400001928E-02 0.  1.
    10030    2    1    2    0    0  0.00000000000E+00  0.00000000000E+00  0.89446335329E+03  0.15805601557E+04  0.13031138536E+04 0.  0.
        3    1    3    3  502    0  0.43711563748E+03  0.16458908585E+03  0.99822781121E+03  0.11020972829E+04  0.10100000352E+00 0. -1.
       -3    1    3    3    0  502 -0.43711563748E+03 -0.16458908585E+03 -0.10376445792E+03  0.47846287279E+03  0.10100000352E+00 0.  1.
</event>
<event>
 5   0  0.9081324E-04  0.1285452E+04  0.7818609E-02  0.9041182E-01
       -1   -1    0    0    0  501  0.00000000000E+00  0.00000000000E+00  0.52491413038E+03  0.52491413040E+03  0.50400001928E-02 0.  1.
        1   -1    0    0  501    0  0.00000000000E+00  0.00000000000E+00 -0.78697997716E+03  0.78697997718E+03  0.50400001928E-02 0. -1.
    10030    2    1    2    0    0  0.00000000000E+00  0.00000000000E+00 -0.26206584678E+03  0.13118941076E+04  0.12854523101E+04 0.  0.
        4    1    3    3  502    0  0.31902583614E+03  0.39559136327E+03  0.27053938649E+03  0.57572839374E+03  0.12699999809E+01 0.  1.
       -4    1    3    3    0  502 -0.31902583614E+03 -0.39559136327E+03 -0.53260523327E+03  0.73616571384E+03  0.12699999809E+01 0. -1.
</event>
<event>
 5   0  0.1714861E-03  0.1313014E+04  0.7818609E-02  0.9019308E-01
       -2   -1    0    0    0  501  0.00000000000E+00  0.00000000000E+00  0.83769209787E+03  0.83769209788E+03  0.25500000920E-02 0. -1.
        2   -1    0    0  501    0  0.00000000000E+00  0.00000000000E+00 -0.51451091107E+03  0.51451091107E+03  0.25500000920E-02 0.  1.
    10030    2    1    2    0    0  0.00000000000E+00  0.00000000000E+00  0.32318118680E+03  0.13522030089E+04  0.13130144317E+04 0.  0.
        1    1    3    3  502    0  0.36114315179E+03 -0.47032419147E+03 -0.12854929333E+03  0.60675707001E+03  0.50400001928E-02 0.  1.
       -1    1    3    3    0  502 -0.36114315179E+03  0.47032419147E+03  0.45173048014E+03  0.74544593894E+03  0.50400001928E-02 0. -1.
</event>
<event>
 5   0  0.9110949E-04  0.1300743E+04  0.7818609E-02  0.9028976E-01
        1   -1    0    0  501    0  0.00000000000E+00  0.00000000000E+00  0.11054820201E+04  0.11054820201E+04  0.50400001928E-02 0.  1.
       -1   -1    0    0    0  501  0.00000000000E+00  0.00000000000E+00 -0.38262333061E+03  0.38262333064E+03  0.50400001928E-02 0. -1.
    10030    2    1    2    0    0  0.00000000000E+00  0.00000000000E+00  0.72285868950E+03  0.14881053508E+04  0.13007431914E+04 0.  0.
        2    1    3    3  502    0  0.41322838819E+03 -0.49923839575E+03  0.29890833461E+03  0.71368261090E+03  0.25500000920E-02 0. -1.
       -2    1    3    3    0  502 -0.41322838819E+03  0.49923839575E+03  0.42395035488E+03  0.77442273986E+03  0.25500000920E-02 0.  1.
</event>
<event>
 5   0  0.9215829E-04  0.1281368E+04  0.7818609E-02  0.9044472E-01
        1   -1    0    0  501    0  0.00000000000E+00  0.00000000000E+00  0.76980205912E+03  0.76980205914E+03  0.50400001928E-02 0.  1.
       -1   -1    0    0    0  501  0.00000000000E+00  0.00000000000E+00 -0.53322291370E+03  0.53322291372E+03  0.50400001928E-02 0. -1.
    10030    2    1    2    0    0  0.00000000000E+00  0.00000000000E+00  0.23657914542E+03  0.13030249729E+04  0.12813681703E+04 0.  0.
        3    1    3    3  502    0 -0.54186697414E+03 -0.77360032148E+02  0.45689128504E+03  0.71298951520E+03  0.10100000352E+00 0.  1.
       -3    1    3    3    0  502  0.54186697414E+03  0.77360032148E+02 -0.22031213962E+03  0.59003545766E+03  0.10100000352E+00 0. -1.
</event>
<event>
 5   0  0.9027076E-04  0.1303117E+04  0.7818609E-02  0.9027097E-01
       -1   -1    0    0    0  501  0.00000000000E+00  0.00000000000E+00  0.45116171540E+03  0.45116171543E+03  0.50400001928E-02 0. -1.
        1   -1    0    0  501    0  0.00000000000E+00  0.00000000000E+00 -0.94096801800E+03  0.94096801801E+03  0.50400001928E-02 0.  1.
    10030    2    1    2    0    0  0.00000000000E+00  0.00000000000E+00 -0.48980630260E+03  0.13921297334E+04  0.13031174086E+04 0.  0.
        5    1    3    3  502    0  0.57198570414E+03  0.28573731633E+03 -0.11107365143E+03  0.64897835536E+03  0.46999998093E+01 0. -1.
       -5    1    3    3    0  502 -0.57198570414E+03 -0.28573731633E+03 -0.37873265118E+03  0.74315137808E+03  0.46999998093E+01 0.  1.
</event>
<event>
 5   0  0.1714861E-03  0.1304267E+04  0.7818609E-02  0.9026188E-01
       -2   -1    0    0    0  501  0.00000000000E+00  0.00000000000E+00  0.10442986486E+04  0.10442986486E+04  0.25500000920E-02 0.  1.
        2   -1    0    0  501    0  0.00000000000E+00  0.00000000000E+00 -0.40723795663E+03  0.40723795663E+03  0.25500000920E-02 0. -1.
    10030    2    1    2    0    0  0.00000000000E+00  0.00000000000E+00  0.63706069199E+03  0.14515366053E+04  0.13042669171E+04 0.  0.
        1    1    3    3  502    0 -0.32472915559E+02  0.54826731427E+03  0.70983707651E+03  0.89750777900E+03  0.50400001928E-02 0.  1.
       -1    1    3    3    0  502  0.32472915559E+02 -0.54826731427E+03 -0.72776384527E+02  0.55402882625E+03  0.50400001928E-02 0. -1.
</event>
<event>
 5   0  0.6284125E-04  0.1279878E+04  0.7818609E-02  0.9045676E-01
       -3   -1    0    0    0  501  0.00000000000E+00  0.00000000000E+00  0.45960410050E+03  0.45960411160E+03  0.10100000352E+00 0. -1.
        3   -1    0    0  501    0  0.00000000000E+00  0.00000000000E+00 -0.89103182125E+03  0.89103182697E+03  0.10100000352E+00 0.  1.
    10030    2    1    2    0    0  0.00000000000E+00  0.00000000000E+00 -0.43142772074E+03  0.13506359386E+04  0.12798779474E+04 0.  0.
        3    1    3    3  502    0  0.16550834948E+03  0.54996696756E+03  0.82140575795E+02  0.58017563164E+03  0.10100000352E+00 0. -1.
       -3    1    3    3    0  502 -0.16550834948E+03 -0.54996696756E+03 -0.51356829654E+03  0.77046030694E+03  0.10100000352E+00 0.  1.
</event>
<event>
 5   0  0.9027076E-04  0.1301726E+04  0.7818609E-02  0.9028198E-01
        1   -1    0    0  501    0  0.00000000000E+00  0.00000000000E+00  0.62891342018E+03  0.62891342020E+03  0.50400001928E-02 0.  1.
       -1   -1    0    0    0  501  0.00000000000E+00  0.00000000000E+00 -0.67357841871E+03  0.67357841873E+03  0.50400001928E-02 0. -1.
    10030    2    1    2    0    0  0.00000000000E+00  0.00000000000E+00 -0.44664998531E+02  0.13024918389E+04  0.13017257885E+04 0.  0.
        5    1    3    3  502    0 -0.44699583334E+03 -0.25128592620E+03 -0.42338070450E+03  0.66499864863E+03  0.46999998093E+01 0. -1.
       -5    1    3    3    0  502  0.44699583334E+03  0.25128592620E+03  0.37871570597E+03  0.63749319030E+03  0.46999998093E+01 0.  1.
</event>
<event>
 5   0  0.1700511E-03  0.1308383E+04  0.7818609E-02  0.9022944E-01
       -2   -1    0    0    0  501  0.00000000000E+00  0.00000000000E+00  0.28834957425E+04  0.28834957425E+04  0.25500000920E-02 0.  1.
        2   -1    0    0  501    0  0.00000000000E+00  0.00000000000E+00 -0.14841924964E+03  0.14841924966E+03  0.25500000920E-02 0. -1.
    10030    2    1    2    0    0  0.00000000000E+00  0.00000000000E+00  0.27350764928E+04  0.30319149921E+04  0.13083826267E+04 0.  0.
        2    1    3    3  502    0  0.17113547248E+02  0.37870655933E+03  0.13205713053E+03  0.40143569511E+03  0.25500000920E-02 0. -1.
       -2    1    3    3    0  502 -0.17113547248E+02 -0.37870655933E+03  0.26030193623E+04  0.26304792970E+04  0.25500000920E-02 0.  1.
</event>
<event>
 5   0  0.9110949E-04  0.1305315E+04  0.7818609E-02  0.9025361E-01
        1   -1    0    0  501    0  0.00000000000E+00  0.00000000000E+00  0.10574591828E+04  0.10574591828E+04  0.50400001928E-02 0. -1.
       -1   -1    0    0    0  501  0.00000000000E+00  0.00000000000E+00 -0.40281638718E+03  0.40281638721E+03  0.50400001928E-02 0.  1.
    10030    2    1    2    0    0  0.00000000000E+00  0.00000000000E+00  0.65464279563E+03  0.14602755700E+04  0.13053151154E+04 0.  0.
        2    1    3    3  502    0 -0.59797949427E+02 -0.19314886378E+03  0.10215375495E+04  0.10413554837E+04  0.25500000920E-02 0. -1.
       -2    1    3    3    0  502  0.59797949427E+02  0.19314886378E+03 -0.36689475387E+03  0.41892008636E+03  0.25500000920E-02 0.  1.
</event>
<event>
 5   0  0.1667342E-03  0.1319062E+04  0.7818609E-02  0.9014584E-01
        2   -1    0    0  501    0  0.00000000000E+00  0.00000000000E+00  0.91369916781E+03  0.91369916782E+03  0.25500000920E-02 0.  1.
       -2   -1    0    0    0  501  0.00000000000E+00  0.00000000000E+00 -0.47606571043E+03  0.47606571044E+03  0.25500000920E-02 0. -1.
    10030    2    1    2    0    0  0.00000000000E+00  0.00000000000E+00  0.43763345738E+03  0.13897648783E+04  0.13190615504E+04 0.  0.
        5    1    3    3  502    0  0.58408658195E+03 -0.29168278883E+03  0.31721862214E+03  0.72586894736E+03  0.46999998093E+01 0.  1.
       -5    1    3    3    0  502 -0.58408658195E+03  0.29168278883E+03  0.12041483524E+03  0.66389593089E+03  0.46999998093E+01 0. -1.
</event>
<event>
 5   0  0.1694675E-03  0.1300241E+04  0.7818609E-02  0.9029374E-01
        2   -1    0    0  501    0  0.00000000000E+00  0.00000000000E+00  0.97774953014E+03  0.97774953015E+03  0.25500000920E-02 0. -1.
       -2   -1    0    0    0  501  0.00000000000E+00  0.00000000000E+00 -0.43227492332E+03  0.43227492333E+03  0.25500000920E-02 0.  1.
    10030    2    1    2    0    0  0.00000000000E+00  0.00000000000E+00  0.54547460682E+03  0.14100244535E+04  0.13002409056E+04 0.  0.
        4    1    3    3  502    0 -0.56036961502E+03  0.30940867100E+03  0.39593941525E+03  0.75267354449E+03  0.12699999809E+01 0. -1.
       -4    1    3    3    0  502  0.56036961502E+03 -0.30940867100E+03  0.14953519157E+03  0.65735090899E+03  0.12699999809E+01 0.  1.
</event>
<event>
 5   0  0.1694675E-03  0.1542703E+04  0.7818609E-02  0.8856542E-01
        2   -1    0    0  501    0  0.00000000000E+00  0.00000000000E+00  0.73879825591E+03  0.73879825591E+03  0.25500000920E-02 0. -1.
       -2   -1    0    0    0  501  0.00000000000E+00  0.00000000000E+00 -0.80533876840E+03  0.80533876841E+03  0.25500000920E-02 0.  1.
    10030    2    1    2    0    0  0.00000000000E+00  0.00000000000E+00 -0.66540512493E+02  0.15441370243E+04  0.15427026642E+04 0.  0.
        4    1    3    3  502    0  0.76710727081E+03  0.31810694486E+01  0.47536338979E+02  0.76858636506E+03  0.12699999809E+01 0. -1.
       -4    1    3    3    0  502 -0.76710727081E+03 -0.31810694486E+01 -0.11407685147E+03  0.77555065926E+03  0.12699999809E+01 0.  1.
</event>
<event>
 5   0  0.9027076E-04  0.1274071E+04  0.7818609E-02  0.9050383E-01
       -1   -1    0    0    0  501  0.00000000000E+00  0.00000000000E+00  0.55699804093E+03  0.55699804095E+03  0.50400001928E-02 0. -1.
        1   -1    0    0  501    0  0.00000000000E+00  0.00000000000E+00 -0.72857428334E+03  0.72857428336E+03  0.50400001928E-02 0.  1.
    10030    2    1    2    0    0  0.00000000000E+00  0.00000000000E+00 -0.17157624241E+03  0.12855723243E+04  0.12740713458E+04 0.  0.
        5    1    3    3  502    0 -0.60711930520E+03  0.12134649533E+03 -0.23705312739E+03  0.66297443230E+03  0.46999998093E+01 0. -1.
       -5    1    3    3    0  502  0.60711930520E+03 -0.12134649533E+03  0.65476884983E+02  0.62259789201E+03  0.46999998093E+01 0.  1.
</event>
<event>
 5   0  0.9027076E-04  0.1239786E+04  0.7818609E-02  0.9078727E-01
        1   -1    0    0  501    0  0.00000000000E+00  0.00000000000E+00  0.71504768255E+03  0.71504768257E+03  0.50400001928E-02 0.  1.
       -1   -1    0    0    0  501  0.00000000000E+00  0.00000000000E+00 -0.53740140622E+03  0.53740140624E+03  0.50400001928E-02 0. -1.
    10030    2    1    2    0    0  0.00000000000E+00  0.00000000000E+00  0.17764627634E+03  0.12524490888E+04  0.12397864818E+04 0.  0.
        5    1    3    3  502    0 -0.45378062959E+03 -0.10511742515E+03 -0.32435173811E+03  0.56762018364E+03  0.46999998093E+01 0. -1.
       -5    1    3    3    0  502  0.45378062959E+03  0.10511742515E+03  0.50199801445E+03  0.68482890518E+03  0.46999998093E+01 0.  1.
</event>
<event>
 5   0  0.9027076E-04  0.1296717E+04  0.7818609E-02  0.9032172E-01
       -1   -1    0    0    0  501  0.00000000000E+00  0.00000000000E+00  0.72574104855E+03  0.72574104857E+03  0.50400001928E-02 0. -1.
        1   -1    0    0  501    0  0.00000000000E+00  0.00000000000E+00 -0.57922723753E+03  0.57922723755E+03  0.50400001928E-02 0.  1.
    10030    2    1    2    0    0  0.00000000000E+00  0.00000000000E+00  0.14651381102E+03  0.13049682861E+04  0.12967173674E+04 0.  0.
        5    1    3    3  502    0  0.34552811001E+03 -0.38132880461E+03  0.47015904525E+03  0.69704587357E+03  0.46999998093E+01 0. -1.
       -5    1    3    3    0  502 -0.34552811001E+03  0.38132880461E+03 -0.32364523423E+03  0.60792241254E+03  0.46999998093E+01 0.  1.
</event>
<event>
 5   0  0.1714861E-03  0.1296569E+04  0.7818609E-02  0.9032290E-01
        2   -1    0    0  501    0  0.00000000000E+00  0.00000000000E+00  0.33966916006E+03  0.33966916007E+03  0.25500000920E-02 0.  1.
       -2   -1    0    0    0  501  0.00000000000E+00  0.00000000000E+00 -0.12373004334E+04  0.12373004334E+04  0.25500000920E-02 0. -1.
    10030    2    1    2    0    0  0.00000000000E+00  0.00000000000E+00 -0.89763127330E+03  0.15769695934E+04  0.12965690093E+04 0.  0.
        1    1    3    3  502    0 -0.34570537433E+03 -0.46024731187E+03 -0.86105939908E+02  0.58202579568E+03  0.50400001928E-02 0.  1.
       -1    1    3    3    0  502  0.34570537433E+03  0.46024731187E+03 -0.81152533340E+03  0.99494379776E+03  0.50400001928E-02 0. -1.
</event>
<event>
 5   0  0.1667342E-03  0.1277237E+04  0.7818609E-02  0.9047814E-01
        2   -1    0    0  501    0  0.00000000000E+00  0.00000000000E+00  0.59517940777E+03  0.59517940778E+03  0.25500000920E-02 0.  1.
       -2   -1    0    0    0  501  0.00000000000E+00  0.00000000000E+00 -0.68522764706E+03  0.68522764706E+03  0.25500000920E-02 0. -1.
    10030    2    1    2    0    0  0.00000000000E+00  0.00000000000E+00 -0.90048239287E+02  0.12804070548E+04  0.12772366815E+04 0.  0.
        5    1    3    3  502    0  0.42462347667E+03 -0.43660257080E+03  0.14750569750E+03  0.62666332473E+03  0.46999998093E+01 0.  1.
       -5    1    3    3    0  502 -0.42462347667E+03  0.43660257080E+03 -0.23755393679E+03  0.65374373011E+03  0.46999998093E+01 0. -1.
</event>
<event>
 5   0  0.9215829E-04  0.1297672E+04  0.7818609E-02  0.9031413E-01
       -1   -1    0    0    0  501  0.00000000000E+00  0.00000000000E+00  0.64039517744E+03  0.64039517746E+03  0.50400001928E-02 0.  1.
        1   -1    0    0  501    0  0.00000000000E+00  0.00000000000E+00 -0.65738800532E+03  0.65738800534E+03  0.50400001928E-02 0. -1.
    10030    2    1    2    0    0  0.00000000000E+00  0.00000000000E+00 -0.16992827879E+02  0.12977831828E+04  0.12976719282E+04 0.  0.
        3    1    3    3  502    0 -0.90104814341E+02  0.63514891643E+03 -0.10574195797E+03  0.65016489869E+03  0.10100000352E+00 0.  1.
       -3    1    3    3    0  502  0.90104814341E+02 -0.63514891643E+03  0.88749130093E+02  0.64761828410E+03  0.10100000352E+00 0. -1.
</event>
<event>
 5   0  0.1694675E-03  0.1303799E+04  0.7818609E-02  0.9026558E-01
        2   -1    0    0  501    0  0.00000000000E+00  0.00000000000E+00  0.77893405337E+03  0.77893405337E+03  0.25500000920E-02 0.  1.
       -2   -1    0    0    0  501  0.00000000000E+00  0.00000000000E+00 -0.54558305760E+03  0.54558305761E+03  0.25500000920E-02 0. -1.
    10030    2    1    2    0    0  0.00000000000E+00  0.00000000000E+00  0.23335099577E+03  0.13245171110E+04  0.13037994056E+04 0.  0.
        4    1    3    3  502    0  0.37267729489E+03 -0.24389416367E+03  0.60026367474E+03  0.74745623370E+03  0.12699999809E+01 0.  1.
       -4    1    3    3    0  502 -0.37267729489E+03  0.24389416367E+03 -0.36691267897E+03  0.57706087727E+03  0.12699999809E+01 0. -1.
</event>
<event>
 5   0  0.1714861E-03  0.1308111E+04  0.7818609E-02  0.9023158E-01
        2   -1    0    0  501    0  0.00000000000E+00  0.00000000000E+00  0.96573288292E+03  0.96573288292E+03  0.25500000920E-02 0. -1.
       -2   -1    0    0    0  501  0.00000000000E+00  0.00000000000E+00 -0.44296768789E+03  0.44296768790E+03  0.25500000920E-02 0.  1.
    10030    2    1    2    0    0  0.00000000000E+00  0.00000000000E+00  0.52276519503E+03  0.14087005708E+04  0.13081107939E+04 0.  0.
        1    1    3    3  502    0 -0.48441499482E+03  0.19129903153E+03 -0.16468670443E+03  0.54623705231E+03  0.50400001928E-02 0.  1.
       -1    1    3    3    0  502  0.48441499482E+03 -0.19129903153E+03  0.68745189946E+03  0.86246351851E+03  0.50400001928E-02 0. -1.
</event>
<event>
 5   0  0.9215829E-04  0.1291228E+04  0.7818609E-02  0.9036551E-01
       -1   -1    0    0    0  501  0.00000000000E+00  0.00000000000E+00  0.44944923641E+03  0.44944923643E+03  0.50400001928E-02 0. -1.
        1   -1    0    0  501    0  0.00000000000E+00  0.00000000000E+00 -0.92739589880E+03  0.92739589881E+03  0.50400001928E-02 0.  1.
    10030    2    1    2    0    0  0.00000000000E+00  0.00000000000E+00 -0.47794666239E+03  0.13768451352E+04  0.12912279095E+04 0.  0.
        3    1    3    3  502    0  0.14890799871E+03 -0.54479886236E+03 -0.57250411144E+03  0.80420169132E+03  0.10100000352E+00 0.  1.
       -3    1    3    3    0  502 -0.14890799871E+03  0.54479886236E+03  0.94557449043E+02  0.57264344393E+03  0.10100000352E+00 0. -1.
</event>
<event>
 5   0  0.1623890E-03  0.1300059E+04  0.7818609E-02  0.9029519E-01
       -2   -1    0    0    0  501  0.00000000000E+00  0.00000000000E+00  0.51762268045E+03  0.51762268046E+03  0.25500000920E-02 0.  1.
        2   -1    0    0  501    0  0.00000000000E+00  0.00000000000E+00 -0.81630544634E+03  0.81630544634E+03  0.25500000920E-02 0. -1.
    10030    2    1    2    0    0  0.00000000000E+00  0.00000000000E+00 -0.29868276589E+03  0.13339281268E+04  0.13000587882E+04 0.  0.
        3    1    3    3  502    0 -0.50700722361E+03  0.21568184501E+02 -0.56614682100E+03  0.76029188113E+03  0.10100000352E+00 0. -1.
       -3    1    3    3    0  502  0.50700722361E+03 -0.21568184501E+02  0.26746405511E+03  0.57363624568E+03  0.10100000352E+00 0.  1.
</event>
<event>
 5   0  0.9215829E-04  0.1323911E+04  0.7818609E-02  0.9010816E-01
        1   -1    0    0  501    0  0.00000000000E+00  0.00000000000E+00  0.87286208120E+03  0.87286208122E+03  0.50400001928E-02 0. -1.
       -1   -1    0    0    0  501  0.00000000000E+00  0.00000000000E+00 -0.50200936016E+03  0.50200936018E+03  0.50400001928E-02 0.  1.
    10030    2    1    2    0    0  0.00000000000E+00  0.00000000000E+00  0.37085272105E+03  0.13748714414E+04  0.13239107748E+04 0.  0.
        3    1    3    3  502    0  0.30815866006E+03 -0.54747857472E+03 -0.31144464646E+02  0.62901870992E+03  0.10100000352E+00 0.  1.
       -3    1    3    3    0  502 -0.30815866006E+03  0.54747857472E+03  0.40199718569E+03  0.74585273148E+03  0.10100000352E+00 0. -1.
</event>
<event>
 5   0  0.9027076E-04  0.1303193E+04  0.7818609E-02  0.9027037E-01
        1   -1    0    0  501    0  0.00000000000E+00  0.00000000000E+00  0.22513180830E+04  0.22513180830E+04  0.50400001928E-02 0. -1.
       -1   -1    0    0    0  501  0.00000000000E+00  0.00000000000E+00 -0.18859093796E+03  0.18859093802E+03  0.50400001928E-02 0.  1.
    10030    2    1    2    0    0  0.00000000000E+00  0.00000000000E+00  0.20627271450E+04  0.24399090210E+04  0.13031932919E+04 0.  0.
        5    1    3    3  502    0  0.62061773251E+03 -0.16958593211E+03  0.83832753717E+03  0.10567596263E+04  0.46999998093E+01 0.  1.
       -5    1    3    3    0  502 -0.62061773251E+03  0.16958593211E+03  0.12243996078E+04  0.13831493947E+04  0.46999998093E+01 0. -1.
</event>
<event>
 5   0  0.9098192E-04  0.1303318E+04  0.7818609E-02  0.9026938E-01
       -1   -1    0    0    0  501  0.00000000000E+00  0.00000000000E+00  0.38303048336E+03  0.38303048339E+03  0.50400001928E-02 0.  1.
        1   -1    0    0  501    0  0.00000000000E+00  0.00000000000E+00 -0.11086831566E+04  0.11086831566E+04  0.50400001928E-02 0. -1.
    10030    2    1    2    0    0  0.00000000000E+00  0.00000000000E+00 -0.72565267326E+03  0.14917136400E+04  0.13033179895E+04 0.  0.
        1    1    3    3  502    0 -0.26242279731E+03 -0.39352706921E+03 -0.87587391648E+03  0.99543176378E+03  0.50400001928E-02 0. -1.
       -1    1    3    3    0  502  0.26242279731E+03  0.39352706921E+03  0.15022124322E+03  0.49628187625E+03  0.50400001928E-02 0.  1.
</event>
<event>
 5   0  0.9098192E-04  0.1299427E+04  0.7818609E-02  0.9030019E-01
        1   -1    0    0  501    0  0.00000000000E+00  0.00000000000E+00  0.12078436300E+04  0.12078436300E+04  0.50400001928E-02 0. -1.
       -1   -1    0    0    0  501  0.00000000000E+00  0.00000000000E+00 -0.34948885586E+03  0.34948885589E+03  0.50400001928E-02 0.  1.
    10030    2    1    2    0    0  0.00000000000E+00  0.00000000000E+00  0.85835477411E+03  0.15573324859E+04  0.12994273944E+04 0.  0.
        1    1    3    3  502    0  0.11906301916E+03  0.62055651453E+03  0.61038718131E+03  0.87854362521E+03  0.50400001928E-02 0. -1.
       -1    1    3    3    0  502 -0.11906301916E+03 -0.62055651453E+03  0.24796759280E+03  0.67878886066E+03  0.50400001928E-02 0.  1.
</event>
<event>
 5   0  0.1623890E-03  0.1337056E+04  0.7818609E-02  0.9000685E-01
       -2   -1    0    0    0  501  0.00000000000E+00  0.00000000000E+00  0.19699688159E+03  0.19699688161E+03  0.25500000920E-02 0.  1.
        2   -1    0    0  501    0  0.00000000000E+00  0.00000000000E+00 -0.22687135316E+04  0.22687135316E+04  0.25500000920E-02 0. -1.
    10030    2    1    2    0    0  0.00000000000E+00  0.00000000000E+00 -0.20717166500E+04  0.24657104132E+04  0.13370557071E+04 0.  0.
        3    1    3    3  502    0 -0.17897701909E+03  0.12847734735E+03  0.12812546810E+03  0.25486339070E+03  0.10100000352E+00 0.  1.
       -3    1    3    3    0  502  0.17897701909E+03 -0.12847734735E+03 -0.21998421181E+04  0.22108470225E+04  0.10100000352E+00 0. -1.
</event>
<event>
 5   0  0.9098192E-04  0.1317552E+04  0.7818609E-02  0.9015761E-01
       -1   -1    0    0    0  501  0.00000000000E+00  0.00000000000E+00  0.27198790105E+03  0.27198790110E+03  0.50400001928E-02 0.  1.
        1   -1    0    0  501    0  0.00000000000E+00  0.00000000000E+00 -0.15956069178E+04  0.15956069178E+04  0.50400001928E-02 0. -1.
    10030    2    1    2    0    0  0.00000000000E+00  0.00000000000E+00 -0.13236190168E+04  0.18675948189E+04  0.13175519368E+04 0.  0.
        1    1    3    3  502    0  0.21534679418E+03 -0.33427474675E+03  0.82697297285E+02  0.40614368280E+03  0.50400001928E-02 0.  1.
       -1    1    3    3    0  502 -0.21534679418E+03  0.33427474675E+03 -0.14063163141E+04  0.14614511361E+04  0.50400001928E-02 0. -1.
</event>
<event>
 5   0  0.9110949E-04  0.1304988E+04  0.7818609E-02  0.9025619E-01
        1   -1    0    0  501    0  0.00000000000E+00  0.00000000000E+00  0.95790270535E+03  0.95790270536E+03  0.50400001928E-02 0. -1.
       -1   -1    0    0    0  501  0.00000000000E+00  0.00000000000E+00 -0.44445873462E+03  0.44445873464E+03  0.50400001928E-02 0.  1.
    10030    2    1    2    0    0  0.00000000000E+00  0.00000000000E+00  0.51344397073E+03  0.14023614400E+04  0.13049877001E+04 0.  0.
        2    1    3    3  502    0 -0.53866501369E+03 -0.36812527760E+03  0.24760309568E+03  0.69784203798E+03  0.25500000920E-02 0.  1.
       -2    1    3    3    0  502  0.53866501369E+03  0.36812527760E+03  0.26584087505E+03  0.70451940203E+03  0.25500000920E-02 0. -1.
</event>
<event>
 5   0  0.9027076E-04  0.1304334E+04  0.7818609E-02  0.9026136E-01
       -1   -1    0    0    0  501  0.00000000000E+00  0.00000000000E+00  0.67443283480E+03  0.67443283482E+03  0.50400001928E-02 0. -1.
        1   -1    0    0  501    0  0.00000000000E+00  0.00000000000E+00 -0.63063579811E+03  0.63063579813E+03  0.50400001928E-02 0.  1.
    10030    2    1    2    0    0  0.00000000000E+00  0.00000000000E+00  0.43797036696E+02  0.13050686329E+04  0.13043335295E+04 0.  0.
        5    1    3    3  502    0 -0.33986820067E+03 -0.22015777126E+03 -0.48958383307E+03  0.63536938679E+03  0.46999998093E+01 0.  1.
       -5    1    3    3    0  502  0.33986820067E+03  0.22015777126E+03  0.53338086976E+03  0.66969924615E+03  0.46999998093E+01 0. -1.
</event>
<event>
 5   0  0.1714861E-03  0.1287069E+04  0.7818609E-02  0.9039883E-01
        2   -1    0    0  501    0  0.00000000000E+00  0.00000000000E+00  0.82519749089E+03  0.82519749089E+03  0.25500000920E-02 0. -1.
       -2   -1    0    0    0  501  0.00000000000E+00  0.00000000000E+00 -0.50186381070E+03  0.50186381071E+03  0.25500000920E-02 0.  1.
    10030    2    1    2    0    0  0.00000000000E+00  0.00000000000E+00  0.32333368019E+03  0.13270613016E+04  0.12870691627E+04 0.  0.
        1    1    3    3  502    0 -0.56788262025E+02 -0.59611502401E+02  0.81974487456E+03  0.82386898067E+03  0.50400001928E-02 0. -1.
       -1    1    3    3    0  502  0.56788262025E+02  0.59611502401E+02 -0.49641119437E+03  0.50319232093E+03  0.50400001928E-02 0.  1.
</event>
<event>
 5   0  0.1623890E-03  0.1441279E+04  0.7818609E-02  0.8924469E-01
        2   -1    0    0  501    0  0.00000000000E+00  0.00000000000E+00  0.16865726512E+04  0.16865726512E+04  0.25500000920E-02 0.  1.
       -2   -1    0    0    0  501  0.00000000000E+00  0.00000000000E+00 -0.30791512127E+03  0.30791512128E+03  0.25500000920E-02 0. -1.
    10030    2    1    2    0    0  0.00000000000E+00  0.00000000000E+00  0.13786575300E+04  0.19944877725E+04  0.14412789077E+04 0.  0.
        3    1    3    3  502    0 -0.17634497009E+03 -0.26262550289E+03  0.15853548734E+04  0.16166074935E+04  0.10100000352E+00 0.  1.
       -3    1    3    3    0  502  0.17634497009E+03  0.26262550289E+03 -0.20669734347E+03  0.37788027898E+03  0.10100000352E+00 0. -1.
</event>
<event>
 5   0  0.9081324E-04  0.1305545E+04  0.7818609E-02  0.9025179E-01
        1   -1    0    0  501    0  0.00000000000E+00  0.00000000000E+00  0.28617073168E+04  0.28617073168E+04  0.50400001928E-02 0. -1.
       -1   -1    0    0    0  501  0.00000000000E+00  0.00000000000E+00 -0.14890137863E+03  0.14890137872E+03  0.50400001928E-02 0.  1.
    10030    2    1    2    0    0  0.00000000000E+00  0.00000000000E+00  0.27128059382E+04  0.30106086955E+04  0.13055453494E+04 0.  0.
        4    1    3    3  502    0 -0.25507958598E+03 -0.54031942996E+03  0.19625820794E+04  0.20515215604E+04  0.12699999809E+01 0. -1.
       -4    1    3    3    0  502  0.25507958598E+03  0.54031942996E+03  0.75022385882E+03  0.95908713515E+03  0.12699999809E+01 0.  1.
</event>
<event>
 5   0  0.9110949E-04  0.1281615E+04  0.7818609E-02  0.9044273E-01
       -1   -1    0    0    0  501  0.00000000000E+00  0.00000000000E+00  0.24479837247E+03  0.24479837252E+03  0.50400001928E-02 0.  1.
        1   -1    0    0  501    0  0.00000000000E+00  0.00000000000E+00 -0.16774374286E+04  0.16774374286E+04  0.50400001928E-02 0. -1.
    10030    2    1    2    0    0  0.00000000000E+00  0.00000000000E+00 -0.14326390562E+04  0.19222358012E+04  0.12816145326E+04 0.  0.
        2    1    3    3  502    0  0.13712477116E+03 -0.18306378277E+03  0.18148913989E+03  0.29198263533E+03  0.25500000920E-02 0.  1.
       -2    1    3    3    0  502 -0.13712477116E+03  0.18306378277E+03 -0.16141281961E+04  0.16302531658E+04  0.25500000920E-02 0. -1.
</event>
<event>
 5   0  0.9081324E-04  0.1366124E+04  0.7818609E-02  0.8978711E-01
       -1   -1    0    0    0  501  0.00000000000E+00  0.00000000000E+00  0.24787398986E+03  0.24787398991E+03  0.50400001928E-02 0.  1.
        1   -1    0    0  501    0  0.00000000000E+00  0.00000000000E+00 -0.18823021308E+04  0.18823021308E+04  0.50400001928E-02 0. -1.
    10030    2    1    2    0    0  0.00000000000E+00  0.00000000000E+00 -0.16344281409E+04  0.21301761207E+04  0.13661240637E+04 0.  0.
        4    1    3    3  502    0  0.28234637984E+02  0.90307069557E+02 -0.18720323869E+04  0.18744224263E+04  0.12699999809E+01 0. -1.
       -4    1    3    3    0  502 -0.28234637984E+02 -0.90307069557E+02  0.23760424600E+03  0.25575369442E+03  0.12699999809E+01 0.  1.
</event>
<event>
 5   0  0.9098192E-04  0.1290138E+04  0.7818609E-02  0.9037423E-01
        1   -1    0    0  501    0  0.00000000000E+00  0.00000000000E+00  0.10925798294E+04  0.10925798294E+04  0.50400001928E-02 0. -1.
       -1   -1    0    0    0  501  0.00000000000E+00  0.00000000000E+00 -0.38085430045E+03  0.38085430048E+03  0.50400001928E-02 0.  1.
    10030    2    1    2    0    0  0.00000000000E+00  0.00000000000E+00  0.71172552891E+03  0.14734341298E+04  0.12901375533E+04 0.  0.
        1    1    3    3  502    0  0.22344286606E+03 -0.24535515010E+03  0.98761503065E+03  0.10418777821E+04  0.50400001928E-02 0. -1.
       -1    1    3    3    0  502 -0.22344286606E+03  0.24535515010E+03 -0.27588950174E+03  0.43155634773E+03  0.50400001928E-02 0.  1.
</event>
<event>
 5   0  0.6284125E-04  0.1307525E+04  0.7818609E-02  0.9023619E-01
        3   -1    0    0  501    0  0.00000000000E+00  0.00000000000E+00  0.11249209284E+04  0.11249209330E+04  0.10100000352E+00 0. -1.
       -3   -1    0    0    0  501  0.00000000000E+00  0.00000000000E+00 -0.37994237602E+03  0.37994238944E+03  0.10100000352E+00 0.  1.
    10030    2    1    2    0    0  0.00000000000E+00  0.00000000000E+00  0.74497855242E+03  0.15048633224E+04  0.13075245985E+04 0.  0.
        4    1    3    3  502    0 -0.50847934211E+03  0.41084655595E+03  0.38120878777E+03  0.75674823202E+03  0.12699999809E+01 0. -1.
       -4    1    3    3    0  502  0.50847934211E+03 -0.41084655595E+03  0.36376976465E+03  0.74811509039E+03  0.12699999809E+01 0.  1.
</event>
<event>
 5   0  0.9081324E-04  0.1206903E+04  0.7818609E-02  0.9106836E-01
       -1   -1    0    0    0  501  0.00000000000E+00  0.00000000000E+00  0.39563957182E+03  0.39563957185E+03  0.50400001928E-02 0. -1.
        1   -1    0    0  501    0  0.00000000000E+00  0.00000000000E+00 -0.92041770072E+03  0.92041770074E+03  0.50400001928E-02 0.  1.
    10030    2    1    2    0    0  0.00000000000E+00  0.00000000000E+00 -0.52477812890E+03  0.13160572726E+04  0.12069029208E+04 0.  0.
        4    1    3    3  502    0 -0.14007175639E+03  0.74887687556E+02  0.37243514120E+03  0.40489234370E+03  0.12699999809E+01 0. -1.
       -4    1    3    3    0  502  0.14007175639E+03 -0.74887687556E+02 -0.89721327010E+03  0.91116492889E+03  0.12699999809E+01 0.  1.
</event>
<event>
 5   0  0.1694675E-03  0.1299359E+04  0.7818609E-02  0.9030074E-01
        2   -1    0    0  501    0  0.00000000000E+00  0.00000000000E+00  0.12832798359E+04  0.12832798359E+04  0.25500000920E-02 0. -1.
       -2   -1    0    0    0  501  0.00000000000E+00  0.00000000000E+00 -0.32890994894E+03  0.32890994895E+03  0.25500000920E-02 0.  1.
    10030    2    1    2    0    0  0.00000000000E+00  0.00000000000E+00  0.95436988692E+03  0.16121897848E+04  0.12993590809E+04 0.  0.
        4    1    3    3  502    0  0.23935018907E+03 -0.83947370553E+02  0.12193055740E+04  0.12454089167E+04  0.12699999809E+01 0. -1.
       -4    1    3    3    0  502 -0.23935018907E+03  0.83947370553E+02 -0.26493568710E+03  0.36678086813E+03  0.12699999809E+01 0.  1.
</event>
<event>
 5   0  0.6284125E-04  0.1301800E+04  0.7818609E-02  0.9028139E-01
       -3   -1    0    0    0  501  0.00000000000E+00  0.00000000000E+00  0.83926645607E+03  0.83926646215E+03  0.10100000352E+00 0. -1.
        3   -1    0    0  501    0  0.00000000000E+00  0.00000000000E+00 -0.50481069772E+03  0.50481070782E+03  0.10100000352E+00 0.  1.
    10030    2    1    2    0    0  0.00000000000E+00  0.00000000000E+00  0.33445575835E+03  0.13440771700E+04  0.13017998251E+04 0.  0.
        5    1    3    3  502    0 -0.56705165987E+03  0.28930958460E+03  0.30728349786E+03  0.70688956617E+03  0.46999998093E+01 0. -1.
       -5    1    3    3    0  502  0.56705165987E+03 -0.28930958460E+03  0.27172260490E+02  0.63718760380E+03  0.46999998093E+01 0.  1.
</event>
<event>
 5   0  0.1694675E-03  0.1301544E+04  0.7818609E-02  0.9028341E-01
       -2   -1    0    0    0  501  0.00000000000E+00  0.00000000000E+00  0.25847529953E+03  0.25847529955E+03  0.25500000920E-02 0. -1.
        2   -1    0    0  501    0  0.00000000000E+00  0.00000000000E+00 -0.16384718290E+04  0.16384718290E+04  0.25500000920E-02 0.  1.
    10030    2    1    2    0    0  0.00000000000E+00  0.00000000000E+00 -0.13799965294E+04  0.18969471285E+04  0.13015444622E+04 0.  0.
        4    1    3    3  502    0  0.32107085449E+02 -0.36939137402E+03 -0.14694620845E+04  0.15155201360E+04  0.12699999809E+01 0.  1.
       -4    1    3    3    0  502 -0.32107085449E+02  0.36939137402E+03  0.89465555058E+02  0.38142699246E+03  0.12699999809E+01 0. -1.
</event>
<event>
 5   0  0.9098192E-04  0.1295232E+04  0.7818609E-02  0.9033354E-01
        1   -1    0    0  501    0  0.00000000000E+00  0.00000000000E+00  0.12427729746E+04  0.12427729746E+04  0.50400001928E-02 0.  1.
       -1   -1    0    0    0  501  0.00000000000E+00  0.00000000000E+00 -0.33747658173E+03  0.33747658177E+03  0.50400001928E-02 0. -1.
    10030    2    1    2    0    0  0.00000000000E+00  0.00000000000E+00  0.90529639287E+03  0.15802495564E+04  0.12952324508E+04 0.  0.
        1    1    3    3  502    0  0.19973744084E+03 -0.20167816582E+03  0.11628369479E+04  0.11969790705E+04  0.50400001928E-02 0.  1.
       -1    1    3    3    0  502 -0.19973744084E+03  0.20167816582E+03 -0.25754055502E+03  0.38327048588E+03  0.50400001928E-02 0. -1.
</event>
<event>
 5   0  0.9081324E-04  0.1304392E+04  0.7818609E-02  0.9026090E-01
        1   -1    0    0  501    0  0.00000000000E+00  0.00000000000E+00  0.99260847793E+03  0.99260847795E+03  0.50400001928E-02 0. -1.
       -1   -1    0    0    0  501  0.00000000000E+00  0.00000000000E+00 -0.42852709112E+03  0.42852709115E+03  0.50400001928E-02 0.  1.
    10030    2    1    2    0    0  0.00000000000E+00  0.00000000000E+00  0.56408138681E+03  0.14211355691E+04  0.13043920020E+04 0.  0.
        4    1    3    3  502    0 -0.64284242700E+03  0.19886939552E+02  0.39996940568E+03  0.75737640226E+03  0.12699999809E+01 0.  1.
       -4    1    3    3    0  502  0.64284242700E+03 -0.19886939552E+02  0.16411198113E+03  0.66375916684E+03  0.12699999809E+01 0. -1.
</event>
<event>
 5   0  0.1694675E-03  0.1298154E+04  0.7818609E-02  0.9031030E-01
        2   -1    0    0  501    0  0.00000000000E+00  0.00000000000E+00  0.13328971172E+04  0.13328971172E+04  0.25500000920E-02 0. -1.
       -2   -1    0    0    0  501  0.00000000000E+00  0.00000000000E+00 -0.31607917145E+03  0.31607917146E+03  0.25500000920E-02 0.  1.
    10030    2    1    2    0    0  0.00000000000E+00  0.00000000000E+00  0.10168179457E+04  0.16489762887E+04  0.12981540994E+04 0.  0.
        4    1    3    3  502    0 -0.57003188058E+03  0.90150990186E+02  0.88572974746E+03  0.10571576724E+04  0.12699999809E+01 0. -1.
       -4    1    3    3    0  502  0.57003188058E+03 -0.90150990186E+02  0.13108819829E+03  0.59181861625E+03  0.12699999809E+01 0.  1.
</event>
<event>
 5   0  0.1694675E-03  0.1299795E+04  0.7818609E-02  0.9029728E-01
       -2   -1    0    0    0  501  0.00000000000E+00  0.00000000000E+00  0.75037335745E+03  0.75037335746E+03  0.25500000920E-02 0.  1.
        2   -1    0    0  501    0  0.00000000000E+00  0.00000000000E+00 -0.56287505785E+03  0.56287505786E+03  0.25500000920E-02 0. -1.
    10030    2    1    2    0    0  0.00000000000E+00  0.00000000000E+00  0.18749829960E+03  0.13132484153E+04  0.12997945176E+04 0.  0.
        4    1    3    3  502    0  0.14432412188E+03  0.45269272308E+03 -0.35424166618E+03  0.59266257233E+03  0.12699999809E+01 0. -1.
       -4    1    3    3    0  502 -0.14432412188E+03 -0.45269272308E+03  0.54173996578E+03  0.72058584298E+03  0.12699999809E+01 0.  1.
</event>
<event>
 5   0  0.1667342E-03  0.1331923E+04  0.7818609E-02  0.9004626E-01
       -2   -1    0    0    0  501  0.00000000000E+00  0.00000000000E+00  0.54866012504E+03  0.54866012505E+03  0.25500000920E-02 0.  1.
        2   -1    0    0  501    0  0.00000000000E+00  0.00000000000E+00 -0.80834136526E+03  0.80834136526E+03  0.25500000920E-02 0. -1.
    10030    2    1    2    0    0  0.00000000000E+00  0.00000000000E+00 -0.25968124022E+03  0.13570014903E+04  0.13319229325E+04 0.  0.
        5    1    3    3  502    0 -0.53236980259E+03 -0.33302062879E+03  0.96059807711E+02  0.63527153451E+03  0.46999998093E+01 0. -1.
       -5    1    3    3    0  502  0.53236980259E+03  0.33302062879E+03 -0.35574104793E+03  0.72172995579E+03  0.46999998093E+01 0.  1.
</event>
<event>
 5   0  0.1714861E-03  0.1275410E+04  0.7818609E-02  0.9049296E-01
       -2   -1    0    0    0  501  0.00000000000E+00  0.00000000000E+00  0.12649699146E+03  0.12649699149E+03  0.25500000920E-02 0.  1.
        2   -1    0    0  501    0  0.00000000000E+00  0.00000000000E+00 -0.32148407460E+04  0.32148407460E+04  0.25500000920E-02 0. -1.
    10030    2    1    2    0    0  0.00000000000E+00  0.00000000000E+00 -0.30883437545E+04  0.33413377375E+04  0.12754100242E+04 0.  0.
        1    1    3    3  502    0  0.41861584005E+03  0.12984269215E+03 -0.33063108759E+03  0.54901298924E+03  0.50400001928E-02 0.  1.
       -1    1    3    3    0  502 -0.41861584005E+03 -0.12984269215E+03 -0.27577126669E+04  0.27923247482E+04  0.50400001928E-02 0. -1.
</event>
<event>
 5   0  0.9027076E-04  0.1294245E+04  0.7818609E-02  0.9034141E-01
        1   -1    0    0  501    0  0.00000000000E+00  0.00000000000E+00  0.43290489397E+03  0.43290489400E+03  0.50400001928E-02 0.  1.
       -1   -1    0    0    0  501  0.00000000000E+00  0.00000000000E+00 -0.96734335734E+03  0.96734335735E+03  0.50400001928E-02 0. -1.
    10030    2    1    2    0    0  0.00000000000E+00  0.00000000000E+00 -0.53443846336E+03  0.14002482514E+04  0.12942452219E+04 0.  0.
        5    1    3    3  502    0  0.26563107366E+03  0.58886897370E+03 -0.22646365649E+03  0.68456877900E+03  0.46999998093E+01 0. -1.
       -5    1    3    3    0  502 -0.26563107366E+03 -0.58886897370E+03 -0.30797480687E+03  0.71567947235E+03  0.46999998093E+01 0.  1.
</event>
<event>
 5   0  0.1667342E-03  0.1291272E+04  0.7818609E-02  0.9036516E-01
        2   -1    0    0  501    0  0.00000000000E+00  0.00000000000E+00  0.13710029925E+04  0.13710029925E+04  0.25500000920E-02 0. -1.
       -2   -1    0    0    0  501  0.00000000000E+00  0.00000000000E+00 -0.30404426086E+03  0.30404426087E+03  0.25500000920E-02 0.  1.
    10030    2    1    2    0    0  0.00000000000E+00  0.00000000000E+00  0.10669587316E+04  0.16750472534E+04  0.12912716081E+04 0.  0.
        5    1    3    3  502    0  0.83420028174E+02 -0.62149871237E+03  0.73277684819E+03  0.96447060599E+03  0.46999998093E+01 0. -1.
       -5    1    3    3    0  502 -0.83420028174E+02  0.62149871237E+03  0.33418188344E+03  0.71057664737E+03  0.46999998093E+01 0.  1.
</event>
<event>
 5   0  0.9110949E-04  0.1297500E+04  0.7818609E-02  0.9031550E-01
       -1   -1    0    0    0  501  0.00000000000E+00  0.00000000000E+00  0.95318234619E+03  0.95318234620E+03  0.50400001928E-02 0.  1.
        1   -1    0    0  501    0  0.00000000000E+00  0.00000000000E+00 -0.44154887210E+03  0.44154887213E+03  0.50400001928E-02 0. -1.
    10030    2    1    2    0    0  0.00000000000E+00  0.00000000000E+00  0.51163347409E+03  0.13947312183E+04  0.12975000422E+04 0.  0.
        2    1    3    3  502    0 -0.57571368807E+03 -0.29468547903E+03  0.20110245175E+03  0.67729460229E+03  0.25500000920E-02 0. -1.
       -2    1    3    3    0  502  0.57571368807E+03  0.29468547903E+03  0.31053102234E+03  0.71743661604E+03  0.25500000920E-02 0.  1.
</event>
<event>
 5   0  0.1667342E-03  0.1222505E+04  0.7818609E-02  0.9093383E-01
        2   -1    0    0  501    0  0.00000000000E+00  0.00000000000E+00  0.43987724442E+03  0.43987724443E+03  0.25500000920E-02 0. -1.
       -2   -1    0    0    0  501  0.00000000000E+00  0.00000000000E+00 -0.84939525268E+03  0.84939525268E+03  0.25500000920E-02 0.  1.
    10030    2    1    2    0    0  0.00000000000E+00  0.00000000000E+00 -0.40951800826E+03  0.12892724971E+04  0.12225050400E+04 0.  0.
        5    1    3    3  502    0  0.25228841330E+03 -0.98259390340E+02 -0.78268741055E+03  0.82820651042E+03  0.46999998093E+01 0.  1.
       -5    1    3    3    0  502 -0.25228841330E+03  0.98259390340E+02  0.37316940229E+03  0.46106598669E+03  0.46999998093E+01 0. -1.
</event>
<event>
 5   0  0.9215829E-04  0.1283388E+04  0.7818609E-02  0.9042844E-01
       -1   -1    0    0    0  501  0.00000000000E+00  0.00000000000E+00  0.61221576746E+03  0.61221576748E+03  0.50400001928E-02 0. -1.
        1   -1    0    0  501    0  0.00000000000E+00  0.00000000000E+00 -0.67259129655E+03  0.67259129657E+03  0.50400001928E-02 0.  1.
    10030    2    1    2    0    0  0.00000000000E+00  0.00000000000E+00 -0.60375529093E+02  0.12848070640E+04  0.12833876995E+04 0.  0.
        3    1    3    3  502    0  0.17395647039E+03  0.33382198750E+03 -0.55044800647E+03  0.66685155091E+03  0.10100000352E+00 0.  1.
       -3    1    3    3    0  502 -0.17395647039E+03 -0.33382198750E+03  0.49007247737E+03  0.61795551313E+03  0.10100000352E+00 0. -1.
</event>
<event>
 5   0  0.9081324E-04  0.1302229E+04  0.7818609E-02  0.9027799E-01
        1   -1    0    0  501    0  0.00000000000E+00  0.00000000000E+00  0.73369942236E+03  0.73369942238E+03  0.50400001928E-02 0. -1.
       -1   -1    0    0    0  501  0.00000000000E+00  0.00000000000E+00 -0.57782557686E+03  0.57782557689E+03  0.50400001928E-02 0.  1.
    10030    2    1    2    0    0  0.00000000000E+00  0.00000000000E+00  0.15587384550E+03  0.13115249993E+04  0.13022293070E+04 0.  0.
        4    1    3    3  502    0  0.60037259105E+03 -0.65030576395E+01  0.33164611556E+03  0.68591566297E+03  0.12699999809E+01 0. -1.
       -4    1    3    3    0  502 -0.60037259105E+03  0.65030576395E+01 -0.17577227006E+03  0.62560933630E+03  0.12699999809E+01 0.  1.
</event>
<event>
 5   0  0.9215829E-04  0.1305084E+04  0.7818609E-02  0.9025543E-01
        1   -1    0    0  501    0  0.00000000000E+00  0.00000000000E+00  0.12038404075E+04  0.12038404075E+04  0.50400001928E-02 0. -1.
       -1   -1    0    0    0  501  0.00000000000E+00  0.00000000000E+00 -0.35371038266E+03  0.35371038270E+03  0.50400001928E-02 0.  1.
    10030    2    1    2    0    0  0.00000000000E+00  0.00000000000E+00  0.85013002479E+03  0.15575507902E+04  0.13050836773E+04 0.  0.
        3    1    3    3  502    0  0.15602758280E+03 -0.53705965032E+02  0.11785292574E+04  0.11900252762E+04  0.10100000352E+00 0. -1.
       -3    1    3    3    0  502 -0.15602758280E+03  0.53705965032E+02 -0.32839923257E+03  0.36752551398E+03  0.10100000352E+00 0.  1.
</event>
<event>
 5   0  0.9215829E-04  0.1315140E+04  0.7818609E-02  0.9017644E-01
       -1   -1    0    0    0  501  0.00000000000E+00  0.00000000000E+00  0.66119819640E+03  0.66119819642E+03  0.50400001928E-02 0.  1.
        1   -1    0    0  501    0  0.00000000000E+00  0.00000000000E+00 -0.65396207040E+03  0.65396207042E+03  0.50400001928E-02 0. -1.
    10030    2    1    2    0    0  0.00000000000E+00  0.00000000000E+00  0.72361260034E+01  0.13151602668E+04  0.13151403598E+04 0.  0.
        3    1    3    3  502    0  0.20158190167E+03  0.21407809806E+03  0.59178836903E+03  0.66081629752E+03  0.10100000352E+00 0.  1.
       -3    1    3    3    0  502 -0.20158190167E+03 -0.21407809806E+03 -0.58455224302E+03  0.65434396931E+03  0.10100000352E+00 0. -1.
</event>
<event>
 5   0  0.1700511E-03  0.1312031E+04  0.7818609E-02  0.9020078E-01
        2   -1    0    0  501    0  0.00000000000E+00  0.00000000000E+00  0.11729320808E+04  0.11729320808E+04  0.25500000920E-02 0. -1.
       -2   -1    0    0    0  501  0.00000000000E+00  0.00000000000E+00 -0.36690665083E+03  0.36690665084E+03  0.25500000920E-02 0.  1.
    10030    2    1    2    0    0  0.00000000000E+00  0.00000000000E+00  0.80602542994E+03  0.15398387316E+04  0.13120313737E+04 0.  0.
        2    1    3    3  502    0 -0.24670289215E+03  0.49402949057E+03 -0.12639614338E+02  0.55234700543E+03  0.25500000920E-02 0. -1.
       -2    1    3    3    0  502  0.24670289215E+03 -0.49402949057E+03  0.81866504428E+03  0.98749172618E+03  0.25500000920E-02 0.  1.
</event>
<event>
 5   0  0.9027076E-04  0.1323315E+04  0.7818609E-02  0.9011278E-01
       -1   -1    0    0    0  501  0.00000000000E+00  0.00000000000E+00  0.10765655283E+04  0.10765655284E+04  0.50400001928E-02 0. -1.
        1   -1    0    0  501    0  0.00000000000E+00  0.00000000000E+00 -0.40665499613E+03  0.40665499616E+03  0.50400001928E-02 0.  1.
    10030    2    1    2    0    0  0.00000000000E+00  0.00000000000E+00  0.66991053221E+03  0.14832205245E+04  0.13233151564E+04 0.  0.
        5    1    3    3  502    0 -0.22042542086E+03  0.24674491380E+03 -0.30725422336E+03  0.45155029224E+03  0.46999998093E+01 0.  1.
       -5    1    3    3    0  502  0.22042542086E+03 -0.24674491380E+03  0.97716475558E+03  0.10316702323E+04  0.46999998093E+01 0. -1.
</event>
<event>
 5   0  0.9110949E-04  0.1307762E+04  0.7818609E-02  0.9023432E-01
        1   -1    0    0  501    0  0.00000000000E+00  0.00000000000E+00  0.49015206791E+03  0.49015206794E+03  0.50400001928E-02 0.  1.
       -1   -1    0    0    0  501  0.00000000000E+00  0.00000000000E+00 -0.87230172968E+03  0.87230172970E+03  0.50400001928E-02 0. -1.
    10030    2    1    2    0    0  0.00000000000E+00  0.00000000000E+00 -0.38214966177E+03  0.13624537976E+04  0.13077622057E+04 0.  0.
        2    1    3    3  502    0  0.50332687504E+03  0.31152049518E+03  0.98351775400E+02  0.60004669301E+03  0.25500000920E-02 0.  1.
       -2    1    3    3    0  502 -0.50332687504E+03 -0.31152049518E+03 -0.48050143717E+03  0.76240710463E+03  0.25500000920E-02 0. -1.
</event>
<event>
 5   0  0.9215829E-04  0.1181720E+04  0.7818609E-02  0.9129009E-01
       -1   -1    0    0    0  501  0.00000000000E+00  0.00000000000E+00  0.59074756848E+03  0.59074756851E+03  0.50400001928E-02 0. -1.
        1   -1    0    0  501    0  0.00000000000E+00  0.00000000000E+00 -0.59097272536E+03  0.59097272538E+03  0.50400001928E-02 0.  1.
    10030    2    1    2    0    0  0.00000000000E+00  0.00000000000E+00 -0.22515687652E+00  0.11817202939E+04  0.11817202724E+04 0.  0.
        3    1    3    3  502    0  0.37695414882E+03  0.45352370784E+03  0.36459358085E+02  0.59085317878E+03  0.10100000352E+00 0. -1.
       -3    1    3    3    0  502 -0.37695414882E+03 -0.45352370784E+03 -0.36684514961E+02  0.59086711511E+03  0.10100000352E+00 0.  1.
</event>
<event>
 5   0  0.1714861E-03  0.1305580E+04  0.7818609E-02  0.9025152E-01
       -2   -1    0    0    0  501  0.00000000000E+00  0.00000000000E+00  0.36581369819E+03  0.36581369820E+03  0.25500000920E-02 0. -1.
        2   -1    0    0  501    0  0.00000000000E+00  0.00000000000E+00 -0.11648952434E+04  0.11648952434E+04  0.25500000920E-02 0.  1.
    10030    2    1    2    0    0  0.00000000000E+00  0.00000000000E+00 -0.79908154521E+03  0.15307089416E+04  0.13055797747E+04 0.  0.
        1    1    3    3  502    0  0.29571232582E+03  0.19157727639E+03 -0.10438336535E+04  0.11016970222E+04  0.50400001928E-02 0.  1.
       -1    1    3    3    0  502 -0.29571232582E+03 -0.19157727639E+03  0.24475210829E+03  0.42901191942E+03  0.50400001928E-02 0. -1.
</event>
<event>
 5   0  0.1700511E-03  0.1288672E+04  0.7818609E-02  0.9038597E-01
       -2   -1    0    0    0  501  0.00000000000E+00  0.00000000000E+00  0.71791143441E+03  0.71791143442E+03  0.25500000920E-02 0. -1.
        2   -1    0    0  501    0  0.00000000000E+00  0.00000000000E+00 -0.57830057390E+03  0.57830057391E+03  0.25500000920E-02 0.  1.
    10030    2    1    2    0    0  0.00000000000E+00  0.00000000000E+00  0.13961086051E+03  0.12962120083E+04  0.12886715556E+04 0.  0.
        2    1    3    3  502    0 -0.39782971009E+03  0.34842070257E+03  0.44006684994E+03  0.68798568055E+03  0.25500000920E-02 0. -1.
       -2    1    3    3    0  502  0.39782971009E+03 -0.34842070257E+03 -0.30045598943E+03  0.60822632778E+03  0.25500000920E-02 0.  1.
</event>
<event>
 5   0  0.9215829E-04  0.1294885E+04  0.7818609E-02  0.9033631E-01
       -1   -1    0    0    0  501  0.00000000000E+00  0.00000000000E+00  0.47521904155E+03  0.47521904158E+03  0.50400001928E-02 0. -1.
        1   -1    0    0  501    0  0.00000000000E+00  0.00000000000E+00 -0.88208160785E+03  0.88208160786E+03  0.50400001928E-02 0.  1.
    10030    2    1    2    0    0  0.00000000000E+00  0.00000000000E+00 -0.40686256630E+03  0.13573006494E+04  0.12948852865E+04 0.  0.
        3    1    3    3  502    0 -0.10808612176E+03  0.91153159657E+02 -0.86570090807E+03  0.87717135194E+03  0.10100000352E+00 0.  1.
       -3    1    3    3    0  502  0.10808612176E+03 -0.91153159657E+02  0.45883834178E+03  0.48012929750E+03  0.10100000352E+00 0. -1.
</event>
<event>
 5   0  0.1714861E-03  0.1297494E+04  0.7818609E-02  0.9031555E-01
       -2   -1    0    0    0  501  0.00000000000E+00  0.00000000000E+00  0.44527139596E+03  0.44527139597E+03  0.25500000920E-02 0. -1.
        2   -1    0    0  501    0  0.00000000000E+00  0.00000000000E+00 -0.94520458772E+03  0.94520458772E+03  0.25500000920E-02 0.  1.
    10030    2    1    2    0    0  0.00000000000E+00  0.00000000000E+00 -0.49993319176E+03  0.13904759837E+04  0.12974938401E+04 0.  0.
        1    1    3    3  502    0 -0.37253878495E+03  0.12012662136E+03  0.30446440069E+03  0.49589729054E+03  0.50400001928E-02 0. -1.
       -1    1    3    3    0  502  0.37253878495E+03 -0.12012662136E+03 -0.80439759246E+03  0.89457869315E+03  0.50400001928E-02 0.  1.
</event>
<event>
 5   0  0.9098192E-04  0.1291781E+04  0.7818609E-02  0.9036108E-01
       -1   -1    0    0    0  501  0.00000000000E+00  0.00000000000E+00  0.35699148079E+03  0.35699148083E+03  0.50400001928E-02 0. -1.
        1   -1    0    0  501    0  0.00000000000E+00  0.00000000000E+00 -0.11685839923E+04  0.11685839923E+04  0.50400001928E-02 0.  1.
    10030    2    1    2    0    0  0.00000000000E+00  0.00000000000E+00 -0.81159251150E+03  0.15255754731E+04  0.12917809874E+04 0.  0.
        1    1    3    3  502    0 -0.16191884352E+02 -0.53151047126E+03 -0.83876738551E+03  0.99312450640E+03  0.50400001928E-02 0. -1.
       -1    1    3    3    0  502  0.16191884352E+02  0.53151047126E+03  0.27174874012E+02  0.53245096674E+03  0.50400001928E-02 0.  1.
</event>
<event>
 5   0  0.9215829E-04  0.1259216E+04  0.7818609E-02  0.9062548E-01
       -1   -1    0    0    0  501  0.00000000000E+00  0.00000000000E+00  0.30570558817E+03  0.30570558821E+03  0.50400001928E-02 0. -1.
        1   -1    0    0  501    0  0.00000000000E+00  0.00000000000E+00 -0.12966923245E+04  0.12966923246E+04  0.50400001928E-02 0.  1.
    10030    2    1    2    0    0  0.00000000000E+00  0.00000000000E+00 -0.99098673637E+03  0.16023979128E+04  0.12592157715E+04 0.  0.
        3    1    3    3  502    0 -0.54464351270E+03  0.13116499893E+03 -0.12984056249E+03  0.57506468744E+03  0.10100000352E+00 0. -1.
       -3    1    3    3    0  502  0.54464351270E+03 -0.13116499893E+03 -0.86114617388E+03  0.10273332253E+04  0.10100000352E+00 0.  1.
</event>
<event>
 5   0  0.1694675E-03  0.1307239E+04  0.7818609E-02  0.9023845E-01
       -2   -1    0    0    0  501  0.00000000000E+00  0.00000000000E+00  0.20579330559E+03  0.20579330560E+03  0.25500000920E-02 0. -1.
        2   -1    0    0  501    0  0.00000000000E+00  0.00000000000E+00 -0.20759574787E+04  0.20759574787E+04  0.25500000920E-02 0.  1.
    10030    2    1    2    0    0  0.00000000000E+00  0.00000000000E+00 -0.18701641731E+04  0.22817507843E+04  0.13072385426E+04 0.  0.
        4    1    3    3  502    0  0.46942207844E+03 -0.39091888230E+03 -0.52931334939E+03  0.80830000310E+03  0.12699999809E+01 0. -1.
       -4    1    3    3    0  502 -0.46942207844E+03  0.39091888230E+03 -0.13408508237E+04  0.14734507812E+04  0.12699999809E+01 0.  1.
</event>
<event>
 5   0  0.6284125E-04  0.1301925E+04  0.7818609E-02  0.9028040E-01
        4   -1    0    0  501    0  0.00000000000E+00  0.00000000000E+00  0.11169409826E+04  0.11169417047E+04  0.12699999809E+01 0.  1.
       -4   -1    0    0    0  501  0.00000000000E+00  0.00000000000E+00 -0.37938448791E+03  0.37938661359E+03  0.12699999809E+01 0. -1.
    10030    2    1    2    0    0  0.00000000000E+00  0.00000000000E+00  0.73755649474E+03  0.14963283182E+04  0.13019250566E+04 0.  0.
        4    1    3    3  502    0 -0.42776159742E+02  0.46056743859E+03  0.89520994571E+03  0.10076480661E+04  0.12699999809E+01 0.  1.
       -4    1    3    3    0  502  0.42776159742E+02 -0.46056743859E+03 -0.15765345097E+03  0.48868025214E+03  0.12699999809E+01 0. -1.
</event>
<event>
 5   0  0.6284125E-04  0.1304117E+04  0.7818609E-02  0.9026307E-01
       -3   -1    0    0    0  501  0.00000000000E+00  0.00000000000E+00  0.45707128388E+03  0.45707129504E+03  0.10100000352E+00 0.  1.
        3   -1    0    0  501    0  0.00000000000E+00  0.00000000000E+00 -0.93022739283E+03  0.93022739832E+03  0.10100000352E+00 0. -1.
    10030    2    1    2    0    0  0.00000000000E+00  0.00000000000E+00 -0.47315610895E+03  0.13872986934E+04  0.13041169277E+04 0.  0.
        3    1    3    3  502    0  0.11360123053E+03  0.62906952043E+03 -0.37341611092E+03  0.74031973039E+03  0.10100000352E+00 0.  1.
       -3    1    3    3    0  502 -0.11360123053E+03 -0.62906952043E+03 -0.99739998030E+02  0.64697896296E+03  0.10100000352E+00 0. -1.
</event>
<event>
 5   0  0.1714861E-03  0.1294306E+04  0.7818609E-02  0.9034093E-01
       -2   -1    0    0    0  501  0.00000000000E+00  0.00000000000E+00  0.63126572990E+03  0.63126572990E+03  0.25500000920E-02 0.  1.
        2   -1    0    0  501    0  0.00000000000E+00  0.00000000000E+00 -0.66344022285E+03  0.66344022285E+03  0.25500000920E-02 0. -1.
    10030    2    1    2    0    0  0.00000000000E+00  0.00000000000E+00 -0.32174492947E+02  0.12947059528E+04  0.12943061099E+04 0.  0.
        1    1    3    3  502    0  0.49625175560E+03 -0.28447379237E+03  0.28668749913E+03  0.63982877840E+03  0.50400001928E-02 0.  1.
       -1    1    3    3    0  502 -0.49625175560E+03  0.28447379237E+03 -0.31886199208E+03  0.65487717436E+03  0.50400001928E-02 0. -1.
</event>
<event>
 5   0  0.1667342E-03  0.1365720E+04  0.7818609E-02  0.8979013E-01
       -2   -1    0    0    0  501  0.00000000000E+00  0.00000000000E+00  0.30298965737E+03  0.30298965738E+03  0.25500000920E-02 0. -1.
        2   -1    0    0  501    0  0.00000000000E+00  0.00000000000E+00 -0.15389883850E+04  0.15389883850E+04  0.25500000920E-02 0.  1.
    10030    2    1    2    0    0  0.00000000000E+00  0.00000000000E+00 -0.12359987276E+04  0.18419780424E+04  0.13657196835E+04 0.  0.
        5    1    3    3  502    0  0.43308197633E+03  0.24691539975E+03 -0.12473609437E+04  0.13433013908E+04  0.46999998093E+01 0.  1.
       -5    1    3    3    0  502 -0.43308197633E+03 -0.24691539975E+03  0.11362216024E+02  0.49867665156E+03  0.46999998093E+01 0. -1.
</event>
<event>
 5   0  0.1694675E-03  0.1213106E+04  0.7818609E-02  0.9101462E-01
       -2   -1    0    0    0  501  0.00000000000E+00  0.00000000000E+00  0.30186735827E+03  0.30186735828E+03  0.25500000920E-02 0. -1.
        2   -1    0    0  501    0  0.00000000000E+00  0.00000000000E+00 -0.12187689658E+04  0.12187689658E+04  0.25500000920E-02 0.  1.
    10030    2    1    2    0    0  0.00000000000E+00  0.00000000000E+00 -0.91690160755E+03  0.15206363241E+04  0.12131060433E+04 0.  0.
        4    1    3    3  502    0  0.54393426875E+03  0.26772763927E+03 -0.48231282744E+03  0.77470630174E+03  0.12699999809E+01 0. -1.
       -4    1    3    3    0  502 -0.54393426875E+03 -0.26772763927E+03 -0.43458878011E+03  0.74593002235E+03  0.12699999809E+01 0.  1.
</event>
<event>
 5   0  0.9215829E-04  0.1179258E+04  0.7818609E-02  0.9131208E-01
        1   -1    0    0  501    0  0.00000000000E+00  0.00000000000E+00  0.11841550334E+04  0.11841550334E+04  0.50400001928E-02 0.  1.
       -1   -1    0    0    0  501  0.00000000000E+00  0.00000000000E+00 -0.29359521505E+03  0.29359521510E+03  0.50400001928E-02 0. -1.
    10030    2    1    2    0    0  0.00000000000E+00  0.00000000000E+00  0.89055981837E+03  0.14777502485E+04  0.11792578204E+04 0.  0.
        3    1    3    3  502    0  0.40247230692E+03 -0.35500692259E+03  0.75132932940E+03  0.92331448832E+03  0.10100000352E+00 0.  1.
       -3    1    3    3    0  502 -0.40247230692E+03  0.35500692259E+03  0.13923048897E+03  0.55443576020E+03  0.10100000352E+00 0. -1.
</event>
<event>
 5   0  0.9215829E-04  0.1288547E+04  0.7818609E-02  0.9038697E-01
       -1   -1    0    0    0  501  0.00000000000E+00  0.00000000000E+00  0.32794916059E+03  0.32794916063E+03  0.50400001928E-02 0.  1.
        1   -1    0    0  501    0  0.00000000000E+00  0.00000000000E+00 -0.12657095755E+04  0.12657095755E+04  0.50400001928E-02 0. -1.
    10030    2    1    2    0    0  0.00000000000E+00  0.00000000000E+00 -0.93776041488E+03  0.15936587361E+04  0.12885470777E+04 0.  0.
        3    1    3    3  502    0 -0.15806800621E+03 -0.60150384114E+03 -0.26083501105E+03  0.67440883645E+03  0.10100000352E+00 0.  1.
       -3    1    3    3    0  502  0.15806800621E+03  0.60150384114E+03 -0.67692540383E+03  0.91924989967E+03  0.10100000352E+00 0. -1.
</event>
<event>
 5   0  0.1623890E-03  0.1307166E+04  0.7818609E-02  0.9023901E-01
        2   -1    0    0  501    0  0.00000000000E+00  0.00000000000E+00  0.14251210910E+04  0.14251210910E+04  0.25500000920E-02 0. -1.
       -2   -1    0    0    0  501  0.00000000000E+00  0.00000000000E+00 -0.29974359698E+03  0.29974359699E+03  0.25500000920E-02 0.  1.
    10030    2    1    2    0    0  0.00000000000E+00  0.00000000000E+00  0.11253774940E+04  0.17248646880E+04  0.13071662816E+04 0.  0.
        3    1    3    3  502    0 -0.51959327134E+03  0.29921985442E+03  0.90592576155E+03  0.10863752503E+04  0.10100000352E+00 0. -1.
       -3    1    3    3    0  502  0.51959327134E+03 -0.29921985442E+03  0.21945173244E+03  0.63848943763E+03  0.10100000352E+00 0.  1.
</event>
<event>
 5   0  0.1694675E-03  0.1299342E+04  0.7818609E-02  0.9030087E-01
       -2   -1    0    0    0  501  0.00000000000E+00  0.00000000000E+00  0.17677864685E+03  0.17677864687E+03  0.25500000920E-02 0. -1.
        2   -1    0    0  501    0  0.00000000000E+00  0.00000000000E+00 -0.23875766343E+04  0.23875766343E+04  0.25500000920E-02 0.  1.
    10030    2    1    2    0    0  0.00000000000E+00  0.00000000000E+00 -0.22107979875E+04  0.25643552812E+04  0.12993422439E+04 0.  0.
        4    1    3    3  502    0  0.28103572964E+03 -0.87062352489E+02 -0.22485599509E+04  0.22677267031E+04  0.12699999809E+01 0.  1.
       -4    1    3    3    0  502 -0.28103572964E+03  0.87062352489E+02  0.37761963375E+02  0.29662857808E+03  0.12699999809E+01 0. -1.
</event>
<event>
 5   0  0.9110949E-04  0.1305389E+04  0.7818609E-02  0.9025303E-01
        1   -1    0    0  501    0  0.00000000000E+00  0.00000000000E+00  0.18363077581E+04  0.18363077581E+04  0.50400001928E-02 0. -1.
       -1   -1    0    0    0  501  0.00000000000E+00  0.00000000000E+00 -0.23199273926E+03  0.23199273932E+03  0.50400001928E-02 0.  1.
    10030    2    1    2    0    0  0.00000000000E+00  0.00000000000E+00  0.16043150188E+04  0.20683004974E+04  0.13053889336E+04 0.  0.
        2    1    3    3  502    0  0.51281073445E+03  0.30886683550E+03  0.39009390370E+03  0.71452559447E+03  0.25500000920E-02 0. -1.
       -2    1    3    3    0  502 -0.51281073445E+03 -0.30886683550E+03  0.12142211151E+04  0.13537749030E+04  0.25500000920E-02 0.  1.
</event>
<event>
 5   0  0.9098192E-04  0.1296041E+04  0.7818609E-02  0.9032710E-01
       -1   -1    0    0    0  501  0.00000000000E+00  0.00000000000E+00  0.33248544809E+03  0.33248544812E+03  0.50400001928E-02 0. -1.
        1   -1    0    0  501    0  0.00000000000E+00  0.00000000000E+00 -0.12630051101E+04  0.12630051101E+04  0.50400001928E-02 0.  1.
    10030    2    1    2    0    0  0.00000000000E+00  0.00000000000E+00 -0.93051966199E+03  0.15954905582E+04  0.12960413882E+04 0.  0.
        1    1    3    3  502    0 -0.36111000594E+03 -0.78836514137E+02 -0.11205147591E+04  0.11799020967E+04  0.50400001928E-02 0.  1.
       -1    1    3    3    0  502  0.36111000594E+03  0.78836514137E+02  0.18999509716E+03  0.41558846149E+03  0.50400001928E-02 0. -1.
</event>
<event>
 5   0  0.9110949E-04  0.1285376E+04  0.7818609E-02  0.9041243E-01
       -1   -1    0    0    0  501  0.00000000000E+00  0.00000000000E+00  0.27210498889E+03  0.27210498894E+03  0.50400001928E-02 0. -1.
        1   -1    0    0  501    0  0.00000000000E+00  0.00000000000E+00 -0.15179727909E+04  0.15179727909E+04  0.50400001928E-02 0.  1.
    10030    2    1    2    0    0  0.00000000000E+00  0.00000000000E+00 -0.12458678020E+04  0.17900777799E+04  0.12853761620E+04 0.  0.
        2    1    3    3  502    0  0.23003016238E+03  0.23868509235E+03  0.14386261536E+03  0.36135979441E+03  0.25500000920E-02 0. -1.
       -2    1    3    3    0  502 -0.23003016238E+03 -0.23868509235E+03 -0.13897304174E+04  0.14287179855E+04  0.25500000920E-02 0.  1.
</event>
<event>
 5   0  0.6284125E-04  0.1336220E+04  0.7818609E-02  0.9001325E-01
        3   -1    0    0  501    0  0.00000000000E+00  0.00000000000E+00  0.59584087116E+03  0.59584087972E+03  0.10100000352E+00 0. -1.
       -3   -1    0    0    0  501  0.00000000000E+00  0.00000000000E+00 -0.74914486144E+03  0.74914486825E+03  0.10100000352E+00 0.  1.
    10030    2    1    2    0    0  0.00000000000E+00  0.00000000000E+00 -0.15330399028E+03  0.13449857480E+04  0.13362202471E+04 0.  0.
        5    1    3    3  502    0  0.59535690584E+02 -0.66505202702E+03 -0.99391119614E+02  0.67508472191E+03  0.46999998093E+01 0. -1.
       -5    1    3    3    0  502 -0.59535690584E+02  0.66505202702E+03 -0.53912870663E+02  0.66990102606E+03  0.46999998093E+01 0.  1.
</event>
<event>
 5   0  0.1694675E-03  0.1412599E+04  0.7818609E-02  0.8944749E-01
        2   -1    0    0  501    0  0.00000000000E+00  0.00000000000E+00  0.99932524094E+03  0.99932524094E+03  0.25500000920E-02 0. -1.
       -2   -1    0    0    0  501  0.00000000000E+00  0.00000000000E+00 -0.49919559638E+03  0.49919559639E+03  0.25500000920E-02 0.  1.
    10030    2    1    2    0    0  0.00000000000E+00  0.00000000000E+00  0.50012964455E+03  0.14985208373E+04  0.14125986828E+04 0.  0.
        4    1    3    3  502    0 -0.64470015693E+03  0.21737778135E+03  0.48883074161E+02  0.68211623644E+03  0.12699999809E+01 0.  1.
       -4    1    3    3    0  502  0.64470015693E+03 -0.21737778135E+03  0.45124657039E+03  0.81640460089E+03  0.12699999809E+01 0. -1.
</event>
<event>
 5   0  0.1694675E-03  0.1306486E+04  0.7818609E-02  0.9024438E-01
        2   -1    0    0  501    0  0.00000000000E+00  0.00000000000E+00  0.14202726499E+04  0.14202726500E+04  0.25500000920E-02 0.  1.
       -2   -1    0    0    0  501  0.00000000000E+00  0.00000000000E+00 -0.30045366676E+03  0.30045366678E+03  0.25500000920E-02 0. -1.
    10030    2    1    2    0    0  0.00000000000E+00  0.00000000000E+00  0.11198189832E+04  0.17207263167E+04  0.13064855537E+04 0.  0.
        4    1    3    3  502    0  0.29559200727E+03 -0.37935759462E+03  0.11421619795E+04  0.12392830265E+04  0.12699999809E+01 0.  1.
       -4    1    3    3    0  502 -0.29559200727E+03  0.37935759462E+03 -0.22342996312E+02  0.48144329027E+03  0.12699999809E+01 0. -1.
</event>
<event>
 5   0  0.1667342E-03  0.1277163E+04  0.7818609E-02  0.9047873E-01
        2   -1    0    0  501    0  0.00000000000E+00  0.00000000000E+00  0.11121086323E+04  0.11121086323E+04  0.25500000920E-02 0. -1.
       -2   -1    0    0    0  501  0.00000000000E+00  0.00000000000E+00 -0.36667869933E+03  0.36667869934E+03  0.25500000920E-02 0.  1.
    10030    2    1    2    0    0  0.00000000000E+00  0.00000000000E+00  0.74542993299E+03  0.14787873317E+04  0.12771633362E+04 0.  0.
        5    1    3    3  502    0  0.31333637221E+03  0.14535624012E+03  0.99458455913E+03  0.10528668738E+04  0.46999998093E+01 0. -1.
       -5    1    3    3    0  502 -0.31333637221E+03 -0.14535624012E+03 -0.24915462614E+03  0.42592045786E+03  0.46999998093E+01 0.  1.
</event>
<event>
 5   0  0.9215829E-04  0.1293507E+04  0.7818609E-02  0.9034730E-01
        1   -1    0    0  501    0  0.00000000000E+00  0.00000000000E+00  0.11981484184E+04  0.11981484184E+04  0.50400001928E-02 0. -1.
       -1   -1    0    0    0  501  0.00000000000E+00  0.00000000000E+00 -0.34911377820E+03  0.34911377823E+03  0.50400001928E-02 0.  1.
    10030    2    1    2    0    0  0.00000000000E+00  0.00000000000E+00  0.84903464018E+03  0.15472621966E+04  0.12935070486E+04 0.  0.
        3    1    3    3  502    0  0.12047868990E+03  0.47866722205E+03  0.92441687576E+03  0.10479427439E+04  0.10100000352E+00 0. -1.
       -3    1    3    3    0  502 -0.12047868990E+03 -0.47866722205E+03 -0.75382235573E+02  0.49931945268E+03  0.10100000352E+00 0.  1.
</event>
<event>
 5   0  0.9110949E-04  0.1221130E+04  0.7818609E-02  0.9094560E-01
        1   -1    0    0  501    0  0.00000000000E+00  0.00000000000E+00  0.73942007645E+03  0.73942007647E+03  0.50400001928E-02 0. -1.
       -1   -1    0    0    0  501  0.00000000000E+00  0.00000000000E+00 -0.50416457411E+03  0.50416457414E+03  0.50400001928E-02 0.  1.
    10030    2    1    2    0    0  0.00000000000E+00  0.00000000000E+00  0.23525550234E+03  0.12435846506E+04  0.12211296540E+04 0.  0.
        2    1    3    3  502    0 -0.39249251945E+03  0.41812303067E+03 -0.95777932518E+02  0.58142124056E+03  0.25500000920E-02 0.  1.
       -2    1    3    3    0  502  0.39249251945E+03 -0.41812303067E+03  0.33103343486E+03  0.66216341005E+03  0.25500000920E-02 0. -1.
</event>
<event>
 5   0  0.1714861E-03  0.1288838E+04  0.7818609E-02  0.9038464E-01
        2   -1    0    0  501    0  0.00000000000E+00  0.00000000000E+00  0.64807057549E+03  0.64807057549E+03  0.25500000920E-02 0.  1.
       -2   -1    0    0    0  501  0.00000000000E+00  0.00000000000E+00 -0.64078773365E+03  0.64078773366E+03  0.25500000920E-02 0. -1.
    10030    2    1    2    0    0  0.00000000000E+00  0.00000000000E+00  0.72828418339E+01  0.12888583091E+04  0.12888377327E+04 0.  0.
        1    1    3    3  502    0 -0.60139250586E+03  0.21506991889E+03 -0.82078435512E+02  0.64394478468E+03  0.50400001928E-02 0. -1.
       -1    1    3    3    0  502  0.60139250586E+03 -0.21506991889E+03  0.89361277346E+02  0.64491352446E+03  0.50400001928E-02 0.  1.
</event>
<event>
 5   0  0.9081324E-04  0.1301474E+04  0.7818609E-02  0.9028397E-01
        1   -1    0    0  501    0  0.00000000000E+00  0.00000000000E+00  0.16603975506E+04  0.16603975506E+04  0.50400001928E-02 0.  1.
       -1   -1    0    0    0  501  0.00000000000E+00  0.00000000000E+00 -0.25503459099E+03  0.25503459104E+03  0.50400001928E-02 0. -1.
    10030    2    1    2    0    0  0.00000000000E+00  0.00000000000E+00  0.14053629596E+04  0.19154321417E+04  0.13014742568E+04 0.  0.
        4    1    3    3  502    0 -0.52025333676E+03  0.50294650926E+02  0.12731856480E+04  0.13762980759E+04  0.12699999809E+01 0.  1.
       -4    1    3    3    0  502  0.52025333676E+03 -0.50294650926E+02  0.13217731157E+03  0.53913406581E+03  0.12699999809E+01 0. -1.
</event>
<event>
 5   0  0.1714861E-03  0.1278718E+04  0.7818609E-02  0.9046614E-01
       -2   -1    0    0    0  501  0.00000000000E+00  0.00000000000E+00  0.32926093501E+03  0.32926093502E+03  0.25500000920E-02 0. -1.
        2   -1    0    0  501    0  0.00000000000E+00  0.00000000000E+00 -0.12415084472E+04  0.12415084472E+04  0.25500000920E-02 0.  1.
    10030    2    1    2    0    0  0.00000000000E+00  0.00000000000E+00 -0.91224751217E+03  0.15707693822E+04  0.12787184712E+04 0.  0.
        1    1    3    3  502    0 -0.59571355525E+02 -0.42701750128E+02 -0.12363306201E+04  0.12385013477E+04  0.50400001928E-02 0.  1.
       -1    1    3    3    0  502  0.59571355525E+02  0.42701750128E+02  0.32408310798E+03  0.33226803452E+03  0.50400001928E-02 0. -1.
</event>
<event>
 5   0  0.6284125E-04  0.1307062E+04  0.7818609E-02  0.9023984E-01
       -3   -1    0    0    0  501  0.00000000000E+00  0.00000000000E+00  0.10416096086E+04  0.10416096135E+04  0.10100000352E+00 0.  1.
        3   -1    0    0  501    0  0.00000000000E+00  0.00000000000E+00 -0.41004099124E+03  0.41004100368E+03  0.10100000352E+00 0. -1.
    10030    2    1    2    0    0  0.00000000000E+00  0.00000000000E+00  0.63156861739E+03  0.14516506172E+04  0.13070618180E+04 0.  0.
        1    1    3    3  502    0  0.39312012692E+03  0.12504201363E+03  0.87873203176E+03  0.97074658023E+03  0.50400001928E-02 0.  1.
       -1    1    3    3    0  502 -0.39312012692E+03 -0.12504201363E+03 -0.24716341436E+03  0.48090403698E+03  0.50400001928E-02 0. -1.
</event>
<event>
 5   0  0.1700511E-03  0.1298191E+04  0.7818609E-02  0.9031001E-01
       -2   -1    0    0    0  501  0.00000000000E+00  0.00000000000E+00  0.50030052087E+03  0.50030052087E+03  0.25500000920E-02 0. -1.
        2   -1    0    0  501    0  0.00000000000E+00  0.00000000000E+00 -0.84214403610E+03  0.84214403611E+03  0.25500000920E-02 0.  1.
    10030    2    1    2    0    0  0.00000000000E+00  0.00000000000E+00 -0.34184351524E+03  0.13424445570E+04  0.12981912030E+04 0.  0.
        2    1    3    3  502    0 -0.38742335723E+03  0.21046726241E+03 -0.66353416957E+03  0.79666236291E+03  0.25500000920E-02 0.  1.
       -2    1    3    3    0  502  0.38742335723E+03 -0.21046726241E+03  0.32169065434E+03  0.54578219407E+03  0.25500000920E-02 0. -1.
</event>
<event>
 5   0  0.9081324E-04  0.1267524E+04  0.7818609E-02  0.9055723E-01
        1   -1    0    0  501    0  0.00000000000E+00  0.00000000000E+00  0.63256157735E+03  0.63256157737E+03  0.50400001928E-02 0. -1.
       -1   -1    0    0    0  501  0.00000000000E+00  0.00000000000E+00 -0.63496496711E+03  0.63496496713E+03  0.50400001928E-02 0.  1.
    10030    2    1    2    0    0  0.00000000000E+00  0.00000000000E+00 -0.24033897579E+01  0.12675265445E+04  0.12675242659E+04 0.  0.
        4    1    3    3  502    0 -0.40015340730E+03  0.17363955436E+03 -0.46096265891E+03  0.63463503687E+03  0.12699999809E+01 0.  1.
       -4    1    3    3    0  502  0.40015340730E+03 -0.17363955436E+03  0.45855926915E+03  0.63289150764E+03  0.12699999809E+01 0. -1.
</event>
<event>
 5   0  0.1694675E-03  0.1298167E+04  0.7818609E-02  0.9031020E-01
       -2   -1    0    0    0  501  0.00000000000E+00  0.00000000000E+00  0.37887234452E+03  0.37887234453E+03  0.25500000920E-02 0.  1.
        2   -1    0    0  501    0  0.00000000000E+00  0.00000000000E+00 -0.11120083072E+04  0.11120083072E+04  0.25500000920E-02 0. -1.
    10030    2    1    2    0    0  0.00000000000E+00  0.00000000000E+00 -0.73313596267E+03  0.14908806517E+04  0.12981666988E+04 0.  0.
        4    1    3    3  502    0 -0.43247690816E+01  0.50164115565E+03 -0.83959177132E+03  0.97804831580E+03  0.12699999809E+01 0. -1.
       -4    1    3    3    0  502  0.43247690816E+01 -0.50164115565E+03  0.10645580865E+03  0.51283233592E+03  0.12699999809E+01 0.  1.
</event>
<event>
 5   0  0.9215829E-04  0.1103113E+04  0.7818609E-02  0.9202163E-01
        1   -1    0    0  501    0  0.00000000000E+00  0.00000000000E+00  0.29032252615E+03  0.29032252619E+03  0.50400001928E-02 0.  1.
       -1   -1    0    0    0  501  0.00000000000E+00  0.00000000000E+00 -0.10478495600E+04  0.10478495600E+04  0.50400001928E-02 0. -1.
    10030    2    1    2    0    0  0.00000000000E+00  0.00000000000E+00 -0.75752703388E+03  0.13381720862E+04  0.11031125624E+04 0.  0.
        3    1    3    3  502    0  0.40216257874E+03 -0.34462322125E+03 -0.56557275971E+03  0.77483705454E+03  0.10100000352E+00 0. -1.
       -3    1    3    3    0  502 -0.40216257874E+03  0.34462322125E+03 -0.19195427417E+03  0.56333503170E+03  0.10100000352E+00 0.  1.
</event>
<event>
 5   0  0.1667342E-03  0.1309517E+04  0.7818609E-02  0.9022052E-01
       -2   -1    0    0    0  501  0.00000000000E+00  0.00000000000E+00  0.25215400766E+03  0.25215400768E+03  0.25500000920E-02 0. -1.
        2   -1    0    0  501    0  0.00000000000E+00  0.00000000000E+00 -0.17001865496E+04  0.17001865496E+04  0.25500000920E-02 0.  1.
    10030    2    1    2    0    0  0.00000000000E+00  0.00000000000E+00 -0.14480325419E+04  0.19523405573E+04  0.13095172427E+04 0.  0.
        5    1    3    3  502    0 -0.23999764871E+03  0.29326761438E+03 -0.15200459338E+04  0.15665779571E+04  0.46999998093E+01 0.  1.
       -5    1    3    3    0  502  0.23999764871E+03 -0.29326761438E+03  0.72013391869E+02  0.38576260010E+03  0.46999998093E+01 0. -1.
</event>
<event>
 5   0  0.1667342E-03  0.1288207E+04  0.7818609E-02  0.9038970E-01
       -2   -1    0    0    0  501  0.00000000000E+00  0.00000000000E+00  0.66457112978E+03  0.66457112979E+03  0.25500000920E-02 0.  1.
        2   -1    0    0  501    0  0.00000000000E+00  0.00000000000E+00 -0.62426606736E+03  0.62426606737E+03  0.25500000920E-02 0. -1.
    10030    2    1    2    0    0  0.00000000000E+00  0.00000000000E+00  0.40305062419E+02  0.12888371972E+04  0.12882068245E+04 0.  0.
        5    1    3    3  502    0 -0.14301088261E+03  0.52301752603E+03 -0.32764909474E+03  0.63354199890E+03  0.46999998093E+01 0.  1.
       -5    1    3    3    0  502  0.14301088261E+03 -0.52301752603E+03  0.36795415716E+03  0.65529519825E+03  0.46999998093E+01 0. -1.
</event>
<event>
 5   0  0.1714861E-03  0.1243552E+04  0.7818609E-02  0.9075567E-01
       -2   -1    0    0    0  501  0.00000000000E+00  0.00000000000E+00  0.20711660233E+03  0.20711660235E+03  0.25500000920E-02 0.  1.
        2   -1    0    0  501    0  0.00000000000E+00  0.00000000000E+00 -0.18666062544E+04  0.18666062544E+04  0.25500000920E-02 0. -1.
    10030    2    1    2    0    0  0.00000000000E+00  0.00000000000E+00 -0.16594896521E+04  0.20737228568E+04  0.12435515998E+04 0.  0.
        1    1    3    3  502    0 -0.31921423361E+03 -0.99718350782E+02  0.44366117339E+02  0.33735712356E+03  0.50400001928E-02 0.  1.
       -1    1    3    3    0  502  0.31921423361E+03  0.99718350782E+02 -0.17038557694E+04  0.17363657332E+04  0.50400001928E-02 0. -1.
</event>
<event>
 5   0  0.9110949E-04  0.1351471E+04  0.7818609E-02  0.8989715E-01
       -1   -1    0    0    0  501  0.00000000000E+00  0.00000000000E+00  0.77865015038E+03  0.77865015040E+03  0.50400001928E-02 0. -1.
        1   -1    0    0  501    0  0.00000000000E+00  0.00000000000E+00 -0.58642310471E+03  0.58642310473E+03  0.50400001928E-02 0.  1.
    10030    2    1    2    0    0  0.00000000000E+00  0.00000000000E+00  0.19222704567E+03  0.13650732551E+04  0.13514709596E+04 0.  0.
        2    1    3    3  502    0  0.48871191398E+03 -0.46932056563E+02 -0.37286173841E+03  0.61649641424E+03  0.25500000920E-02 0.  1.
       -2    1    3    3    0  502 -0.48871191398E+03  0.46932056563E+02  0.56508878408E+03  0.74857684088E+03  0.25500000920E-02 0. -1.
</event>
<event>
 5   0  0.9215829E-04  0.1208992E+04  0.7818609E-02  0.9105022E-01
       -1   -1    0    0    0  501  0.00000000000E+00  0.00000000000E+00  0.23789777798E+03  0.23789777803E+03  0.50400001928E-02 0.  1.
        1   -1    0    0  501    0  0.00000000000E+00  0.00000000000E+00 -0.15360186627E+04  0.15360186627E+04  0.50400001928E-02 0. -1.
    10030    2    1    2    0    0  0.00000000000E+00  0.00000000000E+00 -0.12981208847E+04  0.17739164407E+04  0.12089920212E+04 0.  0.
        3    1    3    3  502    0 -0.44212667332E+02 -0.16330640263E+03 -0.15005717084E+04  0.15100792043E+04  0.10100000352E+00 0. -1.
       -3    1    3    3    0  502  0.44212667332E+02  0.16330640263E+03  0.20245082370E+03  0.26383723640E+03  0.10100000352E+00 0.  1.
</event>
<event>
 5   0  0.9215829E-04  0.1298129E+04  0.7818609E-02  0.9031051E-01
        1   -1    0    0  501    0  0.00000000000E+00  0.00000000000E+00  0.11403309135E+04  0.11403309135E+04  0.50400001928E-02 0. -1.
       -1   -1    0    0    0  501  0.00000000000E+00  0.00000000000E+00 -0.36944050116E+03  0.36944050120E+03  0.50400001928E-02 0.  1.
    10030    2    1    2    0    0  0.00000000000E+00  0.00000000000E+00  0.77089041234E+03  0.15097714147E+04  0.12981285363E+04 0.  0.
        3    1    3    3  502    0  0.43178971990E+03 -0.96064478091E+02  0.93787386962E+03  0.10369561956E+04  0.10100000352E+00 0. -1.
       -3    1    3    3    0  502 -0.43178971990E+03  0.96064478091E+02 -0.16698345729E+03  0.47281521906E+03  0.10100000352E+00 0.  1.
</event>
<event>
 5   0  0.1694675E-03  0.1394422E+04  0.7818609E-02  0.8957866E-01
        2   -1    0    0  501    0  0.00000000000E+00  0.00000000000E+00  0.13596658364E+04  0.13596658364E+04  0.25500000920E-02 0. -1.
       -2   -1    0    0    0  501  0.00000000000E+00  0.00000000000E+00 -0.35751644231E+03  0.35751644232E+03  0.25500000920E-02 0.  1.
    10030    2    1    2    0    0  0.00000000000E+00  0.00000000000E+00  0.10021493941E+04  0.17171822787E+04  0.13944215898E+04 0.  0.
        4    1    3    3  502    0 -0.67256796642E+03 -0.18344085104E+03  0.51357661341E+03  0.86588727097E+03  0.12699999809E+01 0. -1.
       -4    1    3    3    0  502  0.67256796642E+03  0.18344085104E+03  0.48857278065E+03  0.85129500772E+03  0.12699999809E+01 0.  1.
</event>
<event>
 5   0  0.9027076E-04  0.1308734E+04  0.7818609E-02  0.9022667E-01
        1   -1    0    0  501    0  0.00000000000E+00  0.00000000000E+00  0.80967770309E+03  0.80967770310E+03  0.50400001928E-02 0.  1.
       -1   -1    0    0    0  501  0.00000000000E+00  0.00000000000E+00 -0.52884797976E+03  0.52884797978E+03  0.50400001928E-02 0. -1.
    10030    2    1    2    0    0  0.00000000000E+00  0.00000000000E+00  0.28082972332E+03  0.13385256829E+04  0.13087343773E+04 0.  0.
        5    1    3    3  502    0 -0.10969179379E+03 -0.57970947124E+03  0.42983878675E+03  0.72998550209E+03  0.46999998093E+01 0.  1.
       -5    1    3    3    0  502  0.10969179379E+03  0.57970947124E+03 -0.14900906342E+03  0.60854018080E+03  0.46999998093E+01 0. -1.
</event>
<event>
 5   0  0.9081324E-04  0.1418905E+04  0.7818609E-02  0.8940247E-01
        1   -1    0    0  501    0  0.00000000000E+00  0.00000000000E+00  0.68027409114E+03  0.68027409116E+03  0.50400001928E-02 0.  1.
       -1   -1    0    0    0  501  0.00000000000E+00  0.00000000000E+00 -0.73988263707E+03  0.73988263708E+03  0.50400001928E-02 0. -1.
    10030    2    1    2    0    0  0.00000000000E+00  0.00000000000E+00 -0.59608545923E+02  0.14201567282E+04  0.14189051956E+04 0.  0.
        4    1    3    3  502    0 -0.59930157071E+03  0.17966152083E+03  0.30497654302E+03  0.69602653643E+03  0.12699999809E+01 0.  1.
       -4    1    3    3    0  502  0.59930157071E+03 -0.17966152083E+03 -0.36458508894E+03  0.72413019182E+03  0.12699999809E+01 0. -1.
</event>
<event>
 5   0  0.9110949E-04  0.1298166E+04  0.7818609E-02  0.9031021E-01
        1   -1    0    0  501    0  0.00000000000E+00  0.00000000000E+00  0.98628378669E+03  0.98628378670E+03  0.50400001928E-02 0.  1.
       -1   -1    0    0    0  501  0.00000000000E+00  0.00000000000E+00 -0.42716771570E+03  0.42716771573E+03  0.50400001928E-02 0. -1.
    10030    2    1    2    0    0  0.00000000000E+00  0.00000000000E+00  0.55911607099E+03  0.14134515024E+04  0.12981657710E+04 0.  0.
        2    1    3    3  502    0  0.25219347437E+03 -0.86462360894E+02  0.92391753940E+03  0.96161369998E+03  0.25500000920E-02 0.  1.
       -2    1    3    3    0  502 -0.25219347437E+03  0.86462360894E+02 -0.36480146841E+03  0.45183780246E+03  0.25500000920E-02 0. -1.
</event>
<event>
 5   0  0.1623890E-03  0.1299400E+04  0.7818609E-02  0.9030041E-01
       -2   -1    0    0    0  501  0.00000000000E+00  0.00000000000E+00  0.62066422488E+03  0.62066422488E+03  0.25500000920E-02 0. -1.
        2   -1    0    0  501    0  0.00000000000E+00  0.00000000000E+00 -0.68009397376E+03  0.68009397376E+03  0.25500000920E-02 0.  1.
    10030    2    1    2    0    0  0.00000000000E+00  0.00000000000E+00 -0.59429748881E+02  0.13007581986E+04  0.12993998600E+04 0.  0.
        3    1    3    3  502    0 -0.27814884006E+03  0.24368000396E+03 -0.56446733395E+03  0.67481116088E+03  0.10100000352E+00 0.  1.
       -3    1    3    3    0  502  0.27814884006E+03 -0.24368000396E+03  0.50503758507E+03  0.62594703776E+03  0.10100000352E+00 0. -1.
</event>
<event>
 5   0  0.1694675E-03  0.1307942E+04  0.7818609E-02  0.9023291E-01
       -2   -1    0    0    0  501  0.00000000000E+00  0.00000000000E+00  0.42308764809E+03  0.42308764810E+03  0.25500000920E-02 0. -1.
        2   -1    0    0  501    0  0.00000000000E+00  0.00000000000E+00 -0.10108493403E+04  0.10108493403E+04  0.25500000920E-02 0.  1.
    10030    2    1    2    0    0  0.00000000000E+00  0.00000000000E+00 -0.58776169220E+03  0.14339369884E+04  0.13079416959E+04 0.  0.
        4    1    3    3  502    0 -0.13235337100E+03 -0.52588549001E+03 -0.69460937768E+03  0.88122458198E+03  0.12699999809E+01 0.  1.
       -4    1    3    3    0  502  0.13235337100E+03  0.52588549001E+03  0.10684768548E+03  0.55271240642E+03  0.12699999809E+01 0. -1.
</event>
<event>
 5   0  0.1623890E-03  0.1298578E+04  0.7818609E-02  0.9030693E-01
        2   -1    0    0  501    0  0.00000000000E+00  0.00000000000E+00  0.77327217201E+03  0.77327217202E+03  0.25500000920E-02 0. -1.
       -2   -1    0    0    0  501  0.00000000000E+00  0.00000000000E+00 -0.54518505241E+03  0.54518505242E+03  0.25500000920E-02 0.  1.
    10030    2    1    2    0    0  0.00000000000E+00  0.00000000000E+00  0.22808711960E+03  0.13184572244E+04  0.12985783452E+04 0.  0.
        3    1    3    3  502    0 -0.42873970873E+03 -0.45282786196E+03  0.29765891970E+03  0.69099323664E+03  0.10100000352E+00 0. -1.
       -3    1    3    3    0  502  0.42873970873E+03  0.45282786196E+03 -0.69571800101E+02  0.62746398779E+03  0.10100000352E+00 0.  1.
</event>
<event>
 5   0  0.1623890E-03  0.1281398E+04  0.7818609E-02  0.9044448E-01
       -2   -1    0    0    0  501  0.00000000000E+00  0.00000000000E+00  0.66700265272E+03  0.66700265273E+03  0.25500000920E-02 0. -1.
        2   -1    0    0  501    0  0.00000000000E+00  0.00000000000E+00 -0.61543304396E+03  0.61543304396E+03  0.25500000920E-02 0.  1.
    10030    2    1    2    0    0  0.00000000000E+00  0.00000000000E+00  0.51569608766E+02  0.12824356967E+04  0.12813984125E+04 0.  0.
        3    1    3    3  502    0  0.19964169502E+03  0.42291262545E+03 -0.41250070583E+03  0.62359340733E+03  0.10100000352E+00 0.  1.
       -3    1    3    3    0  502 -0.19964169502E+03 -0.42291262545E+03  0.46407031460E+03  0.65884228936E+03  0.10100000352E+00 0. -1.
</event>
<event>
 5   0  0.9027076E-04  0.1291533E+04  0.7818609E-02  0.9036307E-01
       -1   -1    0    0    0  501  0.00000000000E+00  0.00000000000E+00  0.64594543622E+03  0.64594543624E+03  0.50400001928E-02 0. -1.
        1   -1    0    0  501    0  0.00000000000E+00  0.00000000000E+00 -0.64558776410E+03  0.64558776412E+03  0.50400001928E-02 0.  1.
    10030    2    1    2    0    0  0.00000000000E+00  0.00000000000E+00  0.35767212335E+00  0.12915332004E+04  0.12915331508E+04 0.  0.
        5    1    3    3  502    0  0.58079590155E+03 -0.62282615455E+02 -0.27511987859E+03  0.64569036004E+03  0.46999998093E+01 0.  1.
       -5    1    3    3    0  502 -0.58079590155E+03  0.62282615455E+02  0.27547755072E+03  0.64584284032E+03  0.46999998093E+01 0. -1.
</event>
<event>
 5   0  0.9081324E-04  0.1294614E+04  0.7818609E-02  0.9033848E-01
       -1   -1    0    0    0  501  0.00000000000E+00  0.00000000000E+00  0.64368381356E+03  0.64368381358E+03  0.50400001928E-02 0.  1.
        1   -1    0    0  501    0  0.00000000000E+00  0.00000000000E+00 -0.65095008368E+03  0.65095008370E+03  0.50400001928E-02 0. -1.
    10030    2    1    2    0    0  0.00000000000E+00  0.00000000000E+00 -0.72662701265E+01  0.12946338973E+04  0.12946135058E+04 0.  0.
        4    1    3    3  502    0 -0.38459689152E+02 -0.32180807412E+03 -0.56396761177E+03  0.65046188535E+03  0.12699999809E+01 0. -1.
       -4    1    3    3    0  502  0.38459689152E+02  0.32180807412E+03  0.55670134165E+03  0.64417201193E+03  0.12699999809E+01 0.  1.
</event>
<event>
 5   0  0.9027076E-04  0.1308753E+04  0.7818609E-02  0.9022652E-01
        1   -1    0    0  501    0  0.00000000000E+00  0.00000000000E+00  0.74810302991E+03  0.74810302992E+03  0.50400001928E-02 0. -1.
       -1   -1    0    0    0  501  0.00000000000E+00  0.00000000000E+00 -0.57239283953E+03  0.57239283956E+03  0.50400001928E-02 0.  1.
    10030    2    1    2    0    0  0.00000000000E+00  0.00000000000E+00  0.17571019037E+03  0.13204958695E+04  0.13087533268E+04 0.  0.
        5    1    3    3  502    0  0.51692669260E+03 -0.12841527672E+03  0.47137479962E+03  0.71128052169E+03  0.46999998093E+01 0. -1.
       -5    1    3    3    0  502 -0.51692669260E+03  0.12841527672E+03 -0.29566460925E+03  0.60921534779E+03  0.46999998093E+01 0.  1.
</event>
<event>
 5   0  0.9098192E-04  0.1233479E+04  0.7818609E-02  0.9084047E-01
        1   -1    0    0  501    0  0.00000000000E+00  0.00000000000E+00  0.67855752527E+03  0.67855752529E+03  0.50400001928E-02 0.  1.
       -1   -1    0    0    0  501  0.00000000000E+00  0.00000000000E+00 -0.56055349158E+03  0.56055349160E+03  0.50400001928E-02 0. -1.
    10030    2    1    2    0    0  0.00000000000E+00  0.00000000000E+00  0.11800403369E+03  0.12391110169E+04  0.12334792906E+04 0.  0.
        1    1    3    3  502    0 -0.14530349189E+03  0.37964301598E+03  0.52493630507E+03  0.66392774362E+03  0.50400001928E-02 0.  1.
       -1    1    3    3    0  502  0.14530349189E+03 -0.37964301598E+03 -0.40693227138E+03  0.57518327328E+03  0.50400001928E-02 0. -1.
</event>
<event>
 5   0  0.1694675E-03  0.1317129E+04  0.7818609E-02  0.9016091E-01
       -2   -1    0    0    0  501  0.00000000000E+00  0.00000000000E+00  0.27926330083E+03  0.27926330084E+03  0.25500000920E-02 0.  1.
        2   -1    0    0  501    0  0.00000000000E+00  0.00000000000E+00 -0.15530413229E+04  0.15530413229E+04  0.25500000920E-02 0. -1.
    10030    2    1    2    0    0  0.00000000000E+00  0.00000000000E+00 -0.12737780220E+04  0.18323046237E+04  0.13171293728E+04 0.  0.
        4    1    3    3  502    0 -0.61689844738E+02  0.65291778637E+03 -0.55343760657E+03  0.85813872420E+03  0.12699999809E+01 0.  1.
       -4    1    3    3    0  502  0.61689844738E+02 -0.65291778637E+03 -0.72034041545E+03  0.97416589949E+03  0.12699999809E+01 0. -1.
</event>
<event>
 5   0  0.1714861E-03  0.1297485E+04  0.7818609E-02  0.9031562E-01
       -2   -1    0    0    0  501  0.00000000000E+00  0.00000000000E+00  0.23086054262E+03  0.23086054263E+03  0.25500000920E-02 0.  1.
        2   -1    0    0  501    0  0.00000000000E+00  0.00000000000E+00 -0.18230342966E+04  0.18230342966E+04  0.25500000920E-02 0. -1.
    10030    2    1    2    0    0  0.00000000000E+00  0.00000000000E+00 -0.15921737540E+04  0.20538948392E+04  0.12974847775E+04 0.  0.
        1    1    3    3  502    0  0.61440004485E+03  0.98394760533E+02 -0.10866739822E+04  0.12522097619E+04  0.50400001928E-02 0. -1.
       -1    1    3    3    0  502 -0.61440004485E+03 -0.98394760533E+02 -0.50549977176E+03  0.80168507738E+03  0.50400001928E-02 0.  1.
</event>
<event>
 5   0  0.1700511E-03  0.1298254E+04  0.7818609E-02  0.9030951E-01
        2   -1    0    0  501    0  0.00000000000E+00  0.00000000000E+00  0.69505666485E+03  0.69505666486E+03  0.25500000920E-02 0.  1.
       -2   -1    0    0    0  501  0.00000000000E+00  0.00000000000E+00 -0.60623258741E+03  0.60623258741E+03  0.25500000920E-02 0. -1.
    10030    2    1    2    0    0  0.00000000000E+00  0.00000000000E+00  0.88824077444E+02  0.13012892523E+04  0.12982542129E+04 0.  0.
        2    1    3    3  502    0 -0.11669772790E+03  0.63812141339E+03  0.20932879772E+02  0.64904197351E+03  0.25500000920E-02 0. -1.
       -2    1    3    3    0  502  0.11669772790E+03 -0.63812141339E+03  0.67891197672E+02  0.65224727876E+03  0.25500000920E-02 0.  1.
</event>
<event>
 5   0  0.9215829E-04  0.1249796E+04  0.7818609E-02  0.9070353E-01
       -1   -1    0    0    0  501  0.00000000000E+00  0.00000000000E+00  0.52330925188E+03  0.52330925190E+03  0.50400001928E-02 0. -1.
        1   -1    0    0  501    0  0.00000000000E+00  0.00000000000E+00 -0.74620755753E+03  0.74620755754E+03  0.50400001928E-02 0.  1.
    10030    2    1    2    0    0  0.00000000000E+00  0.00000000000E+00 -0.22289830565E+03  0.12695168094E+04  0.12497956932E+04 0.  0.
        3    1    3    3  502    0 -0.38673861230E+03 -0.80935256817E+02  0.38031825529E+03  0.54841522185E+03  0.10100000352E+00 0. -1.
       -3    1    3    3    0  502  0.38673861230E+03  0.80935256817E+02 -0.60321656094E+03  0.72110158760E+03  0.10100000352E+00 0.  1.
</event>
<event>
 5   0  0.1623890E-03  0.1278893E+04  0.7818609E-02  0.9046473E-01
        2   -1    0    0  501    0  0.00000000000E+00  0.00000000000E+00  0.82638065098E+03  0.82638065098E+03  0.25500000920E-02 0. -1.
       -2   -1    0    0    0  501  0.00000000000E+00  0.00000000000E+00 -0.49479857284E+03  0.49479857285E+03  0.25500000920E-02 0.  1.
    10030    2    1    2    0    0  0.00000000000E+00  0.00000000000E+00  0.33158207814E+03  0.13211792238E+04  0.12788932195E+04 0.  0.
        3    1    3    3  502    0  0.52760746188E+03 -0.28699217069E+03  0.39249590682E+03  0.71748671552E+03  0.10100000352E+00 0. -1.
       -3    1    3    3    0  502 -0.52760746188E+03  0.28699217069E+03 -0.60913828682E+02  0.60369250832E+03  0.10100000352E+00 0.  1.
</event>
<event>
 5   0  0.1667342E-03  0.1315895E+04  0.7818609E-02  0.9017054E-01
       -2   -1    0    0    0  501  0.00000000000E+00  0.00000000000E+00  0.33649930093E+03  0.33649930093E+03  0.25500000920E-02 0. -1.
        2   -1    0    0  501    0  0.00000000000E+00  0.00000000000E+00 -0.12864666097E+04  0.12864666097E+04  0.25500000920E-02 0.  1.
    10030    2    1    2    0    0  0.00000000000E+00  0.00000000000E+00 -0.94996730881E+03  0.16229659107E+04  0.13158953072E+04 0.  0.
        5    1    3    3  502    0  0.65536543769E+03 -0.50506913681E+02 -0.51026320139E+03  0.83213306024E+03  0.46999998093E+01 0.  1.
       -5    1    3    3    0  502 -0.65536543769E+03  0.50506913681E+02 -0.43970410742E+03  0.79083285044E+03  0.46999998093E+01 0. -1.
</event>
<event>
 5   0  0.1714861E-03  0.1316724E+04  0.7818609E-02  0.9016407E-01
        2   -1    0    0  501    0  0.00000000000E+00  0.00000000000E+00  0.16043763235E+04  0.16043763235E+04  0.25500000920E-02 0.  1.
       -2   -1    0    0    0  501  0.00000000000E+00  0.00000000000E+00 -0.27016137164E+03  0.27016137166E+03  0.25500000920E-02 0. -1.
    10030    2    1    2    0    0  0.00000000000E+00  0.00000000000E+00  0.13342149519E+04  0.18745376952E+04  0.13167239775E+04 0.  0.
        1    1    3    3  502    0 -0.30668546121E+03  0.45779968812E+03  0.11800201624E+04  0.13023379401E+04  0.50400001928E-02 0.  1.
       -1    1    3    3    0  502  0.30668546121E+03 -0.45779968812E+03  0.15419478946E+03  0.57219975505E+03  0.50400001928E-02 0. -1.
</event>
<event>
 5   0  0.9215829E-04  0.1291244E+04  0.7818609E-02  0.9036538E-01
        1   -1    0    0  501    0  0.00000000000E+00  0.00000000000E+00  0.52501281398E+03  0.52501281400E+03  0.50400001928E-02 0. -1.
       -1   -1    0    0    0  501  0.00000000000E+00  0.00000000000E+00 -0.79393769471E+03  0.79393769473E+03  0.50400001928E-02 0.  1.
    10030    2    1    2    0    0  0.00000000000E+00  0.00000000000E+00 -0.26892488073E+03  0.13189505087E+04  0.12912435297E+04 0.  0.
        3    1    3    3  502    0 -0.37794944277E+03  0.16081274506E+03 -0.64326822947E+03  0.76321723349E+03  0.10100000352E+00 0.  1.
       -3    1    3    3    0  502  0.37794944277E+03 -0.16081274506E+03  0.37434334873E+03  0.55573327524E+03  0.10100000352E+00 0. -1.
</event>
<event>
 5   0  0.9081324E-04  0.1262776E+04  0.7818609E-02  0.9059616E-01
        1   -1    0    0  501    0  0.00000000000E+00  0.00000000000E+00  0.15523470089E+04  0.15523470089E+04  0.50400001928E-02 0. -1.
       -1   -1    0    0    0  501  0.00000000000E+00  0.00000000000E+00 -0.25680515768E+03  0.25680515773E+03  0.50400001928E-02 0.  1.
    10030    2    1    2    0    0  0.00000000000E+00  0.00000000000E+00  0.12955418513E+04  0.18091521667E+04  0.12627758605E+04 0.  0.
        4    1    3    3  502    0  0.23498634266E+03  0.12016849748E+03  0.14695218691E+04  0.14930355608E+04  0.12699999809E+01 0. -1.
       -4    1    3    3    0  502 -0.23498634266E+03 -0.12016849748E+03 -0.17398001785E+03  0.31611660591E+03  0.12699999809E+01 0.  1.
</event>
<event>
 5   0  0.9215829E-04  0.1300856E+04  0.7818609E-02  0.9028887E-01
       -1   -1    0    0    0  501  0.00000000000E+00  0.00000000000E+00  0.41887549816E+03  0.41887549819E+03  0.50400001928E-02 0. -1.
        1   -1    0    0  501    0  0.00000000000E+00  0.00000000000E+00 -0.10099817105E+04  0.10099817105E+04  0.50400001928E-02 0.  1.
    10030    2    1    2    0    0  0.00000000000E+00  0.00000000000E+00 -0.59110621230E+03  0.14288572087E+04  0.13008560137E+04 0.  0.
        3    1    3    3  502    0 -0.61036869999E+03  0.22309296764E+03 -0.32535512222E+03  0.72675744777E+03  0.10100000352E+00 0. -1.
       -3    1    3    3    0  502  0.61036869999E+03 -0.22309296764E+03 -0.26575109008E+03  0.70209976088E+03  0.10100000352E+00 0.  1.
</event>
<event>
 5   0  0.1714861E-03  0.1314650E+04  0.7818609E-02  0.9018028E-01
        2   -1    0    0  501    0  0.00000000000E+00  0.00000000000E+00  0.97709074357E+03  0.97709074357E+03  0.25500000920E-02 0.  1.
       -2   -1    0    0    0  501  0.00000000000E+00  0.00000000000E+00 -0.44220682945E+03  0.44220682946E+03  0.25500000920E-02 0. -1.
    10030    2    1    2    0    0  0.00000000000E+00  0.00000000000E+00  0.53488391412E+03  0.14192975730E+04  0.13146500672E+04 0.  0.
        1    1    3    3  502    0  0.81279350174E+02  0.24805306641E+03  0.91873721340E+03  0.95509932668E+03  0.50400001928E-02 0.  1.
       -1    1    3    3    0  502 -0.81279350174E+02 -0.24805306641E+03 -0.38385329928E+03  0.46419824635E+03  0.50400001928E-02 0. -1.
</event>
<event>
 5   0  0.1667342E-03  0.1295333E+04  0.7818609E-02  0.9033274E-01
        2   -1    0    0  501    0  0.00000000000E+00  0.00000000000E+00  0.15043403672E+04  0.15043403672E+04  0.25500000920E-02 0. -1.
       -2   -1    0    0    0  501  0.00000000000E+00  0.00000000000E+00 -0.27884114385E+03  0.27884114386E+03  0.25500000920E-02 0.  1.
    10030    2    1    2    0    0  0.00000000000E+00  0.00000000000E+00  0.12254992233E+04  0.17831815111E+04  0.12953331444E+04 0.  0.
        5    1    3    3  502    0 -0.57696339481E+03 -0.20600412809E+03  0.32357604344E+03  0.69285496723E+03  0.46999998093E+01 0. -1.
       -5    1    3    3    0  502  0.57696339481E+03  0.20600412809E+03  0.90192317991E+03  0.10903265438E+04  0.46999998093E+01 0.  1.
</event>
<event>
 5   0  0.1700511E-03  0.1187874E+04  0.7818609E-02  0.9123537E-01
        2   -1    0    0  501    0  0.00000000000E+00  0.00000000000E+00  0.29401602837E+03  0.29401602838E+03  0.25500000920E-02 0.  1.
       -2   -1    0    0    0  501  0.00000000000E+00  0.00000000000E+00 -0.11998033277E+04  0.11998033277E+04  0.25500000920E-02 0. -1.
    10030    2    1    2    0    0  0.00000000000E+00  0.00000000000E+00 -0.90578729934E+03  0.14938193561E+04  0.11878744197E+04 0.  0.
        2    1    3    3  502    0 -0.30789710892E+03  0.49790318147E+03 -0.32680391098E+03  0.67045432659E+03  0.25500000920E-02 0. -1.
       -2    1    3    3    0  502  0.30789710892E+03 -0.49790318147E+03 -0.57898338836E+03  0.82336502950E+03  0.25500000920E-02 0.  1.
</event>
<event>
 5   0  0.1623890E-03  0.1279927E+04  0.7818609E-02  0.9045637E-01
       -2   -1    0    0    0  501  0.00000000000E+00  0.00000000000E+00  0.61188609520E+03  0.61188609521E+03  0.25500000920E-02 0.  1.
        2   -1    0    0  501    0  0.00000000000E+00  0.00000000000E+00 -0.66932901514E+03  0.66932901515E+03  0.25500000920E-02 0. -1.
    10030    2    1    2    0    0  0.00000000000E+00  0.00000000000E+00 -0.57442919940E+02  0.12812151104E+04  0.12799267440E+04 0.  0.
        3    1    3    3  502    0  0.61999839343E+03  0.15522248205E+03 -0.61328479545E+02  0.64206948175E+03  0.10100000352E+00 0.  1.
       -3    1    3    3    0  502 -0.61999839343E+03 -0.15522248205E+03  0.38855596057E+01  0.63914562861E+03  0.10100000352E+00 0. -1.
</event>
<event>
 5   0  0.1700511E-03  0.1298215E+04  0.7818609E-02  0.9030982E-01
        2   -1    0    0  501    0  0.00000000000E+00  0.00000000000E+00  0.13167148225E+04  0.13167148225E+04  0.25500000920E-02 0. -1.
       -2   -1    0    0    0  501  0.00000000000E+00  0.00000000000E+00 -0.31999371124E+03  0.31999371125E+03  0.25500000920E-02 0.  1.
    10030    2    1    2    0    0  0.00000000000E+00  0.00000000000E+00  0.99672111127E+03  0.16367085338E+04  0.12982148708E+04 0.  0.
        2    1    3    3  502    0 -0.53411136553E+03  0.63387410307E+01  0.96334097513E+03  0.11015175735E+04  0.25500000920E-02 0. -1.
       -2    1    3    3    0  502  0.53411136553E+03 -0.63387410307E+01  0.33380136133E+02  0.53519096024E+03  0.25500000920E-02 0.  1.
</event>
<event>
 5   0  0.1623890E-03  0.1308024E+04  0.7818609E-02  0.9023226E-01
        2   -1    0    0  501    0  0.00000000000E+00  0.00000000000E+00  0.10829562550E+04  0.10829562550E+04  0.25500000920E-02 0.  1.
       -2   -1    0    0    0  501  0.00000000000E+00  0.00000000000E+00 -0.39496661489E+03  0.39496661490E+03  0.25500000920E-02 0. -1.
    10030    2    1    2    0    0  0.00000000000E+00  0.00000000000E+00  0.68798964008E+03  0.14779228699E+04  0.13080238012E+04 0.  0.
        3    1    3    3  502    0 -0.33152796060E+03 -0.52088645530E+03  0.58763761720E+03  0.85237988440E+03  0.10100000352E+00 0.  1.
       -3    1    3    3    0  502  0.33152796060E+03  0.52088645530E+03  0.10035202287E+03  0.62554298547E+03  0.10100000352E+00 0. -1.
</event>
<event>
 5   0  0.1623890E-03  0.1292713E+04  0.7818609E-02  0.9035364E-01
        2   -1    0    0  501    0  0.00000000000E+00  0.00000000000E+00  0.92858693595E+03  0.92858693595E+03  0.25500000920E-02 0. -1.
       -2   -1    0    0    0  501  0.00000000000E+00  0.00000000000E+00 -0.44990609114E+03  0.44990609114E+03  0.25500000920E-02 0.  1.
    10030    2    1    2    0    0  0.00000000000E+00  0.00000000000E+00  0.47868084481E+03  0.13784930271E+04  0.12927132994E+04 0.  0.
        3    1    3    3  502    0  0.86089756052E+02 -0.54515162537E+03  0.59807887470E+03  0.81381821760E+03  0.10100000352E+00 0. -1.
       -3    1    3    3    0  502 -0.86089756052E+02  0.54515162537E+03 -0.11939802989E+03  0.56467480949E+03  0.10100000352E+00 0.  1.
</event>
<event>
 5   0  0.1694675E-03  0.1306678E+04  0.7818609E-02  0.9024286E-01
       -2   -1    0    0    0  501  0.00000000000E+00  0.00000000000E+00  0.23267123763E+03  0.23267123765E+03  0.25500000920E-02 0. -1.
        2   -1    0    0  501    0  0.00000000000E+00  0.00000000000E+00 -0.18345700943E+04  0.18345700943E+04  0.25500000920E-02 0.  1.
    10030    2    1    2    0    0  0.00000000000E+00  0.00000000000E+00 -0.16018988566E+04  0.20672413319E+04  0.13066777634E+04 0.  0.
        4    1    3    3  502    0  0.11513704896E+03  0.25448625820E+03 -0.17353428472E+04  0.17576792102E+04  0.12699999809E+01 0.  1.
       -4    1    3    3    0  502 -0.11513704896E+03 -0.25448625820E+03  0.13344399062E+03  0.30956212169E+03  0.12699999809E+01 0. -1.
</event>
<event>
 5   0  0.9215829E-04  0.1305733E+04  0.7818609E-02  0.9025032E-01
       -1   -1    0    0    0  501  0.00000000000E+00  0.00000000000E+00  0.23833418032E+03  0.23833418037E+03  0.50400001928E-02 0.  1.
        1   -1    0    0  501    0  0.00000000000E+00  0.00000000000E+00 -0.17883894844E+04  0.17883894844E+04  0.50400001928E-02 0. -1.
    10030    2    1    2    0    0  0.00000000000E+00  0.00000000000E+00 -0.15500553041E+04  0.20267236648E+04  0.13057325023E+04 0.  0.
        3    1    3    3  502    0 -0.11978843674E+03  0.39887871639E+03 -0.15554189052E+04  0.16102116261E+04  0.10100000352E+00 0. -1.
       -3    1    3    3    0  502  0.11978843674E+03 -0.39887871639E+03  0.53636010960E+01  0.41651203870E+03  0.10100000352E+00 0.  1.
</event>
<event>
 5   0  0.9110949E-04  0.1297094E+04  0.7818609E-02  0.9031873E-01
       -1   -1    0    0    0  501  0.00000000000E+00  0.00000000000E+00  0.65298246952E+03  0.65298246954E+03  0.50400001928E-02 0.  1.
        1   -1    0    0  501    0  0.00000000000E+00  0.00000000000E+00 -0.64414194608E+03  0.64414194610E+03  0.50400001928E-02 0. -1.
    10030    2    1    2    0    0  0.00000000000E+00  0.00000000000E+00  0.88405234385E+01  0.12971244156E+04  0.12970942891E+04 0.  0.
        2    1    3    3  502    0 -0.62293994711E+03  0.47527842740E+02  0.17849419050E+03  0.64974860492E+03  0.25500000920E-02 0. -1.
       -2    1    3    3    0  502  0.62293994711E+03 -0.47527842740E+02 -0.16965366706E+03  0.64737581072E+03  0.25500000920E-02 0.  1.
</event>
<event>
 5   0  0.9110949E-04  0.1319090E+04  0.7818609E-02  0.9014562E-01
        1   -1    0    0  501    0  0.00000000000E+00  0.00000000000E+00  0.76473954321E+03  0.76473954323E+03  0.50400001928E-02 0.  1.
       -1   -1    0    0    0  501  0.00000000000E+00  0.00000000000E+00 -0.56882029985E+03  0.56882029987E+03  0.50400001928E-02 0. -1.
    10030    2    1    2    0    0  0.00000000000E+00  0.00000000000E+00  0.19591924336E+03  0.13335598431E+04  0.13190896502E+04 0.  0.
        2    1    3    3  502    0  0.63558109914E+03  0.49362748941E+02  0.26892822620E+03  0.69189768421E+03  0.25500000920E-02 0.  1.
       -2    1    3    3    0  502 -0.63558109914E+03 -0.49362748941E+02 -0.73008982840E+02  0.64166215889E+03  0.25500000920E-02 0. -1.
</event>
<event>
 5   0  0.9215829E-04  0.1271929E+04  0.7818609E-02  0.9052127E-01
       -1   -1    0    0    0  501  0.00000000000E+00  0.00000000000E+00  0.89558652521E+03  0.89558652522E+03  0.50400001928E-02 0. -1.
        1   -1    0    0  501    0  0.00000000000E+00  0.00000000000E+00 -0.45160416847E+03  0.45160416849E+03  0.50400001928E-02 0.  1.
    10030    2    1    2    0    0  0.00000000000E+00  0.00000000000E+00  0.44398235674E+03  0.13471906937E+04  0.12719286270E+04 0.  0.
        3    1    3    3  502    0 -0.48387377913E+03 -0.15671164160E+03  0.62636484661E+03  0.80686139083E+03  0.10100000352E+00 0. -1.
       -3    1    3    3    0  502  0.48387377913E+03  0.15671164160E+03 -0.18238248986E+03  0.54032930289E+03  0.10100000352E+00 0.  1.
</event>
<event>
 5   0  0.1714861E-03  0.1330851E+04  0.7818609E-02  0.9005451E-01
        2   -1    0    0  501    0  0.00000000000E+00  0.00000000000E+00  0.60334971819E+03  0.60334971820E+03  0.25500000920E-02 0.  1.
       -2   -1    0    0    0  501  0.00000000000E+00  0.00000000000E+00 -0.73388808444E+03  0.73388808444E+03  0.25500000920E-02 0. -1.
    10030    2    1    2    0    0  0.00000000000E+00  0.00000000000E+00 -0.13053836625E+03  0.13372378026E+04  0.13308511095E+04 0.  0.
        1    1    3    3  502    0 -0.37920557915E+02  0.51702383886E+03 -0.48445168983E+03  0.70953862366E+03  0.50400001928E-02 0. -1.
       -1    1    3    3    0  502  0.37920557915E+02 -0.51702383886E+03  0.35391332358E+03  0.62769917898E+03  0.50400001928E-02 0.  1.
</event>
<event>
 5   0  0.9215829E-04  0.1227597E+04  0.7818609E-02  0.9089038E-01
       -1   -1    0    0    0  501  0.00000000000E+00  0.00000000000E+00  0.77449975780E+03  0.77449975781E+03  0.50400001928E-02 0. -1.
        1   -1    0    0  501    0  0.00000000000E+00  0.00000000000E+00 -0.48644142416E+03  0.48644142418E+03  0.50400001928E-02 0.  1.
    10030    2    1    2    0    0  0.00000000000E+00  0.00000000000E+00  0.28805833364E+03  0.12609411820E+04  0.12275972715E+04 0.  0.
        3    1    3    3  502    0  0.35939568529E+02 -0.55300526663E+03 -0.12703705164E+03  0.56854630435E+03  0.10100000352E+00 0.  1.
       -3    1    3    3    0  502 -0.35939568529E+02  0.55300526663E+03  0.41509538529E+03  0.69239487764E+03  0.10100000352E+00 0. -1.
</event>
<event>
 5   0  0.1623890E-03  0.1262896E+04  0.7818609E-02  0.9059518E-01
        2   -1    0    0  501    0  0.00000000000E+00  0.00000000000E+00  0.99809949205E+03  0.99809949205E+03  0.25500000920E-02 0. -1.
       -2   -1    0    0    0  501  0.00000000000E+00  0.00000000000E+00 -0.39948595684E+03  0.39948595685E+03  0.25500000920E-02 0.  1.
    10030    2    1    2    0    0  0.00000000000E+00  0.00000000000E+00  0.59861353520E+03  0.13975854489E+04  0.12628962437E+04 0.  0.
        3    1    3    3  502    0  0.60573049497E+03 -0.89542724290E+02  0.12858315301E+03  0.62566841813E+03  0.10100000352E+00 0.  1.
       -3    1    3    3    0  502 -0.60573049497E+03  0.89542724290E+02  0.47003038220E+03  0.77191703077E+03  0.10100000352E+00 0. -1.
</event>
<event>
 5   0  0.9098192E-04  0.1306482E+04  0.7818609E-02  0.9024440E-01
        1   -1    0    0  501    0  0.00000000000E+00  0.00000000000E+00  0.73892606094E+03  0.73892606096E+03  0.50400001928E-02 0.  1.
       -1   -1    0    0    0  501  0.00000000000E+00  0.00000000000E+00 -0.57749227678E+03  0.57749227681E+03  0.50400001928E-02 0. -1.
    10030    2    1    2    0    0  0.00000000000E+00  0.00000000000E+00  0.16143378416E+03  0.13164183378E+04  0.13064824428E+04 0.  0.
        1    1    3    3  502    0  0.60310370526E+03 -0.20957532464E+03 -0.58420918163E+02  0.64114655088E+03  0.50400001928E-02 0. -1.
       -1    1    3    3    0  502 -0.60310370526E+03  0.20957532464E+03  0.21985470232E+03  0.67527178688E+03  0.50400001928E-02 0.  1.
</event>
<event>
 5   0  0.1694675E-03  0.1275297E+04  0.7818609E-02  0.9049387E-01
       -2   -1    0    0    0  501  0.00000000000E+00  0.00000000000E+00  0.33386784823E+03  0.33386784824E+03  0.25500000920E-02 0.  1.
        2   -1    0    0  501    0  0.00000000000E+00  0.00000000000E+00 -0.12178347382E+04  0.12178347382E+04  0.25500000920E-02 0. -1.
    10030    2    1    2    0    0  0.00000000000E+00  0.00000000000E+00 -0.88396688999E+03  0.15517025865E+04  0.12752973984E+04 0.  0.
        4    1    3    3  502    0 -0.20742287070E+03  0.57966267576E+03 -0.23998596152E+03  0.66077828323E+03  0.12699999809E+01 0.  1.
       -4    1    3    3    0  502  0.20742287070E+03 -0.57966267576E+03 -0.64398092847E+03  0.89092430324E+03  0.12699999809E+01 0. -1.
</event>
<event>
 5   0  0.1694675E-03  0.1290185E+04  0.7818609E-02  0.9037385E-01
       -2   -1    0    0    0  501  0.00000000000E+00  0.00000000000E+00  0.57464105544E+03  0.57464105544E+03  0.25500000920E-02 0.  1.
        2   -1    0    0  501    0  0.00000000000E+00  0.00000000000E+00 -0.72418169653E+03  0.72418169654E+03  0.25500000920E-02 0. -1.
    10030    2    1    2    0    0  0.00000000000E+00  0.00000000000E+00 -0.14954064110E+03  0.12988227520E+04  0.12901853114E+04 0.  0.
        4    1    3    3  502    0  0.11958986166E+03  0.25500940275E+03  0.50946953470E+03  0.58214461278E+03  0.12699999809E+01 0.  1.
       -4    1    3    3    0  502 -0.11958986166E+03 -0.25500940275E+03 -0.65901017580E+03  0.71667813920E+03  0.12699999809E+01 0. -1.
</event>
<event>
 5   0  0.9027076E-04  0.1302402E+04  0.7818609E-02  0.9027662E-01
       -1   -1    0    0    0  501  0.00000000000E+00  0.00000000000E+00  0.45856616969E+03  0.45856616971E+03  0.50400001928E-02 0.  1.
        1   -1    0    0  501    0  0.00000000000E+00  0.00000000000E+00 -0.92475855705E+03  0.92475855707E+03  0.50400001928E-02 0. -1.
    10030    2    1    2    0    0  0.00000000000E+00  0.00000000000E+00 -0.46619238737E+03  0.13833247268E+04  0.13024023793E+04 0.  0.
        5    1    3    3  502    0 -0.61097988544E+03  0.24920234100E+02  0.46970353930E+01  0.61152399023E+03  0.46999998093E+01 0.  1.
       -5    1    3    3    0  502  0.61097988544E+03 -0.24920234100E+02 -0.47088942276E+03  0.77180073655E+03  0.46999998093E+01 0. -1.
</event>
<event>
 5   0  0.9215829E-04  0.1294658E+04  0.7818609E-02  0.9033812E-01
        1   -1    0    0  501    0  0.00000000000E+00  0.00000000000E+00  0.59179174578E+03  0.59179174580E+03  0.50400001928E-02 0. -1.
       -1   -1    0    0    0  501  0.00000000000E+00  0.00000000000E+00 -0.70807838316E+03  0.70807838318E+03  0.50400001928E-02 0.  1.
    10030    2    1    2    0    0  0.00000000000E+00  0.00000000000E+00 -0.11628663738E+03  0.12998701290E+04  0.12946581673E+04 0.  0.
        3    1    3    3  502    0  0.48686365011E+03 -0.42660778296E+03 -0.60277449816E+02  0.65012598428E+03  0.10100000352E+00 0.  1.
       -3    1    3    3    0  502 -0.48686365011E+03  0.42660778296E+03 -0.56009187563E+02  0.64974414470E+03  0.10100000352E+00 0. -1.
</event>
<event>
 5   0  0.9110949E-04  0.1375102E+04  0.7818609E-02  0.8972041E-01
        1   -1    0    0  501    0  0.00000000000E+00  0.00000000000E+00  0.90098706751E+03  0.90098706752E+03  0.50400001928E-02 0. -1.
       -1   -1    0    0    0  501  0.00000000000E+00  0.00000000000E+00 -0.52467587508E+03  0.52467587511E+03  0.50400001928E-02 0.  1.
    10030    2    1    2    0    0  0.00000000000E+00  0.00000000000E+00  0.37631119242E+03  0.14256629426E+04  0.13751017099E+04 0.  0.
        2    1    3    3  502    0  0.28430273212E+03  0.92851992939E+02  0.83001249799E+03  0.88225295858E+03  0.25500000920E-02 0. -1.
       -2    1    3    3    0  502 -0.28430273212E+03 -0.92851992939E+02 -0.45370130557E+03  0.54340998405E+03  0.25500000920E-02 0.  1.
</event>
<event>
 5   0  0.1694675E-03  0.1108826E+04  0.7818609E-02  0.9196632E-01
       -2   -1    0    0    0  501  0.00000000000E+00  0.00000000000E+00  0.62349460361E+03  0.62349460361E+03  0.25500000920E-02 0. -1.
        2   -1    0    0  501    0  0.00000000000E+00  0.00000000000E+00 -0.49298568207E+03  0.49298568208E+03  0.25500000920E-02 0.  1.
    10030    2    1    2    0    0  0.00000000000E+00  0.00000000000E+00  0.13050892154E+03  0.11164802857E+04  0.11088262487E+04 0.  0.
        4    1    3    3  502    0 -0.78418747584E+02 -0.82720798116E+02 -0.48105882490E+03  0.49437985024E+03  0.12699999809E+01 0.  1.
       -4    1    3    3    0  502  0.78418747584E+02  0.82720798116E+02  0.61156774643E+03  0.62210043545E+03  0.12699999809E+01 0. -1.
</event>
<event>
 5   0  0.9215829E-04  0.1319917E+04  0.7818609E-02  0.9013919E-01
       -1   -1    0    0    0  501  0.00000000000E+00  0.00000000000E+00  0.42822687678E+03  0.42822687681E+03  0.50400001928E-02 0. -1.
        1   -1    0    0  501    0  0.00000000000E+00  0.00000000000E+00 -0.10170892746E+04  0.10170892746E+04  0.50400001928E-02 0.  1.
    10030    2    1    2    0    0  0.00000000000E+00  0.00000000000E+00 -0.58886239779E+03  0.14453161514E+04  0.13199166087E+04 0.  0.
        3    1    3    3  502    0 -0.12079777451E+03  0.59582563940E+03 -0.57562527918E+03  0.83722444251E+03  0.10100000352E+00 0.  1.
       -3    1    3    3    0  502  0.12079777451E+03 -0.59582563940E+03 -0.13237118605E+02  0.60809170888E+03  0.10100000352E+00 0. -1.
</event>
<event>
 5   0  0.1700511E-03  0.1307038E+04  0.7818609E-02  0.9024003E-01
        2   -1    0    0  501    0  0.00000000000E+00  0.00000000000E+00  0.81823360475E+03  0.81823360475E+03  0.25500000920E-02 0. -1.
       -2   -1    0    0    0  501  0.00000000000E+00  0.00000000000E+00 -0.52196200713E+03  0.52196200713E+03  0.25500000920E-02 0.  1.
    10030    2    1    2    0    0  0.00000000000E+00  0.00000000000E+00  0.29627159762E+03  0.13401956119E+04  0.13070376500E+04 0.  0.
        2    1    3    3  502    0  0.60923534695E+02  0.48163060551E+03  0.59673568372E+03  0.76926795948E+03  0.25500000920E-02 0. -1.
       -2    1    3    3    0  502 -0.60923534695E+02 -0.48163060551E+03 -0.30046408610E+03  0.57092765241E+03  0.25500000920E-02 0.  1.
</event>
<event>
 5   0  0.1694675E-03  0.1281035E+04  0.7818609E-02  0.9044741E-01
       -2   -1    0    0    0  501  0.00000000000E+00  0.00000000000E+00  0.23171485121E+03  0.23171485122E+03  0.25500000920E-02 0. -1.
        2   -1    0    0  501    0  0.00000000000E+00  0.00000000000E+00 -0.17705498392E+04  0.17705498392E+04  0.25500000920E-02 0.  1.
    10030    2    1    2    0    0  0.00000000000E+00  0.00000000000E+00 -0.15388349880E+04  0.20022646904E+04  0.12810350386E+04 0.  0.
        4    1    3    3  502    0  0.39229297578E+03  0.16339793597E+02 -0.15603975511E+04  0.16090378796E+04  0.12699999809E+01 0.  1.
       -4    1    3    3    0  502 -0.39229297578E+03 -0.16339793597E+02  0.21562563112E+02  0.39322681079E+03  0.12699999809E+01 0. -1.
</event>
<event>
 5   0  0.9027076E-04  0.1288720E+04  0.7818609E-02  0.9038558E-01
       -1   -1    0    0    0  501  0.00000000000E+00  0.00000000000E+00  0.67598126818E+03  0.67598126820E+03  0.50400001928E-02 0.  1.
        1   -1    0    0  501    0  0.00000000000E+00  0.00000000000E+00 -0.61421823862E+03  0.61421823864E+03  0.50400001928E-02 0. -1.
    10030    2    1    2    0    0  0.00000000000E+00  0.00000000000E+00  0.61763029564E+02  0.12901995068E+04  0.12887203326E+04 0.  0.
        5    1    3    3  502    0  0.28759037220E+03 -0.27321545373E+03  0.53922708444E+03  0.66943472044E+03  0.46999998093E+01 0.  1.
       -5    1    3    3    0  502 -0.28759037220E+03  0.27321545373E+03 -0.47746405488E+03  0.62076478640E+03  0.46999998093E+01 0. -1.
</event>
<event>
 5   0  0.9110949E-04  0.1384950E+04  0.7818609E-02  0.8964785E-01
       -1   -1    0    0    0  501  0.00000000000E+00  0.00000000000E+00  0.82930396304E+03  0.82930396306E+03  0.50400001928E-02 0.  1.
        1   -1    0    0  501    0  0.00000000000E+00  0.00000000000E+00 -0.57822182031E+03  0.57822182033E+03  0.50400001928E-02 0. -1.
    10030    2    1    2    0    0  0.00000000000E+00  0.00000000000E+00  0.25108214273E+03  0.14075257834E+04  0.13849500311E+04 0.  0.
        2    1    3    3  502    0  0.21707669001E+02  0.68590191807E+03  0.31353602372E+02  0.68696121615E+03  0.25500000920E-02 0. -1.
       -2    1    3    3    0  502 -0.21707669001E+02 -0.68590191807E+03  0.21972854036E+03  0.72056456724E+03  0.25500000920E-02 0.  1.
</event>
<event>
 5   0  0.1700511E-03  0.1312700E+04  0.7818609E-02  0.9019554E-01
       -2   -1    0    0    0  501  0.00000000000E+00  0.00000000000E+00  0.31407060410E+03  0.31407060411E+03  0.25500000920E-02 0. -1.
        2   -1    0    0  501    0  0.00000000000E+00  0.00000000000E+00 -0.13716508402E+04  0.13716508402E+04  0.25500000920E-02 0.  1.
    10030    2    1    2    0    0  0.00000000000E+00  0.00000000000E+00 -0.10575802361E+04  0.16857214443E+04  0.13126998256E+04 0.  0.
        2    1    3    3  502    0 -0.14615985959E+03  0.44516785907E+03 -0.11190279586E+04  0.12131614482E+04  0.25500000920E-02 0.  1.
       -2    1    3    3    0  502  0.14615985959E+03 -0.44516785907E+03  0.61447722500E+02  0.47255999610E+03  0.25500000920E-02 0. -1.
</event>
<event>
 5   0  0.1623890E-03  0.1297373E+04  0.7818609E-02  0.9031651E-01
       -2   -1    0    0    0  501  0.00000000000E+00  0.00000000000E+00  0.29753984749E+03  0.29753984750E+03  0.25500000920E-02 0.  1.
        2   -1    0    0  501    0  0.00000000000E+00  0.00000000000E+00 -0.14142451577E+04  0.14142451577E+04  0.25500000920E-02 0. -1.
    10030    2    1    2    0    0  0.00000000000E+00  0.00000000000E+00 -0.11167053102E+04  0.17117850052E+04  0.12973731746E+04 0.  0.
        3    1    3    3  502    0 -0.12012259712E+03 -0.22435533113E+03 -0.13456291976E+04  0.13694826398E+04  0.10100000352E+00 0. -1.
       -3    1    3    3    0  502  0.12012259712E+03  0.22435533113E+03  0.22892388741E+03  0.34230236542E+03  0.10100000352E+00 0.  1.
</event>
<event>
 5   0  0.1667342E-03  0.1295495E+04  0.7818609E-02  0.9033146E-01
       -2   -1    0    0    0  501  0.00000000000E+00  0.00000000000E+00  0.58307082781E+03  0.58307082782E+03  0.25500000920E-02 0.  1.
        2   -1    0    0  501    0  0.00000000000E+00  0.00000000000E+00 -0.71959783701E+03  0.71959783701E+03  0.25500000920E-02 0. -1.
    10030    2    1    2    0    0  0.00000000000E+00  0.00000000000E+00 -0.13652700920E+03  0.13026686648E+04  0.12954945103E+04 0.  0.
        5    1    3    3  502    0 -0.24065809902E+03  0.18254924780E+03  0.50789636192E+03  0.59094953502E+03  0.46999998093E+01 0.  1.
       -5    1    3    3    0  502  0.24065809902E+03 -0.18254924780E+03 -0.64442337112E+03  0.71171912981E+03  0.46999998093E+01 0. -1.
</event>
<event>
 5   0  0.9110949E-04  0.1292685E+04  0.7818609E-02  0.9035386E-01
        1   -1    0    0  501    0  0.00000000000E+00  0.00000000000E+00  0.83618038455E+03  0.83618038456E+03  0.50400001928E-02 0.  1.
       -1   -1    0    0    0  501  0.00000000000E+00  0.00000000000E+00 -0.49960319873E+03  0.49960319875E+03  0.50400001928E-02 0. -1.
    10030    2    1    2    0    0  0.00000000000E+00  0.00000000000E+00  0.33657718582E+03  0.13357835833E+04  0.12926846404E+04 0.  0.
        2    1    3    3  502    0  0.33621435461E+03 -0.93556887195E+02 -0.39387665253E+03  0.52624310048E+03  0.25500000920E-02 0. -1.
       -2    1    3    3    0  502 -0.33621435461E+03  0.93556887195E+02  0.73045383835E+03  0.80954048284E+03  0.25500000920E-02 0.  1.
</event>
<event>
 5   0  0.1700511E-03  0.1301207E+04  0.7818609E-02  0.9028608E-01
        2   -1    0    0  501    0  0.00000000000E+00  0.00000000000E+00  0.12725385122E+04  0.12725385122E+04  0.25500000920E-02 0.  1.
       -2   -1    0    0    0  501  0.00000000000E+00  0.00000000000E+00 -0.33263045982E+03  0.33263045983E+03  0.25500000920E-02 0. -1.
    10030    2    1    2    0    0  0.00000000000E+00  0.00000000000E+00  0.93990805234E+03  0.16051689720E+04  0.13012072402E+04 0.  0.
        2    1    3    3  502    0 -0.41109654277E+03  0.49981897797E+03  0.38751769036E+03  0.75431381968E+03  0.25500000920E-02 0.  1.
       -2    1    3    3    0  502  0.41109654277E+03 -0.49981897797E+03  0.55239036198E+03  0.85085515232E+03  0.25500000920E-02 0. -1.
</event>
<event>
 5   0  0.9110949E-04  0.1294941E+04  0.7818609E-02  0.9033587E-01
        1   -1    0    0  501    0  0.00000000000E+00  0.00000000000E+00  0.21251667679E+03  0.21251667685E+03  0.50400001928E-02 0.  1.
       -1   -1    0    0    0  501  0.00000000000E+00  0.00000000000E+00 -0.19726363707E+04  0.19726363707E+04  0.50400001928E-02 0. -1.
    10030    2    1    2    0    0  0.00000000000E+00  0.00000000000E+00 -0.17601196939E+04  0.21851530476E+04  0.12949411200E+04 0.  0.
        2    1    3    3  502    0  0.41038216829E+03  0.77504607242E+02 -0.45157946048E+02  0.42007109909E+03  0.25500000920E-02 0.  1.
       -2    1    3    3    0  502 -0.41038216829E+03 -0.77504607242E+02 -0.17149617479E+04  0.17650819485E+04  0.25500000920E-02 0. -1.
</event>
<event>
 5   0  0.1667342E-03  0.1296724E+04  0.7818609E-02  0.9032167E-01
       -2   -1    0    0    0  501  0.00000000000E+00  0.00000000000E+00  0.28449037604E+03  0.28449037605E+03  0.25500000920E-02 0.  1.
        2   -1    0    0  501    0  0.00000000000E+00  0.00000000000E+00 -0.14776366098E+04  0.14776366098E+04  0.25500000920E-02 0. -1.
    10030    2    1    2    0    0  0.00000000000E+00  0.00000000000E+00 -0.11931462338E+04  0.17621269859E+04  0.12967241724E+04 0.  0.
        5    1    3    3  502    0  0.59269210923E+03 -0.26229874088E+03 -0.61876697674E+03  0.89609108204E+03  0.46999998093E+01 0.  1.
       -5    1    3    3    0  502 -0.59269210923E+03  0.26229874088E+03 -0.57437925707E+03  0.86603590385E+03  0.46999998093E+01 0. -1.
</event>
<event>
 5   0  0.9098192E-04  0.1310787E+04  0.7818609E-02  0.9021055E-01
        1   -1    0    0  501    0  0.00000000000E+00  0.00000000000E+00  0.11691021828E+04  0.11691021828E+04  0.50400001928E-02 0.  1.
       -1   -1    0    0    0  501  0.00000000000E+00  0.00000000000E+00 -0.36741050659E+03  0.36741050663E+03  0.50400001928E-02 0. -1.
    10030    2    1    2    0    0  0.00000000000E+00  0.00000000000E+00  0.80169167622E+03  0.15365126895E+04  0.13107866726E+04 0.  0.
        1    1    3    3  502    0  0.32512699525E+03 -0.14534811248E+03  0.10457797512E+04  0.11047574055E+04  0.50400001928E-02 0. -1.
       -1    1    3    3    0  502 -0.32512699525E+03  0.14534811248E+03 -0.24408807502E+03  0.43175528397E+03  0.50400001928E-02 0.  1.
</event>
<event>
 5   0  0.9110949E-04  0.1289027E+04  0.7818609E-02  0.9038312E-01
        1   -1    0    0  501    0  0.00000000000E+00  0.00000000000E+00  0.14700845769E+04  0.14700845769E+04  0.50400001928E-02 0.  1.
       -1   -1    0    0    0  501  0.00000000000E+00  0.00000000000E+00 -0.28256737265E+03  0.28256737269E+03  0.50400001928E-02 0. -1.
    10030    2    1    2    0    0  0.00000000000E+00  0.00000000000E+00  0.11875172042E+04  0.17526519496E+04  0.12890274419E+04 0.  0.
        2    1    3    3  502    0 -0.23969790615E+03  0.55995945900E+03  0.88022095267E+03  0.10704198277E+04  0.25500000920E-02 0.  1.
       -2    1    3    3    0  502  0.23969790615E+03 -0.55995945900E+03  0.30729625155E+03  0.68223212190E+03  0.25500000920E-02 0. -1.
</event>
<event>
 5   0  0.9098192E-04  0.1304839E+04  0.7818609E-02  0.9025736E-01
        1   -1    0    0  501    0  0.00000000000E+00  0.00000000000E+00  0.52291288213E+03  0.52291288215E+03  0.50400001928E-02 0. -1.
       -1   -1    0    0    0  501  0.00000000000E+00  0.00000000000E+00 -0.81400074575E+03  0.81400074577E+03  0.50400001928E-02 0.  1.
    10030    2    1    2    0    0  0.00000000000E+00  0.00000000000E+00 -0.29108786362E+03  0.13369136279E+04  0.13048394170E+04 0.  0.
        1    1    3    3  502    0 -0.37288931835E+03  0.52680967202E+03 -0.24315699080E+03  0.68971022645E+03  0.50400001928E-02 0. -1.
       -1    1    3    3    0  502  0.37288931835E+03 -0.52680967202E+03 -0.47930872823E+02  0.64720340147E+03  0.50400001928E-02 0.  1.
</event>
<event>
 5   0  0.1667342E-03  0.1279878E+04  0.7818609E-02  0.9045676E-01
        2   -1    0    0  501    0  0.00000000000E+00  0.00000000000E+00  0.97076587768E+03  0.97076587768E+03  0.25500000920E-02 0.  1.
       -2   -1    0    0    0  501  0.00000000000E+00  0.00000000000E+00 -0.42185454520E+03  0.42185454520E+03  0.25500000920E-02 0. -1.
    10030    2    1    2    0    0  0.00000000000E+00  0.00000000000E+00  0.54891133248E+03  0.13926204229E+04  0.12798781158E+04 0.  0.
        5    1    3    3  502    0 -0.15089559318E+03  0.55361411844E+03  0.58267833338E+03  0.81779838736E+03  0.46999998093E+01 0.  1.
       -5    1    3    3    0  502  0.15089559318E+03 -0.55361411844E+03 -0.33767000899E+02  0.57482203553E+03  0.46999998093E+01 0. -1.
</event>
<event>
 5   0  0.9027076E-04  0.1295254E+04  0.7818609E-02  0.9033337E-01
       -1   -1    0    0    0  501  0.00000000000E+00  0.00000000000E+00  0.97913796515E+03  0.97913796516E+03  0.50400001928E-02 0.  1.
        1   -1    0    0  501    0  0.00000000000E+00  0.00000000000E+00 -0.42835717255E+03  0.42835717258E+03  0.50400001928E-02 0. -1.
    10030    2    1    2    0    0  0.00000000000E+00  0.00000000000E+00  0.55078079260E+03  0.14074951377E+04  0.12952540605E+04 0.  0.
        5    1    3    3  502    0 -0.89486959485E+02  0.39641855567E+03  0.82330960066E+03  0.91815923223E+03  0.46999998093E+01 0.  1.
       -5    1    3    3    0  502  0.89486959485E+02 -0.39641855567E+03 -0.27252880806E+03  0.48933590551E+03  0.46999998093E+01 0. -1.
</event>
<event>
 5   0  0.9215829E-04  0.1304595E+04  0.7818609E-02  0.9025929E-01
       -1   -1    0    0    0  501  0.00000000000E+00  0.00000000000E+00  0.38453029595E+03  0.38453029598E+03  0.50400001928E-02 0. -1.
        1   -1    0    0  501    0  0.00000000000E+00  0.00000000000E+00 -0.11065237198E+04  0.11065237198E+04  0.50400001928E-02 0.  1.
    10030    2    1    2    0    0  0.00000000000E+00  0.00000000000E+00 -0.72199342382E+03  0.14910540158E+04  0.13045947930E+04 0.  0.
        3    1    3    3  502    0  0.52479788306E+03 -0.33940656140E+03 -0.14753499948E+03  0.64216525775E+03  0.10100000352E+00 0. -1.
       -3    1    3    3    0  502 -0.52479788306E+03  0.33940656140E+03 -0.57445842434E+03  0.84888875801E+03  0.10100000352E+00 0.  1.
</event>
<event>
 5   0  0.1714861E-03  0.1263701E+04  0.7818609E-02  0.9058856E-01
       -2   -1    0    0    0  501  0.00000000000E+00  0.00000000000E+00  0.22742619372E+03  0.22742619373E+03  0.25500000920E-02 0.  1.
        2   -1    0    0  501    0  0.00000000000E+00  0.00000000000E+00 -0.17554500212E+04  0.17554500212E+04  0.25500000920E-02 0. -1.
    10030    2    1    2    0    0  0.00000000000E+00  0.00000000000E+00 -0.15280238275E+04  0.19828762150E+04  0.12637014151E+04 0.  0.
        1    1    3    3  502    0  0.54201716502E+03 -0.26174792181E+03 -0.46243096952E+03  0.75903687878E+03  0.50400001928E-02 0.  1.
       -1    1    3    3    0  502 -0.54201716502E+03  0.26174792181E+03 -0.10655928580E+04  0.12238393362E+04  0.50400001928E-02 0. -1.
</event>
<event>
 5   0  0.9098192E-04  0.1285985E+04  0.7818609E-02  0.9040754E-01
       -1   -1    0    0    0  501  0.00000000000E+00  0.00000000000E+00  0.17869219094E+03  0.17869219101E+03  0.50400001928E-02 0. -1.
        1   -1    0    0  501    0  0.00000000000E+00  0.00000000000E+00 -0.23136958868E+04  0.23136958868E+04  0.50400001928E-02 0.  1.
    10030    2    1    2    0    0  0.00000000000E+00  0.00000000000E+00 -0.21350036959E+04  0.24923880778E+04  0.12859850501E+04 0.  0.
        1    1    3    3  502    0 -0.59941169244E+02 -0.51413897314E+03 -0.32819875337E+03  0.61289986883E+03  0.50400001928E-02 0. -1.
       -1    1    3    3    0  502  0.59941169244E+02  0.51413897314E+03 -0.18068049425E+04  0.18794882090E+04  0.50400001928E-02 0.  1.
</event>
<event>
 5   0  0.1623890E-03  0.1288144E+04  0.7818609E-02  0.9039020E-01
       -2   -1    0    0    0  501  0.00000000000E+00  0.00000000000E+00  0.34574904894E+03  0.34574904894E+03  0.25500000920E-02 0.  1.
        2   -1    0    0  501    0  0.00000000000E+00  0.00000000000E+00 -0.11997980327E+04  0.11997980327E+04  0.25500000920E-02 0. -1.
    10030    2    1    2    0    0  0.00000000000E+00  0.00000000000E+00 -0.85404898380E+03  0.15455470817E+04  0.12881444465E+04 0.  0.
        3    1    3    3  502    0  0.56666201805E+03  0.19531212318E+03 -0.14417025669E+03  0.61647201175E+03  0.10100000352E+00 0.  1.
       -3    1    3    3    0  502 -0.56666201805E+03 -0.19531212318E+03 -0.70987872711E+03  0.92907506993E+03  0.10100000352E+00 0. -1.
</event>
<event>
 5   0  0.9098192E-04  0.1183456E+04  0.7818609E-02  0.9127462E-01
        1   -1    0    0  501    0  0.00000000000E+00  0.00000000000E+00  0.42723400294E+03  0.42723400297E+03  0.50400001928E-02 0.  1.
       -1   -1    0    0    0  501  0.00000000000E+00  0.00000000000E+00 -0.81955617159E+03  0.81955617161E+03  0.50400001928E-02 0. -1.
    10030    2    1    2    0    0  0.00000000000E+00  0.00000000000E+00 -0.39232216866E+03  0.12467901746E+04  0.11834564020E+04 0.  0.
        1    1    3    3  502    0  0.79617119839E+02 -0.44856102406E+03  0.20166693431E+03  0.49821223439E+03  0.50400001928E-02 0. -1.
       -1    1    3    3    0  502 -0.79617119839E+02  0.44856102406E+03 -0.59398910296E+03  0.74857794019E+03  0.50400001928E-02 0.  1.
</event>
<event>
 5   0  0.9098192E-04  0.1233676E+04  0.7818609E-02  0.9083880E-01
       -1   -1    0    0    0  501  0.00000000000E+00  0.00000000000E+00  0.23257644650E+03  0.23257644656E+03  0.50400001928E-02 0.  1.
        1   -1    0    0  501    0  0.00000000000E+00  0.00000000000E+00 -0.16359736510E+04  0.16359736510E+04  0.50400001928E-02 0. -1.
    10030    2    1    2    0    0  0.00000000000E+00  0.00000000000E+00 -0.14033972045E+04  0.18685500976E+04  0.12336757084E+04 0.  0.
        1    1    3    3  502    0 -0.57095924356E+01  0.17038439540E+03  0.19618567445E+03  0.25990817710E+03  0.50400001928E-02 0.  1.
       -1    1    3    3    0  502  0.57095924356E+01 -0.17038439540E+03 -0.15995828790E+04  0.16086419205E+04  0.50400001928E-02 0. -1.
</event>
<event>
 5   0  0.1714861E-03  0.1413058E+04  0.7818609E-02  0.8944420E-01
       -2   -1    0    0    0  501  0.00000000000E+00  0.00000000000E+00  0.79409081397E+03  0.79409081398E+03  0.25500000920E-02 0. -1.
        2   -1    0    0  501    0  0.00000000000E+00  0.00000000000E+00 -0.62862267505E+03  0.62862267505E+03  0.25500000920E-02 0.  1.
    10030    2    1    2    0    0  0.00000000000E+00  0.00000000000E+00  0.16546813893E+03  0.14227134890E+04  0.14130583735E+04 0.  0.
        1    1    3    3  502    0 -0.60743524033E+03  0.23612099179E+03  0.35745886398E+03  0.74330850488E+03  0.50400001928E-02 0.  1.
       -1    1    3    3    0  502  0.60743524033E+03 -0.23612099179E+03 -0.19199072505E+03  0.67940498415E+03  0.50400001928E-02 0. -1.
</event>
<event>
 5   0  0.9098192E-04  0.1328749E+04  0.7818609E-02  0.9007072E-01
       -1   -1    0    0    0  501  0.00000000000E+00  0.00000000000E+00  0.48664494493E+03  0.48664494496E+03  0.50400001928E-02 0.  1.
        1   -1    0    0  501    0  0.00000000000E+00  0.00000000000E+00 -0.90701368508E+03  0.90701368509E+03  0.50400001928E-02 0. -1.
    10030    2    1    2    0    0  0.00000000000E+00  0.00000000000E+00 -0.42036874015E+03  0.13936586301E+04  0.13287492237E+04 0.  0.
        1    1    3    3  502    0 -0.12748970291E+03 -0.41722702411E+03  0.31535292344E+03  0.53831169442E+03  0.50400001928E-02 0.  1.
       -1    1    3    3    0  502  0.12748970291E+03  0.41722702411E+03 -0.73572166359E+03  0.85534693563E+03  0.50400001928E-02 0. -1.
</event>
<event>
 5   0  0.9098192E-04  0.1310465E+04  0.7818609E-02  0.9021307E-01
       -1   -1    0    0    0  501  0.00000000000E+00  0.00000000000E+00  0.59756361860E+03  0.59756361862E+03  0.50400001928E-02 0.  1.
        1   -1    0    0  501    0  0.00000000000E+00  0.00000000000E+00 -0.71846702952E+03  0.71846702954E+03  0.50400001928E-02 0. -1.
    10030    2    1    2    0    0  0.00000000000E+00  0.00000000000E+00 -0.12090341092E+03  0.13160306482E+04  0.13104651968E+04 0.  0.
        1    1    3    3  502    0  0.27030006872E+03  0.23616311190E+03 -0.61095365210E+03  0.70858980208E+03  0.50400001928E-02 0. -1.
       -1    1    3    3    0  502 -0.27030006872E+03 -0.23616311190E+03  0.49005024119E+03  0.60744084608E+03  0.50400001928E-02 0.  1.
</event>
<event>
 5   0  0.1623890E-03  0.1297714E+04  0.7818609E-02  0.9031380E-01
       -2   -1    0    0    0  501  0.00000000000E+00  0.00000000000E+00  0.54165761099E+03  0.54165761099E+03  0.25500000920E-02 0. -1.
        2   -1    0    0  501    0  0.00000000000E+00  0.00000000000E+00 -0.77727209169E+03  0.77727209170E+03  0.25500000920E-02 0.  1.
    10030    2    1    2    0    0  0.00000000000E+00  0.00000000000E+00 -0.23561448071E+03  0.13189297027E+04  0.12977139042E+04 0.  0.
        3    1    3    3  502    0 -0.13274540479E+03  0.17894234366E+03 -0.73717446785E+03  0.77010902546E+03  0.10100000352E+00 0.  1.
       -3    1    3    3    0  502  0.13274540479E+03 -0.17894234366E+03  0.50155998714E+03  0.54882067723E+03  0.10100000352E+00 0. -1.
</event>
<event>
 5   0  0.1667342E-03  0.1305970E+04  0.7818609E-02  0.9024844E-01
       -2   -1    0    0    0  501  0.00000000000E+00  0.00000000000E+00  0.39683407486E+03  0.39683407487E+03  0.25500000920E-02 0.  1.
        2   -1    0    0  501    0  0.00000000000E+00  0.00000000000E+00 -0.10744785145E+04  0.10744785145E+04  0.25500000920E-02 0. -1.
    10030    2    1    2    0    0  0.00000000000E+00  0.00000000000E+00 -0.67764443959E+03  0.14713125893E+04  0.13059704242E+04 0.  0.
        5    1    3    3  502    0 -0.18021173659E+03  0.41153065322E+03  0.19501951061E+03  0.48978408310E+03  0.46999998093E+01 0.  1.
       -5    1    3    3    0  502  0.18021173659E+03 -0.41153065322E+03 -0.87266395020E+03  0.98152850622E+03  0.46999998093E+01 0. -1.
</event>
<event>
 5   0  0.1700511E-03  0.1314662E+04  0.7818609E-02  0.9018018E-01
       -2   -1    0    0    0  501  0.00000000000E+00  0.00000000000E+00  0.41064848077E+03  0.41064848078E+03  0.25500000920E-02 0. -1.
        2   -1    0    0  501    0  0.00000000000E+00  0.00000000000E+00 -0.10522000364E+04  0.10522000364E+04  0.25500000920E-02 0.  1.
    10030    2    1    2    0    0  0.00000000000E+00  0.00000000000E+00 -0.64155155567E+03  0.14628485172E+04  0.13146624608E+04 0.  0.
        2    1    3    3  502    0 -0.44081401722E+03 -0.46562214278E+03 -0.15966832507E+03  0.66076845541E+03  0.25500000920E-02 0.  1.
       -2    1    3    3    0  502  0.44081401722E+03  0.46562214278E+03 -0.48188323060E+03  0.80208006182E+03  0.25500000920E-02 0. -1.
</event>
<event>
 5   0  0.1700511E-03  0.1287429E+04  0.7818609E-02  0.9039594E-01
       -2   -1    0    0    0  501  0.00000000000E+00  0.00000000000E+00  0.37156157616E+03  0.37156157617E+03  0.25500000920E-02 0.  1.
        2   -1    0    0  501    0  0.00000000000E+00  0.00000000000E+00 -0.11152069862E+04  0.11152069862E+04  0.25500000920E-02 0. -1.
    10030    2    1    2    0    0  0.00000000000E+00  0.00000000000E+00 -0.74364540999E+03  0.14867685623E+04  0.12874285464E+04 0.  0.
        2    1    3    3  502    0  0.49856729416E+03  0.22893952706E+03 -0.76068767756E+03  0.93788506580E+03  0.25500000920E-02 0. -1.
       -2    1    3    3    0  502 -0.49856729416E+03 -0.22893952706E+03  0.17042267565E+02  0.54888349652E+03  0.25500000920E-02 0.  1.
</event>
<event>
 5   0  0.1623890E-03  0.1291131E+04  0.7818609E-02  0.9036628E-01
       -2   -1    0    0    0  501  0.00000000000E+00  0.00000000000E+00  0.66191868803E+03  0.66191868804E+03  0.25500000920E-02 0. -1.
        2   -1    0    0  501    0  0.00000000000E+00  0.00000000000E+00 -0.62961665866E+03  0.62961665867E+03  0.25500000920E-02 0.  1.
    10030    2    1    2    0    0  0.00000000000E+00  0.00000000000E+00  0.32302029368E+02  0.12915353467E+04  0.12911313375E+04 0.  0.
        3    1    3    3  502    0  0.10250117319E+03 -0.31438628088E+03  0.57076999405E+03  0.65963900766E+03  0.10100000352E+00 0. -1.
       -3    1    3    3    0  502 -0.10250117319E+03  0.31438628088E+03 -0.53846796469E+03  0.63189633905E+03  0.10100000352E+00 0.  1.
</event>
<event>
 5   0  0.9110949E-04  0.1287199E+04  0.7818609E-02  0.9039778E-01
       -1   -1    0    0    0  501  0.00000000000E+00  0.00000000000E+00  0.26935048833E+04  0.26935048833E+04  0.50400001928E-02 0. -1.
        1   -1    0    0  501    0  0.00000000000E+00  0.00000000000E+00 -0.15378495471E+03  0.15378495479E+03  0.50400001928E-02 0.  1.
    10030    2    1    2    0    0  0.00000000000E+00  0.00000000000E+00  0.25397199286E+04  0.28472898381E+04  0.12871993266E+04 0.  0.
        2    1    3    3  502    0  0.20348322064E+03  0.30216866574E+03  0.24434925871E+04  0.24704994124E+04  0.25500000920E-02 0. -1.
       -2    1    3    3    0  502 -0.20348322064E+03 -0.30216866574E+03  0.96227341528E+02  0.37679042570E+03  0.25500000920E-02 0.  1.
</event>
<event>
 5   0  0.1714861E-03  0.1304072E+04  0.7818609E-02  0.9026342E-01
        2   -1    0    0  501    0  0.00000000000E+00  0.00000000000E+00  0.23502820453E+04  0.23502820453E+04  0.25500000920E-02 0. -1.
       -2   -1    0    0    0  501  0.00000000000E+00  0.00000000000E+00 -0.18089356029E+03  0.18089356031E+03  0.25500000920E-02 0.  1.
    10030    2    1    2    0    0  0.00000000000E+00  0.00000000000E+00  0.21693884850E+04  0.25311756056E+04  0.13040719104E+04 0.  0.
        1    1    3    3  502    0  0.19683968636E+03 -0.62158092519E+03  0.10720886116E+04  0.12547839255E+04  0.50400001928E-02 0.  1.
       -1    1    3    3    0  502 -0.19683968636E+03  0.62158092519E+03  0.10972998734E+04  0.12763916801E+04  0.50400001928E-02 0. -1.
</event>
<event>
 5   0  0.9215829E-04  0.1297953E+04  0.7818609E-02  0.9031190E-01
       -1   -1    0    0    0  501  0.00000000000E+00  0.00000000000E+00  0.54886440063E+03  0.54886440065E+03  0.50400001928E-02 0. -1.
        1   -1    0    0  501    0  0.00000000000E+00  0.00000000000E+00 -0.76734897741E+03  0.76734897743E+03  0.50400001928E-02 0.  1.
    10030    2    1    2    0    0  0.00000000000E+00  0.00000000000E+00 -0.21848457678E+03  0.13162133781E+04  0.12979530601E+04 0.  0.
        3    1    3    3  502    0 -0.76002221270E+02 -0.45776105447E+03 -0.56933113028E+03  0.73447904445E+03  0.10100000352E+00 0. -1.
       -3    1    3    3    0  502  0.76002221270E+02  0.45776105447E+03  0.35084655350E+03  0.58173433363E+03  0.10100000352E+00 0.  1.
</event>
<event>
 5   0  0.9215829E-04  0.1309210E+04  0.7818609E-02  0.9022293E-01
        1   -1    0    0  501    0  0.00000000000E+00  0.00000000000E+00  0.13654164567E+04  0.13654164567E+04  0.50400001928E-02 0.  1.
       -1   -1    0    0    0  501  0.00000000000E+00  0.00000000000E+00 -0.31382927732E+03  0.31382927736E+03  0.50400001928E-02 0. -1.
    10030    2    1    2    0    0  0.00000000000E+00  0.00000000000E+00  0.10515871794E+04  0.16792457341E+04  0.13092099295E+04 0.  0.
        3    1    3    3  502    0  0.54663860315E+03 -0.13498973370E+03  0.95403355542E+03  0.11077978271E+04  0.10100000352E+00 0.  1.
       -3    1    3    3    0  502 -0.54663860315E+03  0.13498973370E+03  0.97553623988E+02  0.57144790700E+03  0.10100000352E+00 0. -1.
</event>
<event>
 5   0  0.9081324E-04  0.1297993E+04  0.7818609E-02  0.9031158E-01
        1   -1    0    0  501    0  0.00000000000E+00  0.00000000000E+00  0.79992970203E+03  0.79992970205E+03  0.50400001928E-02 0. -1.
       -1   -1    0    0    0  501  0.00000000000E+00  0.00000000000E+00 -0.52654162666E+03  0.52654162668E+03  0.50400001928E-02 0.  1.
    10030    2    1    2    0    0  0.00000000000E+00  0.00000000000E+00  0.27338807537E+03  0.13264713287E+04  0.12979927373E+04 0.  0.
        4    1    3    3  502    0  0.63809850979E+03  0.65913958035E+02  0.36146749291E+02  0.64251269127E+03  0.12699999809E+01 0.  1.
       -4    1    3    3    0  502 -0.63809850979E+03 -0.65913958035E+02  0.23724132608E+03  0.68395863746E+03  0.12699999809E+01 0. -1.
</event>
<event>
 5   0  0.1694675E-03  0.1241337E+04  0.7818609E-02  0.9077425E-01
        2   -1    0    0  501    0  0.00000000000E+00  0.00000000000E+00  0.16925372728E+04  0.16925372728E+04  0.25500000920E-02 0.  1.
       -2   -1    0    0    0  501  0.00000000000E+00  0.00000000000E+00 -0.22760453569E+03  0.22760453570E+03  0.25500000920E-02 0. -1.
    10030    2    1    2    0    0  0.00000000000E+00  0.00000000000E+00  0.14649327371E+04  0.19201418085E+04  0.12413366346E+04 0.  0.
        4    1    3    3  502    0 -0.39018900890E+03 -0.45708578402E+03  0.97236368130E+03  0.11430956295E+04  0.12699999809E+01 0.  1.
       -4    1    3    3    0  502  0.39018900890E+03  0.45708578402E+03  0.49256905583E+03  0.77704617899E+03  0.12699999809E+01 0. -1.
</event>
<event>
 5   0  0.9215829E-04  0.1301892E+04  0.7818609E-02  0.9028066E-01
       -1   -1    0    0    0  501  0.00000000000E+00  0.00000000000E+00  0.21331713878E+03  0.21331713884E+03  0.50400001928E-02 0.  1.
        1   -1    0    0  501    0  0.00000000000E+00  0.00000000000E+00 -0.19863897993E+04  0.19863897994E+04  0.50400001928E-02 0. -1.
    10030    2    1    2    0    0  0.00000000000E+00  0.00000000000E+00 -0.17730726606E+04  0.21997069382E+04  0.13018924511E+04 0.  0.
        3    1    3    3  502    0  0.89830607557E+02  0.61597989661E+03 -0.12081430581E+04  0.13590844087E+04  0.10100000352E+00 0. -1.
       -3    1    3    3    0  502 -0.89830607557E+02 -0.61597989661E+03 -0.56492960248E+03  0.84062252946E+03  0.10100000352E+00 0.  1.
</event>
<event>
 5   0  0.1667342E-03  0.1308798E+04  0.7818609E-02  0.9022617E-01
        2   -1    0    0  501    0  0.00000000000E+00  0.00000000000E+00  0.96093877061E+03  0.96093877062E+03  0.25500000920E-02 0.  1.
       -2   -1    0    0    0  501  0.00000000000E+00  0.00000000000E+00 -0.44564558103E+03  0.44564558104E+03  0.25500000920E-02 0. -1.
    10030    2    1    2    0    0  0.00000000000E+00  0.00000000000E+00  0.51529318958E+03  0.14065843517E+04  0.13087981002E+04 0.  0.
        5    1    3    3  502    0 -0.28699082042E+03 -0.24794919120E+02  0.88911570668E+03  0.93462685007E+03  0.46999998093E+01 0.  1.
       -5    1    3    3    0  502  0.28699082042E+03  0.24794919120E+02 -0.37382251709E+03  0.47195750158E+03  0.46999998093E+01 0. -1.
</event>
<event>
 5   0  0.9215829E-04  0.1307821E+04  0.7818609E-02  0.9023386E-01
        1   -1    0    0  501    0  0.00000000000E+00  0.00000000000E+00  0.68981267593E+03  0.68981267595E+03  0.50400001928E-02 0.  1.
       -1   -1    0    0    0  501  0.00000000000E+00  0.00000000000E+00 -0.61987715083E+03  0.61987715085E+03  0.50400001928E-02 0. -1.
    10030    2    1    2    0    0  0.00000000000E+00  0.00000000000E+00  0.69935525095E+02  0.13096898268E+04  0.13078212664E+04 0.  0.
        3    1    3    3  502    0 -0.11240428112E+02  0.59009970906E+03 -0.24695727474E+03  0.63979052791E+03  0.10100000352E+00 0.  1.
       -3    1    3    3    0  502  0.11240428112E+02 -0.59009970906E+03  0.31689279984E+03  0.66989929889E+03  0.10100000352E+00 0. -1.
</event>
<event>
 5   0  0.1714861E-03  0.1343102E+04  0.7818609E-02  0.8996067E-01
       -2   -1    0    0    0  501  0.00000000000E+00  0.00000000000E+00  0.37070673188E+03  0.37070673189E+03  0.25500000920E-02 0.  1.
        2   -1    0    0  501    0  0.00000000000E+00  0.00000000000E+00 -0.12165423685E+04  0.12165423685E+04  0.25500000920E-02 0. -1.
    10030    2    1    2    0    0  0.00000000000E+00  0.00000000000E+00 -0.84583563658E+03  0.15872491004E+04  0.13431015533E+04 0.  0.
        1    1    3    3  502    0 -0.15159076729E+03  0.65127290956E+03 -0.49619080015E+03  0.83267128786E+03  0.50400001928E-02 0. -1.
       -1    1    3    3    0  502  0.15159076729E+03 -0.65127290956E+03 -0.34964483643E+03  0.75457781250E+03  0.50400001928E-02 0.  1.
</event>
<event>
 5   0  0.9215829E-04  0.1268877E+04  0.7818609E-02  0.9054617E-01
       -1   -1    0    0    0  501  0.00000000000E+00  0.00000000000E+00  0.15256470218E+04  0.15256470218E+04  0.50400001928E-02 0. -1.
        1   -1    0    0  501    0  0.00000000000E+00  0.00000000000E+00 -0.26383029218E+03  0.26383029223E+03  0.50400001928E-02 0.  1.
    10030    2    1    2    0    0  0.00000000000E+00  0.00000000000E+00  0.12618167296E+04  0.17894773140E+04  0.12688765103E+04 0.  0.
        3    1    3    3  502    0 -0.48518729330E+03 -0.74116020061E+02  0.11978568973E+04  0.12945118967E+04  0.10100000352E+00 0. -1.
       -3    1    3    3    0  502  0.48518729330E+03  0.74116020061E+02  0.63959832287E+02  0.49496541733E+03  0.10100000352E+00 0.  1.
</event>
<event>
 5   0  0.1667342E-03  0.1304622E+04  0.7818609E-02  0.9025908E-01
        2   -1    0    0  501    0  0.00000000000E+00  0.00000000000E+00  0.15381944851E+04  0.15381944851E+04  0.25500000920E-02 0. -1.
       -2   -1    0    0    0  501  0.00000000000E+00  0.00000000000E+00 -0.27662923134E+03  0.27662923135E+03  0.25500000920E-02 0.  1.
    10030    2    1    2    0    0  0.00000000000E+00  0.00000000000E+00  0.12615652538E+04  0.18148237165E+04  0.13046218733E+04 0.  0.
        5    1    3    3  502    0  0.48586496626E+02 -0.64703803485E+03  0.53779276071E+03  0.84277043711E+03  0.46999998093E+01 0. -1.
       -5    1    3    3    0  502 -0.48586496626E+02  0.64703803485E+03  0.72377249307E+03  0.97205327937E+03  0.46999998093E+01 0.  1.
</event>
<event>
 5   0  0.1623890E-03  0.1300837E+04  0.7818609E-02  0.9028902E-01
        2   -1    0    0  501    0  0.00000000000E+00  0.00000000000E+00  0.44361896533E+03  0.44361896534E+03  0.25500000920E-02 0. -1.
       -2   -1    0    0    0  501  0.00000000000E+00  0.00000000000E+00 -0.95362095337E+03  0.95362095337E+03  0.25500000920E-02 0.  1.
    10030    2    1    2    0    0  0.00000000000E+00  0.00000000000E+00 -0.51000198804E+03  0.13972399187E+04  0.13008371776E+04 0.  0.
        3    1    3    3  502    0 -0.12850665567E+03 -0.43594406289E+03 -0.75475937681E+03  0.88103513756E+03  0.10100000352E+00 0.  1.
       -3    1    3    3    0  502  0.12850665567E+03  0.43594406289E+03  0.24475738877E+03  0.51620478115E+03  0.10100000352E+00 0. -1.
</event>
<event>
 5   0  0.1623890E-03  0.1275422E+04  0.7818609E-02  0.9049286E-01
        2   -1    0    0  501    0  0.00000000000E+00  0.00000000000E+00  0.12427701383E+04  0.12427701383E+04  0.25500000920E-02 0. -1.
       -2   -1    0    0    0  501  0.00000000000E+00  0.00000000000E+00 -0.32723278643E+03  0.32723278644E+03  0.25500000920E-02 0.  1.
    10030    2    1    2    0    0  0.00000000000E+00  0.00000000000E+00  0.91553735188E+03  0.15700029248E+04  0.12754217111E+04 0.  0.
        3    1    3    3  502    0 -0.48027479167E+03  0.39829011940E+03  0.62003352061E+03  0.87962518814E+03  0.10100000352E+00 0. -1.
       -3    1    3    3    0  502  0.48027479167E+03 -0.39829011940E+03  0.29550383127E+03  0.69037773662E+03  0.10100000352E+00 0.  1.
</event>
<event>
 5   0  0.9098192E-04  0.1299135E+04  0.7818609E-02  0.9030251E-01
       -1   -1    0    0    0  501  0.00000000000E+00  0.00000000000E+00  0.39077980494E+03  0.39077980497E+03  0.50400001928E-02 0.  1.
        1   -1    0    0  501    0  0.00000000000E+00  0.00000000000E+00 -0.10797336497E+04  0.10797336497E+04  0.50400001928E-02 0. -1.
    10030    2    1    2    0    0  0.00000000000E+00  0.00000000000E+00 -0.68895384477E+03  0.14705134547E+04  0.12991352586E+04 0.  0.
        1    1    3    3  502    0 -0.94297468580E+02 -0.19915247310E+03  0.34718315447E+03  0.41120537800E+03  0.50400001928E-02 0.  1.
       -1    1    3    3    0  502  0.94297468580E+02  0.19915247310E+03 -0.10361369992E+04  0.10593080767E+04  0.50400001928E-02 0. -1.
</event>
<event>
 5   0  0.9081324E-04  0.1215417E+04  0.7818609E-02  0.9099468E-01
       -1   -1    0    0    0  501  0.00000000000E+00  0.00000000000E+00  0.66627072283E+03  0.66627072285E+03  0.50400001928E-02 0. -1.
        1   -1    0    0  501    0  0.00000000000E+00  0.00000000000E+00 -0.55429393076E+03  0.55429393078E+03  0.50400001928E-02 0.  1.
    10030    2    1    2    0    0  0.00000000000E+00  0.00000000000E+00  0.11197679207E+03  0.12205646536E+04  0.12154173241E+04 0.  0.
        4    1    3    3  502    0 -0.49863072282E+03 -0.34691517418E+03  0.74105564717E+02  0.61194442839E+03  0.12699999809E+01 0.  1.
       -4    1    3    3    0  502  0.49863072282E+03  0.34691517418E+03  0.37871227353E+02  0.60862022524E+03  0.12699999809E+01 0. -1.
</event>
<event>
 5   0  0.9098192E-04  0.1284915E+04  0.7818609E-02  0.9041614E-01
        1   -1    0    0  501    0  0.00000000000E+00  0.00000000000E+00  0.71660557277E+03  0.71660557279E+03  0.50400001928E-02 0.  1.
       -1   -1    0    0    0  501  0.00000000000E+00  0.00000000000E+00 -0.57598187454E+03  0.57598187456E+03  0.50400001928E-02 0. -1.
    10030    2    1    2    0    0  0.00000000000E+00  0.00000000000E+00  0.14062369823E+03  0.12925874473E+04  0.12849152830E+04 0.  0.
        1    1    3    3  502    0 -0.51556779812E+03 -0.19277147954E+03  0.40362210814E+03  0.68255534866E+03  0.50400001928E-02 0.  1.
       -1    1    3    3    0  502  0.51556779812E+03  0.19277147954E+03 -0.26299840991E+03  0.61003209868E+03  0.50400001928E-02 0. -1.
</event>
<event>
 5   0  0.9027076E-04  0.1310010E+04  0.7818609E-02  0.9021665E-01
       -1   -1    0    0    0  501  0.00000000000E+00  0.00000000000E+00  0.76639575882E+03  0.76639575884E+03  0.50400001928E-02 0. -1.
        1   -1    0    0  501    0  0.00000000000E+00  0.00000000000E+00 -0.55980406082E+03  0.55980406084E+03  0.50400001928E-02 0.  1.
    10030    2    1    2    0    0  0.00000000000E+00  0.00000000000E+00  0.20659169800E+03  0.13261998197E+04  0.13100098595E+04 0.  0.
        5    1    3    3  502    0 -0.55038914437E+03 -0.29913101854E+03 -0.90384505675E+02  0.63292892599E+03  0.46999998093E+01 0.  1.
       -5    1    3    3    0  502  0.55038914437E+03  0.29913101854E+03  0.29697620367E+03  0.69327089369E+03  0.46999998093E+01 0. -1.
</event>
<event>
 5   0  0.9215829E-04  0.1296076E+04  0.7818609E-02  0.9032683E-01
       -1   -1    0    0    0  501  0.00000000000E+00  0.00000000000E+00  0.71151183840E+03  0.71151183841E+03  0.50400001928E-02 0. -1.
        1   -1    0    0  501    0  0.00000000000E+00  0.00000000000E+00 -0.59022620508E+03  0.59022620510E+03  0.50400001928E-02 0.  1.
    10030    2    1    2    0    0  0.00000000000E+00  0.00000000000E+00  0.12128563331E+03  0.13017380435E+04  0.12960755106E+04 0.  0.
        3    1    3    3  502    0  0.26174856315E+03  0.58573346315E+03  0.15245841414E+03  0.65942367140E+03  0.10100000352E+00 0.  1.
       -3    1    3    3    0  502 -0.26174856315E+03 -0.58573346315E+03 -0.31172780824E+02  0.64231437212E+03  0.10100000352E+00 0. -1.
</event>
<event>
 5   0  0.9081324E-04  0.1242542E+04  0.7818609E-02  0.9076413E-01
        1   -1    0    0  501    0  0.00000000000E+00  0.00000000000E+00  0.56678097981E+03  0.56678097983E+03  0.50400001928E-02 0.  1.
       -1   -1    0    0    0  501  0.00000000000E+00  0.00000000000E+00 -0.68100002483E+03  0.68100002485E+03  0.50400001928E-02 0. -1.
    10030    2    1    2    0    0  0.00000000000E+00  0.00000000000E+00 -0.11421904503E+03  0.12477810047E+04  0.12425423314E+04 0.  0.
        4    1    3    3  502    0  0.17547393306E+03  0.20308269395E+03  0.50555855804E+03  0.57238514155E+03  0.12699999809E+01 0.  1.
       -4    1    3    3    0  502 -0.17547393306E+03 -0.20308269395E+03 -0.61977760306E+03  0.67539586312E+03  0.12699999809E+01 0. -1.
</event>
<event>
 5   0  0.9110949E-04  0.1293567E+04  0.7818609E-02  0.9034682E-01
       -1   -1    0    0    0  501  0.00000000000E+00  0.00000000000E+00  0.41672133250E+03  0.41672133253E+03  0.50400001928E-02 0.  1.
        1   -1    0    0  501    0  0.00000000000E+00  0.00000000000E+00 -0.10038575237E+04  0.10038575237E+04  0.50400001928E-02 0. -1.
    10030    2    1    2    0    0  0.00000000000E+00  0.00000000000E+00 -0.58713619116E+03  0.14205788562E+04  0.12935669212E+04 0.  0.
        2    1    3    3  502    0  0.31591872090E+03 -0.13605867286E+03  0.30794617456E+03  0.46167894376E+03  0.25500000920E-02 0.  1.
       -2    1    3    3    0  502 -0.31591872090E+03  0.13605867286E+03 -0.89508236572E+03  0.95889991245E+03  0.25500000920E-02 0. -1.
</event>
<event>
 5   0  0.1700511E-03  0.1298983E+04  0.7818609E-02  0.9030372E-01
       -2   -1    0    0    0  501  0.00000000000E+00  0.00000000000E+00  0.48856063203E+03  0.48856063204E+03  0.25500000920E-02 0.  1.
        2   -1    0    0  501    0  0.00000000000E+00  0.00000000000E+00 -0.86343259354E+03  0.86343259354E+03  0.25500000920E-02 0. -1.
    10030    2    1    2    0    0  0.00000000000E+00  0.00000000000E+00 -0.37487196150E+03  0.13519932256E+04  0.12989829462E+04 0.  0.
        2    1    3    3  502    0 -0.61658067301E+03  0.18881785030E+03 -0.10671275478E+03  0.65361419734E+03  0.25500000920E-02 0.  1.
       -2    1    3    3    0  502  0.61658067301E+03 -0.18881785030E+03 -0.26815920673E+03  0.69837902824E+03  0.25500000920E-02 0. -1.
</event>
<event>
 5   0  0.9027076E-04  0.1260763E+04  0.7818609E-02  0.9061272E-01
        1   -1    0    0  501    0  0.00000000000E+00  0.00000000000E+00  0.96741203286E+03  0.96741203288E+03  0.50400001928E-02 0.  1.
       -1   -1    0    0    0  501  0.00000000000E+00  0.00000000000E+00 -0.41076721017E+03  0.41076721020E+03  0.50400001928E-02 0. -1.
    10030    2    1    2    0    0  0.00000000000E+00  0.00000000000E+00  0.55664482269E+03  0.13781792431E+04  0.12607634859E+04 0.  0.
        5    1    3    3  502    0  0.33119957969E+02  0.53365069998E+03 -0.86657291395E+02  0.54167478930E+03  0.46999998093E+01 0. -1.
       -5    1    3    3    0  502 -0.33119957969E+02 -0.53365069998E+03  0.64330211409E+03  0.83650445378E+03  0.46999998093E+01 0.  1.
</event>
<event>
 5   0  0.9215829E-04  0.1277095E+04  0.7818609E-02  0.9047929E-01
       -1   -1    0    0    0  501  0.00000000000E+00  0.00000000000E+00  0.38945331318E+03  0.38945331321E+03  0.50400001928E-02 0.  1.
        1   -1    0    0  501    0  0.00000000000E+00  0.00000000000E+00 -0.10469627422E+04  0.10469627422E+04  0.50400001928E-02 0. -1.
    10030    2    1    2    0    0  0.00000000000E+00  0.00000000000E+00 -0.65750942906E+03  0.14364160555E+04  0.12770953117E+04 0.  0.
        3    1    3    3  502    0 -0.41769036063E+03  0.35258252431E+03  0.42521658306E+02  0.54825885806E+03  0.10100000352E+00 0. -1.
       -3    1    3    3    0  502  0.41769036063E+03 -0.35258252431E+03 -0.70003108736E+03  0.88815719740E+03  0.10100000352E+00 0.  1.
</event>
<event>
 5   0  0.1700511E-03  0.1303471E+04  0.7818609E-02  0.9026817E-01
       -2   -1    0    0    0  501  0.00000000000E+00  0.00000000000E+00  0.28927748872E+03  0.28927748873E+03  0.25500000920E-02 0.  1.
        2   -1    0    0  501    0  0.00000000000E+00  0.00000000000E+00 -0.14683452919E+04  0.14683452919E+04  0.25500000920E-02 0. -1.
    10030    2    1    2    0    0  0.00000000000E+00  0.00000000000E+00 -0.11790678032E+04  0.17576227807E+04  0.13034711176E+04 0.  0.
        2    1    3    3  502    0 -0.29351610901E+03  0.15350485950E+03 -0.13463837398E+04  0.13865297050E+04  0.25500000920E-02 0. -1.
       -2    1    3    3    0  502  0.29351610901E+03 -0.15350485950E+03  0.16731593659E+03  0.37109307563E+03  0.25500000920E-02 0.  1.
</event>
<event>
 5   0  0.9110949E-04  0.1301554E+04  0.7818609E-02  0.9028334E-01
       -1   -1    0    0    0  501  0.00000000000E+00  0.00000000000E+00  0.33810490461E+03  0.33810490465E+03  0.50400001928E-02 0. -1.
        1   -1    0    0  501    0  0.00000000000E+00  0.00000000000E+00 -0.12526011204E+04  0.12526011204E+04  0.50400001928E-02 0.  1.
    10030    2    1    2    0    0  0.00000000000E+00  0.00000000000E+00 -0.91449621574E+03  0.15907060250E+04  0.13015538135E+04 0.  0.
        2    1    3    3  502    0  0.53199985456E+03  0.27818960288E+03 -0.76424439479E+03  0.97184504700E+03  0.25500000920E-02 0.  1.
       -2    1    3    3    0  502 -0.53199985456E+03 -0.27818960288E+03 -0.15025182095E+03  0.61886097801E+03  0.25500000920E-02 0. -1.
</event>
<event>
 5   0  0.9027076E-04  0.1303839E+04  0.7818609E-02  0.9026526E-01
       -1   -1    0    0    0  501  0.00000000000E+00  0.00000000000E+00  0.22347734508E+03  0.22347734514E+03  0.50400001928E-02 0.  1.
        1   -1    0    0  501    0  0.00000000000E+00  0.00000000000E+00 -0.19017549117E+04  0.19017549117E+04  0.50400001928E-02 0. -1.
    10030    2    1    2    0    0  0.00000000000E+00  0.00000000000E+00 -0.16782775666E+04  0.21252322569E+04  0.13038391599E+04 0.  0.
        5    1    3    3  502    0 -0.75671980886E+02  0.33715022914E+03  0.61903586514E+02  0.35107074746E+03  0.46999998093E+01 0.  1.
       -5    1    3    3    0  502  0.75671980886E+02 -0.33715022914E+03 -0.17401811532E+04  0.17741615094E+04  0.46999998093E+01 0. -1.
</event>
<event>
 5   0  0.1714861E-03  0.1302271E+04  0.7818609E-02  0.9027766E-01
        2   -1    0    0  501    0  0.00000000000E+00  0.00000000000E+00  0.15735837976E+04  0.15735837976E+04  0.25500000920E-02 0.  1.
       -2   -1    0    0    0  501  0.00000000000E+00  0.00000000000E+00 -0.26943449433E+03  0.26943449434E+03  0.25500000920E-02 0. -1.
    10030    2    1    2    0    0  0.00000000000E+00  0.00000000000E+00  0.13041493033E+04  0.18430182919E+04  0.13022714844E+04 0.  0.
        1    1    3    3  502    0  0.22931802446E+03  0.58469937118E+03  0.89522167554E+03  0.10935638799E+04  0.50400001928E-02 0.  1.
       -1    1    3    3    0  502 -0.22931802446E+03 -0.58469937118E+03  0.40892762773E+03  0.74945441206E+03  0.50400001928E-02 0. -1.
</event>
<event>
 5   0  0.1700511E-03  0.1280499E+04  0.7818609E-02  0.9045174E-01
       -2   -1    0    0    0  501  0.00000000000E+00  0.00000000000E+00  0.35521236202E+03  0.35521236203E+03  0.25500000920E-02 0. -1.
        2   -1    0    0  501    0  0.00000000000E+00  0.00000000000E+00 -0.11540124343E+04  0.11540124344E+04  0.25500000920E-02 0.  1.
    10030    2    1    2    0    0  0.00000000000E+00  0.00000000000E+00 -0.79880007232E+03  0.15092247964E+04  0.12804990943E+04 0.  0.
        2    1    3    3  502    0  0.45928068614E+03 -0.35864229079E+03 -0.71202711182E+03  0.92007915387E+03  0.25500000920E-02 0.  1.
       -2    1    3    3    0  502 -0.45928068614E+03  0.35864229079E+03 -0.86772960501E+02  0.58914564251E+03  0.25500000920E-02 0. -1.
</event>
<event>
 5   0  0.1694675E-03  0.1312836E+04  0.7818609E-02  0.9019448E-01
        2   -1    0    0  501    0  0.00000000000E+00  0.00000000000E+00  0.86450832478E+03  0.86450832478E+03  0.25500000920E-02 0.  1.
       -2   -1    0    0    0  501  0.00000000000E+00  0.00000000000E+00 -0.49841563454E+03  0.49841563454E+03  0.25500000920E-02 0. -1.
    10030    2    1    2    0    0  0.00000000000E+00  0.00000000000E+00  0.36609269024E+03  0.13629239593E+04  0.13128358089E+04 0.  0.
        4    1    3    3  502    0  0.49186913216E+02 -0.42701929972E+03  0.69807680686E+03  0.81980343738E+03  0.12699999809E+01 0.  1.
       -4    1    3    3    0  502 -0.49186913216E+02  0.42701929972E+03 -0.33198411662E+03  0.54312052194E+03  0.12699999809E+01 0. -1.
</event>
<event>
 5   0  0.1667342E-03  0.1291438E+04  0.7818609E-02  0.9036382E-01
        2   -1    0    0  501    0  0.00000000000E+00  0.00000000000E+00  0.16870516666E+04  0.16870516666E+04  0.25500000920E-02 0. -1.
       -2   -1    0    0    0  501  0.00000000000E+00  0.00000000000E+00 -0.24714900491E+03  0.24714900492E+03  0.25500000920E-02 0.  1.
    10030    2    1    2    0    0  0.00000000000E+00  0.00000000000E+00  0.14399026617E+04  0.19342006715E+04  0.12914381761E+04 0.  0.
        5    1    3    3  502    0 -0.23069976507E+03 -0.11109641268E+03  0.16077366007E+04  0.16280061001E+04  0.46999998093E+01 0. -1.
       -5    1    3    3    0  502  0.23069976507E+03  0.11109641268E+03 -0.16783393903E+03  0.30619457148E+03  0.46999998093E+01 0.  1.
</event>
<event>
 5   0  0.1694675E-03  0.1314978E+04  0.7818609E-02  0.9017771E-01
       -2   -1    0    0    0  501  0.00000000000E+00  0.00000000000E+00  0.55856270245E+03  0.55856270246E+03  0.25500000920E-02 0.  1.
        2   -1    0    0  501    0  0.00000000000E+00  0.00000000000E+00 -0.77393601561E+03  0.77393601561E+03  0.25500000920E-02 0. -1.
    10030    2    1    2    0    0  0.00000000000E+00  0.00000000000E+00 -0.21537331316E+03  0.13324987181E+04  0.13149780111E+04 0.  0.
        4    1    3    3  502    0 -0.55413835285E+03  0.32687490082E+03 -0.24504220325E+03  0.68845029534E+03  0.12699999809E+01 0. -1.
       -4    1    3    3    0  502  0.55413835285E+03 -0.32687490082E+03  0.29668890091E+02  0.64404842273E+03  0.12699999809E+01 0.  1.
</event>
<event>
 5   0  0.1714861E-03  0.1257329E+04  0.7818609E-02  0.9064105E-01
        2   -1    0    0  501    0  0.00000000000E+00  0.00000000000E+00  0.88876971376E+03  0.88876971376E+03  0.25500000920E-02 0.  1.
       -2   -1    0    0    0  501  0.00000000000E+00  0.00000000000E+00 -0.44468121654E+03  0.44468121655E+03  0.25500000920E-02 0. -1.
    10030    2    1    2    0    0  0.00000000000E+00  0.00000000000E+00  0.44408849722E+03  0.13334509303E+04  0.12573292290E+04 0.  0.
        1    1    3    3  502    0  0.51200744651E+03  0.23752207892E+03 -0.71576316411E+02  0.56893895310E+03  0.50400001928E-02 0. -1.
       -1    1    3    3    0  502 -0.51200744651E+03 -0.23752207892E+03  0.51566481363E+03  0.76451197721E+03  0.50400001928E-02 0.  1.
</event>
<event>
 5   0  0.9110949E-04  0.1310233E+04  0.7818609E-02  0.9021489E-01
       -1   -1    0    0    0  501  0.00000000000E+00  0.00000000000E+00  0.33969326790E+03  0.33969326793E+03  0.50400001928E-02 0.  1.
        1   -1    0    0  501    0  0.00000000000E+00  0.00000000000E+00 -0.12634269484E+04  0.12634269484E+04  0.50400001928E-02 0. -1.
    10030    2    1    2    0    0  0.00000000000E+00  0.00000000000E+00 -0.92373368050E+03  0.16031202163E+04  0.13102330005E+04 0.  0.
        2    1    3    3  502    0  0.19535345765E+03 -0.19689675990E+03 -0.11880409991E+04  0.12199888209E+04  0.25500000920E-02 0. -1.
       -2    1    3    3    0  502 -0.19535345765E+03  0.19689675990E+03  0.26430731864E+03  0.38313139544E+03  0.25500000920E-02 0.  1.
</event>
<event>
 5   0  0.1700511E-03  0.1296713E+04  0.7818609E-02  0.9032175E-01
       -2   -1    0    0    0  501  0.00000000000E+00  0.00000000000E+00  0.39508319330E+03  0.39508319331E+03  0.25500000920E-02 0. -1.
        2   -1    0    0  501    0  0.00000000000E+00  0.00000000000E+00 -0.10639947386E+04  0.10639947386E+04  0.25500000920E-02 0.  1.
    10030    2    1    2    0    0  0.00000000000E+00  0.00000000000E+00 -0.66891154533E+03  0.14590779319E+04  0.12967134441E+04 0.  0.
        2    1    3    3  502    0  0.47582875796E+02 -0.59793888658E+03 -0.57526879480E+02  0.60258143352E+03  0.25500000920E-02 0. -1.
       -2    1    3    3    0  502 -0.47582875796E+02  0.59793888658E+03 -0.61138466585E+03  0.85649649842E+03  0.25500000920E-02 0.  1.
</event>
<event>
 5   0  0.1623890E-03  0.1286802E+04  0.7818609E-02  0.9040097E-01
       -2   -1    0    0    0  501  0.00000000000E+00  0.00000000000E+00  0.20946272826E+03  0.20946272827E+03  0.25500000920E-02 0.  1.
        2   -1    0    0  501    0  0.00000000000E+00  0.00000000000E+00 -0.19763175630E+04  0.19763175630E+04  0.25500000920E-02 0. -1.
    10030    2    1    2    0    0  0.00000000000E+00  0.00000000000E+00 -0.17668548348E+04  0.21857802913E+04  0.12868020340E+04 0.  0.
        3    1    3    3  502    0  0.41870828316E+03  0.13206592297E+03 -0.16823303719E+04  0.17386757963E+04  0.10100000352E+00 0. -1.
       -3    1    3    3    0  502 -0.41870828316E+03 -0.13206592297E+03 -0.84524462894E+02  0.44710449498E+03  0.10100000352E+00 0.  1.
</event>
<event>
 5   0  0.6284125E-04  0.1303315E+04  0.7818609E-02  0.9026941E-01
       -4   -1    0    0    0  501  0.00000000000E+00  0.00000000000E+00  0.16061062745E+04  0.16061067766E+04  0.12699999809E+01 0. -1.
        4   -1    0    0  501    0  0.00000000000E+00  0.00000000000E+00 -0.26439975242E+03  0.26440280252E+03  0.12699999809E+01 0.  1.
    10030    2    1    2    0    0  0.00000000000E+00  0.00000000000E+00  0.13417065221E+04  0.18705095791E+04  0.13033148868E+04 0.  0.
        4    1    3    3  502    0 -0.30809120925E+03  0.18743015393E+03 -0.10813523895E+03  0.37649050270E+03  0.12699999809E+01 0.  1.
       -4    1    3    3    0  502  0.30809120925E+03 -0.18743015393E+03  0.14498417610E+04  0.14940190765E+04  0.12699999809E+01 0. -1.
</event>
<event>
 5   0  0.1714861E-03  0.1297626E+04  0.7818609E-02  0.9031450E-01
        2   -1    0    0  501    0  0.00000000000E+00  0.00000000000E+00  0.16734424304E+04  0.16734424304E+04  0.25500000920E-02 0.  1.
       -2   -1    0    0    0  501  0.00000000000E+00  0.00000000000E+00 -0.25155247276E+03  0.25155247278E+03  0.25500000920E-02 0. -1.
    10030    2    1    2    0    0  0.00000000000E+00  0.00000000000E+00  0.14218899576E+04  0.19249949032E+04  0.12976264199E+04 0.  0.
        1    1    3    3  502    0 -0.45508233630E+03  0.40191224829E+03  0.37160476809E+03  0.71184513191E+03  0.50400001928E-02 0.  1.
       -1    1    3    3    0  502  0.45508233630E+03 -0.40191224829E+03  0.10502851895E+04  0.12131497713E+04  0.50400001928E-02 0. -1.
</event>
<event>
 5   0  0.9098192E-04  0.1326142E+04  0.7818609E-02  0.9009087E-01
        1   -1    0    0  501    0  0.00000000000E+00  0.00000000000E+00  0.61440303258E+03  0.61440303260E+03  0.50400001928E-02 0. -1.
       -1   -1    0    0    0  501  0.00000000000E+00  0.00000000000E+00 -0.71559430531E+03  0.71559430532E+03  0.50400001928E-02 0.  1.
    10030    2    1    2    0    0  0.00000000000E+00  0.00000000000E+00 -0.10119127273E+03  0.13299973379E+04  0.13261422417E+04 0.  0.
        1    1    3    3  502    0  0.16787569566E+03  0.34403165876E+03  0.49238684587E+03  0.62368648970E+03  0.50400001928E-02 0. -1.
       -1    1    3    3    0  502 -0.16787569566E+03 -0.34403165876E+03 -0.59357811859E+03  0.70631084823E+03  0.50400001928E-02 0.  1.
</event>
<event>
 5   0  0.1700511E-03  0.1288985E+04  0.7818609E-02  0.9038346E-01
       -2   -1    0    0    0  501  0.00000000000E+00  0.00000000000E+00  0.37877507901E+03  0.37877507902E+03  0.25500000920E-02 0.  1.
        2   -1    0    0  501    0  0.00000000000E+00  0.00000000000E+00 -0.10966159264E+04  0.10966159264E+04  0.25500000920E-02 0. -1.
    10030    2    1    2    0    0  0.00000000000E+00  0.00000000000E+00 -0.71784084738E+03  0.14753910054E+04  0.12889853128E+04 0.  0.
        2    1    3    3  502    0  0.55109626383E+03  0.70682012435E+02 -0.73275177464E+03  0.91958044897E+03  0.25500000920E-02 0. -1.
       -2    1    3    3    0  502 -0.55109626383E+03 -0.70682012435E+02  0.14910927257E+02  0.55581055644E+03  0.25500000920E-02 0.  1.
</event>
<event>
 5   0  0.9215829E-04  0.1301463E+04  0.7818609E-02  0.9028406E-01
        1   -1    0    0  501    0  0.00000000000E+00  0.00000000000E+00  0.58336257471E+03  0.58336257473E+03  0.50400001928E-02 0. -1.
       -1   -1    0    0    0  501  0.00000000000E+00  0.00000000000E+00 -0.72588012592E+03  0.72588012593E+03  0.50400001928E-02 0.  1.
    10030    2    1    2    0    0  0.00000000000E+00  0.00000000000E+00 -0.14251755121E+03  0.13092427007E+04  0.13014627143E+04 0.  0.
        3    1    3    3  502    0  0.22776737477E+03  0.12394838735E+03  0.52914242371E+03  0.58926470666E+03  0.10100000352E+00 0. -1.
       -3    1    3    3    0  502 -0.22776737477E+03 -0.12394838735E+03 -0.67165997492E+03  0.71997799401E+03  0.10100000352E+00 0.  1.
</event>
<event>
 5   0  0.1667342E-03  0.1297972E+04  0.7818609E-02  0.9031175E-01
        2   -1    0    0  501    0  0.00000000000E+00  0.00000000000E+00  0.26678961553E+04  0.26678961553E+04  0.25500000920E-02 0. -1.
       -2   -1    0    0    0  501  0.00000000000E+00  0.00000000000E+00 -0.15787074957E+03  0.15787074960E+03  0.25500000920E-02 0.  1.
    10030    2    1    2    0    0  0.00000000000E+00  0.00000000000E+00  0.25100254057E+04  0.28257669049E+04  0.12979719039E+04 0.  0.
        5    1    3    3  502    0 -0.41384736668E+03 -0.13913744872E+03  0.23003019104E+04  0.23413756302E+04  0.46999998093E+01 0. -1.
       -5    1    3    3    0  502  0.41384736668E+03  0.13913744872E+03  0.20972349531E+03  0.48439127472E+03  0.46999998093E+01 0.  1.
</event>
<event>
 5   0  0.9081324E-04  0.1301238E+04  0.7818609E-02  0.9028584E-01
        1   -1    0    0  501    0  0.00000000000E+00  0.00000000000E+00  0.17562828545E+04  0.17562828545E+04  0.50400001928E-02 0.  1.
       -1   -1    0    0    0  501  0.00000000000E+00  0.00000000000E+00 -0.24102327501E+03  0.24102327506E+03  0.50400001928E-02 0. -1.
    10030    2    1    2    0    0  0.00000000000E+00  0.00000000000E+00  0.15152595795E+04  0.19973061296E+04  0.13012379421E+04 0.  0.
        4    1    3    3  502    0  0.55684487805E+03 -0.31840622164E+03  0.59057850874E+03  0.87191933576E+03  0.12699999809E+01 0.  1.
       -4    1    3    3    0  502 -0.55684487805E+03  0.31840622164E+03  0.92468107079E+03  0.11253867938E+04  0.12699999809E+01 0. -1.
</event>
<event>
 5   0  0.1694675E-03  0.1321467E+04  0.7818609E-02  0.9012713E-01
        2   -1    0    0  501    0  0.00000000000E+00  0.00000000000E+00  0.10708113849E+04  0.10708113849E+04  0.25500000920E-02 0. -1.
       -2   -1    0    0    0  501  0.00000000000E+00  0.00000000000E+00 -0.40769884278E+03  0.40769884278E+03  0.25500000920E-02 0.  1.
    10030    2    1    2    0    0  0.00000000000E+00  0.00000000000E+00  0.66311254214E+03  0.14785102277E+04  0.13214667040E+04 0.  0.
        4    1    3    3  502    0  0.40167588364E+03  0.40345813707E+03 -0.43622378866E+02  0.57098731045E+03  0.12699999809E+01 0.  1.
       -4    1    3    3    0  502 -0.40167588364E+03 -0.40345813707E+03  0.70673492101E+03  0.90752291725E+03  0.12699999809E+01 0. -1.
</event>
<event>
 5   0  0.9098192E-04  0.1293407E+04  0.7818609E-02  0.9034810E-01
       -1   -1    0    0    0  501  0.00000000000E+00  0.00000000000E+00  0.28149889477E+03  0.28149889481E+03  0.50400001928E-02 0.  1.
        1   -1    0    0  501    0  0.00000000000E+00  0.00000000000E+00 -0.14857078896E+04  0.14857078896E+04  0.50400001928E-02 0. -1.
    10030    2    1    2    0    0  0.00000000000E+00  0.00000000000E+00 -0.12042089949E+04  0.17672067844E+04  0.12934065547E+04 0.  0.
        1    1    3    3  502    0 -0.61925346703E+03  0.14795312439E+03 -0.75704867211E+03  0.98918535948E+03  0.50400001928E-02 0.  1.
       -1    1    3    3    0  502  0.61925346703E+03 -0.14795312439E+03 -0.44716032274E+03  0.77802142496E+03  0.50400001928E-02 0. -1.
</event>
<event>
 5   0  0.1714861E-03  0.1279498E+04  0.7818609E-02  0.9045983E-01
        2   -1    0    0  501    0  0.00000000000E+00  0.00000000000E+00  0.15471064409E+04  0.15471064409E+04  0.25500000920E-02 0. -1.
       -2   -1    0    0    0  501  0.00000000000E+00  0.00000000000E+00 -0.26454458550E+03  0.26454458552E+03  0.25500000920E-02 0.  1.
    10030    2    1    2    0    0  0.00000000000E+00  0.00000000000E+00  0.12825618554E+04  0.18116510265E+04  0.12794977642E+04 0.  0.
        1    1    3    3  502    0  0.61233496294E+03  0.16968084769E+03  0.74660140189E+03  0.98038734705E+03  0.50400001928E-02 0. -1.
       -1    1    3    3    0  502 -0.61233496294E+03 -0.16968084769E+03  0.53596045354E+03  0.83126367940E+03  0.50400001928E-02 0.  1.
</event>
<event>
 5   0  0.9081324E-04  0.1302966E+04  0.7818609E-02  0.9027216E-01
        1   -1    0    0  501    0  0.00000000000E+00  0.00000000000E+00  0.78888344822E+03  0.78888344824E+03  0.50400001928E-02 0.  1.
       -1   -1    0    0    0  501  0.00000000000E+00  0.00000000000E+00 -0.53801366442E+03  0.53801366445E+03  0.50400001928E-02 0. -1.
    10030    2    1    2    0    0  0.00000000000E+00  0.00000000000E+00  0.25086978380E+03  0.13268971127E+04  0.13029659624E+04 0.  0.
        4    1    3    3  502    0 -0.19141935961E+03 -0.49027929172E+02  0.75762930531E+03  0.78297438415E+03  0.12699999809E+01 0.  1.
       -4    1    3    3    0  502  0.19141935961E+03  0.49027929172E+02 -0.50675952151E+03  0.54392272853E+03  0.12699999809E+01 0. -1.
</event>
<event>
 5   0  0.6284125E-04  0.1291397E+04  0.7818609E-02  0.9036416E-01
        3   -1    0    0  501    0  0.00000000000E+00  0.00000000000E+00  0.14621161080E+04  0.14621161115E+04  0.10100000352E+00 0. -1.
       -3   -1    0    0    0  501  0.00000000000E+00  0.00000000000E+00 -0.28515270213E+03  0.28515272002E+03  0.10100000352E+00 0.  1.
    10030    2    1    2    0    0  0.00000000000E+00  0.00000000000E+00  0.11769634059E+04  0.17472688315E+04  0.12913967287E+04 0.  0.
        3    1    3    3  502    0  0.45888461801E+03 -0.10884513847E+03 -0.82296880153E+01  0.47168855697E+03  0.10100000352E+00 0.  1.
       -3    1    3    3    0  502 -0.45888461801E+03  0.10884513847E+03  0.11851930939E+04  0.12755802746E+04  0.10100000352E+00 0. -1.
</event>
<event>
 5   0  0.1623890E-03  0.1305857E+04  0.7818609E-02  0.9024934E-01
        2   -1    0    0  501    0  0.00000000000E+00  0.00000000000E+00  0.10353748836E+04  0.10353748836E+04  0.25500000920E-02 0. -1.
       -2   -1    0    0    0  501  0.00000000000E+00  0.00000000000E+00 -0.41174979451E+03  0.41174979452E+03  0.25500000920E-02 0.  1.
    10030    2    1    2    0    0  0.00000000000E+00  0.00000000000E+00  0.62362508905E+03  0.14471246781E+04  0.13058566469E+04 0.  0.
        3    1    3    3  502    0 -0.28936600890E+03  0.40094618061E+03  0.78435091013E+03  0.92719840772E+03  0.10100000352E+00 0. -1.
       -3    1    3    3    0  502  0.28936600890E+03 -0.40094618061E+03 -0.16072582109E+03  0.51992627036E+03  0.10100000352E+00 0.  1.
</event>
<event>
 5   0  0.9215829E-04  0.1295860E+04  0.7818609E-02  0.9032855E-01
        1   -1    0    0  501    0  0.00000000000E+00  0.00000000000E+00  0.77430930341E+03  0.77430930343E+03  0.50400001928E-02 0. -1.
       -1   -1    0    0    0  501  0.00000000000E+00  0.00000000000E+00 -0.54217742772E+03  0.54217742774E+03  0.50400001928E-02 0.  1.
    10030    2    1    2    0    0  0.00000000000E+00  0.00000000000E+00  0.23213187570E+03  0.13164867312E+04  0.12958596010E+04 0.  0.
        3    1    3    3  502    0  0.27554671762E+03 -0.41179280538E+03  0.54022065977E+03  0.73303320498E+03  0.10100000352E+00 0. -1.
       -3    1    3    3    0  502 -0.27554671762E+03  0.41179280538E+03 -0.30808878408E+03  0.58345352619E+03  0.10100000352E+00 0.  1.
</event>
<event>
 5   0  0.1714861E-03  0.1320771E+04  0.7818609E-02  0.9013254E-01
        2   -1    0    0  501    0  0.00000000000E+00  0.00000000000E+00  0.89330466434E+03  0.89330466435E+03  0.25500000920E-02 0. -1.
       -2   -1    0    0    0  501  0.00000000000E+00  0.00000000000E+00 -0.48819743896E+03  0.48819743896E+03  0.25500000920E-02 0.  1.
    10030    2    1    2    0    0  0.00000000000E+00  0.00000000000E+00  0.40510722538E+03  0.13815021033E+04  0.13207710617E+04 0.  0.
        1    1    3    3  502    0 -0.65764408883E+03 -0.41920219487E+02  0.24761583799E+03  0.70396495340E+03  0.50400001928E-02 0.  1.
       -1    1    3    3    0  502  0.65764408883E+03  0.41920219487E+02  0.15749138740E+03  0.67753714991E+03  0.50400001928E-02 0. -1.
</event>
<event>
 5   0  0.9081324E-04  0.1305176E+04  0.7818609E-02  0.9025470E-01
        1   -1    0    0  501    0  0.00000000000E+00  0.00000000000E+00  0.64917080736E+03  0.64917080738E+03  0.50400001928E-02 0.  1.
       -1   -1    0    0    0  501  0.00000000000E+00  0.00000000000E+00 -0.65602356313E+03  0.65602356315E+03  0.50400001928E-02 0. -1.
    10030    2    1    2    0    0  0.00000000000E+00  0.00000000000E+00 -0.68527557695E+01  0.13051943705E+04  0.13051763807E+04 0.  0.
        4    1    3    3  502    0 -0.56402990200E+03  0.22473517882E+03  0.23581341830E+03  0.65134108738E+03  0.12699999809E+01 0.  1.
       -4    1    3    3    0  502  0.56402990200E+03 -0.22473517882E+03 -0.24266617407E+03  0.65385328316E+03  0.12699999809E+01 0. -1.
</event>
<event>
 5   0  0.1623890E-03  0.1302619E+04  0.7818609E-02  0.9027491E-01
        2   -1    0    0  501    0  0.00000000000E+00  0.00000000000E+00  0.17679200561E+04  0.17679200561E+04  0.25500000920E-02 0.  1.
       -2   -1    0    0    0  501  0.00000000000E+00  0.00000000000E+00 -0.23994533213E+03  0.23994533214E+03  0.25500000920E-02 0. -1.
    10030    2    1    2    0    0  0.00000000000E+00  0.00000000000E+00  0.15279747240E+04  0.20078653883E+04  0.13026191540E+04 0.  0.
        3    1    3    3  502    0  0.12789430357E+03  0.63633743908E+03  0.84730697642E+03  0.10673384710E+04  0.10100000352E+00 0.  1.
       -3    1    3    3    0  502 -0.12789430357E+03 -0.63633743908E+03  0.68066774760E+03  0.94052691726E+03  0.10100000352E+00 0. -1.
</event>
<event>
 5   0  0.9081324E-04  0.1282002E+04  0.7818609E-02  0.9043961E-01
       -1   -1    0    0    0  501  0.00000000000E+00  0.00000000000E+00  0.50542309080E+03  0.50542309082E+03  0.50400001928E-02 0. -1.
        1   -1    0    0  501    0  0.00000000000E+00  0.00000000000E+00 -0.81294727039E+03  0.81294727040E+03  0.50400001928E-02 0.  1.
    10030    2    1    2    0    0  0.00000000000E+00  0.00000000000E+00 -0.30752417959E+03  0.13183703612E+04  0.12820020625E+04 0.  0.
        4    1    3    3  502    0  0.29866598417E+03 -0.30224375403E+03  0.33977764631E+03  0.54406168656E+03  0.12699999809E+01 0. -1.
       -4    1    3    3    0  502 -0.29866598417E+03  0.30224375403E+03 -0.64730182590E+03  0.77430867466E+03  0.12699999809E+01 0.  1.
</event>
<event>
 5   0  0.9027076E-04  0.1272543E+04  0.7818609E-02  0.9051627E-01
        1   -1    0    0  501    0  0.00000000000E+00  0.00000000000E+00  0.10113999274E+04  0.10113999274E+04  0.50400001928E-02 0.  1.
       -1   -1    0    0    0  501  0.00000000000E+00  0.00000000000E+00 -0.40027832480E+03  0.40027832483E+03  0.50400001928E-02 0. -1.
    10030    2    1    2    0    0  0.00000000000E+00  0.00000000000E+00  0.61112160258E+03  0.14116782522E+04  0.12725430738E+04 0.  0.
        5    1    3    3  502    0  0.98141196660E+02 -0.16808911703E+03  0.97754189182E+03  0.99674263780E+03  0.46999998093E+01 0.  1.
       -5    1    3    3    0  502 -0.98141196660E+02  0.16808911703E+03 -0.36642028924E+03  0.41493561442E+03  0.46999998093E+01 0. -1.
</event>
<event>
 5   0  0.9081324E-04  0.1300538E+04  0.7818609E-02  0.9029139E-01
        1   -1    0    0  501    0  0.00000000000E+00  0.00000000000E+00  0.11794926976E+04  0.11794926976E+04  0.50400001928E-02 0. -1.
       -1   -1    0    0    0  501  0.00000000000E+00  0.00000000000E+00 -0.35850130860E+03  0.35850130864E+03  0.50400001928E-02 0.  1.
    10030    2    1    2    0    0  0.00000000000E+00  0.00000000000E+00  0.82099138898E+03  0.15379940062E+04  0.13005378512E+04 0.  0.
        4    1    3    3  502    0  0.38614171542E+02  0.25686301416E+02 -0.35654157922E+03  0.35954742516E+03  0.12699999809E+01 0.  1.
       -4    1    3    3    0  502 -0.38614171542E+02 -0.25686301416E+02  0.11775329682E+04  0.11784465811E+04  0.12699999809E+01 0. -1.
</event>
<event>
 5   0  0.9027076E-04  0.1288608E+04  0.7818609E-02  0.9038648E-01
        1   -1    0    0  501    0  0.00000000000E+00  0.00000000000E+00  0.12935165386E+04  0.12935165386E+04  0.50400001928E-02 0.  1.
       -1   -1    0    0    0  501  0.00000000000E+00  0.00000000000E+00 -0.32092936755E+03  0.32092936759E+03  0.50400001928E-02 0. -1.
    10030    2    1    2    0    0  0.00000000000E+00  0.00000000000E+00  0.97258717107E+03  0.16144459062E+04  0.12886076900E+04 0.  0.
        5    1    3    3  502    0 -0.52814836810E+03  0.27508128216E+03  0.79444369010E+03  0.99286115709E+03  0.46999998093E+01 0.  1.
       -5    1    3    3    0  502  0.52814836810E+03 -0.27508128216E+03  0.17814348097E+03  0.62158474912E+03  0.46999998093E+01 0. -1.
</event>
<event>
 5   0  0.1700511E-03  0.1304456E+04  0.7818609E-02  0.9026039E-01
       -2   -1    0    0    0  501  0.00000000000E+00  0.00000000000E+00  0.15511633869E+04  0.15511633869E+04  0.25500000920E-02 0. -1.
        2   -1    0    0  501    0  0.00000000000E+00  0.00000000000E+00 -0.27424663834E+03  0.27424663835E+03  0.25500000920E-02 0.  1.
    10030    2    1    2    0    0  0.00000000000E+00  0.00000000000E+00  0.12769167485E+04  0.18254100252E+04  0.13044559699E+04 0.  0.
        2    1    3    3  502    0  0.48376280514E+03 -0.40128534292E+03  0.88222505086E+03  0.10832254698E+04  0.25500000920E-02 0. -1.
       -2    1    3    3    0  502 -0.48376280514E+03  0.40128534292E+03  0.39469169766E+03  0.74218455541E+03  0.25500000920E-02 0.  1.
</event>
<event>
 5   0  0.1694675E-03  0.1248536E+04  0.7818609E-02  0.9071403E-01
       -2   -1    0    0    0  501  0.00000000000E+00  0.00000000000E+00  0.54489044189E+03  0.54489044189E+03  0.25500000920E-02 0. -1.
        2   -1    0    0  501    0  0.00000000000E+00  0.00000000000E+00 -0.71520860247E+03  0.71520860248E+03  0.25500000920E-02 0.  1.
    10030    2    1    2    0    0  0.00000000000E+00  0.00000000000E+00 -0.17031816058E+03  0.12600990444E+04  0.12485356726E+04 0.  0.
        4    1    3    3  502    0  0.12249515340E+03  0.42058073442E+03  0.36372467389E+03  0.56937726339E+03  0.12699999809E+01 0. -1.
       -4    1    3    3    0  502 -0.12249515340E+03 -0.42058073442E+03 -0.53404283447E+03  0.69072178098E+03  0.12699999809E+01 0.  1.
</event>
<event>
 5   0  0.1667342E-03  0.1299468E+04  0.7818609E-02  0.9029987E-01
       -2   -1    0    0    0  501  0.00000000000E+00  0.00000000000E+00  0.45655752519E+03  0.45655752519E+03  0.25500000920E-02 0.  1.
        2   -1    0    0  501    0  0.00000000000E+00  0.00000000000E+00 -0.92464690243E+03  0.92464690244E+03  0.25500000920E-02 0. -1.
    10030    2    1    2    0    0  0.00000000000E+00  0.00000000000E+00 -0.46808937724E+03  0.13812044276E+04  0.12994683551E+04 0.  0.
        5    1    3    3  502    0 -0.94922130583E+02  0.10536317718E+03  0.43988799137E+03  0.46220682051E+03  0.46999998093E+01 0.  1.
       -5    1    3    3    0  502  0.94922130583E+02 -0.10536317718E+03 -0.90797736861E+03  0.91899760712E+03  0.46999998093E+01 0. -1.
</event>
<event>
 5   0  0.6284125E-04  0.1214310E+04  0.7818609E-02  0.9100422E-01
       -4   -1    0    0    0  501  0.00000000000E+00  0.00000000000E+00  0.96475518536E+03  0.96475602127E+03  0.12699999809E+01 0.  1.
        4   -1    0    0  501    0  0.00000000000E+00  0.00000000000E+00 -0.38210253830E+03  0.38210464885E+03  0.12699999809E+01 0. -1.
    10030    2    1    2    0    0  0.00000000000E+00  0.00000000000E+00  0.58265264706E+03  0.13468606701E+04  0.12143103218E+04 0.  0.
        2    1    3    3  502    0  0.25460423293E+03  0.30857992580E+03 -0.21524701968E+03  0.45428643555E+03  0.25500000920E-02 0. -1.
       -2    1    3    3    0  502 -0.25460423293E+03 -0.30857992580E+03  0.79789966674E+03  0.89257423458E+03  0.25500000920E-02 0.  1.
</event>
<event>
 5   0  0.9081324E-04  0.1279034E+04  0.7818609E-02  0.9046358E-01
       -1   -1    0    0    0  501  0.00000000000E+00  0.00000000000E+00  0.44855351337E+03  0.44855351340E+03  0.50400001928E-02 0. -1.
        1   -1    0    0  501    0  0.00000000000E+00  0.00000000000E+00 -0.91177990660E+03  0.91177990662E+03  0.50400001928E-02 0.  1.
    10030    2    1    2    0    0  0.00000000000E+00  0.00000000000E+00 -0.46322639323E+03  0.13603334200E+04  0.12790341365E+04 0.  0.
        4    1    3    3  502    0  0.49847591108E+03  0.34522224801E+03 -0.15409292464E+02  0.60654405746E+03  0.12699999809E+01 0. -1.
       -4    1    3    3    0  502 -0.49847591108E+03 -0.34522224801E+03 -0.44781710077E+03  0.75378936255E+03  0.12699999809E+01 0.  1.
</event>
<event>
 5   0  0.9098192E-04  0.1288234E+04  0.7818609E-02  0.9038948E-01
        1   -1    0    0  501    0  0.00000000000E+00  0.00000000000E+00  0.10359954251E+04  0.10359954251E+04  0.50400001928E-02 0. -1.
       -1   -1    0    0    0  501  0.00000000000E+00  0.00000000000E+00 -0.40047139873E+03  0.40047139877E+03  0.50400001928E-02 0.  1.
    10030    2    1    2    0    0  0.00000000000E+00  0.00000000000E+00  0.63552402633E+03  0.14364668238E+04  0.12882337319E+04 0.  0.
        1    1    3    3  502    0 -0.42830845792E+03  0.22178488752E+03  0.79379225235E+03  0.92883949710E+03  0.50400001928E-02 0. -1.
       -1    1    3    3    0  502  0.42830845792E+03 -0.22178488752E+03 -0.15826822602E+03  0.50762732674E+03  0.50400001928E-02 0.  1.
</event>
<event>
 5   0  0.1623890E-03  0.1298216E+04  0.7818609E-02  0.9030981E-01
        2   -1    0    0  501    0  0.00000000000E+00  0.00000000000E+00  0.27831316679E+03  0.27831316680E+03  0.25500000920E-02 0. -1.
       -2   -1    0    0    0  501  0.00000000000E+00  0.00000000000E+00 -0.15139114543E+04  0.15139114543E+04  0.25500000920E-02 0.  1.
    10030    2    1    2    0    0  0.00000000000E+00  0.00000000000E+00 -0.12355982875E+04  0.17922246211E+04  0.12982164551E+04 0.  0.
        3    1    3    3  502    0 -0.10046477141E+03  0.20996124975E+03 -0.14543179739E+04  0.14728264243E+04  0.10100000352E+00 0.  1.
       -3    1    3    3    0  502  0.10046477141E+03 -0.20996124975E+03  0.21871968641E+03  0.31939819679E+03  0.10100000352E+00 0. -1.
</event>
<event>
 5   0  0.1714861E-03  0.1291143E+04  0.7818609E-02  0.9036618E-01
       -2   -1    0    0    0  501  0.00000000000E+00  0.00000000000E+00  0.42261348815E+03  0.42261348815E+03  0.25500000920E-02 0. -1.
        2   -1    0    0  501    0  0.00000000000E+00  0.00000000000E+00 -0.98615557344E+03  0.98615557344E+03  0.25500000920E-02 0.  1.
    10030    2    1    2    0    0  0.00000000000E+00  0.00000000000E+00 -0.56354208529E+03  0.14087690616E+04  0.12911431319E+04 0.  0.
        1    1    3    3  502    0 -0.44246367737E+03  0.42696218970E+03 -0.49639344346E+03  0.79023874112E+03  0.50400001928E-02 0.  1.
       -1    1    3    3    0  502  0.44246367737E+03 -0.42696218970E+03 -0.67148641836E+02  0.61853032048E+03  0.50400001928E-02 0. -1.
</event>
<event>
 5   0  0.6284125E-04  0.1314959E+04  0.7818609E-02  0.9017786E-01
       -3   -1    0    0    0  501  0.00000000000E+00  0.00000000000E+00  0.92991408127E+03  0.92991408675E+03  0.10100000352E+00 0.  1.
        3   -1    0    0  501    0  0.00000000000E+00  0.00000000000E+00 -0.46485935647E+03  0.46485936744E+03  0.10100000352E+00 0. -1.
    10030    2    1    2    0    0  0.00000000000E+00  0.00000000000E+00  0.46505472480E+03  0.13947734542E+04  0.13149589695E+04 0.  0.
        3    1    3    3  502    0 -0.60159542817E+02  0.57803990407E+03 -0.93591719901E+02  0.58864991423E+03  0.10100000352E+00 0.  1.
       -3    1    3    3    0  502  0.60159542817E+02 -0.57803990407E+03  0.55864644470E+03  0.80612353996E+03  0.10100000352E+00 0. -1.
</event>
<event>
 5   0  0.1667342E-03  0.1470749E+04  0.7818609E-02  0.8904141E-01
        2   -1    0    0  501    0  0.00000000000E+00  0.00000000000E+00  0.10224530767E+04  0.10224530767E+04  0.25500000920E-02 0.  1.
       -2   -1    0    0    0  501  0.00000000000E+00  0.00000000000E+00 -0.52890020909E+03  0.52890020910E+03  0.25500000920E-02 0. -1.
    10030    2    1    2    0    0  0.00000000000E+00  0.00000000000E+00  0.49355286757E+03  0.15513532858E+04  0.14707489875E+04 0.  0.
        5    1    3    3  502    0 -0.79938917439E+02 -0.67560285048E+03 -0.47671213242E+02  0.68200005621E+03  0.46999998093E+01 0. -1.
       -5    1    3    3    0  502  0.79938917439E+02  0.67560285048E+03  0.54122408081E+03  0.86935322956E+03  0.46999998093E+01 0.  1.
</event>
<event>
 5   0  0.9215829E-04  0.1303949E+04  0.7818609E-02  0.9026439E-01
        1   -1    0    0  501    0  0.00000000000E+00  0.00000000000E+00  0.88378856899E+03  0.88378856900E+03  0.50400001928E-02 0. -1.
       -1   -1    0    0    0  501  0.00000000000E+00  0.00000000000E+00 -0.48096462479E+03  0.48096462482E+03  0.50400001928E-02 0.  1.
    10030    2    1    2    0    0  0.00000000000E+00  0.00000000000E+00  0.40282394420E+03  0.13647531938E+04  0.13039494431E+04 0.  0.
        3    1    3    3  502    0  0.63271068304E+02 -0.95513285029E+02  0.87317019339E+03  0.88065442287E+03  0.10100000352E+00 0. -1.
       -3    1    3    3    0  502 -0.63271068304E+02  0.95513285029E+02 -0.47034624919E+03  0.48409877095E+03  0.10100000352E+00 0.  1.
</event>
<event>
 5   0  0.6284125E-04  0.1307926E+04  0.7818609E-02  0.9023303E-01
        3   -1    0    0  501    0  0.00000000000E+00  0.00000000000E+00  0.15047533837E+04  0.15047533871E+04  0.10100000352E+00 0. -1.
       -3   -1    0    0    0  501  0.00000000000E+00  0.00000000000E+00 -0.28421119142E+03  0.28421120936E+03  0.10100000352E+00 0.  1.
    10030    2    1    2    0    0  0.00000000000E+00  0.00000000000E+00  0.12205421923E+04  0.17889645965E+04  0.13079262534E+04 0.  0.
        5    1    3    3  502    0  0.38891026069E+03  0.28588242686E+03  0.67906008699E+01  0.48275061379E+03  0.46999998093E+01 0.  1.
       -5    1    3    3    0  502 -0.38891026069E+03 -0.28588242686E+03  0.12137515914E+04  0.13062139827E+04  0.46999998093E+01 0. -1.
</event>
<event>
 5   0  0.1700511E-03  0.1301928E+04  0.7818609E-02  0.9028037E-01
       -2   -1    0    0    0  501  0.00000000000E+00  0.00000000000E+00  0.60364202769E+03  0.60364202770E+03  0.25500000920E-02 0. -1.
        2   -1    0    0  501    0  0.00000000000E+00  0.00000000000E+00 -0.70199596407E+03  0.70199596407E+03  0.25500000920E-02 0.  1.
    10030    2    1    2    0    0  0.00000000000E+00  0.00000000000E+00 -0.98353936377E+02  0.13056379918E+04  0.13019282118E+04 0.  0.
        2    1    3    3  502    0  0.54761547444E+03  0.74443614898E+02  0.29579407056E+03  0.62683226770E+03  0.25500000920E-02 0. -1.
       -2    1    3    3    0  502 -0.54761547444E+03 -0.74443614898E+02 -0.39414800693E+03  0.67880572407E+03  0.25500000920E-02 0.  1.
</event>
<event>
 5   0  0.9098192E-04  0.1281237E+04  0.7818609E-02  0.9044578E-01
       -1   -1    0    0    0  501  0.00000000000E+00  0.00000000000E+00  0.34074341940E+03  0.34074341944E+03  0.50400001928E-02 0. -1.
        1   -1    0    0  501    0  0.00000000000E+00  0.00000000000E+00 -0.12044016921E+04  0.12044016921E+04  0.50400001928E-02 0.  1.
    10030    2    1    2    0    0  0.00000000000E+00  0.00000000000E+00 -0.86365827269E+03  0.15451451115E+04  0.12812368258E+04 0.  0.
        1    1    3    3  502    0 -0.58303916790E+03 -0.46692190676E+01 -0.75189222545E+03  0.95147169775E+03  0.50400001928E-02 0.  1.
       -1    1    3    3    0  502  0.58303916790E+03  0.46692190676E+01 -0.11176604725E+03  0.59367341380E+03  0.50400001928E-02 0. -1.
</event>
<event>
 5   0  0.1623890E-03  0.1296966E+04  0.7818609E-02  0.9031975E-01
        2   -1    0    0  501    0  0.00000000000E+00  0.00000000000E+00  0.28341548255E+03  0.28341548256E+03  0.25500000920E-02 0. -1.
       -2   -1    0    0    0  501  0.00000000000E+00  0.00000000000E+00 -0.14837937679E+04  0.14837937679E+04  0.25500000920E-02 0.  1.
    10030    2    1    2    0    0  0.00000000000E+00  0.00000000000E+00 -0.12003782853E+04  0.17672092504E+04  0.12969658850E+04 0.  0.
        3    1    3    3  502    0  0.47330137881E+03  0.34846209861E+03 -0.22680942089E+03  0.62998615299E+03  0.10100000352E+00 0. -1.
       -3    1    3    3    0  502 -0.47330137881E+03 -0.34846209861E+03 -0.97356886445E+03  0.11372230975E+04  0.10100000352E+00 0.  1.
</event>
<event>
 5   0  0.1700511E-03  0.1291887E+04  0.7818609E-02  0.9036024E-01
        2   -1    0    0  501    0  0.00000000000E+00  0.00000000000E+00  0.52778395317E+03  0.52778395318E+03  0.25500000920E-02 0.  1.
       -2   -1    0    0    0  501  0.00000000000E+00  0.00000000000E+00 -0.79055656171E+03  0.79055656172E+03  0.25500000920E-02 0. -1.
    10030    2    1    2    0    0  0.00000000000E+00  0.00000000000E+00 -0.26277260854E+03  0.13183405149E+04  0.12918870962E+04 0.  0.
        2    1    3    3  502    0  0.19937190973E+03 -0.37573569883E+03 -0.62746450988E+03  0.75804893307E+03  0.25500000920E-02 0. -1.
       -2    1    3    3    0  502 -0.19937190973E+03  0.37573569883E+03  0.36469190133E+03  0.56029158183E+03  0.25500000920E-02 0.  1.
</event>
<event>
 5   0  0.9098192E-04  0.1306619E+04  0.7818609E-02  0.9024333E-01
        1   -1    0    0  501    0  0.00000000000E+00  0.00000000000E+00  0.49234495231E+03  0.49234495233E+03  0.50400001928E-02 0.  1.
       -1   -1    0    0    0  501  0.00000000000E+00  0.00000000000E+00 -0.86689850721E+03  0.86689850723E+03  0.50400001928E-02 0. -1.
    10030    2    1    2    0    0  0.00000000000E+00  0.00000000000E+00 -0.37455355491E+03  0.13592434596E+04  0.13066186961E+04 0.  0.
        1    1    3    3  502    0 -0.39458988565E+03  0.23898486020E+03 -0.66850756736E+03  0.81222983749E+03  0.50400001928E-02 0. -1.
       -1    1    3    3    0  502  0.39458988565E+03 -0.23898486020E+03  0.29395401245E+03  0.54701362207E+03  0.50400001928E-02 0.  1.
</event>
<event>
 5   0  0.1667342E-03  0.1309875E+04  0.7818609E-02  0.9021771E-01
        2   -1    0    0  501    0  0.00000000000E+00  0.00000000000E+00  0.40035373337E+03  0.40035373338E+03  0.25500000920E-02 0.  1.
       -2   -1    0    0    0  501  0.00000000000E+00  0.00000000000E+00 -0.10714095333E+04  0.10714095333E+04  0.25500000920E-02 0. -1.
    10030    2    1    2    0    0  0.00000000000E+00  0.00000000000E+00 -0.67105579996E+03  0.14717632667E+04  0.13098745080E+04 0.  0.
        5    1    3    3  502    0  0.19556633082E+02  0.58396822944E+03 -0.66792738327E+03  0.88744038347E+03  0.46999998093E+01 0. -1.
       -5    1    3    3    0  502 -0.19556633082E+02 -0.58396822944E+03 -0.31284166870E+01  0.58432288324E+03  0.46999998093E+01 0.  1.
</event>
<event>
 5   0  0.1700511E-03  0.1309309E+04  0.7818609E-02  0.9022215E-01
        2   -1    0    0  501    0  0.00000000000E+00  0.00000000000E+00  0.13278985537E+04  0.13278985537E+04  0.25500000920E-02 0.  1.
       -2   -1    0    0    0  501  0.00000000000E+00  0.00000000000E+00 -0.32274513875E+03  0.32274513876E+03  0.25500000920E-02 0. -1.
    10030    2    1    2    0    0  0.00000000000E+00  0.00000000000E+00  0.10051534149E+04  0.16506436924E+04  0.13093094408E+04 0.  0.
        2    1    3    3  502    0 -0.36656037387E+03 -0.73515372404E+02 -0.17492590481E+03  0.41275911844E+03  0.25500000920E-02 0. -1.
       -2    1    3    3    0  502  0.36656037387E+03  0.73515372404E+02  0.11800793197E+04  0.12378845740E+04  0.25500000920E-02 0.  1.
</event>
<event>
 5   0  0.1667342E-03  0.1339113E+04  0.7818609E-02  0.8999110E-01
        2   -1    0    0  501    0  0.00000000000E+00  0.00000000000E+00  0.11581427923E+04  0.11581427923E+04  0.25500000920E-02 0. -1.
       -2   -1    0    0    0  501  0.00000000000E+00  0.00000000000E+00 -0.38709058598E+03  0.38709058599E+03  0.25500000920E-02 0.  1.
    10030    2    1    2    0    0  0.00000000000E+00  0.00000000000E+00  0.77105220635E+03  0.15452333783E+04  0.13391133965E+04 0.  0.
        5    1    3    3  502    0 -0.34091167141E+03  0.57554656704E+03  0.41835644391E+03  0.78899862021E+03  0.46999998093E+01 0.  1.
       -5    1    3    3    0  502  0.34091167141E+03 -0.57554656704E+03  0.35269576244E+03  0.75623475811E+03  0.46999998093E+01 0. -1.
</event>
<event>
 5   0  0.9098192E-04  0.1294842E+04  0.7818609E-02  0.9033665E-01
        1   -1    0    0  501    0  0.00000000000E+00  0.00000000000E+00  0.17699589649E+04  0.17699589649E+04  0.50400001928E-02 0. -1.
       -1   -1    0    0    0  501  0.00000000000E+00  0.00000000000E+00 -0.23681566551E+03  0.23681566557E+03  0.50400001928E-02 0.  1.
    10030    2    1    2    0    0  0.00000000000E+00  0.00000000000E+00  0.15331432994E+04  0.20067746305E+04  0.12948420912E+04 0.  0.
        1    1    3    3  502    0  0.55861945922E+02 -0.24123826532E+03 -0.16052444360E+03  0.29510092287E+03  0.50400001928E-02 0.  1.
       -1    1    3    3    0  502 -0.55861945922E+02  0.24123826532E+03  0.16936677430E+04  0.17116737076E+04  0.50400001928E-02 0. -1.
</event>
<event>
 5   0  0.1694675E-03  0.1311547E+04  0.7818609E-02  0.9020458E-01
       -2   -1    0    0    0  501  0.00000000000E+00  0.00000000000E+00  0.32631632228E+03  0.32631632229E+03  0.25500000920E-02 0.  1.
        2   -1    0    0  501    0  0.00000000000E+00  0.00000000000E+00 -0.13178588405E+04  0.13178588405E+04  0.25500000920E-02 0. -1.
    10030    2    1    2    0    0  0.00000000000E+00  0.00000000000E+00 -0.99154251826E+03  0.16441751628E+04  0.13115469494E+04 0.  0.
        4    1    3    3  502    0 -0.19376062101E+03 -0.32082223745E+03 -0.11703596892E+04  0.12289074422E+04  0.12699999809E+01 0. -1.
       -4    1    3    3    0  502  0.19376062101E+03  0.32082223745E+03  0.17881717097E+03  0.41526772067E+03  0.12699999809E+01 0.  1.
</event>
<event>
 5   0  0.1623890E-03  0.1302407E+04  0.7818609E-02  0.9027658E-01
       -2   -1    0    0    0  501  0.00000000000E+00  0.00000000000E+00  0.45546410321E+03  0.45546410322E+03  0.25500000920E-02 0. -1.
        2   -1    0    0  501    0  0.00000000000E+00  0.00000000000E+00 -0.93106419445E+03  0.93106419446E+03  0.25500000920E-02 0.  1.
    10030    2    1    2    0    0  0.00000000000E+00  0.00000000000E+00 -0.47560009124E+03  0.13865282977E+04  0.13024074913E+04 0.  0.
        3    1    3    3  502    0  0.24033263685E+03  0.36069480052E+03 -0.75520087909E+03  0.87074042827E+03  0.10100000352E+00 0.  1.
       -3    1    3    3    0  502 -0.24033263685E+03 -0.36069480052E+03  0.27960078785E+03  0.51578786940E+03  0.10100000352E+00 0. -1.
</event>
<event>
 5   0  0.6284125E-04  0.1316529E+04  0.7818609E-02  0.9016559E-01
        4   -1    0    0  501    0  0.00000000000E+00  0.00000000000E+00  0.79218205015E+03  0.79218306816E+03  0.12699999809E+01 0. -1.
       -4   -1    0    0    0  501  0.00000000000E+00  0.00000000000E+00 -0.54698366264E+03  0.54698513700E+03  0.12699999809E+01 0.  1.
    10030    2    1    2    0    0  0.00000000000E+00  0.00000000000E+00  0.24519838751E+03  0.13391682052E+04  0.13165292372E+04 0.  0.
        2    1    3    3  502    0 -0.19444723469E+03 -0.49889937784E+03 -0.26687129614E+03  0.59827301877E+03  0.25500000920E-02 0.  1.
       -2    1    3    3    0  502  0.19444723469E+03  0.49889937784E+03  0.51206968365E+03  0.74089518638E+03  0.25500000920E-02 0. -1.
</event>
<event>
 5   0  0.1623890E-03  0.1299081E+04  0.7818609E-02  0.9030294E-01
       -2   -1    0    0    0  501  0.00000000000E+00  0.00000000000E+00  0.48140134904E+03  0.48140134905E+03  0.25500000920E-02 0. -1.
        2   -1    0    0  501    0  0.00000000000E+00  0.00000000000E+00 -0.87640582441E+03  0.87640582441E+03  0.25500000920E-02 0.  1.
    10030    2    1    2    0    0  0.00000000000E+00  0.00000000000E+00 -0.39500447537E+03  0.13578071735E+04  0.12990811309E+04 0.  0.
        3    1    3    3  502    0  0.32918046736E+02  0.64766402264E+03 -0.23591482417E+03  0.69007832779E+03  0.10100000352E+00 0. -1.
       -3    1    3    3    0  502 -0.32918046736E+02 -0.64766402264E+03 -0.15908965120E+03  0.66772884567E+03  0.10100000352E+00 0.  1.
</event>
<event>
 5   0  0.9215829E-04  0.1305348E+04  0.7818609E-02  0.9025335E-01
        1   -1    0    0  501    0  0.00000000000E+00  0.00000000000E+00  0.83801887133E+03  0.83801887135E+03  0.50400001928E-02 0. -1.
       -1   -1    0    0    0  501  0.00000000000E+00  0.00000000000E+00 -0.50832159327E+03  0.50832159329E+03  0.50400001928E-02 0.  1.
    10030    2    1    2    0    0  0.00000000000E+00  0.00000000000E+00  0.32969727806E+03  0.13463404646E+04  0.13053475980E+04 0.  0.
        3    1    3    3  502    0 -0.30294150199E+03  0.28518962300E+03 -0.35381150599E+03  0.54615864606E+03  0.10100000352E+00 0.  1.
       -3    1    3    3    0  502  0.30294150199E+03 -0.28518962300E+03  0.68350878406E+03  0.80018181858E+03  0.10100000352E+00 0. -1.
</event>
<event>
 5   0  0.9215829E-04  0.1289553E+04  0.7818609E-02  0.9037891E-01
       -1   -1    0    0    0  501  0.00000000000E+00  0.00000000000E+00  0.34313027830E+03  0.34313027833E+03  0.50400001928E-02 0. -1.
        1   -1    0    0  501    0  0.00000000000E+00  0.00000000000E+00 -0.12116008042E+04  0.12116008042E+04  0.50400001928E-02 0.  1.
    10030    2    1    2    0    0  0.00000000000E+00  0.00000000000E+00 -0.86847052590E+03  0.15547310825E+04  0.12895532888E+04 0.  0.
        3    1    3    3  502    0 -0.33489756370E+03  0.10802408153E+03 -0.10856258284E+04  0.11412313656E+04  0.10100000352E+00 0.  1.
       -3    1    3    3    0  502  0.33489756370E+03 -0.10802408153E+03  0.21715530245E+03  0.41349971698E+03  0.10100000352E+00 0. -1.
</event>
<event>
 5   0  0.1694675E-03  0.1286176E+04  0.7818609E-02  0.9040600E-01
        2   -1    0    0  501    0  0.00000000000E+00  0.00000000000E+00  0.17761703651E+04  0.17761703651E+04  0.25500000920E-02 0.  1.
       -2   -1    0    0    0  501  0.00000000000E+00  0.00000000000E+00 -0.23283915917E+03  0.23283915919E+03  0.25500000920E-02 0. -1.
    10030    2    1    2    0    0  0.00000000000E+00  0.00000000000E+00  0.15433312059E+04  0.20090095243E+04  0.12861757491E+04 0.  0.
        4    1    3    3  502    0  0.69149936768E+02  0.46888252127E+03  0.14506029389E+04  0.15260678332E+04  0.12699999809E+01 0.  1.
       -4    1    3    3    0  502 -0.69149936768E+02 -0.46888252127E+03  0.92728267028E+02  0.48294169101E+03  0.12699999809E+01 0. -1.
</event>
<event>
 5   0  0.9027076E-04  0.1411408E+04  0.7818609E-02  0.8945602E-01
        1   -1    0    0  501    0  0.00000000000E+00  0.00000000000E+00  0.12438023315E+04  0.12438023315E+04  0.50400001928E-02 0.  1.
       -1   -1    0    0    0  501  0.00000000000E+00  0.00000000000E+00 -0.40039960165E+03  0.40039960168E+03  0.50400001928E-02 0. -1.
    10030    2    1    2    0    0  0.00000000000E+00  0.00000000000E+00  0.84340272983E+03  0.16442019332E+04  0.14114077484E+04 0.  0.
        5    1    3    3  502    0 -0.64731839351E+03 -0.13502925384E+03  0.70881030923E+03  0.96937513195E+03  0.46999998093E+01 0.  1.
       -5    1    3    3    0  502  0.64731839351E+03  0.13502925384E+03  0.13459242060E+03  0.67482680122E+03  0.46999998093E+01 0. -1.
</event>
<event>
 5   0  0.6284125E-04  0.1301211E+04  0.7818609E-02  0.9028606E-01
       -3   -1    0    0    0  501  0.00000000000E+00  0.00000000000E+00  0.31328697317E+03  0.31328698945E+03  0.10100000352E+00 0. -1.
        3   -1    0    0  501    0  0.00000000000E+00  0.00000000000E+00 -0.13511170163E+04  0.13511170201E+04  0.10100000352E+00 0.  1.
    10030    2    1    2    0    0  0.00000000000E+00  0.00000000000E+00 -0.10378300431E+04  0.16644040095E+04  0.13012107856E+04 0.  0.
        1    1    3    3  502    0  0.36776724279E+03  0.52371929438E+03 -0.36891006712E+03  0.73866723349E+03  0.50400001928E-02 0. -1.
       -1    1    3    3    0  502 -0.36776724279E+03 -0.52371929438E+03 -0.66891997601E+03  0.92573677604E+03  0.50400001928E-02 0.  1.
</event>
<event>
 5   0  0.9215829E-04  0.1269209E+04  0.7818609E-02  0.9054345E-01
       -1   -1    0    0    0  501  0.00000000000E+00  0.00000000000E+00  0.53234314357E+03  0.53234314359E+03  0.50400001928E-02 0. -1.
        1   -1    0    0  501    0  0.00000000000E+00  0.00000000000E+00 -0.75651016378E+03  0.75651016380E+03  0.50400001928E-02 0.  1.
    10030    2    1    2    0    0  0.00000000000E+00  0.00000000000E+00 -0.22416702021E+03  0.12888533074E+04  0.12692092007E+04 0.  0.
        3    1    3    3  502    0  0.23146557570E+03 -0.24314789784E+03 -0.65895914818E+03  0.73954336055E+03  0.10100000352E+00 0.  1.
       -3    1    3    3    0  502 -0.23146557570E+03  0.24314789784E+03  0.43479212797E+03  0.54930994684E+03  0.10100000352E+00 0. -1.
</event>
<event>
 5   0  0.6284125E-04  0.1314239E+04  0.7818609E-02  0.9018349E-01
       -3   -1    0    0    0  501  0.00000000000E+00  0.00000000000E+00  0.44080646669E+03  0.44080647826E+03  0.10100000352E+00 0.  1.
        3   -1    0    0  501    0  0.00000000000E+00  0.00000000000E+00 -0.97958140675E+03  0.97958141196E+03  0.10100000352E+00 0. -1.
    10030    2    1    2    0    0  0.00000000000E+00  0.00000000000E+00 -0.53877494006E+03  0.14203878902E+04  0.13142386856E+04 0.  0.
        2    1    3    3  502    0 -0.30703526685E+03 -0.46345360526E+03 -0.64803599285E+03  0.85382114483E+03  0.25500000920E-02 0. -1.
       -2    1    3    3    0  502  0.30703526685E+03  0.46345360526E+03  0.10926105279E+03  0.56656674539E+03  0.25500000920E-02 0.  1.
</event>
<event>
 5   0  0.9215829E-04  0.1305408E+04  0.7818609E-02  0.9025288E-01
        1   -1    0    0  501    0  0.00000000000E+00  0.00000000000E+00  0.61989536862E+03  0.61989536864E+03  0.50400001928E-02 0. -1.
       -1   -1    0    0    0  501  0.00000000000E+00  0.00000000000E+00 -0.68724883221E+03  0.68724883223E+03  0.50400001928E-02 0.  1.
    10030    2    1    2    0    0  0.00000000000E+00  0.00000000000E+00 -0.67353463596E+02  0.13071442009E+04  0.13054077803E+04 0.  0.
        3    1    3    3  502    0  0.34377833784E+03  0.13169827256E+03  0.50601550277E+03  0.62576327777E+03  0.10100000352E+00 0. -1.
       -3    1    3    3    0  502 -0.34377833784E+03 -0.13169827256E+03 -0.57336896637E+03  0.68138092310E+03  0.10100000352E+00 0.  1.
</event>
<event>
 5   0  0.1623890E-03  0.1295753E+04  0.7818609E-02  0.9032940E-01
        2   -1    0    0  501    0  0.00000000000E+00  0.00000000000E+00  0.70545458949E+03  0.70545458950E+03  0.25500000920E-02 0. -1.
       -2   -1    0    0    0  501  0.00000000000E+00  0.00000000000E+00 -0.59499764314E+03  0.59499764315E+03  0.25500000920E-02 0.  1.
    10030    2    1    2    0    0  0.00000000000E+00  0.00000000000E+00  0.11045694635E+03  0.13004522326E+04  0.12957527821E+04 0.  0.
        3    1    3    3  502    0  0.39071381284E+03 -0.28980748383E+03 -0.37422313046E+03  0.61374964179E+03  0.10100000352E+00 0.  1.
       -3    1    3    3    0  502 -0.39071381284E+03  0.28980748383E+03  0.48468007681E+03  0.68670259085E+03  0.10100000352E+00 0. -1.
</event>
<event>
 5   0  0.9110949E-04  0.1299019E+04  0.7818609E-02  0.9030343E-01
        1   -1    0    0  501    0  0.00000000000E+00  0.00000000000E+00  0.17293347807E+04  0.17293347807E+04  0.50400001928E-02 0.  1.
       -1   -1    0    0    0  501  0.00000000000E+00  0.00000000000E+00 -0.24394501514E+03  0.24394501519E+03  0.50400001928E-02 0. -1.
    10030    2    1    2    0    0  0.00000000000E+00  0.00000000000E+00  0.14853897655E+04  0.19732797959E+04  0.12990190134E+04 0.  0.
        2    1    3    3  502    0 -0.48471304221E+03 -0.33706525475E+03  0.11539711797E+04  0.12962288389E+04  0.25500000920E-02 0.  1.
       -2    1    3    3    0  502  0.48471304221E+03  0.33706525475E+03  0.33141858580E+03  0.67705095692E+03  0.25500000920E-02 0. -1.
</event>
<event>
 5   0  0.9215829E-04  0.1295015E+04  0.7818609E-02  0.9033528E-01
       -1   -1    0    0    0  501  0.00000000000E+00  0.00000000000E+00  0.30000080987E+03  0.30000080991E+03  0.50400001928E-02 0.  1.
        1   -1    0    0  501    0  0.00000000000E+00  0.00000000000E+00 -0.13975490256E+04  0.13975490256E+04  0.50400001928E-02 0. -1.
    10030    2    1    2    0    0  0.00000000000E+00  0.00000000000E+00 -0.10975482157E+04  0.16975498355E+04  0.12950148100E+04 0.  0.
        3    1    3    3  502    0  0.62590505457E+03 -0.16445152710E+03 -0.57702212346E+03  0.86703862847E+03  0.10100000352E+00 0.  1.
       -3    1    3    3    0  502 -0.62590505457E+03  0.16445152710E+03 -0.52052609229E+03  0.83051120706E+03  0.10100000352E+00 0. -1.
</event>
<event>
 5   0  0.9110949E-04  0.1290771E+04  0.7818609E-02  0.9036916E-01
        1   -1    0    0  501    0  0.00000000000E+00  0.00000000000E+00  0.73786366354E+03  0.73786366356E+03  0.50400001928E-02 0. -1.
       -1   -1    0    0    0  501  0.00000000000E+00  0.00000000000E+00 -0.56449762895E+03  0.56449762897E+03  0.50400001928E-02 0.  1.
    10030    2    1    2    0    0  0.00000000000E+00  0.00000000000E+00  0.17336603459E+03  0.13023612925E+04  0.12907707598E+04 0.  0.
        2    1    3    3  502    0  0.28099007732E+03 -0.37804005123E+03  0.53183924025E+03  0.71043837267E+03  0.25500000920E-02 0. -1.
       -2    1    3    3    0  502 -0.28099007732E+03  0.37804005123E+03 -0.35847320566E+03  0.59192291987E+03  0.25500000920E-02 0.  1.
</event>
<event>
 5   0  0.9215829E-04  0.1297462E+04  0.7818609E-02  0.9031580E-01
        1   -1    0    0  501    0  0.00000000000E+00  0.00000000000E+00  0.20641514204E+04  0.20641514204E+04  0.50400001928E-02 0.  1.
       -1   -1    0    0    0  501  0.00000000000E+00  0.00000000000E+00 -0.20388618418E+03  0.20388618425E+03  0.50400001928E-02 0. -1.
    10030    2    1    2    0    0  0.00000000000E+00  0.00000000000E+00  0.18602652362E+04  0.22680376046E+04  0.12974620715E+04 0.  0.
        3    1    3    3  502    0 -0.34832379128E+03 -0.96309272028E+02  0.18718909150E+04  0.19064575913E+04  0.10100000352E+00 0.  1.
       -3    1    3    3    0  502  0.34832379128E+03  0.96309272028E+02 -0.11625678805E+02  0.36158001336E+03  0.10100000352E+00 0. -1.
</event>
<event>
 5   0  0.1667342E-03  0.1300698E+04  0.7818609E-02  0.9029012E-01
        2   -1    0    0  501    0  0.00000000000E+00  0.00000000000E+00  0.53545138555E+03  0.53545138556E+03  0.25500000920E-02 0. -1.
       -2   -1    0    0    0  501  0.00000000000E+00  0.00000000000E+00 -0.78990121763E+03  0.78990121763E+03  0.25500000920E-02 0.  1.
    10030    2    1    2    0    0  0.00000000000E+00  0.00000000000E+00 -0.25444983207E+03  0.13253526032E+04  0.13006978149E+04 0.  0.
        5    1    3    3  502    0 -0.35376910410E+03 -0.13123830818E+03 -0.66693986639E+03  0.76629429590E+03  0.46999998093E+01 0.  1.
       -5    1    3    3    0  502  0.35376910410E+03  0.13123830818E+03  0.41249003432E+03  0.55905830729E+03  0.46999998093E+01 0. -1.
</event>
<event>
 5   0  0.1714861E-03  0.1293132E+04  0.7818609E-02  0.9035029E-01
       -2   -1    0    0    0  501  0.00000000000E+00  0.00000000000E+00  0.54414261250E+03  0.54414261251E+03  0.25500000920E-02 0. -1.
        2   -1    0    0  501    0  0.00000000000E+00  0.00000000000E+00 -0.76826853698E+03  0.76826853698E+03  0.25500000920E-02 0.  1.
    10030    2    1    2    0    0  0.00000000000E+00  0.00000000000E+00 -0.22412592448E+03  0.13124111495E+04  0.12931320873E+04 0.  0.
        1    1    3    3  502    0 -0.28181953813E+02 -0.27909355801E+03  0.47916842843E+03  0.55523852485E+03  0.50400001928E-02 0. -1.
       -1    1    3    3    0  502  0.28181953813E+02  0.27909355801E+03 -0.70329435291E+03  0.75717262464E+03  0.50400001928E-02 0.  1.
</event>
<event>
 5   0  0.9098192E-04  0.1306187E+04  0.7818609E-02  0.9024673E-01
       -1   -1    0    0    0  501  0.00000000000E+00  0.00000000000E+00  0.20125445486E+03  0.20125445492E+03  0.50400001928E-02 0.  1.
        1   -1    0    0  501    0  0.00000000000E+00  0.00000000000E+00 -0.21193630306E+04  0.21193630306E+04  0.50400001928E-02 0. -1.
    10030    2    1    2    0    0  0.00000000000E+00  0.00000000000E+00 -0.19181085758E+04  0.23206174856E+04  0.13061872017E+04 0.  0.
        1    1    3    3  502    0 -0.14088456154E+03  0.56854579130E+03 -0.44586058947E+03  0.73612800636E+03  0.50400001928E-02 0.  1.
       -1    1    3    3    0  502  0.14088456154E+03 -0.56854579130E+03 -0.14722479863E+04  0.15844894792E+04  0.50400001928E-02 0. -1.
</event>
<event>
 5   0  0.1700511E-03  0.1305083E+04  0.7818609E-02  0.9025544E-01
        2   -1    0    0  501    0  0.00000000000E+00  0.00000000000E+00  0.19114175597E+04  0.19114175597E+04  0.25500000920E-02 0. -1.
       -2   -1    0    0    0  501  0.00000000000E+00  0.00000000000E+00 -0.22277201080E+03  0.22277201081E+03  0.25500000920E-02 0.  1.
    10030    2    1    2    0    0  0.00000000000E+00  0.00000000000E+00  0.16886455489E+04  0.21341895705E+04  0.13050828836E+04 0.  0.
        2    1    3    3  502    0 -0.33867278361E+03  0.47566935187E+03  0.13206661986E+04  0.14439943887E+04  0.25500000920E-02 0. -1.
       -2    1    3    3    0  502  0.33867278361E+03 -0.47566935187E+03  0.36797935034E+03  0.69019518178E+03  0.25500000920E-02 0.  1.
</event>
<event>
 5   0  0.1667342E-03  0.1299252E+04  0.7818609E-02  0.9030159E-01
       -2   -1    0    0    0  501  0.00000000000E+00  0.00000000000E+00  0.96432254588E+03  0.96432254588E+03  0.25500000920E-02 0. -1.
        2   -1    0    0  501    0  0.00000000000E+00  0.00000000000E+00 -0.43762721883E+03  0.43762721884E+03  0.25500000920E-02 0.  1.
    10030    2    1    2    0    0  0.00000000000E+00  0.00000000000E+00  0.52669532705E+03  0.14019497647E+04  0.12992517752E+04 0.  0.
        5    1    3    3  502    0 -0.27522968196E+03  0.30613439235E+03 -0.27888889461E+03  0.49726325980E+03  0.46999998093E+01 0.  1.
       -5    1    3    3    0  502  0.27522968196E+03 -0.30613439235E+03  0.80558422166E+03  0.90468650492E+03  0.46999998093E+01 0. -1.
</event>
<event>
 5   0  0.9110949E-04  0.1298449E+04  0.7818609E-02  0.9030796E-01
        1   -1    0    0  501    0  0.00000000000E+00  0.00000000000E+00  0.36930224317E+03  0.36930224320E+03  0.50400001928E-02 0. -1.
       -1   -1    0    0    0  501  0.00000000000E+00  0.00000000000E+00 -0.11413214520E+04  0.11413214520E+04  0.50400001928E-02 0.  1.
    10030    2    1    2    0    0  0.00000000000E+00  0.00000000000E+00 -0.77201920885E+03  0.15106236952E+04  0.12984491864E+04 0.  0.
        2    1    3    3  502    0 -0.28125707902E+03 -0.17877487612E+03 -0.10342122188E+04  0.10865822170E+04  0.25500000920E-02 0.  1.
       -2    1    3    3    0  502  0.28125707902E+03  0.17877487612E+03  0.26219300990E+03  0.42404147825E+03  0.25500000920E-02 0. -1.
</event>
<event>
 5   0  0.1700511E-03  0.1302081E+04  0.7818609E-02  0.9027916E-01
        2   -1    0    0  501    0  0.00000000000E+00  0.00000000000E+00  0.61144920402E+03  0.61144920403E+03  0.25500000920E-02 0.  1.
       -2   -1    0    0    0  501  0.00000000000E+00  0.00000000000E+00 -0.69319583925E+03  0.69319583926E+03  0.25500000920E-02 0. -1.
    10030    2    1    2    0    0  0.00000000000E+00  0.00000000000E+00 -0.81746635231E+02  0.13046450433E+04  0.13020814785E+04 0.  0.
        2    1    3    3  502    0  0.10711202417E+03 -0.35957530768E+03  0.49223309532E+03  0.61891906397E+03  0.25500000920E-02 0.  1.
       -2    1    3    3    0  502 -0.10711202417E+03  0.35957530768E+03 -0.57397973055E+03  0.68572597931E+03  0.25500000920E-02 0. -1.
</event>
<event>
 5   0  0.1623890E-03  0.1307061E+04  0.7818609E-02  0.9023984E-01
       -2   -1    0    0    0  501  0.00000000000E+00  0.00000000000E+00  0.37463976306E+03  0.37463976307E+03  0.25500000920E-02 0. -1.
        2   -1    0    0  501    0  0.00000000000E+00  0.00000000000E+00 -0.11400345915E+04  0.11400345915E+04  0.25500000920E-02 0.  1.
    10030    2    1    2    0    0  0.00000000000E+00  0.00000000000E+00 -0.76539482840E+03  0.15146743545E+04  0.13070612675E+04 0.  0.
        3    1    3    3  502    0 -0.98260845522E+02 -0.28115218549E+03  0.29142512316E+03  0.41668976203E+03  0.10100000352E+00 0. -1.
       -3    1    3    3    0  502  0.98260845522E+02  0.28115218549E+03 -0.10568199516E+04  0.10979845925E+04  0.10100000352E+00 0.  1.
</event>
<event>
 5   0  0.9027076E-04  0.1324482E+04  0.7818609E-02  0.9010373E-01
        1   -1    0    0  501    0  0.00000000000E+00  0.00000000000E+00  0.20111377308E+04  0.20111377308E+04  0.50400001928E-02 0.  1.
       -1   -1    0    0    0  501  0.00000000000E+00  0.00000000000E+00 -0.21806709665E+03  0.21806709671E+03  0.50400001928E-02 0. -1.
    10030    2    1    2    0    0  0.00000000000E+00  0.00000000000E+00  0.17930706341E+04  0.22292048275E+04  0.13244817341E+04 0.  0.
        5    1    3    3  502    0  0.29451737418E+03 -0.41241117309E+03  0.17906774192E+03  0.53750423773E+03  0.46999998093E+01 0. -1.
       -5    1    3    3    0  502 -0.29451737418E+03  0.41241117309E+03  0.16140028922E+04  0.16917005898E+04  0.46999998093E+01 0.  1.
</event>
<event>
 5   0  0.9027076E-04  0.1308662E+04  0.7818609E-02  0.9022724E-01
       -1   -1    0    0    0  501  0.00000000000E+00  0.00000000000E+00  0.44080558293E+03  0.44080558296E+03  0.50400001928E-02 0.  1.
        1   -1    0    0  501    0  0.00000000000E+00  0.00000000000E+00 -0.97128774744E+03  0.97128774746E+03  0.50400001928E-02 0. -1.
    10030    2    1    2    0    0  0.00000000000E+00  0.00000000000E+00 -0.53048216451E+03  0.14120933304E+04  0.13086620064E+04 0.  0.
        5    1    3    3  502    0  0.14374647940E+03 -0.18805250958E+03  0.39297099233E+03  0.45877563962E+03  0.46999998093E+01 0.  1.
       -5    1    3    3    0  502 -0.14374647940E+03  0.18805250958E+03 -0.92345315684E+03  0.95331769079E+03  0.46999998093E+01 0. -1.
</event>
<event>
 5   0  0.1714861E-03  0.1295803E+04  0.7818609E-02  0.9032900E-01
       -2   -1    0    0    0  501  0.00000000000E+00  0.00000000000E+00  0.52733151787E+03  0.52733151788E+03  0.25500000920E-02 0. -1.
        2   -1    0    0  501    0  0.00000000000E+00  0.00000000000E+00 -0.79603834015E+03  0.79603834015E+03  0.25500000920E-02 0.  1.
    10030    2    1    2    0    0  0.00000000000E+00  0.00000000000E+00 -0.26870682228E+03  0.13233698580E+04  0.12958026180E+04 0.  0.
        1    1    3    3  502    0  0.21228258133E+02 -0.12855105738E+03 -0.78252078499E+03  0.79329363559E+03  0.50400001928E-02 0.  1.
       -1    1    3    3    0  502 -0.21228258133E+02  0.12855105738E+03  0.51381396271E+03  0.53007622245E+03  0.50400001928E-02 0. -1.
</event>
<event>
 5   0  0.9081324E-04  0.1154100E+04  0.7818609E-02  0.9154010E-01
        1   -1    0    0  501    0  0.00000000000E+00  0.00000000000E+00  0.12153564119E+04  0.12153564119E+04  0.50400001928E-02 0.  1.
       -1   -1    0    0    0  501  0.00000000000E+00  0.00000000000E+00 -0.27398256071E+03  0.27398256076E+03  0.50400001928E-02 0. -1.
    10030    2    1    2    0    0  0.00000000000E+00  0.00000000000E+00  0.94137385121E+03  0.14893389727E+04  0.11540995832E+04 0.  0.
        4    1    3    3  502    0 -0.14329185938E+02  0.35789699814E+03  0.10545322416E+04  0.11137034831E+04  0.12699999809E+01 0.  1.
       -4    1    3    3    0  502  0.14329185938E+02 -0.35789699814E+03 -0.11315839034E+03  0.37563548961E+03  0.12699999809E+01 0. -1.
</event>
<event>
 5   0  0.9110949E-04  0.1299746E+04  0.7818609E-02  0.9029767E-01
       -1   -1    0    0    0  501  0.00000000000E+00  0.00000000000E+00  0.37526995697E+03  0.37526995701E+03  0.50400001928E-02 0.  1.
        1   -1    0    0  501    0  0.00000000000E+00  0.00000000000E+00 -0.11254161560E+04  0.11254161560E+04  0.50400001928E-02 0. -1.
    10030    2    1    2    0    0  0.00000000000E+00  0.00000000000E+00 -0.75014619899E+03  0.15006861130E+04  0.12997459328E+04 0.  0.
        2    1    3    3  502    0 -0.50812044999E+03 -0.32161746891E+03 -0.90585093595E+02  0.60813637220E+03  0.25500000920E-02 0.  1.
       -2    1    3    3    0  502  0.50812044999E+03  0.32161746891E+03 -0.65956110540E+03  0.89254974078E+03  0.25500000920E-02 0. -1.
</event>
<event>
 5   0  0.1694675E-03  0.1299118E+04  0.7818609E-02  0.9030265E-01
        2   -1    0    0  501    0  0.00000000000E+00  0.00000000000E+00  0.53338022535E+03  0.53338022536E+03  0.25500000920E-02 0.  1.
       -2   -1    0    0    0  501  0.00000000000E+00  0.00000000000E+00 -0.79104366459E+03  0.79104366459E+03  0.25500000920E-02 0. -1.
    10030    2    1    2    0    0  0.00000000000E+00  0.00000000000E+00 -0.25766343924E+03  0.13244238900E+04  0.12991182365E+04 0.  0.
        4    1    3    3  502    0 -0.17510678186E+03 -0.51676899006E+03  0.23047191406E+03  0.59231029892E+03  0.12699999809E+01 0.  1.
       -4    1    3    3    0  502  0.17510678186E+03  0.51676899006E+03 -0.48813535329E+03  0.73211359103E+03  0.12699999809E+01 0. -1.
</event>
<event>
 5   0  0.1700511E-03  0.1306736E+04  0.7818609E-02  0.9024241E-01
        2   -1    0    0  501    0  0.00000000000E+00  0.00000000000E+00  0.31385069842E+03  0.31385069843E+03  0.25500000920E-02 0. -1.
       -2   -1    0    0    0  501  0.00000000000E+00  0.00000000000E+00 -0.13601680644E+04  0.13601680644E+04  0.25500000920E-02 0.  1.
    10030    2    1    2    0    0  0.00000000000E+00  0.00000000000E+00 -0.10463173660E+04  0.16740187628E+04  0.13067359289E+04 0.  0.
        2    1    3    3  502    0  0.52794502418E+03  0.30945815515E+03 -0.22991029023E+03  0.65371938927E+03  0.25500000920E-02 0. -1.
       -2    1    3    3    0  502 -0.52794502418E+03 -0.30945815515E+03 -0.81640707575E+03  0.10202993736E+04  0.25500000920E-02 0.  1.
</event>
<event>
 5   0  0.1667342E-03  0.1293036E+04  0.7818609E-02  0.9035106E-01
       -2   -1    0    0    0  501  0.00000000000E+00  0.00000000000E+00  0.38127741227E+03  0.38127741228E+03  0.25500000920E-02 0. -1.
        2   -1    0    0  501    0  0.00000000000E+00  0.00000000000E+00 -0.10962763749E+04  0.10962763749E+04  0.25500000920E-02 0.  1.
    10030    2    1    2    0    0  0.00000000000E+00  0.00000000000E+00 -0.71499896264E+03  0.14775537872E+04  0.12930358377E+04 0.  0.
        5    1    3    3  502    0  0.19787558691E+03 -0.45928160835E+03  0.11068603105E+03  0.51221853845E+03  0.46999998093E+01 0. -1.
       -5    1    3    3    0  502 -0.19787558691E+03  0.45928160835E+03 -0.82568499368E+03  0.96533524874E+03  0.46999998093E+01 0.  1.
</event>
<event>
 5   0  0.6284125E-04  0.1305044E+04  0.7818609E-02  0.9025575E-01
       -4   -1    0    0    0  501  0.00000000000E+00  0.00000000000E+00  0.40198989351E+03  0.40199189965E+03  0.12699999809E+01 0.  1.
        4   -1    0    0  501    0  0.00000000000E+00  0.00000000000E+00 -0.10591878186E+04  0.10591885800E+04  0.12699999809E+01 0. -1.
    10030    2    1    2    0    0  0.00000000000E+00  0.00000000000E+00 -0.65719792509E+03  0.14611804796E+04  0.13050437852E+04 0.  0.
        5    1    3    3  502    0  0.40133327208E+03  0.42856363580E+03 -0.64730854369E+03  0.87393685466E+03  0.46999998093E+01 0. -1.
       -5    1    3    3    0  502 -0.40133327208E+03 -0.42856363580E+03 -0.98893814014E+01  0.58724362497E+03  0.46999998093E+01 0.  1.
</event>
<event>
 5   0  0.1694675E-03  0.1297555E+04  0.7818609E-02  0.9031507E-01
       -2   -1    0    0    0  501  0.00000000000E+00  0.00000000000E+00  0.31160830033E+03  0.31160830034E+03  0.25500000920E-02 0.  1.
        2   -1    0    0  501    0  0.00000000000E+00  0.00000000000E+00 -0.13507729721E+04  0.13507729722E+04  0.25500000920E-02 0. -1.
    10030    2    1    2    0    0  0.00000000000E+00  0.00000000000E+00 -0.10391646718E+04  0.16623812725E+04  0.12975547310E+04 0.  0.
        4    1    3    3  502    0  0.34526065091E+03  0.32765907163E+03 -0.10843784753E+04  0.11842481475E+04  0.12699999809E+01 0. -1.
       -4    1    3    3    0  502 -0.34526065091E+03 -0.32765907163E+03  0.45213803470E+02  0.47813312499E+03  0.12699999809E+01 0.  1.
</event>
<event>
 5   0  0.1623890E-03  0.1302219E+04  0.7818609E-02  0.9027807E-01
        2   -1    0    0  501    0  0.00000000000E+00  0.00000000000E+00  0.56609585893E+03  0.56609585894E+03  0.25500000920E-02 0. -1.
       -2   -1    0    0    0  501  0.00000000000E+00  0.00000000000E+00 -0.74889000868E+03  0.74889000868E+03  0.25500000920E-02 0.  1.
    10030    2    1    2    0    0  0.00000000000E+00  0.00000000000E+00 -0.18279414974E+03  0.13149858676E+04  0.13022189259E+04 0.  0.
        3    1    3    3  502    0  0.27907401217E+03  0.49404245281E+02 -0.68333555977E+03  0.73977738622E+03  0.10100000352E+00 0.  1.
       -3    1    3    3    0  502 -0.27907401217E+03 -0.49404245281E+02  0.50054141002E+03  0.57520848140E+03  0.10100000352E+00 0. -1.
</event>
<event>
 5   0  0.9215829E-04  0.1316523E+04  0.7818609E-02  0.9016564E-01
        1   -1    0    0  501    0  0.00000000000E+00  0.00000000000E+00  0.60885381883E+03  0.60885381885E+03  0.50400001928E-02 0. -1.
       -1   -1    0    0    0  501  0.00000000000E+00  0.00000000000E+00 -0.71167818326E+03  0.71167818327E+03  0.50400001928E-02 0.  1.
    10030    2    1    2    0    0  0.00000000000E+00  0.00000000000E+00 -0.10282436442E+03  0.13205320021E+04  0.13165226617E+04 0.  0.
        3    1    3    3  502    0 -0.45126921842E+03 -0.47891444472E+03 -0.33894269873E+02  0.65890195370E+03  0.10100000352E+00 0.  1.
       -3    1    3    3    0  502  0.45126921842E+03  0.47891444472E+03 -0.68930094550E+02  0.66163004843E+03  0.10100000352E+00 0. -1.
</event>
<event>
 5   0  0.1623890E-03  0.1165801E+04  0.7818609E-02  0.9143329E-01
        2   -1    0    0  501    0  0.00000000000E+00  0.00000000000E+00  0.19456722404E+04  0.19456722404E+04  0.25500000920E-02 0. -1.
       -2   -1    0    0    0  501  0.00000000000E+00  0.00000000000E+00 -0.17463021956E+03  0.17463021958E+03  0.25500000920E-02 0.  1.
    10030    2    1    2    0    0  0.00000000000E+00  0.00000000000E+00  0.17710420208E+04  0.21203024600E+04  0.11658013048E+04 0.  0.
        3    1    3    3  502    0 -0.46902443554E+03  0.26565418760E+03  0.12890095968E+04  0.13971763738E+04  0.10100000352E+00 0. -1.
       -3    1    3    3    0  502  0.46902443554E+03 -0.26565418760E+03  0.48203242397E+03  0.72312608616E+03  0.10100000352E+00 0.  1.
</event>
<event>
 5   0  0.9110949E-04  0.1317012E+04  0.7818609E-02  0.9016182E-01
       -1   -1    0    0    0  501  0.00000000000E+00  0.00000000000E+00  0.65895182465E+03  0.65895182467E+03  0.50400001928E-02 0. -1.
        1   -1    0    0  501    0  0.00000000000E+00  0.00000000000E+00 -0.65806074425E+03  0.65806074426E+03  0.50400001928E-02 0.  1.
    10030    2    1    2    0    0  0.00000000000E+00  0.00000000000E+00  0.89108040275E+00  0.13170125689E+04  0.13170122675E+04 0.  0.
        2    1    3    3  502    0  0.12066285195E+03 -0.50233097210E+03  0.40877687028E+03  0.65878255825E+03  0.25500000920E-02 0. -1.
       -2    1    3    3    0  502 -0.12066285195E+03  0.50233097210E+03 -0.40788578987E+03  0.65823001068E+03  0.25500000920E-02 0.  1.
</event>
<event>
 5   0  0.9098192E-04  0.1300466E+04  0.7818609E-02  0.9029196E-01
       -1   -1    0    0    0  501  0.00000000000E+00  0.00000000000E+00  0.13769249318E+04  0.13769249318E+04  0.50400001928E-02 0.  1.
        1   -1    0    0  501    0  0.00000000000E+00  0.00000000000E+00 -0.30706295071E+03  0.30706295075E+03  0.50400001928E-02 0. -1.
    10030    2    1    2    0    0  0.00000000000E+00  0.00000000000E+00  0.10698619811E+04  0.16839878825E+04  0.13004655051E+04 0.  0.
        1    1    3    3  502    0  0.57223193994E+03 -0.13583253531E+03  0.89402742535E+03  0.10701331263E+04  0.50400001928E-02 0.  1.
       -1    1    3    3    0  502 -0.57223193994E+03  0.13583253531E+03  0.17583455573E+03  0.61385475623E+03  0.50400001928E-02 0. -1.
</event>
<event>
 5   0  0.1694675E-03  0.1231175E+04  0.7818609E-02  0.9085998E-01
       -2   -1    0    0    0  501  0.00000000000E+00  0.00000000000E+00  0.29233042881E+03  0.29233042882E+03  0.25500000920E-02 0.  1.
        2   -1    0    0  501    0  0.00000000000E+00  0.00000000000E+00 -0.12963002011E+04  0.12963002011E+04  0.25500000920E-02 0. -1.
    10030    2    1    2    0    0  0.00000000000E+00  0.00000000000E+00 -0.10039697723E+04  0.15886306299E+04  0.12311750382E+04 0.  0.
        4    1    3    3  502    0 -0.16628616282E+02 -0.59078201554E+02 -0.12923408941E+04  0.12937980307E+04  0.12699999809E+01 0. -1.
       -4    1    3    3    0  502  0.16628616282E+02  0.59078201554E+02  0.28837112180E+03  0.29483259923E+03  0.12699999809E+01 0.  1.
</event>
<event>
 5   0  0.1694675E-03  0.1303338E+04  0.7818609E-02  0.9026922E-01
        2   -1    0    0  501    0  0.00000000000E+00  0.00000000000E+00  0.33087273475E+03  0.33087273476E+03  0.25500000920E-02 0.  1.
       -2   -1    0    0    0  501  0.00000000000E+00  0.00000000000E+00 -0.12834926370E+04  0.12834926370E+04  0.25500000920E-02 0. -1.
    10030    2    1    2    0    0  0.00000000000E+00  0.00000000000E+00 -0.95261990225E+03  0.16143653718E+04  0.13033383580E+04 0.  0.
        4    1    3    3  502    0 -0.31802482211E+03  0.54221512496E+03 -0.26344392345E+03  0.68157269819E+03  0.12699999809E+01 0. -1.
       -4    1    3    3    0  502  0.31802482211E+03 -0.54221512496E+03 -0.68917597879E+03  0.93279267357E+03  0.12699999809E+01 0.  1.
</event>
<event>
 5   0  0.1694675E-03  0.1254182E+04  0.7818609E-02  0.9066710E-01
        2   -1    0    0  501    0  0.00000000000E+00  0.00000000000E+00  0.17030787681E+04  0.17030787681E+04  0.25500000920E-02 0. -1.
       -2   -1    0    0    0  501  0.00000000000E+00  0.00000000000E+00 -0.23090131518E+03  0.23090131519E+03  0.25500000920E-02 0.  1.
    10030    2    1    2    0    0  0.00000000000E+00  0.00000000000E+00  0.14721774529E+04  0.19339800833E+04  0.12541820082E+04 0.  0.
        4    1    3    3  502    0  0.37838093675E+03 -0.25717285942E+03  0.74756800097E+02  0.46357330054E+03  0.12699999809E+01 0.  1.
       -4    1    3    3    0  502 -0.37838093675E+03  0.25717285942E+03  0.13974206528E+04  0.14704067828E+04  0.12699999809E+01 0. -1.
</event>
<event>
 5   0  0.6284125E-04  0.1359903E+04  0.7818609E-02  0.8983365E-01
        3   -1    0    0  501    0  0.00000000000E+00  0.00000000000E+00  0.53749051959E+03  0.53749052908E+03  0.10100000352E+00 0.  1.
       -3   -1    0    0    0  501  0.00000000000E+00  0.00000000000E+00 -0.86017134745E+03  0.86017135338E+03  0.10100000352E+00 0. -1.
    10030    2    1    2    0    0  0.00000000000E+00  0.00000000000E+00 -0.32268082785E+03  0.13976618825E+04  0.13599028719E+04 0.  0.
        1    1    3    3  502    0 -0.41885356693E+03 -0.51554104284E+03 -0.31067830176E+03  0.73330886030E+03  0.50400001928E-02 0.  1.
       -1    1    3    3    0  502  0.41885356693E+03  0.51554104284E+03 -0.12002526092E+02  0.66435302215E+03  0.50400001928E-02 0. -1.
</event>
<event>
 5   0  0.9098192E-04  0.1299104E+04  0.7818609E-02  0.9030276E-01
       -1   -1    0    0    0  501  0.00000000000E+00  0.00000000000E+00  0.44871803223E+03  0.44871803226E+03  0.50400001928E-02 0.  1.
        1   -1    0    0  501    0  0.00000000000E+00  0.00000000000E+00 -0.94027357236E+03  0.94027357237E+03  0.50400001928E-02 0. -1.
    10030    2    1    2    0    0  0.00000000000E+00  0.00000000000E+00 -0.49155554012E+03  0.13889916046E+04  0.12991038560E+04 0.  0.
        1    1    3    3  502    0  0.41656423189E+03  0.28153648654E+03  0.19393085843E+03  0.53888563761E+03  0.50400001928E-02 0.  1.
       -1    1    3    3    0  502 -0.41656423189E+03 -0.28153648654E+03 -0.68548639855E+03  0.85010596702E+03  0.50400001928E-02 0. -1.
</event>
<event>
 5   0  0.6284125E-04  0.1313308E+04  0.7818609E-02  0.9019078E-01
        3   -1    0    0  501    0  0.00000000000E+00  0.00000000000E+00  0.88384943165E+03  0.88384943742E+03  0.10100000352E+00 0. -1.
       -3   -1    0    0    0  501  0.00000000000E+00  0.00000000000E+00 -0.48785991980E+03  0.48785993025E+03  0.10100000352E+00 0.  1.
    10030    2    1    2    0    0  0.00000000000E+00  0.00000000000E+00  0.39598951185E+03  0.13717093677E+04  0.13133083781E+04 0.  0.
        3    1    3    3  502    0 -0.45536803945E+03  0.28179999475E+02  0.69126770944E+03  0.82825432087E+03  0.10100000352E+00 0. -1.
       -3    1    3    3    0  502  0.45536803945E+03 -0.28179999475E+02 -0.29527819759E+03  0.54345504680E+03  0.10100000352E+00 0.  1.
</event>
<event>
 5   0  0.1623890E-03  0.1305273E+04  0.7818609E-02  0.9025394E-01
        2   -1    0    0  501    0  0.00000000000E+00  0.00000000000E+00  0.17085180234E+04  0.17085180234E+04  0.25500000920E-02 0. -1.
       -2   -1    0    0    0  501  0.00000000000E+00  0.00000000000E+00 -0.24930036269E+03  0.24930036270E+03  0.25500000920E-02 0.  1.
    10030    2    1    2    0    0  0.00000000000E+00  0.00000000000E+00  0.14592176607E+04  0.19578183861E+04  0.13052726350E+04 0.  0.
        3    1    3    3  502    0  0.35100042694E+03  0.38476481826E+03  0.13967849664E+03  0.53921735665E+03  0.10100000352E+00 0.  1.
       -3    1    3    3    0  502 -0.35100042694E+03 -0.38476481826E+03  0.13195391641E+04  0.14186010295E+04  0.10100000352E+00 0. -1.
</event>
<event>
 5   0  0.1623890E-03  0.1290924E+04  0.7818609E-02  0.9036794E-01
       -2   -1    0    0    0  501  0.00000000000E+00  0.00000000000E+00  0.33181777550E+03  0.33181777551E+03  0.25500000920E-02 0.  1.
        2   -1    0    0  501    0  0.00000000000E+00  0.00000000000E+00 -0.12555719425E+04  0.12555719425E+04  0.25500000920E-02 0. -1.
    10030    2    1    2    0    0  0.00000000000E+00  0.00000000000E+00 -0.92375416702E+03  0.15873897180E+04  0.12909238381E+04 0.  0.
        3    1    3    3  502    0  0.20743088187E+03  0.93563667553E+02  0.28085772533E+03  0.36147310096E+03  0.10100000352E+00 0.  1.
       -3    1    3    3    0  502 -0.20743088187E+03 -0.93563667553E+02 -0.12046118924E+04  0.12259166171E+04  0.10100000352E+00 0. -1.
</event>
<event>
 5   0  0.9110949E-04  0.1381003E+04  0.7818609E-02  0.8967685E-01
       -1   -1    0    0    0  501  0.00000000000E+00  0.00000000000E+00  0.27196732177E+03  0.27196732182E+03  0.50400001928E-02 0.  1.
        1   -1    0    0  501    0  0.00000000000E+00  0.00000000000E+00 -0.17531243126E+04  0.17531243126E+04  0.50400001928E-02 0. -1.
    10030    2    1    2    0    0  0.00000000000E+00  0.00000000000E+00 -0.14811569908E+04  0.20250916344E+04  0.13810032934E+04 0.  0.
        2    1    3    3  502    0  0.26352575554E+03 -0.62936019170E+03 -0.58502724792E+03  0.89877525308E+03  0.25500000920E-02 0.  1.
       -2    1    3    3    0  502 -0.26352575554E+03  0.62936019170E+03 -0.89612974287E+03  0.11263163813E+04  0.25500000920E-02 0. -1.
</event>
<event>
 5   0  0.9098192E-04  0.1297541E+04  0.7818609E-02  0.9031517E-01
       -1   -1    0    0    0  501  0.00000000000E+00  0.00000000000E+00  0.36452919118E+03  0.36452919121E+03  0.50400001928E-02 0.  1.
        1   -1    0    0  501    0  0.00000000000E+00  0.00000000000E+00 -0.11546493916E+04  0.11546493916E+04  0.50400001928E-02 0. -1.
    10030    2    1    2    0    0  0.00000000000E+00  0.00000000000E+00 -0.79012020045E+03  0.15191785828E+04  0.12975413810E+04 0.  0.
        1    1    3    3  502    0 -0.54588641555E+03  0.32633103014E+03 -0.54508641086E+03  0.83761752324E+03  0.50400001928E-02 0. -1.
       -1    1    3    3    0  502  0.54588641555E+03 -0.32633103014E+03 -0.24503378959E+03  0.68156105961E+03  0.50400001928E-02 0.  1.
</event>
<event>
 5   0  0.9110949E-04  0.1272866E+04  0.7818609E-02  0.9051364E-01
       -1   -1    0    0    0  501  0.00000000000E+00  0.00000000000E+00  0.67285555511E+03  0.67285555513E+03  0.50400001928E-02 0. -1.
        1   -1    0    0  501    0  0.00000000000E+00  0.00000000000E+00 -0.60198191995E+03  0.60198191997E+03  0.50400001928E-02 0.  1.
    10030    2    1    2    0    0  0.00000000000E+00  0.00000000000E+00  0.70873635158E+02  0.12748374751E+04  0.12728658672E+04 0.  0.
        2    1    3    3  502    0 -0.35544289267E+03  0.41836850655E+03  0.35792161674E+03  0.65534703857E+03  0.25500000920E-02 0. -1.
       -2    1    3    3    0  502  0.35544289267E+03 -0.41836850655E+03 -0.28704798158E+03  0.61949043654E+03  0.25500000920E-02 0.  1.
</event>
<event>
 5   0  0.1623890E-03  0.1294855E+04  0.7818609E-02  0.9033655E-01
        2   -1    0    0  501    0  0.00000000000E+00  0.00000000000E+00  0.36255415792E+03  0.36255415793E+03  0.25500000920E-02 0.  1.
       -2   -1    0    0    0  501  0.00000000000E+00  0.00000000000E+00 -0.11561379077E+04  0.11561379077E+04  0.25500000920E-02 0. -1.
    10030    2    1    2    0    0  0.00000000000E+00  0.00000000000E+00 -0.79358374981E+03  0.15186920657E+04  0.12948553674E+04 0.  0.
        3    1    3    3  502    0 -0.12503663068E+03 -0.62114421137E+03 -0.24071557519E+03  0.67778926568E+03  0.10100000352E+00 0.  1.
       -3    1    3    3    0  502  0.12503663068E+03  0.62114421137E+03 -0.55286817462E+03  0.84090280000E+03  0.10100000352E+00 0. -1.
</event>
<event>
 5   0  0.9110949E-04  0.1351529E+04  0.7818609E-02  0.8989672E-01
        1   -1    0    0  501    0  0.00000000000E+00  0.00000000000E+00  0.11137139142E+04  0.11137139143E+04  0.50400001928E-02 0.  1.
       -1   -1    0    0    0  501  0.00000000000E+00  0.00000000000E+00 -0.41003114476E+03  0.41003114479E+03  0.50400001928E-02 0. -1.
    10030    2    1    2    0    0  0.00000000000E+00  0.00000000000E+00  0.70368276949E+03  0.15237450590E+04  0.13515286031E+04 0.  0.
        2    1    3    3  502    0 -0.47875034993E+03 -0.12855549850E+03  0.86963321365E+03  0.10009946753E+04  0.25500000920E-02 0.  1.
       -2    1    3    3    0  502  0.47875034993E+03  0.12855549850E+03 -0.16595044416E+03  0.52275038371E+03  0.25500000920E-02 0. -1.
</event>
<event>
 5   0  0.1694675E-03  0.1310365E+04  0.7818609E-02  0.9021386E-01
        2   -1    0    0  501    0  0.00000000000E+00  0.00000000000E+00  0.52298448171E+03  0.52298448172E+03  0.25500000920E-02 0.  1.
       -2   -1    0    0    0  501  0.00000000000E+00  0.00000000000E+00 -0.82079665881E+03  0.82079665882E+03  0.25500000920E-02 0. -1.
    10030    2    1    2    0    0  0.00000000000E+00  0.00000000000E+00 -0.29781217710E+03  0.13437811405E+04  0.13103647053E+04 0.  0.
        4    1    3    3  502    0 -0.29161572309E+02 -0.28133943256E+03 -0.75495935665E+03  0.80620562929E+03  0.12699999809E+01 0. -1.
       -4    1    3    3    0  502  0.29161572309E+02  0.28133943256E+03  0.45714717955E+03  0.53757551124E+03  0.12699999809E+01 0.  1.
</event>
<event>
 5   0  0.9215829E-04  0.1296015E+04  0.7818609E-02  0.9032731E-01
        1   -1    0    0  501    0  0.00000000000E+00  0.00000000000E+00  0.11615103484E+04  0.11615103484E+04  0.50400001928E-02 0. -1.
       -1   -1    0    0    0  501  0.00000000000E+00  0.00000000000E+00 -0.36152404443E+03  0.36152404446E+03  0.50400001928E-02 0.  1.
    10030    2    1    2    0    0  0.00000000000E+00  0.00000000000E+00  0.79998630393E+03  0.15230343928E+04  0.12960153067E+04 0.  0.
        3    1    3    3  502    0 -0.44973370062E+03  0.46652399536E+03  0.40349288048E+03  0.76335545752E+03  0.10100000352E+00 0.  1.
       -3    1    3    3    0  502  0.44973370062E+03 -0.46652399536E+03  0.39649342345E+03  0.75967893532E+03  0.10100000352E+00 0. -1.
</event>
<event>
 5   0  0.9098192E-04  0.1296689E+04  0.7818609E-02  0.9032195E-01
       -1   -1    0    0    0  501  0.00000000000E+00  0.00000000000E+00  0.47334613336E+03  0.47334613339E+03  0.50400001928E-02 0. -1.
        1   -1    0    0  501    0  0.00000000000E+00  0.00000000000E+00 -0.88804081351E+03  0.88804081352E+03  0.50400001928E-02 0.  1.
    10030    2    1    2    0    0  0.00000000000E+00  0.00000000000E+00 -0.41469468015E+03  0.13613869469E+04  0.12966891460E+04 0.  0.
        1    1    3    3  502    0  0.99660366402E+02  0.78910377503E+02  0.46013437752E+03  0.47737059159E+03  0.50400001928E-02 0. -1.
       -1    1    3    3    0  502 -0.99660366402E+02 -0.78910377503E+02 -0.87482905767E+03  0.88401635532E+03  0.50400001928E-02 0.  1.
</event>
<event>
 5   0  0.1694675E-03  0.1312382E+04  0.7818609E-02  0.9019803E-01
        2   -1    0    0  501    0  0.00000000000E+00  0.00000000000E+00  0.25273875702E+04  0.25273875702E+04  0.25500000920E-02 0.  1.
       -2   -1    0    0    0  501  0.00000000000E+00  0.00000000000E+00 -0.17036823805E+03  0.17036823807E+03  0.25500000920E-02 0. -1.
    10030    2    1    2    0    0  0.00000000000E+00  0.00000000000E+00  0.23570193322E+04  0.26977558083E+04  0.13123819067E+04 0.  0.
        4    1    3    3  502    0 -0.16546898693E+03 -0.21409895761E+03  0.24073611130E+04  0.24225208958E+04  0.12699999809E+01 0.  1.
       -4    1    3    3    0  502  0.16546898693E+03  0.21409895761E+03 -0.50341780793E+02  0.27523491253E+03  0.12699999809E+01 0. -1.
</event>
<event>
 5   0  0.1667342E-03  0.1307574E+04  0.7818609E-02  0.9023580E-01
        2   -1    0    0  501    0  0.00000000000E+00  0.00000000000E+00  0.16267910085E+04  0.16267910085E+04  0.25500000920E-02 0. -1.
       -2   -1    0    0    0  501  0.00000000000E+00  0.00000000000E+00 -0.26274891763E+03  0.26274891764E+03  0.25500000920E-02 0.  1.
    10030    2    1    2    0    0  0.00000000000E+00  0.00000000000E+00  0.13640420908E+04  0.18895399261E+04  0.13075742070E+04 0.  0.
        5    1    3    3  502    0  0.10310241760E+02  0.64964054278E+03  0.57705313343E+03  0.86899455965E+03  0.46999998093E+01 0.  1.
       -5    1    3    3    0  502 -0.10310241760E+02 -0.64964054278E+03  0.78698895741E+03  0.10205453665E+04  0.46999998093E+01 0. -1.
</event>
<event>
 5   0  0.9110949E-04  0.1290622E+04  0.7818609E-02  0.9037035E-01
       -1   -1    0    0    0  501  0.00000000000E+00  0.00000000000E+00  0.30333438981E+03  0.30333438985E+03  0.50400001928E-02 0. -1.
        1   -1    0    0  501    0  0.00000000000E+00  0.00000000000E+00 -0.13728290537E+04  0.13728290537E+04  0.50400001928E-02 0.  1.
    10030    2    1    2    0    0  0.00000000000E+00  0.00000000000E+00 -0.10694946639E+04  0.16761634435E+04  0.12906219638E+04 0.  0.
        2    1    3    3  502    0  0.52572856811E+03 -0.37097676924E+03 -0.59853012114E+03  0.87877903740E+03  0.25500000920E-02 0.  1.
       -2    1    3    3    0  502 -0.52572856811E+03  0.37097676924E+03 -0.47096454272E+03  0.79738440614E+03  0.25500000920E-02 0. -1.
</event>
<event>
 5   0  0.9110949E-04  0.1310878E+04  0.7818609E-02  0.9020983E-01
        1   -1    0    0  501    0  0.00000000000E+00  0.00000000000E+00  0.85016719906E+03  0.85016719908E+03  0.50400001928E-02 0. -1.
       -1   -1    0    0    0  501  0.00000000000E+00  0.00000000000E+00 -0.50531286056E+03  0.50531286059E+03  0.50400001928E-02 0.  1.
    10030    2    1    2    0    0  0.00000000000E+00  0.00000000000E+00  0.34485433850E+03  0.13554800597E+04  0.13108782084E+04 0.  0.
        2    1    3    3  502    0  0.24752531732E+03  0.60653368026E+03  0.15052802316E+03  0.67216856054E+03  0.25500000920E-02 0.  1.
       -2    1    3    3    0  502 -0.24752531732E+03 -0.60653368026E+03  0.19432631534E+03  0.68331149913E+03  0.25500000920E-02 0. -1.
</event>
<event>
 5   0  0.9098192E-04  0.1308559E+04  0.7818609E-02  0.9022806E-01
       -1   -1    0    0    0  501  0.00000000000E+00  0.00000000000E+00  0.40011874689E+03  0.40011874692E+03  0.50400001928E-02 0. -1.
        1   -1    0    0  501    0  0.00000000000E+00  0.00000000000E+00 -0.10698857975E+04  0.10698857975E+04  0.50400001928E-02 0.  1.
    10030    2    1    2    0    0  0.00000000000E+00  0.00000000000E+00 -0.66976705058E+03  0.14700045444E+04  0.13085585423E+04 0.  0.
        1    1    3    3  502    0 -0.50840230823E+03  0.22512922778E+03  0.52519160331E+02  0.55849291709E+03  0.50400001928E-02 0.  1.
       -1    1    3    3    0  502  0.50840230823E+03 -0.22512922778E+03 -0.72228621092E+03  0.91151162731E+03  0.50400001928E-02 0. -1.
</event>
<event>
 5   0  0.9027076E-04  0.1303198E+04  0.7818609E-02  0.9027033E-01
       -1   -1    0    0    0  501  0.00000000000E+00  0.00000000000E+00  0.42033884295E+03  0.42033884298E+03  0.50400001928E-02 0.  1.
        1   -1    0    0  501    0  0.00000000000E+00  0.00000000000E+00 -0.10100923911E+04  0.10100923911E+04  0.50400001928E-02 0. -1.
    10030    2    1    2    0    0  0.00000000000E+00  0.00000000000E+00 -0.58975354817E+03  0.14304312341E+04  0.13031977087E+04 0.  0.
        5    1    3    3  502    0  0.28414205089E+03 -0.10922322845E+02  0.34862288677E+03  0.44990666743E+03  0.46999998093E+01 0.  1.
       -5    1    3    3    0  502 -0.28414205089E+03  0.10922322845E+02 -0.93837643493E+03  0.98052456668E+03  0.46999998093E+01 0. -1.
</event>
<event>
 5   0  0.9215829E-04  0.1292684E+04  0.7818609E-02  0.9035387E-01
        1   -1    0    0  501    0  0.00000000000E+00  0.00000000000E+00  0.12960483349E+04  0.12960483349E+04  0.50400001928E-02 0.  1.
       -1   -1    0    0    0  501  0.00000000000E+00  0.00000000000E+00 -0.32233233555E+03  0.32233233559E+03  0.50400001928E-02 0. -1.
    10030    2    1    2    0    0  0.00000000000E+00  0.00000000000E+00  0.97371599931E+03  0.16183806705E+04  0.12926844732E+04 0.  0.
        3    1    3    3  502    0 -0.63360315003E+02 -0.20557431540E+03  0.12499160735E+04  0.12682923675E+04  0.10100000352E+00 0.  1.
       -3    1    3    3    0  502  0.63360315003E+02  0.20557431540E+03 -0.27620007416E+03  0.35008830291E+03  0.10100000352E+00 0. -1.
</event>
<event>
 5   0  0.1714861E-03  0.1308646E+04  0.7818609E-02  0.9022737E-01
       -2   -1    0    0    0  501  0.00000000000E+00  0.00000000000E+00  0.24633931799E+03  0.24633931800E+03  0.25500000920E-02 0.  1.
        2   -1    0    0  501    0  0.00000000000E+00  0.00000000000E+00 -0.17380043250E+04  0.17380043250E+04  0.25500000920E-02 0. -1.
    10030    2    1    2    0    0  0.00000000000E+00  0.00000000000E+00 -0.14916650070E+04  0.19843436430E+04  0.13086463236E+04 0.  0.
        1    1    3    3  502    0  0.23930372517E+03  0.53440202916E+03 -0.11886614583E+04  0.13250539099E+04  0.50400001928E-02 0. -1.
       -1    1    3    3    0  502 -0.23930372517E+03 -0.53440202916E+03 -0.30300354877E+03  0.65928973315E+03  0.50400001928E-02 0.  1.
</event>
<event>
 5   0  0.9027076E-04  0.1303183E+04  0.7818609E-02  0.9027045E-01
        1   -1    0    0  501    0  0.00000000000E+00  0.00000000000E+00  0.14718849029E+04  0.14718849029E+04  0.50400001928E-02 0. -1.
       -1   -1    0    0    0  501  0.00000000000E+00  0.00000000000E+00 -0.28845440682E+03  0.28845440686E+03  0.50400001928E-02 0.  1.
    10030    2    1    2    0    0  0.00000000000E+00  0.00000000000E+00  0.11834304961E+04  0.17603393098E+04  0.13031833127E+04 0.  0.
        5    1    3    3  502    0  0.19212880583E+03  0.61810983602E+03  0.69258613925E+03  0.94798254082E+03  0.46999998093E+01 0. -1.
       -5    1    3    3    0  502 -0.19212880583E+03 -0.61810983602E+03  0.49084435681E+03  0.81235676893E+03  0.46999998093E+01 0.  1.
</event>
<event>
 5   0  0.9098192E-04  0.1296756E+04  0.7818609E-02  0.9032142E-01
        1   -1    0    0  501    0  0.00000000000E+00  0.00000000000E+00  0.60142406867E+03  0.60142406870E+03  0.50400001928E-02 0. -1.
       -1   -1    0    0    0  501  0.00000000000E+00  0.00000000000E+00 -0.69899756954E+03  0.69899756956E+03  0.50400001928E-02 0.  1.
    10030    2    1    2    0    0  0.00000000000E+00  0.00000000000E+00 -0.97573500868E+02  0.13004216383E+04  0.12967558942E+04 0.  0.
        1    1    3    3  502    0  0.42605596189E+02 -0.28604319373E+03  0.53316225218E+03  0.60654590319E+03  0.50400001928E-02 0. -1.
       -1    1    3    3    0  502 -0.42605596189E+02  0.28604319373E+03 -0.63073575305E+03  0.69387573506E+03  0.50400001928E-02 0.  1.
</event>
<event>
 5   0  0.9098192E-04  0.1292840E+04  0.7818609E-02  0.9035263E-01
       -1   -1    0    0    0  501  0.00000000000E+00  0.00000000000E+00  0.64394592428E+03  0.64394592430E+03  0.50400001928E-02 0.  1.
        1   -1    0    0  501    0  0.00000000000E+00  0.00000000000E+00 -0.64890329301E+03  0.64890329303E+03  0.50400001928E-02 0. -1.
    10030    2    1    2    0    0  0.00000000000E+00  0.00000000000E+00 -0.49573687316E+01  0.12928492173E+04  0.12928397129E+04 0.  0.
        1    1    3    3  502    0 -0.50751191399E+03  0.49580144415E+02 -0.39976248451E+03  0.64794797447E+03  0.50400001928E-02 0. -1.
       -1    1    3    3    0  502  0.50751191399E+03 -0.49580144415E+02  0.39480511578E+03  0.64490124286E+03  0.50400001928E-02 0.  1.
</event>
<event>
 5   0  0.9081324E-04  0.1294337E+04  0.7818609E-02  0.9034068E-01
       -1   -1    0    0    0  501  0.00000000000E+00  0.00000000000E+00  0.58840617125E+03  0.58840617127E+03  0.50400001928E-02 0.  1.
        1   -1    0    0  501    0  0.00000000000E+00  0.00000000000E+00 -0.71179880679E+03  0.71179880681E+03  0.50400001928E-02 0. -1.
    10030    2    1    2    0    0  0.00000000000E+00  0.00000000000E+00 -0.12339263554E+03  0.13002049781E+04  0.12943366033E+04 0.  0.
        4    1    3    3  502    0 -0.18928822283E+03  0.45954819470E+03  0.35468343024E+03  0.61058703159E+03  0.12699999809E+01 0.  1.
       -4    1    3    3    0  502  0.18928822283E+03 -0.45954819470E+03 -0.47807606578E+03  0.68961794650E+03  0.12699999809E+01 0. -1.
</event>
<event>
 5   0  0.9215829E-04  0.1303622E+04  0.7818609E-02  0.9026698E-01
       -1   -1    0    0    0  501  0.00000000000E+00  0.00000000000E+00  0.44851301682E+03  0.44851301685E+03  0.50400001928E-02 0.  1.
        1   -1    0    0  501    0  0.00000000000E+00  0.00000000000E+00 -0.94725787607E+03  0.94725787609E+03  0.50400001928E-02 0. -1.
    10030    2    1    2    0    0  0.00000000000E+00  0.00000000000E+00 -0.49874485926E+03  0.13957708929E+04  0.13036218589E+04 0.  0.
        3    1    3    3  502    0  0.26460158872E+03 -0.46022014483E+03 -0.65431423327E+03  0.84258157381E+03  0.10100000352E+00 0. -1.
       -3    1    3    3    0  502 -0.26460158872E+03  0.46022014483E+03  0.15556937402E+03  0.55318931912E+03  0.10100000352E+00 0.  1.
</event>
<event>
 5   0  0.1714861E-03  0.1294550E+04  0.7818609E-02  0.9033898E-01
        2   -1    0    0  501    0  0.00000000000E+00  0.00000000000E+00  0.13163327442E+04  0.13163327442E+04  0.25500000920E-02 0.  1.
       -2   -1    0    0    0  501  0.00000000000E+00  0.00000000000E+00 -0.31828180954E+03  0.31828180955E+03  0.25500000920E-02 0. -1.
    10030    2    1    2    0    0  0.00000000000E+00  0.00000000000E+00  0.99805093468E+03  0.16346145538E+04  0.12945497562E+04 0.  0.
        1    1    3    3  502    0 -0.13344910592E+03  0.98507046404E+02  0.12890419104E+04  0.12996697076E+04  0.50400001928E-02 0.  1.
       -1    1    3    3    0  502  0.13344910592E+03 -0.98507046404E+02 -0.29099097568E+03  0.33494484622E+03  0.50400001928E-02 0. -1.
</event>
<event>
 5   0  0.1623890E-03  0.1303537E+04  0.7818609E-02  0.9026765E-01
       -2   -1    0    0    0  501  0.00000000000E+00  0.00000000000E+00  0.81982788324E+03  0.81982788324E+03  0.25500000920E-02 0. -1.
        2   -1    0    0  501    0  0.00000000000E+00  0.00000000000E+00 -0.51816029726E+03  0.51816029727E+03  0.25500000920E-02 0.  1.
    10030    2    1    2    0    0  0.00000000000E+00  0.00000000000E+00  0.30166758597E+03  0.13379881805E+04  0.13035371260E+04 0.  0.
        3    1    3    3  502    0  0.44861329512E+03 -0.47280900175E+03  0.15093004202E+03  0.66901579091E+03  0.10100000352E+00 0. -1.
       -3    1    3    3    0  502 -0.44861329512E+03  0.47280900175E+03  0.15073754395E+03  0.66897238960E+03  0.10100000352E+00 0.  1.
</event>
<event>
 5   0  0.9215829E-04  0.1306172E+04  0.7818609E-02  0.9024685E-01
        1   -1    0    0  501    0  0.00000000000E+00  0.00000000000E+00  0.17453362267E+04  0.17453362267E+04  0.50400001928E-02 0.  1.
       -1   -1    0    0    0  501  0.00000000000E+00  0.00000000000E+00 -0.24437787217E+03  0.24437787222E+03  0.50400001928E-02 0. -1.
    10030    2    1    2    0    0  0.00000000000E+00  0.00000000000E+00  0.15009583546E+04  0.19897140990E+04  0.13061723521E+04 0.  0.
        3    1    3    3  502    0 -0.51525083215E+03  0.12300343587E+03  0.13323547910E+04  0.14338000435E+04  0.10100000352E+00 0.  1.
       -3    1    3    3    0  502  0.51525083215E+03 -0.12300343587E+03  0.16860356355E+03  0.55591405551E+03  0.10100000352E+00 0. -1.
</event>
<event>
 5   0  0.6284125E-04  0.1310236E+04  0.7818609E-02  0.9021487E-01
       -4   -1    0    0    0  501  0.00000000000E+00  0.00000000000E+00  0.12154546151E+04  0.12154552786E+04  0.12699999809E+01 0.  1.
        4   -1    0    0  501    0  0.00000000000E+00  0.00000000000E+00 -0.35310026555E+03  0.35310254945E+03  0.12699999809E+01 0. -1.
    10030    2    1    2    0    0  0.00000000000E+00  0.00000000000E+00  0.86235434958E+03  0.15685578281E+04  0.13102360993E+04 0.  0.
        4    1    3    3  502    0 -0.13800146559E+02  0.62768867612E+03  0.65512716250E+03  0.90740108559E+03  0.12699999809E+01 0. -1.
       -4    1    3    3    0  502  0.13800146559E+02 -0.62768867612E+03  0.20722718708E+03  0.66115674249E+03  0.12699999809E+01 0.  1.
</event>
<event>
 5   0  0.9081324E-04  0.1290700E+04  0.7818609E-02  0.9036973E-01
        1   -1    0    0  501    0  0.00000000000E+00  0.00000000000E+00  0.90929340171E+03  0.90929340173E+03  0.50400001928E-02 0. -1.
       -1   -1    0    0    0  501  0.00000000000E+00  0.00000000000E+00 -0.45802206032E+03  0.45802206035E+03  0.50400001928E-02 0.  1.
    10030    2    1    2    0    0  0.00000000000E+00  0.00000000000E+00  0.45127134140E+03  0.13673154621E+04  0.12906997130E+04 0.  0.
        4    1    3    3  502    0 -0.52188390675E+03  0.37836398969E+03  0.19293757851E+03  0.67286599180E+03  0.12699999809E+01 0.  1.
       -4    1    3    3    0  502  0.52188390675E+03 -0.37836398969E+03  0.25833376289E+03  0.69444947028E+03  0.12699999809E+01 0. -1.
</event>
<event>
 5   0  0.9110949E-04  0.1309944E+04  0.7818609E-02  0.9021717E-01
        1   -1    0    0  501    0  0.00000000000E+00  0.00000000000E+00  0.13238647646E+04  0.13238647646E+04  0.50400001928E-02 0.  1.
       -1   -1    0    0    0  501  0.00000000000E+00  0.00000000000E+00 -0.32404228238E+03  0.32404228242E+03  0.50400001928E-02 0. -1.
    10030    2    1    2    0    0  0.00000000000E+00  0.00000000000E+00  0.99982248226E+03  0.16479070471E+04  0.13099437544E+04 0.  0.
        2    1    3    3  502    0 -0.42108735323E+03  0.49645225666E+03  0.59070314878E+03  0.87903902768E+03  0.25500000920E-02 0. -1.
       -2    1    3    3    0  502  0.42108735323E+03 -0.49645225666E+03  0.40911933348E+03  0.76886801938E+03  0.25500000920E-02 0.  1.
</event>
<event>
 5   0  0.9098192E-04  0.1305614E+04  0.7818609E-02  0.9025125E-01
        1   -1    0    0  501    0  0.00000000000E+00  0.00000000000E+00  0.15920031644E+04  0.15920031644E+04  0.50400001928E-02 0. -1.
       -1   -1    0    0    0  501  0.00000000000E+00  0.00000000000E+00 -0.26768612585E+03  0.26768612590E+03  0.50400001928E-02 0.  1.
    10030    2    1    2    0    0  0.00000000000E+00  0.00000000000E+00  0.13243170386E+04  0.18596892903E+04  0.13056142761E+04 0.  0.
        1    1    3    3  502    0 -0.45316207320E+03 -0.37809159128E+03  0.26473885615E+03  0.64683520155E+03  0.50400001928E-02 0.  1.
       -1    1    3    3    0  502  0.45316207320E+03  0.37809159128E+03  0.10595781824E+04  0.12128540888E+04  0.50400001928E-02 0. -1.
</event>
<event>
 5   0  0.9027076E-04  0.1316691E+04  0.7818609E-02  0.9016433E-01
        1   -1    0    0  501    0  0.00000000000E+00  0.00000000000E+00  0.81545216612E+03  0.81545216613E+03  0.50400001928E-02 0.  1.
       -1   -1    0    0    0  501  0.00000000000E+00  0.00000000000E+00 -0.53150720798E+03  0.53150720800E+03  0.50400001928E-02 0. -1.
    10030    2    1    2    0    0  0.00000000000E+00  0.00000000000E+00  0.28394495814E+03  0.13469593741E+04  0.13166908583E+04 0.  0.
        5    1    3    3  502    0 -0.45175649698E+03  0.46216076142E+03  0.13710334676E+02  0.64644146311E+03  0.46999998093E+01 0. -1.
       -5    1    3    3    0  502  0.45175649698E+03 -0.46216076142E+03  0.27023462346E+03  0.70051791103E+03  0.46999998093E+01 0.  1.
</event>
<event>
 5   0  0.1667342E-03  0.1301559E+04  0.7818609E-02  0.9028330E-01
       -2   -1    0    0    0  501  0.00000000000E+00  0.00000000000E+00  0.31538508646E+03  0.31538508647E+03  0.25500000920E-02 0. -1.
        2   -1    0    0  501    0  0.00000000000E+00  0.00000000000E+00 -0.13428462101E+04  0.13428462101E+04  0.25500000920E-02 0.  1.
    10030    2    1    2    0    0  0.00000000000E+00  0.00000000000E+00 -0.10274611237E+04  0.16582312966E+04  0.13015585551E+04 0.  0.
        5    1    3    3  502    0 -0.11639848855E+02  0.28391258174E+03 -0.12596122792E+04  0.12912734118E+04  0.46999998093E+01 0.  1.
       -5    1    3    3    0  502  0.11639848855E+02 -0.28391258174E+03  0.23215115556E+03  0.36695788475E+03  0.46999998093E+01 0. -1.
</event>
<event>
 5   0  0.1694675E-03  0.1320406E+04  0.7818609E-02  0.9013538E-01
       -2   -1    0    0    0  501  0.00000000000E+00  0.00000000000E+00  0.27259997727E+03  0.27259997728E+03  0.25500000920E-02 0.  1.
        2   -1    0    0  501    0  0.00000000000E+00  0.00000000000E+00 -0.15989285028E+04  0.15989285028E+04  0.25500000920E-02 0. -1.
    10030    2    1    2    0    0  0.00000000000E+00  0.00000000000E+00 -0.13263285256E+04  0.18715284801E+04  0.13204058066E+04 0.  0.
        4    1    3    3  502    0  0.49564780359E+03 -0.41362574281E+03 -0.46720923891E+03  0.79689339697E+03  0.12699999809E+01 0. -1.
       -4    1    3    3    0  502 -0.49564780359E+03  0.41362574281E+03 -0.85911928667E+03  0.10746350832E+04  0.12699999809E+01 0.  1.
</event>
<event>
 5   0  0.9027076E-04  0.1165181E+04  0.7818609E-02  0.9143891E-01
       -1   -1    0    0    0  501  0.00000000000E+00  0.00000000000E+00  0.34308815983E+03  0.34308815987E+03  0.50400001928E-02 0. -1.
        1   -1    0    0  501    0  0.00000000000E+00  0.00000000000E+00 -0.98928494219E+03  0.98928494220E+03  0.50400001928E-02 0.  1.
    10030    2    1    2    0    0  0.00000000000E+00  0.00000000000E+00 -0.64619678236E+03  0.13323731021E+04  0.11651814458E+04 0.  0.
        5    1    3    3  502    0  0.17029454800E+03  0.42514858713E+02  0.31211211309E+03  0.35811144554E+03  0.46999998093E+01 0. -1.
       -5    1    3    3    0  502 -0.17029454800E+03 -0.42514858713E+02 -0.95830889545E+03  0.97426165653E+03  0.46999998093E+01 0.  1.
</event>
<event>
 5   0  0.6284125E-04  0.1303584E+04  0.7818609E-02  0.9026728E-01
       -3   -1    0    0    0  501  0.00000000000E+00  0.00000000000E+00  0.34930891700E+03  0.34930893160E+03  0.10100000352E+00 0. -1.
        3   -1    0    0  501    0  0.00000000000E+00  0.00000000000E+00 -0.12162091353E+04  0.12162091395E+04  0.10100000352E+00 0.  1.
    10030    2    1    2    0    0  0.00000000000E+00  0.00000000000E+00 -0.86690021833E+03  0.15655180711E+04  0.13035838456E+04 0.  0.
        2    1    3    3  502    0 -0.23727725757E+01 -0.46075359491E+03  0.12019633030E+03  0.47617923421E+03  0.25500000920E-02 0. -1.
       -2    1    3    3    0  502  0.23727725757E+01  0.46075359491E+03 -0.98709654863E+03  0.10893388369E+04  0.25500000920E-02 0.  1.
</event>
<event>
 5   0  0.1623890E-03  0.1384842E+04  0.7818609E-02  0.8964864E-01
       -2   -1    0    0    0  501  0.00000000000E+00  0.00000000000E+00  0.83025672031E+03  0.83025672031E+03  0.25500000920E-02 0. -1.
        2   -1    0    0  501    0  0.00000000000E+00  0.00000000000E+00 -0.57746831317E+03  0.57746831317E+03  0.25500000920E-02 0.  1.
    10030    2    1    2    0    0  0.00000000000E+00  0.00000000000E+00  0.25278840714E+03  0.14077250335E+04  0.13848421539E+04 0.  0.
        3    1    3    3  502    0  0.31314070323E+03  0.60857559365E+03  0.19656374006E+02  0.68469536032E+03  0.10100000352E+00 0. -1.
       -3    1    3    3    0  502 -0.31314070323E+03 -0.60857559365E+03  0.23313203313E+03  0.72302967317E+03  0.10100000352E+00 0.  1.
</event>
<event>
 5   0  0.1694675E-03  0.1302863E+04  0.7818609E-02  0.9027298E-01
        2   -1    0    0  501    0  0.00000000000E+00  0.00000000000E+00  0.22846909193E+04  0.22846909193E+04  0.25500000920E-02 0.  1.
       -2   -1    0    0    0  501  0.00000000000E+00  0.00000000000E+00 -0.18574196216E+03  0.18574196218E+03  0.25500000920E-02 0. -1.
    10030    2    1    2    0    0  0.00000000000E+00  0.00000000000E+00  0.20989489572E+04  0.24704328815E+04  0.13028629618E+04 0.  0.
        4    1    3    3  502    0 -0.13332658300E+03 -0.24904983934E+03  0.21625034631E+04  0.21808770349E+04  0.12699999809E+01 0.  1.
       -4    1    3    3    0  502  0.13332658300E+03  0.24904983934E+03 -0.63554505953E+02  0.28955584666E+03  0.12699999809E+01 0. -1.
</event>
<event>
 5   0  0.1694675E-03  0.1282211E+04  0.7818609E-02  0.9043792E-01
       -2   -1    0    0    0  501  0.00000000000E+00  0.00000000000E+00  0.24373390381E+03  0.24373390382E+03  0.25500000920E-02 0.  1.
        2   -1    0    0  501    0  0.00000000000E+00  0.00000000000E+00 -0.16863314350E+04  0.16863314350E+04  0.25500000920E-02 0. -1.
    10030    2    1    2    0    0  0.00000000000E+00  0.00000000000E+00 -0.14425975312E+04  0.19300653389E+04  0.12822108154E+04 0.  0.
        4    1    3    3  502    0  0.43973283210E+03 -0.36666896585E+03 -0.28710537489E+03  0.64050152485E+03  0.12699999809E+01 0. -1.
       -4    1    3    3    0  502 -0.43973283210E+03  0.36666896585E+03 -0.11554921563E+04  0.12895638140E+04  0.12699999809E+01 0.  1.
</event>
<event>
 5   0  0.9081324E-04  0.1295940E+04  0.7818609E-02  0.9032791E-01
        1   -1    0    0  501    0  0.00000000000E+00  0.00000000000E+00  0.34612749092E+03  0.34612749096E+03  0.50400001928E-02 0.  1.
       -1   -1    0    0    0  501  0.00000000000E+00  0.00000000000E+00 -0.12130367949E+04  0.12130367949E+04  0.50400001928E-02 0. -1.
    10030    2    1    2    0    0  0.00000000000E+00  0.00000000000E+00 -0.86690930396E+03  0.15591642859E+04  0.12959404033E+04 0.  0.
        4    1    3    3  502    0  0.41545625561E+03  0.49619550893E+03 -0.39447141419E+03  0.75790711365E+03  0.12699999809E+01 0. -1.
       -4    1    3    3    0  502 -0.41545625561E+03 -0.49619550893E+03 -0.47243788977E+03  0.80125717220E+03  0.12699999809E+01 0.  1.
</event>
<event>
 5   0  0.9215829E-04  0.1302464E+04  0.7818609E-02  0.9027614E-01
       -1   -1    0    0    0  501  0.00000000000E+00  0.00000000000E+00  0.10563182768E+04  0.10563182768E+04  0.50400001928E-02 0. -1.
        1   -1    0    0  501    0  0.00000000000E+00  0.00000000000E+00 -0.40149158158E+03  0.40149158162E+03  0.50400001928E-02 0.  1.
    10030    2    1    2    0    0  0.00000000000E+00  0.00000000000E+00  0.65482669525E+03  0.14578098585E+04  0.13024636588E+04 0.  0.
        3    1    3    3  502    0 -0.53300996121E+03  0.29038020410E+03  0.63297150276E+02  0.61026782737E+03  0.10100000352E+00 0.  1.
       -3    1    3    3    0  502  0.53300996121E+03 -0.29038020410E+03  0.59152954497E+03  0.84754203109E+03  0.10100000352E+00 0. -1.
</event>
<event>
 5   0  0.9215829E-04  0.1285180E+04  0.7818609E-02  0.9041401E-01
       -1   -1    0    0    0  501  0.00000000000E+00  0.00000000000E+00  0.30174720468E+03  0.30174720472E+03  0.50400001928E-02 0. -1.
        1   -1    0    0  501    0  0.00000000000E+00  0.00000000000E+00 -0.13684370622E+04  0.13684370622E+04  0.50400001928E-02 0.  1.
    10030    2    1    2    0    0  0.00000000000E+00  0.00000000000E+00 -0.10666898575E+04  0.16701842670E+04  0.12851802338E+04 0.  0.
        3    1    3    3  502    0 -0.49223625126E+03  0.34799206336E+03 -0.82256042512E+03  0.10198042294E+04  0.10100000352E+00 0.  1.
       -3    1    3    3    0  502  0.49223625126E+03 -0.34799206336E+03 -0.24412943242E+03  0.65038003751E+03  0.10100000352E+00 0. -1.
</event>
<event>
 5   0  0.1714861E-03  0.1305470E+04  0.7818609E-02  0.9025239E-01
       -2   -1    0    0    0  501  0.00000000000E+00  0.00000000000E+00  0.53684642399E+03  0.53684642400E+03  0.25500000920E-02 0. -1.
        2   -1    0    0  501    0  0.00000000000E+00  0.00000000000E+00 -0.79364039724E+03  0.79364039724E+03  0.25500000920E-02 0.  1.
    10030    2    1    2    0    0  0.00000000000E+00  0.00000000000E+00 -0.25679397324E+03  0.13304868212E+04  0.13054700444E+04 0.  0.
        1    1    3    3  502    0  0.17541037332E+03  0.91867182394E+02  0.50549836383E+03  0.54289683562E+03  0.50400001928E-02 0. -1.
       -1    1    3    3    0  502 -0.17541037332E+03 -0.91867182394E+02 -0.76229233707E+03  0.78758998562E+03  0.50400001928E-02 0.  1.
</event>
<event>
 5   0  0.9081324E-04  0.1317698E+04  0.7818609E-02  0.9015647E-01
        1   -1    0    0  501    0  0.00000000000E+00  0.00000000000E+00  0.49893666578E+03  0.49893666581E+03  0.50400001928E-02 0.  1.
       -1   -1    0    0    0  501  0.00000000000E+00  0.00000000000E+00 -0.87001361903E+03  0.87001361905E+03  0.50400001928E-02 0. -1.
    10030    2    1    2    0    0  0.00000000000E+00  0.00000000000E+00 -0.37107695325E+03  0.13689502849E+04  0.13176975287E+04 0.  0.
        4    1    3    3  502    0  0.31299765717E+03 -0.52632535037E+03  0.67009722914E+02  0.61601771379E+03  0.12699999809E+01 0.  1.
       -4    1    3    3    0  502 -0.31299765717E+03  0.52632535037E+03 -0.43808667616E+03  0.75293257107E+03  0.12699999809E+01 0. -1.
</event>
<event>
 5   0  0.1623890E-03  0.1441117E+04  0.7818609E-02  0.8924582E-01
        2   -1    0    0  501    0  0.00000000000E+00  0.00000000000E+00  0.93465439758E+03  0.93465439758E+03  0.25500000920E-02 0.  1.
       -2   -1    0    0    0  501  0.00000000000E+00  0.00000000000E+00 -0.55550435191E+03  0.55550435192E+03  0.25500000920E-02 0. -1.
    10030    2    1    2    0    0  0.00000000000E+00  0.00000000000E+00  0.37915004567E+03  0.14901587495E+04  0.14411170465E+04 0.  0.
        3    1    3    3  502    0 -0.25932944928E+03 -0.66760383786E+03  0.10777591832E+03  0.72426673702E+03  0.10100000352E+00 0.  1.
       -3    1    3    3    0  502  0.25932944928E+03  0.66760383786E+03  0.27137412735E+03  0.76589201248E+03  0.10100000352E+00 0. -1.
</event>
<event>
 5   0  0.9027076E-04  0.1301510E+04  0.7818609E-02  0.9028369E-01
       -1   -1    0    0    0  501  0.00000000000E+00  0.00000000000E+00  0.10593741568E+04  0.10593741568E+04  0.50400001928E-02 0. -1.
        1   -1    0    0  501    0  0.00000000000E+00  0.00000000000E+00 -0.39974714456E+03  0.39974714459E+03  0.50400001928E-02 0.  1.
    10030    2    1    2    0    0  0.00000000000E+00  0.00000000000E+00  0.65962701221E+03  0.14591213014E+04  0.13015095762E+04 0.  0.
        5    1    3    3  502    0  0.20858336586E+02 -0.54202675230E+03  0.73283522155E+03  0.91175524257E+03  0.46999998093E+01 0. -1.
       -5    1    3    3    0  502 -0.20858336586E+02  0.54202675230E+03 -0.73208209343E+02  0.54736605880E+03  0.46999998093E+01 0.  1.
</event>
<event>
 5   0  0.1623890E-03  0.1280168E+04  0.7818609E-02  0.9045442E-01
        2   -1    0    0  501    0  0.00000000000E+00  0.00000000000E+00  0.87633487392E+03  0.87633487393E+03  0.25500000920E-02 0.  1.
       -2   -1    0    0    0  501  0.00000000000E+00  0.00000000000E+00 -0.46752366585E+03  0.46752366586E+03  0.25500000920E-02 0. -1.
    10030    2    1    2    0    0  0.00000000000E+00  0.00000000000E+00  0.40881120808E+03  0.13438585398E+04  0.12801676340E+04 0.  0.
        3    1    3    3  502    0 -0.61237629862E+03 -0.67439238914E+02  0.38669557768E+03  0.72738316042E+03  0.10100000352E+00 0. -1.
       -3    1    3    3    0  502  0.61237629862E+03  0.67439238914E+02  0.22115630395E+02  0.61647537937E+03  0.10100000352E+00 0.  1.
</event>
<event>
 5   0  0.1714861E-03  0.1310711E+04  0.7818609E-02  0.9021114E-01
        2   -1    0    0  501    0  0.00000000000E+00  0.00000000000E+00  0.96589448355E+03  0.96589448355E+03  0.25500000920E-02 0.  1.
       -2   -1    0    0    0  501  0.00000000000E+00  0.00000000000E+00 -0.44465575498E+03  0.44465575499E+03  0.25500000920E-02 0. -1.
    10030    2    1    2    0    0  0.00000000000E+00  0.00000000000E+00  0.52123872857E+03  0.14105502385E+04  0.13107105566E+04 0.  0.
        1    1    3    3  502    0  0.12463969032E+02  0.70605417657E+02  0.96166113891E+03  0.96433014141E+03  0.50400001928E-02 0.  1.
       -1    1    3    3    0  502 -0.12463969032E+02 -0.70605417657E+02 -0.44042241034E+03  0.44622009713E+03  0.50400001928E-02 0. -1.
</event>
<event>
 5   0  0.9027076E-04  0.1286354E+04  0.7818609E-02  0.9040457E-01
        1   -1    0    0  501    0  0.00000000000E+00  0.00000000000E+00  0.10304564559E+04  0.10304564559E+04  0.50400001928E-02 0.  1.
       -1   -1    0    0    0  501  0.00000000000E+00  0.00000000000E+00 -0.40145011457E+03  0.40145011460E+03  0.50400001928E-02 0. -1.
    10030    2    1    2    0    0  0.00000000000E+00  0.00000000000E+00  0.62900634133E+03  0.14319065705E+04  0.12863543249E+04 0.  0.
        5    1    3    3  502    0 -0.39587016600E+03  0.21967506354E+02  0.87822266523E+03  0.96358336400E+03  0.46999998093E+01 0.  1.
       -5    1    3    3    0  502  0.39587016600E+03 -0.21967506354E+02 -0.24921632389E+03  0.46832320651E+03  0.46999998093E+01 0. -1.
</event>
<event>
 5   0  0.9110949E-04  0.1295150E+04  0.7818609E-02  0.9033420E-01
        1   -1    0    0  501    0  0.00000000000E+00  0.00000000000E+00  0.37198506929E+03  0.37198506933E+03  0.50400001928E-02 0. -1.
       -1   -1    0    0    0  501  0.00000000000E+00  0.00000000000E+00 -0.11273384804E+04  0.11273384804E+04  0.50400001928E-02 0.  1.
    10030    2    1    2    0    0  0.00000000000E+00  0.00000000000E+00 -0.75535341109E+03  0.14993235497E+04  0.12951495401E+04 0.  0.
        2    1    3    3  502    0 -0.39802532471E+03 -0.48390286654E+03 -0.56707445094E+03  0.84507962718E+03  0.25500000920E-02 0.  1.
       -2    1    3    3    0  502  0.39802532471E+03  0.48390286654E+03 -0.18827896015E+03  0.65424392255E+03  0.25500000920E-02 0. -1.
</event>
<event>
 5   0  0.1700511E-03  0.1307093E+04  0.7818609E-02  0.9023959E-01
       -2   -1    0    0    0  501  0.00000000000E+00  0.00000000000E+00  0.10583600137E+04  0.10583600137E+04  0.25500000920E-02 0.  1.
        2   -1    0    0  501    0  0.00000000000E+00  0.00000000000E+00 -0.40357070859E+03  0.40357070860E+03  0.25500000920E-02 0. -1.
    10030    2    1    2    0    0  0.00000000000E+00  0.00000000000E+00  0.65478930513E+03  0.14619307223E+04  0.13070931117E+04 0.  0.
        2    1    3    3  502    0 -0.14810951729E+03  0.53691084816E+03 -0.55035772097E+02  0.55967725003E+03  0.25500000920E-02 0. -1.
       -2    1    3    3    0  502  0.14810951729E+03 -0.53691084816E+03  0.70982507722E+03  0.90225347229E+03  0.25500000920E-02 0.  1.
</event>
<event>
 5   0  0.1700511E-03  0.1212796E+04  0.7818609E-02  0.9101729E-01
       -2   -1    0    0    0  501  0.00000000000E+00  0.00000000000E+00  0.57718976360E+03  0.57718976360E+03  0.25500000920E-02 0. -1.
        2   -1    0    0  501    0  0.00000000000E+00  0.00000000000E+00 -0.63708415745E+03  0.63708415745E+03  0.25500000920E-02 0.  1.
    10030    2    1    2    0    0  0.00000000000E+00  0.00000000000E+00 -0.59894393852E+02  0.12142739211E+04  0.12127958678E+04 0.  0.
        2    1    3    3  502    0 -0.50270705386E+03 -0.26338513931E+03  0.18393041782E+03  0.59658738858E+03  0.25500000920E-02 0. -1.
       -2    1    3    3    0  502  0.50270705386E+03  0.26338513931E+03 -0.24382481167E+03  0.61768653247E+03  0.25500000920E-02 0.  1.
</event>
<event>
 5   0  0.9215829E-04  0.1250074E+04  0.7818609E-02  0.9070122E-01
       -1   -1    0    0    0  501  0.00000000000E+00  0.00000000000E+00  0.22505565830E+03  0.22505565836E+03  0.50400001928E-02 0. -1.
        1   -1    0    0  501    0  0.00000000000E+00  0.00000000000E+00 -0.17358867084E+04  0.17358867084E+04  0.50400001928E-02 0.  1.
    10030    2    1    2    0    0  0.00000000000E+00  0.00000000000E+00 -0.15108310501E+04  0.19609423668E+04  0.12500737994E+04 0.  0.
        3    1    3    3  502    0 -0.32475389636E+03  0.17145875505E+02  0.81891199722E+02  0.33535839492E+03  0.10100000352E+00 0. -1.
       -3    1    3    3    0  502  0.32475389636E+03 -0.17145875505E+02 -0.15927222498E+04  0.16255839719E+04  0.10100000352E+00 0.  1.
</event>
<event>
 5   0  0.9110949E-04  0.1303644E+04  0.7818609E-02  0.9026680E-01
       -1   -1    0    0    0  501  0.00000000000E+00  0.00000000000E+00  0.59152398264E+03  0.59152398267E+03  0.50400001928E-02 0. -1.
        1   -1    0    0  501    0  0.00000000000E+00  0.00000000000E+00 -0.71826673359E+03  0.71826673361E+03  0.50400001928E-02 0.  1.
    10030    2    1    2    0    0  0.00000000000E+00  0.00000000000E+00 -0.12674275095E+03  0.13097907163E+04  0.13036441215E+04 0.  0.
        2    1    3    3  502    0 -0.49616403120E+03  0.22197632041E+03 -0.42481715888E+03  0.68987089456E+03  0.25500000920E-02 0.  1.
       -2    1    3    3    0  502  0.49616403120E+03 -0.22197632041E+03  0.29807440793E+03  0.61991982171E+03  0.25500000920E-02 0. -1.
</event>
<event>
 5   0  0.1714861E-03  0.1300606E+04  0.7818609E-02  0.9029085E-01
        2   -1    0    0  501    0  0.00000000000E+00  0.00000000000E+00  0.11425326465E+04  0.11425326466E+04  0.25500000920E-02 0. -1.
       -2   -1    0    0    0  501  0.00000000000E+00  0.00000000000E+00 -0.37013725796E+03  0.37013725797E+03  0.25500000920E-02 0.  1.
    10030    2    1    2    0    0  0.00000000000E+00  0.00000000000E+00  0.77239538859E+03  0.15126699045E+04  0.13006058603E+04 0.  0.
        1    1    3    3  502    0 -0.24039610672E+03 -0.40996107773E+03  0.90246037291E+03  0.10199475958E+04  0.50400001928E-02 0. -1.
       -1    1    3    3    0  502  0.24039610672E+03  0.40996107773E+03 -0.13006498432E+03  0.49272230876E+03  0.50400001928E-02 0.  1.
</event>
<event>
 5   0  0.9081324E-04  0.1295584E+04  0.7818609E-02  0.9033074E-01
       -1   -1    0    0    0  501  0.00000000000E+00  0.00000000000E+00  0.52366797394E+03  0.52366797397E+03  0.50400001928E-02 0. -1.
        1   -1    0    0  501    0  0.00000000000E+00  0.00000000000E+00 -0.80133737492E+03  0.80133737493E+03  0.50400001928E-02 0.  1.
    10030    2    1    2    0    0  0.00000000000E+00  0.00000000000E+00 -0.27766940097E+03  0.13250053489E+04  0.12955843772E+04 0.  0.
        4    1    3    3  502    0 -0.21029867604E+03  0.35087049415E+03  0.37486389310E+03  0.55485150091E+03  0.12699999809E+01 0. -1.
       -4    1    3    3    0  502  0.21029867604E+03 -0.35087049415E+03 -0.65253329407E+03  0.77015384799E+03  0.12699999809E+01 0.  1.
</event>
<event>
 5   0  0.1714861E-03  0.1314942E+04  0.7818609E-02  0.9017799E-01
        2   -1    0    0  501    0  0.00000000000E+00  0.00000000000E+00  0.15098386959E+04  0.15098386959E+04  0.25500000920E-02 0. -1.
       -2   -1    0    0    0  501  0.00000000000E+00  0.00000000000E+00 -0.28630103811E+03  0.28630103812E+03  0.25500000920E-02 0.  1.
    10030    2    1    2    0    0  0.00000000000E+00  0.00000000000E+00  0.12235376578E+04  0.17961397341E+04  0.13149424110E+04 0.  0.
        1    1    3    3  502    0 -0.12288888114E+03  0.64534228456E+03  0.57562815365E+03  0.87345069274E+03  0.50400001928E-02 0.  1.
       -1    1    3    3    0  502  0.12288888114E+03 -0.64534228456E+03  0.64790950417E+03  0.92268904132E+03  0.50400001928E-02 0. -1.
</event>
<event>
 5   0  0.9098192E-04  0.1339703E+04  0.7818609E-02  0.8998660E-01
       -1   -1    0    0    0  501  0.00000000000E+00  0.00000000000E+00  0.35438772325E+03  0.35438772329E+03  0.50400001928E-02 0.  1.
        1   -1    0    0  501    0  0.00000000000E+00  0.00000000000E+00 -0.12661300774E+04  0.12661300774E+04  0.50400001928E-02 0. -1.
    10030    2    1    2    0    0  0.00000000000E+00  0.00000000000E+00 -0.91174235411E+03  0.16205178007E+04  0.13397028857E+04 0.  0.
        1    1    3    3  502    0 -0.62240588708E+03  0.11279282906E+03 -0.18923616539E+03  0.66024361934E+03  0.50400001928E-02 0.  1.
       -1    1    3    3    0  502  0.62240588708E+03 -0.11279282906E+03 -0.72250618873E+03  0.96027418133E+03  0.50400001928E-02 0. -1.
</event>
<event>
 5   0  0.1694675E-03  0.1288509E+04  0.7818609E-02  0.9038727E-01
       -2   -1    0    0    0  501  0.00000000000E+00  0.00000000000E+00  0.33850518890E+03  0.33850518891E+03  0.25500000920E-02 0.  1.
        2   -1    0    0  501    0  0.00000000000E+00  0.00000000000E+00 -0.12261676452E+04  0.12261676452E+04  0.25500000920E-02 0. -1.
    10030    2    1    2    0    0  0.00000000000E+00  0.00000000000E+00 -0.88766245628E+03  0.15646728341E+04  0.12885093874E+04 0.  0.
        4    1    3    3  502    0  0.59178923646E+03 -0.19370207823E+03 -0.24309030241E+03  0.66845306756E+03  0.12699999809E+01 0.  1.
       -4    1    3    3    0  502 -0.59178923646E+03  0.19370207823E+03 -0.64457215388E+03  0.89621976655E+03  0.12699999809E+01 0. -1.
</event>
<event>
 5   0  0.6284125E-04  0.1300135E+04  0.7818609E-02  0.9029458E-01
       -3   -1    0    0    0  501  0.00000000000E+00  0.00000000000E+00  0.30927076805E+03  0.30927078454E+03  0.10100000352E+00 0.  1.
        3   -1    0    0  501    0  0.00000000000E+00  0.00000000000E+00 -0.13664010887E+04  0.13664010924E+04  0.10100000352E+00 0. -1.
    10030    2    1    2    0    0  0.00000000000E+00  0.00000000000E+00 -0.10571303206E+04  0.16756718770E+04  0.13001352716E+04 0.  0.
        2    1    3    3  502    0  0.55339476560E+03 -0.32815799652E+03 -0.64846573826E+03  0.91347755910E+03  0.25500000920E-02 0. -1.
       -2    1    3    3    0  502 -0.55339476560E+03  0.32815799652E+03 -0.40866458238E+03  0.76219431786E+03  0.25500000920E-02 0.  1.
</event>
<event>
 5   0  0.1623890E-03  0.1231858E+04  0.7818609E-02  0.9085419E-01
        2   -1    0    0  501    0  0.00000000000E+00  0.00000000000E+00  0.85367493687E+03  0.85367493688E+03  0.25500000920E-02 0.  1.
       -2   -1    0    0    0  501  0.00000000000E+00  0.00000000000E+00 -0.44439473168E+03  0.44439473169E+03  0.25500000920E-02 0. -1.
    10030    2    1    2    0    0  0.00000000000E+00  0.00000000000E+00  0.40928020519E+03  0.12980696686E+04  0.12318581810E+04 0.  0.
        3    1    3    3  502    0  0.39423593162E+03 -0.41104221410E+03 -0.42465704496E+02  0.57112259438E+03  0.10100000352E+00 0. -1.
       -3    1    3    3    0  502 -0.39423593162E+03  0.41104221410E+03  0.45174590968E+03  0.72694707419E+03  0.10100000352E+00 0.  1.
</event>
<event>
 5   0  0.1700511E-03  0.1312324E+04  0.7818609E-02  0.9019849E-01
        2   -1    0    0  501    0  0.00000000000E+00  0.00000000000E+00  0.40803566180E+03  0.40803566181E+03  0.25500000920E-02 0.  1.
       -2   -1    0    0    0  501  0.00000000000E+00  0.00000000000E+00 -0.10551731829E+04  0.10551731829E+04  0.25500000920E-02 0. -1.
    10030    2    1    2    0    0  0.00000000000E+00  0.00000000000E+00 -0.64713752107E+03  0.14632088447E+04  0.13123235699E+04 0.  0.
        2    1    3    3  502    0  0.18526892883E+03 -0.57875271784E+03 -0.59955396325E+03  0.85366517982E+03  0.25500000920E-02 0. -1.
       -2    1    3    3    0  502 -0.18526892883E+03  0.57875271784E+03 -0.47583557818E+02  0.60954366486E+03  0.25500000920E-02 0.  1.
</event>
<event>
 5   0  0.1714861E-03  0.1281676E+04  0.7818609E-02  0.9044223E-01
       -2   -1    0    0    0  501  0.00000000000E+00  0.00000000000E+00  0.49249732253E+03  0.49249732254E+03  0.25500000920E-02 0. -1.
        2   -1    0    0  501    0  0.00000000000E+00  0.00000000000E+00 -0.83385953493E+03  0.83385953493E+03  0.25500000920E-02 0.  1.
    10030    2    1    2    0    0  0.00000000000E+00  0.00000000000E+00 -0.34136221239E+03  0.13263568575E+04  0.12816763840E+04 0.  0.
        1    1    3    3  502    0  0.41659959674E+03 -0.12775328414E+03  0.31559064853E+03  0.53802749286E+03  0.50400001928E-02 0. -1.
       -1    1    3    3    0  502 -0.41659959674E+03  0.12775328414E+03 -0.65695286092E+03  0.78832936461E+03  0.50400001928E-02 0.  1.
</event>
<event>
 5   0  0.9110949E-04  0.1291080E+04  0.7818609E-02  0.9036669E-01
        1   -1    0    0  501    0  0.00000000000E+00  0.00000000000E+00  0.10605891790E+04  0.10605891790E+04  0.50400001928E-02 0.  1.
       -1   -1    0    0    0  501  0.00000000000E+00  0.00000000000E+00 -0.39291565790E+03  0.39291565794E+03  0.50400001928E-02 0. -1.
    10030    2    1    2    0    0  0.00000000000E+00  0.00000000000E+00  0.66767352111E+03  0.14535048370E+04  0.12910803152E+04 0.  0.
        2    1    3    3  502    0 -0.57662553065E+03 -0.18921287256E+03  0.58157421725E+03  0.84055165452E+03  0.25500000920E-02 0.  1.
       -2    1    3    3    0  502  0.57662553065E+03  0.18921287256E+03  0.86099303856E+02  0.61295318244E+03  0.25500000920E-02 0. -1.
</event>
<event>
 5   0  0.1700511E-03  0.1314873E+04  0.7818609E-02  0.9017853E-01
       -2   -1    0    0    0  501  0.00000000000E+00  0.00000000000E+00  0.61705065221E+03  0.61705065222E+03  0.25500000920E-02 0. -1.
        2   -1    0    0  501    0  0.00000000000E+00  0.00000000000E+00 -0.70046552922E+03  0.70046552922E+03  0.25500000920E-02 0.  1.
    10030    2    1    2    0    0  0.00000000000E+00  0.00000000000E+00 -0.83414877009E+02  0.13175161814E+04  0.13148729394E+04 0.  0.
        2    1    3    3  502    0 -0.84402759571E+02 -0.41602533596E+02  0.61026801312E+03  0.61748007617E+03  0.25500000920E-02 0. -1.
       -2    1    3    3    0  502  0.84402759571E+02  0.41602533596E+02 -0.69368289013E+03  0.70003610527E+03  0.25500000920E-02 0.  1.
</event>
<event>
 5   0  0.9215829E-04  0.1298325E+04  0.7818609E-02  0.9030895E-01
       -1   -1    0    0    0  501  0.00000000000E+00  0.00000000000E+00  0.25885349929E+03  0.25885349934E+03  0.50400001928E-02 0. -1.
        1   -1    0    0  501    0  0.00000000000E+00  0.00000000000E+00 -0.16279934534E+04  0.16279934534E+04  0.50400001928E-02 0.  1.
    10030    2    1    2    0    0  0.00000000000E+00  0.00000000000E+00 -0.13691399541E+04  0.18868469528E+04  0.12983247703E+04 0.  0.
        3    1    3    3  502    0 -0.57260083285E+03  0.27991553231E+03 -0.50547035777E+03  0.81346463463E+03  0.10100000352E+00 0. -1.
       -3    1    3    3    0  502  0.57260083285E+03 -0.27991553231E+03 -0.86366959638E+03  0.10733823181E+04  0.10100000352E+00 0.  1.
</event>
<event>
 5   0  0.9081324E-04  0.1299353E+04  0.7818609E-02  0.9030079E-01
        1   -1    0    0  501    0  0.00000000000E+00  0.00000000000E+00  0.86075161647E+03  0.86075161648E+03  0.50400001928E-02 0.  1.
       -1   -1    0    0    0  501  0.00000000000E+00  0.00000000000E+00 -0.49036135799E+03  0.49036135802E+03  0.50400001928E-02 0. -1.
    10030    2    1    2    0    0  0.00000000000E+00  0.00000000000E+00  0.37039025848E+03  0.13511129745E+04  0.12993526566E+04 0.  0.
        4    1    3    3  502    0  0.18430327100E+01  0.21363727560E+03 -0.45278730584E+03  0.50066180154E+03  0.12699999809E+01 0. -1.
       -4    1    3    3    0  502 -0.18430327100E+01 -0.21363727560E+03  0.82317756432E+03  0.85045117296E+03  0.12699999809E+01 0.  1.
</event>
<event>
 5   0  0.9110949E-04  0.1282379E+04  0.7818609E-02  0.9043656E-01
       -1   -1    0    0    0  501  0.00000000000E+00  0.00000000000E+00  0.71461979285E+03  0.71461979286E+03  0.50400001928E-02 0. -1.
        1   -1    0    0  501    0  0.00000000000E+00  0.00000000000E+00 -0.57530474389E+03  0.57530474391E+03  0.50400001928E-02 0.  1.
    10030    2    1    2    0    0  0.00000000000E+00  0.00000000000E+00  0.13931504896E+03  0.12899245368E+04  0.12823792839E+04 0.  0.
        2    1    3    3  502    0  0.28172215192E+03  0.18710697285E+03  0.61760829243E+03  0.70414231023E+03  0.25500000920E-02 0. -1.
       -2    1    3    3    0  502 -0.28172215192E+03 -0.18710697285E+03 -0.47829324347E+03  0.58578222654E+03  0.25500000920E-02 0.  1.
</event>
<event>
 5   0  0.9027076E-04  0.1420441E+04  0.7818609E-02  0.8939154E-01
        1   -1    0    0  501    0  0.00000000000E+00  0.00000000000E+00  0.11683730101E+04  0.11683730101E+04  0.50400001928E-02 0.  1.
       -1   -1    0    0    0  501  0.00000000000E+00  0.00000000000E+00 -0.43172260416E+03  0.43172260419E+03  0.50400001928E-02 0. -1.
    10030    2    1    2    0    0  0.00000000000E+00  0.00000000000E+00  0.73665040591E+03  0.16000956143E+04  0.14204408310E+04 0.  0.
        5    1    3    3  502    0  0.17930124865E+03 -0.52570471427E+03  0.86688129328E+03  0.10295725574E+04  0.46999998093E+01 0.  1.
       -5    1    3    3    0  502 -0.17930124865E+03  0.52570471427E+03 -0.13023088737E+03  0.57052305685E+03  0.46999998093E+01 0. -1.
</event>
<event>
 5   0  0.1623890E-03  0.1254715E+04  0.7818609E-02  0.9066268E-01
        2   -1    0    0  501    0  0.00000000000E+00  0.00000000000E+00  0.55925054649E+03  0.55925054650E+03  0.25500000920E-02 0. -1.
       -2   -1    0    0    0  501  0.00000000000E+00  0.00000000000E+00 -0.70375854191E+03  0.70375854192E+03  0.25500000920E-02 0.  1.
    10030    2    1    2    0    0  0.00000000000E+00  0.00000000000E+00 -0.14450799542E+03  0.12630090884E+04  0.12547148667E+04 0.  0.
        3    1    3    3  502    0  0.49985316799E+03  0.11971121831E+03 -0.43434476399E+03  0.67293339161E+03  0.10100000352E+00 0.  1.
       -3    1    3    3    0  502 -0.49985316799E+03 -0.11971121831E+03  0.28983676856E+03  0.59007569680E+03  0.10100000352E+00 0. -1.
</event>
<event>
 5   0  0.1694675E-03  0.1300940E+04  0.7818609E-02  0.9028820E-01
        2   -1    0    0  501    0  0.00000000000E+00  0.00000000000E+00  0.67489229564E+03  0.67489229564E+03  0.25500000920E-02 0.  1.
       -2   -1    0    0    0  501  0.00000000000E+00  0.00000000000E+00 -0.62693149773E+03  0.62693149773E+03  0.25500000920E-02 0. -1.
    10030    2    1    2    0    0  0.00000000000E+00  0.00000000000E+00  0.47960797910E+02  0.13018237934E+04  0.13009400259E+04 0.  0.
        4    1    3    3  502    0 -0.48051494863E+03  0.41157991073E+03 -0.12717514047E+03  0.64534313975E+03  0.12699999809E+01 0. -1.
       -4    1    3    3    0  502  0.48051494863E+03 -0.41157991073E+03  0.17513593838E+03  0.65648065363E+03  0.12699999809E+01 0.  1.
</event>
<event>
 5   0  0.1667342E-03  0.1309298E+04  0.7818609E-02  0.9022224E-01
       -2   -1    0    0    0  501  0.00000000000E+00  0.00000000000E+00  0.57174267693E+03  0.57174267694E+03  0.25500000920E-02 0.  1.
        2   -1    0    0  501    0  0.00000000000E+00  0.00000000000E+00 -0.74957672440E+03  0.74957672441E+03  0.25500000920E-02 0. -1.
    10030    2    1    2    0    0  0.00000000000E+00  0.00000000000E+00 -0.17783404747E+03  0.13213194013E+04  0.13092975261E+04 0.  0.
        5    1    3    3  502    0  0.21177651745E+03 -0.53251951921E+03  0.23040029232E+03  0.61768334637E+03  0.46999998093E+01 0.  1.
       -5    1    3    3    0  502 -0.21177651745E+03  0.53251951921E+03 -0.40823433979E+03  0.70363605498E+03  0.46999998093E+01 0. -1.
</event>
<event>
 5   0  0.9110949E-04  0.1301158E+04  0.7818609E-02  0.9028648E-01
        1   -1    0    0  501    0  0.00000000000E+00  0.00000000000E+00  0.91075555839E+03  0.91075555840E+03  0.50400001928E-02 0.  1.
       -1   -1    0    0    0  501  0.00000000000E+00  0.00000000000E+00 -0.46472723683E+03  0.46472723686E+03  0.50400001928E-02 0. -1.
    10030    2    1    2    0    0  0.00000000000E+00  0.00000000000E+00  0.44602832156E+03  0.13754827953E+04  0.13011578138E+04 0.  0.
        2    1    3    3  502    0 -0.43665512327E+03  0.30623061213E+03  0.61686564201E+03  0.81545576506E+03  0.25500000920E-02 0.  1.
       -2    1    3    3    0  502  0.43665512327E+03 -0.30623061213E+03 -0.17083732045E+03  0.56002703019E+03  0.25500000920E-02 0. -1.
</event>
<event>
 5   0  0.9110949E-04  0.1304917E+04  0.7818609E-02  0.9025675E-01
       -1   -1    0    0    0  501  0.00000000000E+00  0.00000000000E+00  0.35018312870E+03  0.35018312874E+03  0.50400001928E-02 0.  1.
        1   -1    0    0  501    0  0.00000000000E+00  0.00000000000E+00 -0.12156559462E+04  0.12156559462E+04  0.50400001928E-02 0. -1.
    10030    2    1    2    0    0  0.00000000000E+00  0.00000000000E+00 -0.86547281746E+03  0.15658390749E+04  0.13049171662E+04 0.  0.
        2    1    3    3  502    0  0.52665299741E+03 -0.35676847760E+03 -0.25861884059E+03  0.68668102567E+03  0.25500000920E-02 0.  1.
       -2    1    3    3    0  502 -0.52665299741E+03  0.35676847760E+03 -0.60685397686E+03  0.87915804923E+03  0.25500000920E-02 0. -1.
</event>
<event>
 5   0  0.6284125E-04  0.1298748E+04  0.7818609E-02  0.9030559E-01
       -3   -1    0    0    0  501  0.00000000000E+00  0.00000000000E+00  0.11788686340E+04  0.11788686383E+04  0.10100000352E+00 0.  1.
        3   -1    0    0  501    0  0.00000000000E+00  0.00000000000E+00 -0.35770431975E+03  0.35770433401E+03  0.10100000352E+00 0. -1.
    10030    2    1    2    0    0  0.00000000000E+00  0.00000000000E+00  0.82116431420E+03  0.15365729723E+04  0.12987477308E+04 0.  0.
        4    1    3    3  502    0  0.61127103080E+03 -0.13900602627E+03  0.21011469460E+03  0.66115410172E+03  0.12699999809E+01 0. -1.
       -4    1    3    3    0  502 -0.61127103080E+03  0.13900602627E+03  0.61104961960E+03  0.87541887057E+03  0.12699999809E+01 0.  1.
</event>
<event>
 5   0  0.6284125E-04  0.1306351E+04  0.7818609E-02  0.9024543E-01
        3   -1    0    0  501    0  0.00000000000E+00  0.00000000000E+00  0.72283644977E+03  0.72283645682E+03  0.10100000352E+00 0.  1.
       -3   -1    0    0    0  501  0.00000000000E+00  0.00000000000E+00 -0.59022832607E+03  0.59022833471E+03  0.10100000352E+00 0. -1.
    10030    2    1    2    0    0  0.00000000000E+00  0.00000000000E+00  0.13260812369E+03  0.13130647915E+04  0.13063514965E+04 0.  0.
        2    1    3    3  502    0 -0.39504024837E+03 -0.53476320248E+02  0.58638169286E+03  0.70905571318E+03  0.25500000920E-02 0.  1.
       -2    1    3    3    0  502  0.39504024837E+03  0.53476320248E+02 -0.45377356917E+03  0.60400907836E+03  0.25500000920E-02 0. -1.
</event>
<event>
 5   0  0.9081324E-04  0.1313312E+04  0.7818609E-02  0.9019075E-01
        1   -1    0    0  501    0  0.00000000000E+00  0.00000000000E+00  0.17023832885E+04  0.17023832886E+04  0.50400001928E-02 0.  1.
       -1   -1    0    0    0  501  0.00000000000E+00  0.00000000000E+00 -0.25329030815E+03  0.25329030820E+03  0.50400001928E-02 0. -1.
    10030    2    1    2    0    0  0.00000000000E+00  0.00000000000E+00  0.14490929804E+04  0.19556735968E+04  0.13133121301E+04 0.  0.
        4    1    3    3  502    0  0.29731854205E+03 -0.95603433923E+02  0.15847054060E+04  0.16151876574E+04  0.12699999809E+01 0. -1.
       -4    1    3    3    0  502 -0.29731854205E+03  0.95603433923E+02 -0.13561242557E+03  0.34048593935E+03  0.12699999809E+01 0.  1.
</event>
<event>
 5   0  0.9098192E-04  0.1294887E+04  0.7818609E-02  0.9033629E-01
       -1   -1    0    0    0  501  0.00000000000E+00  0.00000000000E+00  0.34663548188E+03  0.34663548192E+03  0.50400001928E-02 0. -1.
        1   -1    0    0  501    0  0.00000000000E+00  0.00000000000E+00 -0.12092916635E+04  0.12092916635E+04  0.50400001928E-02 0.  1.
    10030    2    1    2    0    0  0.00000000000E+00  0.00000000000E+00 -0.86265618162E+03  0.15559271454E+04  0.12948874832E+04 0.  0.
        1    1    3    3  502    0 -0.52176776880E+02 -0.63325798852E+03 -0.28199521331E+03  0.69516861006E+03  0.50400001928E-02 0.  1.
       -1    1    3    3    0  502  0.52176776880E+02  0.63325798852E+03 -0.58066096832E+03  0.86075853537E+03  0.50400001928E-02 0. -1.
</event>
<event>
 5   0  0.1694675E-03  0.1308290E+04  0.7818609E-02  0.9023017E-01
       -2   -1    0    0    0  501  0.00000000000E+00  0.00000000000E+00  0.25836282944E+03  0.25836282946E+03  0.25500000920E-02 0.  1.
        2   -1    0    0  501    0  0.00000000000E+00  0.00000000000E+00 -0.16562192081E+04  0.16562192081E+04  0.25500000920E-02 0. -1.
    10030    2    1    2    0    0  0.00000000000E+00  0.00000000000E+00 -0.13978563787E+04  0.19145820376E+04  0.13082896939E+04 0.  0.
        4    1    3    3  502    0 -0.39155513809E+03  0.41917626336E+03 -0.23875253954E+03  0.62131196187E+03  0.12699999809E+01 0.  1.
       -4    1    3    3    0  502  0.39155513809E+03 -0.41917626336E+03 -0.11591038391E+04  0.12932700757E+04  0.12699999809E+01 0. -1.
</event>
<event>
 5   0  0.1667342E-03  0.1283021E+04  0.7818609E-02  0.9043139E-01
       -2   -1    0    0    0  501  0.00000000000E+00  0.00000000000E+00  0.68226220945E+03  0.68226220945E+03  0.25500000920E-02 0. -1.
        2   -1    0    0  501    0  0.00000000000E+00  0.00000000000E+00 -0.60319319659E+03  0.60319319659E+03  0.25500000920E-02 0.  1.
    10030    2    1    2    0    0  0.00000000000E+00  0.00000000000E+00  0.79069012862E+02  0.12854554060E+04  0.12830213140E+04 0.  0.
        5    1    3    3  502    0  0.16597782913E+03 -0.57959615040E+03  0.25911575039E+03  0.65623425651E+03  0.46999998093E+01 0. -1.
       -5    1    3    3    0  502 -0.16597782913E+03  0.57959615040E+03 -0.18004673753E+03  0.62922114953E+03  0.46999998093E+01 0.  1.
</event>
<event>
 5   0  0.9027076E-04  0.1331761E+04  0.7818609E-02  0.9004751E-01
       -1   -1    0    0    0  501  0.00000000000E+00  0.00000000000E+00  0.42392869635E+03  0.42392869638E+03  0.50400001928E-02 0. -1.
        1   -1    0    0  501    0  0.00000000000E+00  0.00000000000E+00 -0.10459235802E+04  0.10459235802E+04  0.50400001928E-02 0.  1.
    10030    2    1    2    0    0  0.00000000000E+00  0.00000000000E+00 -0.62199488388E+03  0.14698522766E+04  0.13317612697E+04 0.  0.
        5    1    3    3  502    0 -0.40507177853E+03 -0.19117199402E+01 -0.89427269056E+03  0.98174973161E+03  0.46999998093E+01 0.  1.
       -5    1    3    3    0  502  0.40507177853E+03  0.19117199402E+01  0.27227780668E+03  0.48810254501E+03  0.46999998093E+01 0. -1.
</event>
<event>
 5   0  0.1714861E-03  0.1287843E+04  0.7818609E-02  0.9039262E-01
       -2   -1    0    0    0  501  0.00000000000E+00  0.00000000000E+00  0.69757959354E+03  0.69757959354E+03  0.25500000920E-02 0.  1.
        2   -1    0    0  501    0  0.00000000000E+00  0.00000000000E+00 -0.59439077182E+03  0.59439077183E+03  0.25500000920E-02 0. -1.
    10030    2    1    2    0    0  0.00000000000E+00  0.00000000000E+00  0.10318882171E+03  0.12919703654E+04  0.12878429610E+04 0.  0.
        1    1    3    3  502    0  0.33985005803E+03 -0.22029196317E+03  0.55380670022E+03  0.68609654729E+03  0.50400001928E-02 0.  1.
       -1    1    3    3    0  502 -0.33985005803E+03  0.22029196317E+03 -0.45061787850E+03  0.60587381808E+03  0.50400001928E-02 0. -1.
</event>
<event>
 5   0  0.1700511E-03  0.1303181E+04  0.7818609E-02  0.9027046E-01
        2   -1    0    0  501    0  0.00000000000E+00  0.00000000000E+00  0.59632998223E+03  0.59632998223E+03  0.25500000920E-02 0. -1.
       -2   -1    0    0    0  501  0.00000000000E+00  0.00000000000E+00 -0.71197177103E+03  0.71197177103E+03  0.25500000920E-02 0.  1.
    10030    2    1    2    0    0  0.00000000000E+00  0.00000000000E+00 -0.11564178880E+03  0.13083017533E+04  0.13031808985E+04 0.  0.
        2    1    3    3  502    0  0.32962343063E+03  0.31993474196E+03  0.40612084540E+03  0.61314271276E+03  0.25500000920E-02 0. -1.
       -2    1    3    3    0  502 -0.32962343063E+03 -0.31993474196E+03 -0.52176263420E+03  0.69515904050E+03  0.25500000920E-02 0.  1.
</event>
<event>
 5   0  0.1700511E-03  0.1301660E+04  0.7818609E-02  0.9028250E-01
       -2   -1    0    0    0  501  0.00000000000E+00  0.00000000000E+00  0.35988818402E+03  0.35988818403E+03  0.25500000920E-02 0. -1.
        2   -1    0    0  501    0  0.00000000000E+00  0.00000000000E+00 -0.11769762425E+04  0.11769762425E+04  0.25500000920E-02 0.  1.
    10030    2    1    2    0    0  0.00000000000E+00  0.00000000000E+00 -0.81708805844E+03  0.15368644265E+04  0.13016602361E+04 0.  0.
        2    1    3    3  502    0 -0.42268527030E+03  0.49428874120E+03 -0.43735989782E+03  0.78375243390E+03  0.25500000920E-02 0.  1.
       -2    1    3    3    0  502  0.42268527030E+03 -0.49428874120E+03 -0.37972816061E+03  0.75311199259E+03  0.25500000920E-02 0. -1.
</event>
<event>
 5   0  0.9081324E-04  0.1402970E+04  0.7818609E-02  0.8951672E-01
        1   -1    0    0  501    0  0.00000000000E+00  0.00000000000E+00  0.18898563945E+04  0.18898563945E+04  0.50400001928E-02 0. -1.
       -1   -1    0    0    0  501  0.00000000000E+00  0.00000000000E+00 -0.26038010633E+03  0.26038010638E+03  0.50400001928E-02 0.  1.
    10030    2    1    2    0    0  0.00000000000E+00  0.00000000000E+00  0.16294762882E+04  0.21502365009E+04  0.14029697203E+04 0.  0.
        4    1    3    3  502    0 -0.44073698243E+03  0.36727880774E+03  0.14333913073E+04  0.15439414054E+04  0.12699999809E+01 0. -1.
       -4    1    3    3    0  502  0.44073698243E+03 -0.36727880774E+03  0.19608498086E+03  0.60629509557E+03  0.12699999809E+01 0.  1.
</event>
<event>
 5   0  0.9098192E-04  0.1281188E+04  0.7818609E-02  0.9044618E-01
        1   -1    0    0  501    0  0.00000000000E+00  0.00000000000E+00  0.27544383195E+03  0.27544383200E+03  0.50400001928E-02 0. -1.
       -1   -1    0    0    0  501  0.00000000000E+00  0.00000000000E+00 -0.14898167224E+04  0.14898167224E+04  0.50400001928E-02 0.  1.
    10030    2    1    2    0    0  0.00000000000E+00  0.00000000000E+00 -0.12143728905E+04  0.17652605544E+04  0.12811882406E+04 0.  0.
        1    1    3    3  502    0 -0.38947365545E+02 -0.14795602860E+03  0.24990063810E+03  0.29301572079E+03  0.50400001928E-02 0. -1.
       -1    1    3    3    0  502  0.38947365545E+02  0.14795602860E+03 -0.14642735286E+04  0.14722448336E+04  0.50400001928E-02 0.  1.
</event>
<event>
 5   0  0.1667342E-03  0.1366114E+04  0.7818609E-02  0.8978719E-01
       -2   -1    0    0    0  501  0.00000000000E+00  0.00000000000E+00  0.34227747259E+03  0.34227747260E+03  0.25500000920E-02 0. -1.
        2   -1    0    0  501    0  0.00000000000E+00  0.00000000000E+00 -0.13631255863E+04  0.13631255863E+04  0.25500000920E-02 0.  1.
    10030    2    1    2    0    0  0.00000000000E+00  0.00000000000E+00 -0.10208481137E+04  0.17054030589E+04  0.13661144616E+04 0.  0.
        5    1    3    3  502    0  0.29118343496E+03  0.55515367844E+03 -0.84900756541E+03  0.10553763952E+04  0.46999998093E+01 0.  1.
       -5    1    3    3    0  502 -0.29118343496E+03 -0.55515367844E+03 -0.17184054834E+03  0.65002666371E+03  0.46999998093E+01 0. -1.
</event>
<event>
 5   0  0.9027076E-04  0.1319199E+04  0.7818609E-02  0.9014477E-01
       -1   -1    0    0    0  501  0.00000000000E+00  0.00000000000E+00  0.56443265853E+03  0.56443265855E+03  0.50400001928E-02 0.  1.
        1   -1    0    0  501    0  0.00000000000E+00  0.00000000000E+00 -0.77081218773E+03  0.77081218775E+03  0.50400001928E-02 0. -1.
    10030    2    1    2    0    0  0.00000000000E+00  0.00000000000E+00 -0.20637952920E+03  0.13352448463E+04  0.13191991091E+04 0.  0.
        5    1    3    3  502    0  0.52879978232E+03 -0.21066154748E+03 -0.44047254504E+03  0.71975388176E+03  0.46999998093E+01 0. -1.
       -5    1    3    3    0  502 -0.52879978232E+03  0.21066154748E+03  0.23409301584E+03  0.61549096455E+03  0.46999998093E+01 0.  1.
</event>
<event>
 5   0  0.1700511E-03  0.1280758E+04  0.7818609E-02  0.9044965E-01
       -2   -1    0    0    0  501  0.00000000000E+00  0.00000000000E+00  0.82624013473E+03  0.82624013473E+03  0.25500000920E-02 0.  1.
        2   -1    0    0  501    0  0.00000000000E+00  0.00000000000E+00 -0.49632669198E+03  0.49632669198E+03  0.25500000920E-02 0. -1.
    10030    2    1    2    0    0  0.00000000000E+00  0.00000000000E+00  0.32991344275E+03  0.13225668267E+04  0.12807576396E+04 0.  0.
        2    1    3    3  502    0  0.56383969784E+03  0.29234600496E+03  0.80408192272E+02  0.64019283725E+03  0.25500000920E-02 0.  1.
       -2    1    3    3    0  502 -0.56383969784E+03 -0.29234600496E+03  0.24950525048E+03  0.68237398947E+03  0.25500000920E-02 0. -1.
</event>
<event>
 5   0  0.1694675E-03  0.1292761E+04  0.7818609E-02  0.9035325E-01
        2   -1    0    0  501    0  0.00000000000E+00  0.00000000000E+00  0.12701202531E+04  0.12701202531E+04  0.25500000920E-02 0. -1.
       -2   -1    0    0    0  501  0.00000000000E+00  0.00000000000E+00 -0.32895137033E+03  0.32895137034E+03  0.25500000920E-02 0.  1.
    10030    2    1    2    0    0  0.00000000000E+00  0.00000000000E+00  0.94116888275E+03  0.15990716234E+04  0.12927610726E+04 0.  0.
        4    1    3    3  502    0  0.12143957183E+03 -0.85678402272E+02 -0.30752817640E+03  0.34156046376E+03  0.12699999809E+01 0.  1.
       -4    1    3    3    0  502 -0.12143957183E+03  0.85678402272E+02  0.12486970592E+04  0.12575111597E+04  0.12699999809E+01 0. -1.
</event>
<event>
 5   0  0.9081324E-04  0.1288361E+04  0.7818609E-02  0.9038846E-01
       -1   -1    0    0    0  501  0.00000000000E+00  0.00000000000E+00  0.35117047486E+03  0.35117047489E+03  0.50400001928E-02 0.  1.
        1   -1    0    0  501    0  0.00000000000E+00  0.00000000000E+00 -0.11816727200E+04  0.11816727200E+04  0.50400001928E-02 0. -1.
    10030    2    1    2    0    0  0.00000000000E+00  0.00000000000E+00 -0.83050224509E+03  0.15328431949E+04  0.12883610833E+04 0.  0.
        4    1    3    3  502    0  0.39072211167E+03  0.49473851767E+03 -0.57280809740E+03  0.85178676836E+03  0.12699999809E+01 0. -1.
       -4    1    3    3    0  502 -0.39072211167E+03 -0.49473851767E+03 -0.25769414770E+03  0.68105642650E+03  0.12699999809E+01 0.  1.
</event>
<event>
 5   0  0.1667342E-03  0.1294873E+04  0.7818609E-02  0.9033641E-01
        2   -1    0    0  501    0  0.00000000000E+00  0.00000000000E+00  0.10805690596E+04  0.10805690596E+04  0.25500000920E-02 0.  1.
       -2   -1    0    0    0  501  0.00000000000E+00  0.00000000000E+00 -0.38791970276E+03  0.38791970277E+03  0.25500000920E-02 0. -1.
    10030    2    1    2    0    0  0.00000000000E+00  0.00000000000E+00  0.69264935681E+03  0.14684887623E+04  0.12948730106E+04 0.  0.
        5    1    3    3  502    0  0.56184098542E+03  0.86044233756E+01  0.71102000408E+03  0.90626202900E+03  0.46999998093E+01 0.  1.
       -5    1    3    3    0  502 -0.56184098542E+03 -0.86044233756E+01 -0.18370647268E+02  0.56222673334E+03  0.46999998093E+01 0. -1.
</event>
<event>
 5   0  0.1623890E-03  0.1341454E+04  0.7818609E-02  0.8997323E-01
        2   -1    0    0  501    0  0.00000000000E+00  0.00000000000E+00  0.59624105687E+03  0.59624105687E+03  0.25500000920E-02 0. -1.
       -2   -1    0    0    0  501  0.00000000000E+00  0.00000000000E+00 -0.75451771901E+03  0.75451771902E+03  0.25500000920E-02 0.  1.
    10030    2    1    2    0    0  0.00000000000E+00  0.00000000000E+00 -0.15827666215E+03  0.13507587759E+04  0.13414536030E+04 0.  0.
        3    1    3    3  502    0  0.61788975862E+03 -0.25046271648E+03 -0.15282453302E+03  0.68401365063E+03  0.10100000352E+00 0. -1.
       -3    1    3    3    0  502 -0.61788975862E+03  0.25046271648E+03 -0.54521291267E+01  0.66674512527E+03  0.10100000352E+00 0.  1.
</event>
<event>
 5   0  0.1694675E-03  0.1292276E+04  0.7818609E-02  0.9035713E-01
       -2   -1    0    0    0  501  0.00000000000E+00  0.00000000000E+00  0.24658449189E+03  0.24658449190E+03  0.25500000920E-02 0.  1.
        2   -1    0    0  501    0  0.00000000000E+00  0.00000000000E+00 -0.16931080259E+04  0.16931080259E+04  0.25500000920E-02 0. -1.
    10030    2    1    2    0    0  0.00000000000E+00  0.00000000000E+00 -0.14465235340E+04  0.19396925178E+04  0.12922757945E+04 0.  0.
        4    1    3    3  502    0 -0.75455187260E+02  0.42795554554E+03 -0.14410002974E+04  0.15050989682E+04  0.12699999809E+01 0. -1.
       -4    1    3    3    0  502  0.75455187260E+02 -0.42795554554E+03 -0.55232365863E+01  0.43459354952E+03  0.12699999809E+01 0.  1.
</event>
<event>
 5   0  0.9110949E-04  0.1282370E+04  0.7818609E-02  0.9043664E-01
       -1   -1    0    0    0  501  0.00000000000E+00  0.00000000000E+00  0.81772527868E+03  0.81772527869E+03  0.50400001928E-02 0.  1.
        1   -1    0    0  501    0  0.00000000000E+00  0.00000000000E+00 -0.50275796992E+03  0.50275796995E+03  0.50400001928E-02 0. -1.
    10030    2    1    2    0    0  0.00000000000E+00  0.00000000000E+00  0.31496730875E+03  0.13204832486E+04  0.12823695272E+04 0.  0.
        2    1    3    3  502    0  0.20361862989E+03  0.29146280522E+03  0.70692155942E+03  0.79129590195E+03  0.25500000920E-02 0.  1.
       -2    1    3    3    0  502 -0.20361862989E+03 -0.29146280522E+03 -0.39195425067E+03  0.52918734668E+03  0.25500000920E-02 0. -1.
</event>
<event>
 5   0  0.1667342E-03  0.1283119E+04  0.7818609E-02  0.9043060E-01
       -2   -1    0    0    0  501  0.00000000000E+00  0.00000000000E+00  0.13331063880E+04  0.13331063880E+04  0.25500000920E-02 0. -1.
        2   -1    0    0  501    0  0.00000000000E+00  0.00000000000E+00 -0.30875150749E+03  0.30875150750E+03  0.25500000920E-02 0.  1.
    10030    2    1    2    0    0  0.00000000000E+00  0.00000000000E+00  0.10243548805E+04  0.16418578955E+04  0.12831190232E+04 0.  0.
        5    1    3    3  502    0  0.21838409262E+02  0.25656380575E+02  0.13319515084E+04  0.13323858588E+04  0.46999998093E+01 0. -1.
       -5    1    3    3    0  502 -0.21838409262E+02 -0.25656380575E+02 -0.30759662792E+03  0.30947203669E+03  0.46999998093E+01 0.  1.
</event>
<event>
 5   0  0.9215829E-04  0.1300375E+04  0.7818609E-02  0.9029268E-01
       -1   -1    0    0    0  501  0.00000000000E+00  0.00000000000E+00  0.90999532424E+03  0.90999532425E+03  0.50400001928E-02 0.  1.
        1   -1    0    0  501    0  0.00000000000E+00  0.00000000000E+00 -0.46455621301E+03  0.46455621304E+03  0.50400001928E-02 0. -1.
    10030    2    1    2    0    0  0.00000000000E+00  0.00000000000E+00  0.44543911122E+03  0.13745515373E+04  0.13003753023E+04 0.  0.
        3    1    3    3  502    0 -0.25734669439E+03 -0.18455047385E+03  0.82296481746E+03  0.88179209539E+03  0.10100000352E+00 0.  1.
       -3    1    3    3    0  502  0.25734669439E+03  0.18455047385E+03 -0.37752570623E+03  0.49275944190E+03  0.10100000352E+00 0. -1.
</event>
<event>
 5   0  0.1694675E-03  0.1286787E+04  0.7818609E-02  0.9040110E-01
        2   -1    0    0  501    0  0.00000000000E+00  0.00000000000E+00  0.57250714719E+03  0.57250714719E+03  0.25500000920E-02 0. -1.
       -2   -1    0    0    0  501  0.00000000000E+00  0.00000000000E+00 -0.72305632414E+03  0.72305632414E+03  0.25500000920E-02 0.  1.
    10030    2    1    2    0    0  0.00000000000E+00  0.00000000000E+00 -0.15054917695E+03  0.12955634713E+04  0.12867865610E+04 0.  0.
        4    1    3    3  502    0  0.53549498605E+03 -0.34630474352E+03 -0.16112898512E+03  0.65775832812E+03  0.12699999809E+01 0.  1.
       -4    1    3    3    0  502 -0.53549498605E+03  0.34630474352E+03  0.10579808172E+02  0.63780514321E+03  0.12699999809E+01 0. -1.
</event>
<event>
 5   0  0.9098192E-04  0.1255666E+04  0.7818609E-02  0.9065480E-01
       -1   -1    0    0    0  501  0.00000000000E+00  0.00000000000E+00  0.57179593713E+03  0.57179593716E+03  0.50400001928E-02 0. -1.
        1   -1    0    0  501    0  0.00000000000E+00  0.00000000000E+00 -0.68936233606E+03  0.68936233608E+03  0.50400001928E-02 0.  1.
    10030    2    1    2    0    0  0.00000000000E+00  0.00000000000E+00 -0.11756639893E+03  0.12611582732E+04  0.12556664892E+04 0.  0.
        1    1    3    3  502    0 -0.52163696603E+03  0.20504965231E+03  0.22533933819E+03  0.60409295775E+03  0.50400001928E-02 0.  1.
       -1    1    3    3    0  502  0.52163696603E+03 -0.20504965231E+03 -0.34290573711E+03  0.65706531548E+03  0.50400001928E-02 0. -1.
</event>
<event>
 5   0  0.1667342E-03  0.1291682E+04  0.7818609E-02  0.9036188E-01
       -2   -1    0    0    0  501  0.00000000000E+00  0.00000000000E+00  0.25424006645E+03  0.25424006646E+03  0.25500000920E-02 0. -1.
        2   -1    0    0  501    0  0.00000000000E+00  0.00000000000E+00 -0.16406169551E+04  0.16406169551E+04  0.25500000920E-02 0.  1.
    10030    2    1    2    0    0  0.00000000000E+00  0.00000000000E+00 -0.13863768887E+04  0.18948570216E+04  0.12916819480E+04 0.  0.
        5    1    3    3  502    0  0.37845743479E+00 -0.59231172341E+03 -0.10707873137E+04  0.12236996699E+04  0.46999998093E+01 0.  1.
       -5    1    3    3    0  502 -0.37845743479E+00  0.59231172341E+03 -0.31558957501E+03  0.67115735172E+03  0.46999998093E+01 0. -1.
</event>
<event>
 5   0  0.9027076E-04  0.1284916E+04  0.7818609E-02  0.9041613E-01
        1   -1    0    0  501    0  0.00000000000E+00  0.00000000000E+00  0.98668579080E+03  0.98668579081E+03  0.50400001928E-02 0.  1.
       -1   -1    0    0    0  501  0.00000000000E+00  0.00000000000E+00 -0.41832207382E+03  0.41832207385E+03  0.50400001928E-02 0. -1.
    10030    2    1    2    0    0  0.00000000000E+00  0.00000000000E+00  0.56836371698E+03  0.14050078647E+04  0.12849162560E+04 0.  0.
        5    1    3    3  502    0 -0.59520999372E+03 -0.23469866614E+03  0.34767763869E+03  0.72818969435E+03  0.46999998093E+01 0. -1.
       -5    1    3    3    0  502  0.59520999372E+03  0.23469866614E+03  0.22068607829E+03  0.67681817031E+03  0.46999998093E+01 0.  1.
</event>
<event>
 5   0  0.9027076E-04  0.1270209E+04  0.7818609E-02  0.9053529E-01
        1   -1    0    0  501    0  0.00000000000E+00  0.00000000000E+00  0.55931662426E+03  0.55931662428E+03  0.50400001928E-02 0. -1.
       -1   -1    0    0    0  501  0.00000000000E+00  0.00000000000E+00 -0.72116224092E+03  0.72116224094E+03  0.50400001928E-02 0.  1.
    10030    2    1    2    0    0  0.00000000000E+00  0.00000000000E+00 -0.16184561666E+03  0.12804788652E+04  0.12702094790E+04 0.  0.
        5    1    3    3  502    0  0.39832006562E+03 -0.49427434612E+03 -0.61533580459E+02  0.63778873887E+03  0.46999998093E+01 0. -1.
       -5    1    3    3    0  502 -0.39832006562E+03  0.49427434612E+03 -0.10031203620E+03  0.64269012635E+03  0.46999998093E+01 0.  1.
</event>
<event>
 5   0  0.1667342E-03  0.1299570E+04  0.7818609E-02  0.9029906E-01
        2   -1    0    0  501    0  0.00000000000E+00  0.00000000000E+00  0.66457284060E+03  0.66457284061E+03  0.25500000920E-02 0.  1.
       -2   -1    0    0    0  501  0.00000000000E+00  0.00000000000E+00 -0.63532651592E+03  0.63532651593E+03  0.25500000920E-02 0. -1.
    10030    2    1    2    0    0  0.00000000000E+00  0.00000000000E+00  0.29246324680E+02  0.12998993565E+04  0.12995703096E+04 0.  0.
        5    1    3    3  502    0 -0.10608203764E+03 -0.60065940722E+03 -0.20938339079E+03  0.64490977395E+03  0.46999998093E+01 0. -1.
       -5    1    3    3    0  502  0.10608203764E+03  0.60065940722E+03  0.23862971547E+03  0.65498958259E+03  0.46999998093E+01 0.  1.
</event>
<event>
 5   0  0.9081324E-04  0.1307251E+04  0.7818609E-02  0.9023835E-01
       -1   -1    0    0    0  501  0.00000000000E+00  0.00000000000E+00  0.88582681782E+03  0.88582681784E+03  0.50400001928E-02 0.  1.
        1   -1    0    0  501    0  0.00000000000E+00  0.00000000000E+00 -0.48229117015E+03  0.48229117018E+03  0.50400001928E-02 0. -1.
    10030    2    1    2    0    0  0.00000000000E+00  0.00000000000E+00  0.40353564767E+03  0.13681179880E+04  0.13072512422E+04 0.  0.
        4    1    3    3  502    0  0.28989867878E+03 -0.92695702212E+01  0.81478603253E+03  0.86487285805E+03  0.12699999809E+01 0.  1.
       -4    1    3    3    0  502 -0.28989867878E+03  0.92695702212E+01 -0.41125038486E+03  0.50324512997E+03  0.12699999809E+01 0. -1.
</event>
<event>
 5   0  0.9081324E-04  0.1303316E+04  0.7818609E-02  0.9026940E-01
        1   -1    0    0  501    0  0.00000000000E+00  0.00000000000E+00  0.75122952691E+03  0.75122952692E+03  0.50400001928E-02 0.  1.
       -1   -1    0    0    0  501  0.00000000000E+00  0.00000000000E+00 -0.56528401559E+03  0.56528401562E+03  0.50400001928E-02 0. -1.
    10030    2    1    2    0    0  0.00000000000E+00  0.00000000000E+00  0.18594551131E+03  0.13165135425E+04  0.13033158384E+04 0.  0.
        4    1    3    3  502    0 -0.79428476513E+02 -0.27414661648E+03 -0.49878467117E+03  0.57467644053E+03  0.12699999809E+01 0. -1.
       -4    1    3    3    0  502  0.79428476513E+02  0.27414661648E+03  0.68473018248E+03  0.74183710201E+03  0.12699999809E+01 0.  1.
</event>
<event>
 5   0  0.9027076E-04  0.1300889E+04  0.7818609E-02  0.9028861E-01
        1   -1    0    0  501    0  0.00000000000E+00  0.00000000000E+00  0.11005481959E+04  0.11005481960E+04  0.50400001928E-02 0. -1.
       -1   -1    0    0    0  501  0.00000000000E+00  0.00000000000E+00 -0.38442458928E+03  0.38442458931E+03  0.50400001928E-02 0.  1.
    10030    2    1    2    0    0  0.00000000000E+00  0.00000000000E+00  0.71612360667E+03  0.14849727853E+04  0.13008886013E+04 0.  0.
        5    1    3    3  502    0  0.56138495445E+03  0.32441222445E+03  0.41692790853E+03  0.77087439272E+03  0.46999998093E+01 0. -1.
       -5    1    3    3    0  502 -0.56138495445E+03 -0.32441222445E+03  0.29919569813E+03  0.71409839254E+03  0.46999998093E+01 0.  1.
</event>
<event>
 5   0  0.9081324E-04  0.1309312E+04  0.7818609E-02  0.9022213E-01
       -1   -1    0    0    0  501  0.00000000000E+00  0.00000000000E+00  0.46398998688E+03  0.46398998691E+03  0.50400001928E-02 0. -1.
        1   -1    0    0  501    0  0.00000000000E+00  0.00000000000E+00 -0.92367245759E+03  0.92367245760E+03  0.50400001928E-02 0.  1.
    10030    2    1    2    0    0  0.00000000000E+00  0.00000000000E+00 -0.45968247071E+03  0.13876624445E+04  0.13093124478E+04 0.  0.
        4    1    3    3  502    0 -0.16906023554E+03 -0.17401449781E+03 -0.87426504387E+03  0.90730556514E+03  0.12699999809E+01 0.  1.
       -4    1    3    3    0  502  0.16906023554E+03  0.17401449781E+03  0.41458257317E+03  0.48035687937E+03  0.12699999809E+01 0. -1.
</event>
<event>
 5   0  0.9081324E-04  0.1271346E+04  0.7818609E-02  0.9052602E-01
        1   -1    0    0  501    0  0.00000000000E+00  0.00000000000E+00  0.85478573042E+03  0.85478573044E+03  0.50400001928E-02 0.  1.
       -1   -1    0    0    0  501  0.00000000000E+00  0.00000000000E+00 -0.47272668677E+03  0.47272668680E+03  0.50400001928E-02 0. -1.
    10030    2    1    2    0    0  0.00000000000E+00  0.00000000000E+00  0.38205904365E+03  0.13275124172E+04  0.12713457850E+04 0.  0.
        4    1    3    3  502    0 -0.30041669994E+03 -0.36511787521E+03  0.63467304652E+03  0.79143713918E+03  0.12699999809E+01 0.  1.
       -4    1    3    3    0  502  0.30041669994E+03  0.36511787521E+03 -0.25261400287E+03  0.53607527806E+03  0.12699999809E+01 0. -1.
</event>
<event>
 5   0  0.9081324E-04  0.1294062E+04  0.7818609E-02  0.9034288E-01
       -1   -1    0    0    0  501  0.00000000000E+00  0.00000000000E+00  0.38728907312E+03  0.38728907315E+03  0.50400001928E-02 0. -1.
        1   -1    0    0  501    0  0.00000000000E+00  0.00000000000E+00 -0.10809727039E+04  0.10809727039E+04  0.50400001928E-02 0.  1.
    10030    2    1    2    0    0  0.00000000000E+00  0.00000000000E+00 -0.69368363081E+03  0.14682617771E+04  0.12940616934E+04 0.  0.
        4    1    3    3  502    0 -0.61786922610E+03  0.80591067308E+02 -0.14904746483E+03  0.64068249575E+03  0.12699999809E+01 0. -1.
       -4    1    3    3    0  502  0.61786922610E+03 -0.80591067308E+02 -0.54463616598E+03  0.82757928133E+03  0.12699999809E+01 0.  1.
</event>
<event>
 5   0  0.9098192E-04  0.1304030E+04  0.7818609E-02  0.9026376E-01
        1   -1    0    0  501    0  0.00000000000E+00  0.00000000000E+00  0.11699532080E+04  0.11699532080E+04  0.50400001928E-02 0. -1.
       -1   -1    0    0    0  501  0.00000000000E+00  0.00000000000E+00 -0.36336778725E+03  0.36336778729E+03  0.50400001928E-02 0.  1.
    10030    2    1    2    0    0  0.00000000000E+00  0.00000000000E+00  0.80658542076E+03  0.15333209953E+04  0.13040296138E+04 0.  0.
        1    1    3    3  502    0  0.57874131227E+03  0.78161719795E+02  0.62356812298E+02  0.58731519054E+03  0.50400001928E-02 0.  1.
       -1    1    3    3    0  502 -0.57874131227E+03 -0.78161719795E+02  0.74422860846E+03  0.94600580477E+03  0.50400001928E-02 0. -1.
</event>
<event>
 5   0  0.1700511E-03  0.1293256E+04  0.7818609E-02  0.9034931E-01
        2   -1    0    0  501    0  0.00000000000E+00  0.00000000000E+00  0.76289239760E+03  0.76289239760E+03  0.25500000920E-02 0.  1.
       -2   -1    0    0    0  501  0.00000000000E+00  0.00000000000E+00 -0.54808201020E+03  0.54808201021E+03  0.25500000920E-02 0. -1.
    10030    2    1    2    0    0  0.00000000000E+00  0.00000000000E+00  0.21481038740E+03  0.13109744078E+04  0.12932557347E+04 0.  0.
        2    1    3    3  502    0  0.50337537569E+03  0.37121086683E+03  0.27379831716E+03  0.68275163492E+03  0.25500000920E-02 0.  1.
       -2    1    3    3    0  502 -0.50337537569E+03 -0.37121086683E+03 -0.58987929758E+02  0.62822277288E+03  0.25500000920E-02 0. -1.
</event>
<event>
 5   0  0.9098192E-04  0.1167554E+04  0.7818609E-02  0.9141740E-01
        1   -1    0    0  501    0  0.00000000000E+00  0.00000000000E+00  0.33112011340E+03  0.33112011343E+03  0.50400001928E-02 0.  1.
       -1   -1    0    0    0  501  0.00000000000E+00  0.00000000000E+00 -0.10292203522E+04  0.10292203522E+04  0.50400001928E-02 0. -1.
    10030    2    1    2    0    0  0.00000000000E+00  0.00000000000E+00 -0.69810023881E+03  0.13603404657E+04  0.11675539555E+04 0.  0.
        1    1    3    3  502    0  0.45431858199E+02  0.10639798150E+02  0.32894391183E+03  0.33223689770E+03  0.50400001928E-02 0.  1.
       -1    1    3    3    0  502 -0.45431858199E+02 -0.10639798150E+02 -0.10270441506E+04  0.10281035679E+04  0.50400001928E-02 0. -1.
</event>
<event>
 5   0  0.9081324E-04  0.1297738E+04  0.7818609E-02  0.9031361E-01
        1   -1    0    0  501    0  0.00000000000E+00  0.00000000000E+00  0.13350333333E+04  0.13350333333E+04  0.50400001928E-02 0. -1.
       -1   -1    0    0    0  501  0.00000000000E+00  0.00000000000E+00 -0.31537097994E+03  0.31537097998E+03  0.50400001928E-02 0.  1.
    10030    2    1    2    0    0  0.00000000000E+00  0.00000000000E+00  0.10196623534E+04  0.16504043133E+04  0.12977376786E+04 0.  0.
        4    1    3    3  502    0  0.59045658921E+03  0.16511778949E+03  0.77998943566E+03  0.99211289720E+03  0.12699999809E+01 0.  1.
       -4    1    3    3    0  502 -0.59045658921E+03 -0.16511778949E+03  0.23967291772E+03  0.65829141612E+03  0.12699999809E+01 0. -1.
</event>
<event>
 5   0  0.1667342E-03  0.1405124E+04  0.7818609E-02  0.8950118E-01
       -2   -1    0    0    0  501  0.00000000000E+00  0.00000000000E+00  0.66048381763E+03  0.66048381764E+03  0.25500000920E-02 0.  1.
        2   -1    0    0  501    0  0.00000000000E+00  0.00000000000E+00 -0.74732048808E+03  0.74732048808E+03  0.25500000920E-02 0. -1.
    10030    2    1    2    0    0  0.00000000000E+00  0.00000000000E+00 -0.86836670448E+02  0.14078043057E+04  0.14051236088E+04 0.  0.
        5    1    3    3  502    0 -0.47540119136E+03 -0.50050216848E+03 -0.17429022134E+03  0.71197463765E+03  0.46999998093E+01 0. -1.
       -5    1    3    3    0  502  0.47540119136E+03  0.50050216848E+03  0.87453550892E+02  0.69582966807E+03  0.46999998093E+01 0.  1.
</event>
<event>
 5   0  0.6284125E-04  0.1318500E+04  0.7818609E-02  0.9015021E-01
       -4   -1    0    0    0  501  0.00000000000E+00  0.00000000000E+00  0.17913728186E+04  0.17913732688E+04  0.12699999809E+01 0.  1.
        4   -1    0    0  501    0  0.00000000000E+00  0.00000000000E+00 -0.24261115440E+03  0.24261447842E+03  0.12699999809E+01 0. -1.
    10030    2    1    2    0    0  0.00000000000E+00  0.00000000000E+00  0.15487616642E+04  0.20339877472E+04  0.13185004601E+04 0.  0.
        1    1    3    3  502    0  0.24630100495E+02  0.31310074142E+03  0.16685499898E+04  0.16978509312E+04  0.50400001928E-02 0.  1.
       -1    1    3    3    0  502 -0.24630100495E+02 -0.31310074142E+03 -0.11978832556E+03  0.33613681603E+03  0.50400001928E-02 0. -1.
</event>
<event>
 5   0  0.9215829E-04  0.1324567E+04  0.7818609E-02  0.9010307E-01
        1   -1    0    0  501    0  0.00000000000E+00  0.00000000000E+00  0.56760638510E+03  0.56760638513E+03  0.50400001928E-02 0. -1.
       -1   -1    0    0    0  501  0.00000000000E+00  0.00000000000E+00 -0.77275338532E+03  0.77275338534E+03  0.50400001928E-02 0.  1.
    10030    2    1    2    0    0  0.00000000000E+00  0.00000000000E+00 -0.20514700022E+03  0.13403597705E+04  0.13245674851E+04 0.  0.
        3    1    3    3  502    0  0.23457039996E+03  0.55881492735E+03 -0.37282002390E+03  0.71154211118E+03  0.10100000352E+00 0.  1.
       -3    1    3    3    0  502 -0.23457039996E+03 -0.55881492735E+03  0.16767302368E+03  0.62881765929E+03  0.10100000352E+00 0. -1.
</event>
<event>
 5   0  0.9081324E-04  0.1294993E+04  0.7818609E-02  0.9033545E-01
       -1   -1    0    0    0  501  0.00000000000E+00  0.00000000000E+00  0.40515488931E+03  0.40515488934E+03  0.50400001928E-02 0.  1.
        1   -1    0    0  501    0  0.00000000000E+00  0.00000000000E+00 -0.10347936328E+04  0.10347936328E+04  0.50400001928E-02 0. -1.
    10030    2    1    2    0    0  0.00000000000E+00  0.00000000000E+00 -0.62963874347E+03  0.14399485221E+04  0.12949929726E+04 0.  0.
        4    1    3    3  502    0  0.10824070317E+03  0.30221296328E+03 -0.94008048969E+03  0.99337891310E+03  0.12699999809E+01 0. -1.
       -4    1    3    3    0  502 -0.10824070317E+03 -0.30221296328E+03  0.31044174623E+03  0.44656960902E+03  0.12699999809E+01 0.  1.
</event>
<event>
 5   0  0.9081324E-04  0.1300233E+04  0.7818609E-02  0.9029380E-01
        1   -1    0    0  501    0  0.00000000000E+00  0.00000000000E+00  0.92874702449E+03  0.92874702451E+03  0.50400001928E-02 0. -1.
       -1   -1    0    0    0  501  0.00000000000E+00  0.00000000000E+00 -0.45507725593E+03  0.45507725596E+03  0.50400001928E-02 0.  1.
    10030    2    1    2    0    0  0.00000000000E+00  0.00000000000E+00  0.47366976856E+03  0.13838242805E+04  0.13002332827E+04 0.  0.
        4    1    3    3  502    0 -0.30173479100E+03  0.44415972045E+03  0.62690566169E+03  0.82542962325E+03  0.12699999809E+01 0. -1.
       -4    1    3    3    0  502  0.30173479100E+03 -0.44415972045E+03 -0.15323589313E+03  0.55839465722E+03  0.12699999809E+01 0.  1.
</event>
<event>
 5   0  0.1694675E-03  0.1246377E+04  0.7818609E-02  0.9073204E-01
       -2   -1    0    0    0  501  0.00000000000E+00  0.00000000000E+00  0.32210526356E+03  0.32210526357E+03  0.25500000920E-02 0.  1.
        2   -1    0    0  501    0  0.00000000000E+00  0.00000000000E+00 -0.12057055814E+04  0.12057055814E+04  0.25500000920E-02 0. -1.
    10030    2    1    2    0    0  0.00000000000E+00  0.00000000000E+00 -0.88360031788E+03  0.15278108450E+04  0.12463773331E+04 0.  0.
        4    1    3    3  502    0  0.20994951201E+03  0.49059324485E+03 -0.47248333820E+02  0.53571872044E+03  0.12699999809E+01 0.  1.
       -4    1    3    3    0  502 -0.20994951201E+03 -0.49059324485E+03 -0.83635198406E+03  0.99209212457E+03  0.12699999809E+01 0. -1.
</event>
<event>
 5   0  0.6284125E-04  0.1289243E+04  0.7818609E-02  0.9038139E-01
        3   -1    0    0  501    0  0.00000000000E+00  0.00000000000E+00  0.12222060826E+04  0.12222060867E+04  0.10100000352E+00 0.  1.
       -3   -1    0    0    0  501  0.00000000000E+00  0.00000000000E+00 -0.33998919941E+03  0.33998921441E+03  0.10100000352E+00 0. -1.
    10030    2    1    2    0    0  0.00000000000E+00  0.00000000000E+00  0.88221688316E+03  0.15621953012E+04  0.12892430066E+04 0.  0.
        4    1    3    3  502    0  0.22537553562E+03 -0.20351812107E+03 -0.24788937146E+03  0.39200065184E+03  0.12699999809E+01 0. -1.
       -4    1    3    3    0  502 -0.22537553562E+03  0.20351812107E+03  0.11301062546E+04  0.11701946493E+04  0.12699999809E+01 0.  1.
</event>
<event>
 5   0  0.9215829E-04  0.1293873E+04  0.7818609E-02  0.9034438E-01
       -1   -1    0    0    0  501  0.00000000000E+00  0.00000000000E+00  0.62085631292E+03  0.62085631294E+03  0.50400001928E-02 0. -1.
        1   -1    0    0  501    0  0.00000000000E+00  0.00000000000E+00 -0.67411258967E+03  0.67411258969E+03  0.50400001928E-02 0.  1.
    10030    2    1    2    0    0  0.00000000000E+00  0.00000000000E+00 -0.53256276749E+02  0.12949689026E+04  0.12938733430E+04 0.  0.
        3    1    3    3  502    0  0.27831598392E+03 -0.23650215104E+03  0.50780339049E+03  0.62550567380E+03  0.10100000352E+00 0. -1.
       -3    1    3    3    0  502 -0.27831598392E+03  0.23650215104E+03 -0.56105966724E+03  0.66946322883E+03  0.10100000352E+00 0.  1.
</event>
<event>
 5   0  0.1700511E-03  0.1297593E+04  0.7818609E-02  0.9031476E-01
        2   -1    0    0  501    0  0.00000000000E+00  0.00000000000E+00  0.79330681844E+03  0.79330681845E+03  0.25500000920E-02 0. -1.
       -2   -1    0    0    0  501  0.00000000000E+00  0.00000000000E+00 -0.53061031325E+03  0.53061031326E+03  0.25500000920E-02 0.  1.
    10030    2    1    2    0    0  0.00000000000E+00  0.00000000000E+00  0.26269650519E+03  0.13239171317E+04  0.12975928166E+04 0.  0.
        2    1    3    3  502    0 -0.34631724571E+03  0.84040237105E+02 -0.42181143157E+03  0.55219858741E+03  0.25500000920E-02 0.  1.
       -2    1    3    3    0  502  0.34631724571E+03 -0.84040237105E+02  0.68450793676E+03  0.77171854430E+03  0.25500000920E-02 0. -1.
</event>
<event>
 5   0  0.1667342E-03  0.1320983E+04  0.7818609E-02  0.9013089E-01
        2   -1    0    0  501    0  0.00000000000E+00  0.00000000000E+00  0.16692439318E+04  0.16692439318E+04  0.25500000920E-02 0.  1.
       -2   -1    0    0    0  501  0.00000000000E+00  0.00000000000E+00 -0.26134539375E+03  0.26134539376E+03  0.25500000920E-02 0. -1.
    10030    2    1    2    0    0  0.00000000000E+00  0.00000000000E+00  0.14078985380E+04  0.19305893255E+04  0.13209832893E+04 0.  0.
        5    1    3    3  502    0  0.59974011619E+03  0.27612910554E+03  0.67899121557E+03  0.94709379193E+03  0.46999998093E+01 0. -1.
       -5    1    3    3    0  502 -0.59974011619E+03 -0.27612910554E+03  0.72890732244E+03  0.98349553360E+03  0.46999998093E+01 0.  1.
</event>
<event>
 5   0  0.1623890E-03  0.1279302E+04  0.7818609E-02  0.9046142E-01
       -2   -1    0    0    0  501  0.00000000000E+00  0.00000000000E+00  0.67460639856E+03  0.67460639856E+03  0.25500000920E-02 0. -1.
        2   -1    0    0  501    0  0.00000000000E+00  0.00000000000E+00 -0.60650685071E+03  0.60650685072E+03  0.25500000920E-02 0.  1.
    10030    2    1    2    0    0  0.00000000000E+00  0.00000000000E+00  0.68099547848E+02  0.12811132493E+04  0.12793020007E+04 0.  0.
        3    1    3    3  502    0  0.19425826648E+03  0.38520485723E+03  0.50698352351E+03  0.66569614648E+03  0.10100000352E+00 0. -1.
       -3    1    3    3    0  502 -0.19425826648E+03 -0.38520485723E+03 -0.43888397566E+03  0.61541710280E+03  0.10100000352E+00 0.  1.
</event>
<event>
 5   0  0.9110949E-04  0.1114155E+04  0.7818609E-02  0.9191504E-01
        1   -1    0    0  501    0  0.00000000000E+00  0.00000000000E+00  0.53816186430E+03  0.53816186432E+03  0.50400001928E-02 0. -1.
       -1   -1    0    0    0  501  0.00000000000E+00  0.00000000000E+00 -0.57665793223E+03  0.57665793225E+03  0.50400001928E-02 0.  1.
    10030    2    1    2    0    0  0.00000000000E+00  0.00000000000E+00 -0.38496067927E+02  0.11148197966E+04  0.11141549406E+04 0.  0.
        2    1    3    3  502    0  0.49121515488E+03  0.26102702976E+03 -0.49396882667E+02  0.55845097428E+03  0.25500000920E-02 0.  1.
       -2    1    3    3    0  502 -0.49121515488E+03 -0.26102702976E+03  0.10900814740E+02  0.55636882229E+03  0.25500000920E-02 0. -1.
</event>
<event>
 5   0  0.1623890E-03  0.1178934E+04  0.7818609E-02  0.9131498E-01
       -2   -1    0    0    0  501  0.00000000000E+00  0.00000000000E+00  0.16403486443E+03  0.16403486445E+03  0.25500000920E-02 0.  1.
        2   -1    0    0  501    0  0.00000000000E+00  0.00000000000E+00 -0.21182766159E+04  0.21182766159E+04  0.25500000920E-02 0. -1.
    10030    2    1    2    0    0  0.00000000000E+00  0.00000000000E+00 -0.19542417515E+04  0.22823114803E+04  0.11789337853E+04 0.  0.
        3    1    3    3  502    0  0.21004049594E+03 -0.87717412137E+02 -0.20297652638E+04  0.20424882841E+04  0.10100000352E+00 0. -1.
       -3    1    3    3    0  502 -0.21004049594E+03  0.87717412137E+02  0.75523512355E+02  0.23982319622E+03  0.10100000352E+00 0.  1.
</event>
<event>
 5   0  0.9027076E-04  0.1286874E+04  0.7818609E-02  0.9040039E-01
        1   -1    0    0  501    0  0.00000000000E+00  0.00000000000E+00  0.94503475899E+03  0.94503475900E+03  0.50400001928E-02 0. -1.
       -1   -1    0    0    0  501  0.00000000000E+00  0.00000000000E+00 -0.43809121833E+03  0.43809121836E+03  0.50400001928E-02 0.  1.
    10030    2    1    2    0    0  0.00000000000E+00  0.00000000000E+00  0.50694354066E+03  0.13831259774E+04  0.12868743978E+04 0.  0.
        5    1    3    3  502    0  0.57057847472E+03  0.29020495654E+03  0.18372904267E+03  0.66600087368E+03  0.46999998093E+01 0. -1.
       -5    1    3    3    0  502 -0.57057847472E+03 -0.29020495654E+03  0.32321449799E+03  0.71712510368E+03  0.46999998093E+01 0.  1.
</event>
<event>
 5   0  0.9215829E-04  0.1305012E+04  0.7818609E-02  0.9025600E-01
        1   -1    0    0  501    0  0.00000000000E+00  0.00000000000E+00  0.42953042283E+03  0.42953042286E+03  0.50400001928E-02 0. -1.
       -1   -1    0    0    0  501  0.00000000000E+00  0.00000000000E+00 -0.99123154939E+03  0.99123154940E+03  0.50400001928E-02 0.  1.
    10030    2    1    2    0    0  0.00000000000E+00  0.00000000000E+00 -0.56170112655E+03  0.14207619723E+04  0.13050120407E+04 0.  0.
        3    1    3    3  502    0  0.46723154218E+03  0.34260129438E+03 -0.60761031139E+03  0.83956611510E+03  0.10100000352E+00 0.  1.
       -3    1    3    3    0  502 -0.46723154218E+03 -0.34260129438E+03  0.45909184839E+02  0.58119585715E+03  0.10100000352E+00 0. -1.
</event>
<event>
 5   0  0.9081324E-04  0.1301263E+04  0.7818609E-02  0.9028565E-01
       -1   -1    0    0    0  501  0.00000000000E+00  0.00000000000E+00  0.24707440400E+03  0.24707440406E+03  0.50400001928E-02 0.  1.
        1   -1    0    0  501    0  0.00000000000E+00  0.00000000000E+00 -0.17133342517E+04  0.17133342517E+04  0.50400001928E-02 0. -1.
    10030    2    1    2    0    0  0.00000000000E+00  0.00000000000E+00 -0.14662598477E+04  0.19604086558E+04  0.13012625241E+04 0.  0.
        4    1    3    3  502    0 -0.20906333337E+03  0.18967695244E+03 -0.16162710988E+04  0.16407372432E+04  0.12699999809E+01 0. -1.
       -4    1    3    3    0  502  0.20906333337E+03 -0.18967695244E+03  0.15001125108E+03  0.31967141254E+03  0.12699999809E+01 0.  1.
</event>
<event>
 5   0  0.1694675E-03  0.1307667E+04  0.7818609E-02  0.9023507E-01
       -2   -1    0    0    0  501  0.00000000000E+00  0.00000000000E+00  0.33078146444E+03  0.33078146445E+03  0.25500000920E-02 0.  1.
        2   -1    0    0  501    0  0.00000000000E+00  0.00000000000E+00 -0.12923895787E+04  0.12923895787E+04  0.25500000920E-02 0. -1.
    10030    2    1    2    0    0  0.00000000000E+00  0.00000000000E+00 -0.96160811427E+03  0.16231710432E+04  0.13076674156E+04 0.  0.
        4    1    3    3  502    0 -0.52309066262E+03  0.27881816041E+01  0.60931833281E+01  0.52313512123E+03  0.12699999809E+01 0.  1.
       -4    1    3    3    0  502  0.52309066262E+03 -0.27881816041E+01 -0.96770129760E+03  0.11000359219E+04  0.12699999809E+01 0. -1.
</event>
<event>
 5   0  0.9081324E-04  0.1309455E+04  0.7818609E-02  0.9022100E-01
       -1   -1    0    0    0  501  0.00000000000E+00  0.00000000000E+00  0.35090303289E+03  0.35090303293E+03  0.50400001928E-02 0.  1.
        1   -1    0    0  501    0  0.00000000000E+00  0.00000000000E+00 -0.12216150003E+04  0.12216150003E+04  0.50400001928E-02 0. -1.
    10030    2    1    2    0    0  0.00000000000E+00  0.00000000000E+00 -0.87071196740E+03  0.15725180332E+04  0.13094554726E+04 0.  0.
        4    1    3    3  502    0 -0.10491265946E+03 -0.57443071861E+03 -0.79096981552E+03  0.98316437007E+03  0.12699999809E+01 0. -1.
       -4    1    3    3    0  502  0.10491265946E+03  0.57443071861E+03 -0.79742151876E+02  0.58935366316E+03  0.12699999809E+01 0.  1.
</event>
<event>
 5   0  0.6284125E-04  0.1247988E+04  0.7818609E-02  0.9071859E-01
        4   -1    0    0  501    0  0.00000000000E+00  0.00000000000E+00  0.40632944164E+03  0.40633142636E+03  0.12699999809E+01 0. -1.
       -4   -1    0    0    0  501  0.00000000000E+00  0.00000000000E+00 -0.95825369014E+03  0.95825453172E+03  0.12699999809E+01 0.  1.
    10030    2    1    2    0    0  0.00000000000E+00  0.00000000000E+00 -0.55192424849E+03  0.13645859581E+04  0.12479881654E+04 0.  0.
        4    1    3    3  502    0  0.52935174078E+02 -0.77784315687E+01 -0.95574095023E+03  0.95723822192E+03  0.12699999809E+01 0.  1.
       -4    1    3    3    0  502 -0.52935174078E+02  0.77784315687E+01  0.40381670174E+03  0.40734773616E+03  0.12699999809E+01 0. -1.
</event>
<event>
 5   0  0.9215829E-04  0.1304876E+04  0.7818609E-02  0.9025707E-01
       -1   -1    0    0    0  501  0.00000000000E+00  0.00000000000E+00  0.33153633322E+03  0.33153633326E+03  0.50400001928E-02 0.  1.
        1   -1    0    0  501    0  0.00000000000E+00  0.00000000000E+00 -0.12839476241E+04  0.12839476242E+04  0.50400001928E-02 0. -1.
    10030    2    1    2    0    0  0.00000000000E+00  0.00000000000E+00 -0.95241129093E+03  0.16154839574E+04  0.13048759135E+04 0.  0.
        3    1    3    3  502    0  0.53588545053E+03  0.35785708003E+03 -0.60270590270E+03  0.88232041865E+03  0.10100000352E+00 0.  1.
       -3    1    3    3    0  502 -0.53588545053E+03 -0.35785708003E+03 -0.34970538822E+03  0.73316353876E+03  0.10100000352E+00 0. -1.
</event>
<event>
 5   0  0.1700511E-03  0.1298189E+04  0.7818609E-02  0.9031003E-01
        2   -1    0    0  501    0  0.00000000000E+00  0.00000000000E+00  0.14417040175E+04  0.14417040175E+04  0.25500000920E-02 0. -1.
       -2   -1    0    0    0  501  0.00000000000E+00  0.00000000000E+00 -0.29223987660E+03  0.29223987661E+03  0.25500000920E-02 0.  1.
    10030    2    1    2    0    0  0.00000000000E+00  0.00000000000E+00  0.11494641409E+04  0.17339438941E+04  0.12981885906E+04 0.  0.
        2    1    3    3  502    0 -0.16217533286E+03 -0.62820040301E+03  0.54846260152E+03  0.84955742019E+03  0.25500000920E-02 0.  1.
       -2    1    3    3    0  502  0.16217533286E+03  0.62820040301E+03  0.60100153940E+03  0.88438647394E+03  0.25500000920E-02 0. -1.
</event>
<event>
 5   0  0.1694675E-03  0.1299600E+04  0.7818609E-02  0.9029882E-01
        2   -1    0    0  501    0  0.00000000000E+00  0.00000000000E+00  0.71959229661E+03  0.71959229661E+03  0.25500000920E-02 0.  1.
       -2   -1    0    0    0  501  0.00000000000E+00  0.00000000000E+00 -0.58677705681E+03  0.58677705682E+03  0.25500000920E-02 0. -1.
    10030    2    1    2    0    0  0.00000000000E+00  0.00000000000E+00  0.13281523979E+03  0.13063693534E+04  0.12996003230E+04 0.  0.
        4    1    3    3  502    0  0.60209722299E+03 -0.61494979490E+02 -0.17133204040E+03  0.62901429189E+03  0.12699999809E+01 0.  1.
       -4    1    3    3    0  502 -0.60209722299E+03  0.61494979490E+02  0.30414728019E+03  0.67735506154E+03  0.12699999809E+01 0. -1.
</event>
<event>
 5   0  0.1700511E-03  0.1300223E+04  0.7818609E-02  0.9029388E-01
        2   -1    0    0  501    0  0.00000000000E+00  0.00000000000E+00  0.50216188853E+03  0.50216188854E+03  0.25500000920E-02 0.  1.
       -2   -1    0    0    0  501  0.00000000000E+00  0.00000000000E+00 -0.84165122425E+03  0.84165122426E+03  0.25500000920E-02 0. -1.
    10030    2    1    2    0    0  0.00000000000E+00  0.00000000000E+00 -0.33948933572E+03  0.13438131128E+04  0.13002233166E+04 0.  0.
        2    1    3    3  502    0 -0.53402761295E+03 -0.20843222846E+03  0.14715448440E+03  0.59184789223E+03  0.25500000920E-02 0.  1.
       -2    1    3    3    0  502  0.53402761295E+03  0.20843222846E+03 -0.48664382013E+03  0.75196522056E+03  0.25500000920E-02 0. -1.
</event>
<event>
 5   0  0.9081324E-04  0.1292271E+04  0.7818609E-02  0.9035717E-01
       -1   -1    0    0    0  501  0.00000000000E+00  0.00000000000E+00  0.47140252340E+03  0.47140252342E+03  0.50400001928E-02 0.  1.
        1   -1    0    0  501    0  0.00000000000E+00  0.00000000000E+00 -0.88563573828E+03  0.88563573829E+03  0.50400001928E-02 0. -1.
    10030    2    1    2    0    0  0.00000000000E+00  0.00000000000E+00 -0.41423321488E+03  0.13570382617E+04  0.12922707485E+04 0.  0.
        4    1    3    3  502    0  0.16958953374E+03 -0.10370558497E+03 -0.85272542979E+03  0.87558993246E+03  0.12699999809E+01 0. -1.
       -4    1    3    3    0  502 -0.16958953374E+03  0.10370558497E+03  0.43849221491E+03  0.48144832926E+03  0.12699999809E+01 0.  1.
</event>
<event>
 5   0  0.1667342E-03  0.1411224E+04  0.7818609E-02  0.8945734E-01
       -2   -1    0    0    0  501  0.00000000000E+00  0.00000000000E+00  0.32204716889E+03  0.32204716890E+03  0.25500000920E-02 0.  1.
        2   -1    0    0  501    0  0.00000000000E+00  0.00000000000E+00 -0.15460100236E+04  0.15460100236E+04  0.25500000920E-02 0. -1.
    10030    2    1    2    0    0  0.00000000000E+00  0.00000000000E+00 -0.12239628547E+04  0.18680571925E+04  0.14112237968E+04 0.  0.
        5    1    3    3  502    0  0.50470686456E+03  0.22538306211E+03 -0.11925166013E+04  0.13143989038E+04  0.46999998093E+01 0. -1.
       -5    1    3    3    0  502 -0.50470686456E+03 -0.22538306211E+03 -0.31446253371E+02  0.55365828872E+03  0.46999998093E+01 0.  1.
</event>
<event>
 5   0  0.9110949E-04  0.1261386E+04  0.7818609E-02  0.9060760E-01
       -1   -1    0    0    0  501  0.00000000000E+00  0.00000000000E+00  0.26278144837E+03  0.26278144842E+03  0.50400001928E-02 0.  1.
        1   -1    0    0  501    0  0.00000000000E+00  0.00000000000E+00 -0.15137045546E+04  0.15137045546E+04  0.50400001928E-02 0. -1.
    10030    2    1    2    0    0  0.00000000000E+00  0.00000000000E+00 -0.12509231062E+04  0.17764860030E+04  0.12613857068E+04 0.  0.
        2    1    3    3  502    0  0.21184664761E+03 -0.31048368234E+03  0.87806530557E+02  0.38599106973E+03  0.25500000920E-02 0.  1.
       -2    1    3    3    0  502 -0.21184664761E+03  0.31048368234E+03 -0.13387296368E+04  0.13904949333E+04  0.25500000920E-02 0. -1.
</event>
<event>
 5   0  0.9098192E-04  0.1298693E+04  0.7818609E-02  0.9030603E-01
        1   -1    0    0  501    0  0.00000000000E+00  0.00000000000E+00  0.14057151278E+04  0.14057151278E+04  0.50400001928E-02 0.  1.
       -1   -1    0    0    0  501  0.00000000000E+00  0.00000000000E+00 -0.29995453855E+03  0.29995453859E+03  0.50400001928E-02 0. -1.
    10030    2    1    2    0    0  0.00000000000E+00  0.00000000000E+00  0.11057605892E+04  0.17056696664E+04  0.12986926234E+04 0.  0.
        1    1    3    3  502    0 -0.60924332610E+03 -0.14464222901E+03  0.32710276066E+03  0.70646657449E+03  0.50400001928E-02 0. -1.
       -1    1    3    3    0  502  0.60924332610E+03  0.14464222901E+03  0.77865782856E+03  0.99920309187E+03  0.50400001928E-02 0.  1.
</event>
<event>
 5   0  0.9027076E-04  0.1348632E+04  0.7818609E-02  0.8991864E-01
       -1   -1    0    0    0  501  0.00000000000E+00  0.00000000000E+00  0.20381449373E+03  0.20381449379E+03  0.50400001928E-02 0. -1.
        1   -1    0    0  501    0  0.00000000000E+00  0.00000000000E+00 -0.22309617663E+04  0.22309617663E+04  0.50400001928E-02 0.  1.
    10030    2    1    2    0    0  0.00000000000E+00  0.00000000000E+00 -0.20271472726E+04  0.24347762601E+04  0.13486324081E+04 0.  0.
        5    1    3    3  502    0  0.71045662647E+02 -0.44583482512E+03 -0.10933157695E+03  0.46453381060E+03  0.46999998093E+01 0. -1.
       -5    1    3    3    0  502 -0.71045662647E+02  0.44583482512E+03 -0.19178156956E+04  0.19702424495E+04  0.46999998093E+01 0.  1.
</event>
<event>
 5   0  0.9081324E-04  0.1313304E+04  0.7818609E-02  0.9019081E-01
       -1   -1    0    0    0  501  0.00000000000E+00  0.00000000000E+00  0.67587984324E+03  0.67587984326E+03  0.50400001928E-02 0. -1.
        1   -1    0    0  501    0  0.00000000000E+00  0.00000000000E+00 -0.63797092869E+03  0.63797092871E+03  0.50400001928E-02 0.  1.
    10030    2    1    2    0    0  0.00000000000E+00  0.00000000000E+00  0.37908914558E+02  0.13138507720E+04  0.13133037597E+04 0.  0.
        4    1    3    3  502    0  0.55942243251E+03 -0.24582194655E+03 -0.22157902714E+03  0.64998520411E+03  0.12699999809E+01 0. -1.
       -4    1    3    3    0  502 -0.55942243251E+03  0.24582194655E+03  0.25948794170E+03  0.66386556786E+03  0.12699999809E+01 0.  1.
</event>
<event>
 5   0  0.1714861E-03  0.1300013E+04  0.7818609E-02  0.9029555E-01
        2   -1    0    0  501    0  0.00000000000E+00  0.00000000000E+00  0.14308649847E+04  0.14308649847E+04  0.25500000920E-02 0. -1.
       -2   -1    0    0    0  501  0.00000000000E+00  0.00000000000E+00 -0.29528199523E+03  0.29528199524E+03  0.25500000920E-02 0.  1.
    10030    2    1    2    0    0  0.00000000000E+00  0.00000000000E+00  0.11355829895E+04  0.17261469800E+04  0.13000133347E+04 0.  0.
        1    1    3    3  502    0 -0.90017558752E+02  0.40643715202E+03 -0.95060377053E+02  0.42700210156E+03  0.50400001928E-02 0.  1.
       -1    1    3    3    0  502  0.90017558752E+02 -0.40643715202E+03  0.12306433665E+04  0.12991448784E+04  0.50400001928E-02 0. -1.
</event>
<event>
 5   0  0.9098192E-04  0.1303264E+04  0.7818609E-02  0.9026981E-01
        1   -1    0    0  501    0  0.00000000000E+00  0.00000000000E+00  0.11009082995E+04  0.11009082995E+04  0.50400001928E-02 0. -1.
       -1   -1    0    0    0  501  0.00000000000E+00  0.00000000000E+00 -0.38570327912E+03  0.38570327915E+03  0.50400001928E-02 0.  1.
    10030    2    1    2    0    0  0.00000000000E+00  0.00000000000E+00  0.71520502038E+03  0.14866115787E+04  0.13032635054E+04 0.  0.
        1    1    3    3  502    0  0.16990069556E+03 -0.32542451993E+03 -0.25652260162E+03  0.44785177201E+03  0.50400001928E-02 0.  1.
       -1    1    3    3    0  502 -0.16990069556E+03  0.32542451993E+03  0.97172762200E+03  0.10387598066E+04  0.50400001928E-02 0. -1.
</event>
<event>
 5   0  0.1623890E-03  0.1294953E+04  0.7818609E-02  0.9033577E-01
        2   -1    0    0  501    0  0.00000000000E+00  0.00000000000E+00  0.22627320003E+04  0.22627320003E+04  0.25500000920E-02 0.  1.
       -2   -1    0    0    0  501  0.00000000000E+00  0.00000000000E+00 -0.18527408194E+03  0.18527408195E+03  0.25500000920E-02 0. -1.
    10030    2    1    2    0    0  0.00000000000E+00  0.00000000000E+00  0.20774579183E+04  0.24480060822E+04  0.12949526540E+04 0.  0.
        3    1    3    3  502    0  0.16714133854E+03  0.16933440902E+03  0.21770941665E+04  0.21900569375E+04  0.10100000352E+00 0.  1.
       -3    1    3    3    0  502 -0.16714133854E+03 -0.16933440902E+03 -0.99636248212E+02  0.25794914476E+03  0.10100000352E+00 0. -1.
</event>
<event>
 5   0  0.1623890E-03  0.1302530E+04  0.7818609E-02  0.9027561E-01
       -2   -1    0    0    0  501  0.00000000000E+00  0.00000000000E+00  0.30084074195E+03  0.30084074196E+03  0.25500000920E-02 0.  1.
        2   -1    0    0  501    0  0.00000000000E+00  0.00000000000E+00 -0.14098701410E+04  0.14098701410E+04  0.25500000920E-02 0. -1.
    10030    2    1    2    0    0  0.00000000000E+00  0.00000000000E+00 -0.11090293991E+04  0.17107108830E+04  0.13025304285E+04 0.  0.
        3    1    3    3  502    0  0.49668929606E+03 -0.32698277694E+02 -0.11060961291E+04  0.12129377936E+04  0.10100000352E+00 0. -1.
       -3    1    3    3    0  502 -0.49668929606E+03  0.32698277694E+02 -0.29332699338E+01  0.49777308933E+03  0.10100000352E+00 0.  1.
</event>
<event>
 5   0  0.1714861E-03  0.1305333E+04  0.7818609E-02  0.9025347E-01
        2   -1    0    0  501    0  0.00000000000E+00  0.00000000000E+00  0.10615936739E+04  0.10615936739E+04  0.25500000920E-02 0.  1.
       -2   -1    0    0    0  501  0.00000000000E+00  0.00000000000E+00 -0.40125861702E+03  0.40125861703E+03  0.25500000920E-02 0. -1.
    10030    2    1    2    0    0  0.00000000000E+00  0.00000000000E+00  0.66033505690E+03  0.14628522910E+04  0.13053330754E+04 0.  0.
        1    1    3    3  502    0  0.11361752901E+03  0.46174883702E+03 -0.17082831149E+03  0.50527541343E+03  0.50400001928E-02 0. -1.
       -1    1    3    3    0  502 -0.11361752901E+03 -0.46174883702E+03  0.83116336839E+03  0.95757687752E+03  0.50400001928E-02 0.  1.
</event>
<event>
 5   0  0.1667342E-03  0.1296737E+04  0.7818609E-02  0.9032157E-01
       -2   -1    0    0    0  501  0.00000000000E+00  0.00000000000E+00  0.18134961421E+03  0.18134961423E+03  0.25500000920E-02 0.  1.
        2   -1    0    0  501    0  0.00000000000E+00  0.00000000000E+00 -0.23180741079E+04  0.23180741079E+04  0.25500000920E-02 0. -1.
    10030    2    1    2    0    0  0.00000000000E+00  0.00000000000E+00 -0.21367244937E+04  0.24994237222E+04  0.12967372058E+04 0.  0.
        5    1    3    3  502    0 -0.62832670850E+03  0.45820073261E+01 -0.76030247815E+03  0.98635561320E+03  0.46999998093E+01 0. -1.
       -5    1    3    3    0  502  0.62832670850E+03 -0.45820073261E+01 -0.13764220156E+04  0.15130681090E+04  0.46999998093E+01 0.  1.
</event>
<event>
 5   0  0.9027076E-04  0.1422596E+04  0.7818609E-02  0.8937623E-01
       -1   -1    0    0    0  501  0.00000000000E+00  0.00000000000E+00  0.40229098819E+03  0.40229098822E+03  0.50400001928E-02 0.  1.
        1   -1    0    0  501    0  0.00000000000E+00  0.00000000000E+00 -0.12576581348E+04  0.12576581348E+04  0.50400001928E-02 0. -1.
    10030    2    1    2    0    0  0.00000000000E+00  0.00000000000E+00 -0.85536714661E+03  0.16599491230E+04  0.14225955629E+04 0.  0.
        5    1    3    3  502    0 -0.26345545057E+03 -0.60047187453E+03 -0.10611825451E+03  0.66427285092E+03  0.46999998093E+01 0.  1.
       -5    1    3    3    0  502  0.26345545057E+03  0.60047187453E+03 -0.74924889210E+03  0.99567627211E+03  0.46999998093E+01 0. -1.
</event>
<event>
 5   0  0.1623890E-03  0.1298292E+04  0.7818609E-02  0.9030921E-01
       -2   -1    0    0    0  501  0.00000000000E+00  0.00000000000E+00  0.27338448995E+03  0.27338448996E+03  0.25500000920E-02 0. -1.
        2   -1    0    0  501    0  0.00000000000E+00  0.00000000000E+00 -0.15413833804E+04  0.15413833804E+04  0.25500000920E-02 0.  1.
    10030    2    1    2    0    0  0.00000000000E+00  0.00000000000E+00 -0.12679988904E+04  0.18147678703E+04  0.12982916610E+04 0.  0.
        3    1    3    3  502    0  0.31272134254E+03  0.56014347654E+03 -0.49537659666E+03  0.81052657891E+03  0.10100000352E+00 0. -1.
       -3    1    3    3    0  502 -0.31272134254E+03 -0.56014347654E+03 -0.77262229376E+03  0.10042412914E+04  0.10100000352E+00 0.  1.
</event>
<event>
 5   0  0.9110949E-04  0.1294012E+04  0.7818609E-02  0.9034327E-01
        1   -1    0    0  501    0  0.00000000000E+00  0.00000000000E+00  0.61309838824E+03  0.61309838826E+03  0.50400001928E-02 0. -1.
       -1   -1    0    0    0  501  0.00000000000E+00  0.00000000000E+00 -0.68278934517E+03  0.68278934519E+03  0.50400001928E-02 0.  1.
    10030    2    1    2    0    0  0.00000000000E+00  0.00000000000E+00 -0.69690956923E+02  0.12958877335E+04  0.12940124374E+04 0.  0.
        2    1    3    3  502    0 -0.31485447644E+03  0.56467163842E+03 -0.97163562526E+01  0.64659245909E+03  0.25500000920E-02 0. -1.
       -2    1    3    3    0  502  0.31485447644E+03 -0.56467163842E+03 -0.59974600670E+02  0.64929527436E+03  0.25500000920E-02 0.  1.
</event>
<event>
 5   0  0.9098192E-04  0.1303419E+04  0.7818609E-02  0.9026858E-01
       -1   -1    0    0    0  501  0.00000000000E+00  0.00000000000E+00  0.28262836923E+03  0.28262836928E+03  0.50400001928E-02 0. -1.
        1   -1    0    0  501    0  0.00000000000E+00  0.00000000000E+00 -0.15027697574E+04  0.15027697574E+04  0.50400001928E-02 0.  1.
    10030    2    1    2    0    0  0.00000000000E+00  0.00000000000E+00 -0.12201413881E+04  0.17853981267E+04  0.13034191435E+04 0.  0.
        1    1    3    3  502    0  0.22017927480E+03 -0.36698801046E+03  0.63168065223E+02  0.43260757894E+03  0.50400001928E-02 0. -1.
       -1    1    3    3    0  502 -0.22017927480E+03  0.36698801046E+03 -0.12833094534E+04  0.13527905477E+04  0.50400001928E-02 0.  1.
</event>
<event>
 5   0  0.9215829E-04  0.1318803E+04  0.7818609E-02  0.9014785E-01
       -1   -1    0    0    0  501  0.00000000000E+00  0.00000000000E+00  0.30586484909E+03  0.30586484914E+03  0.50400001928E-02 0.  1.
        1   -1    0    0  501    0  0.00000000000E+00  0.00000000000E+00 -0.14215777446E+04  0.14215777446E+04  0.50400001928E-02 0. -1.
    10030    2    1    2    0    0  0.00000000000E+00  0.00000000000E+00 -0.11157128955E+04  0.17274425937E+04  0.13188034916E+04 0.  0.
        3    1    3    3  502    0  0.51563869225E+03 -0.56945416761E+02 -0.10910251176E+04  0.12080818925E+04  0.10100000352E+00 0. -1.
       -3    1    3    3    0  502 -0.51563869225E+03  0.56945416761E+02 -0.24687777864E+02  0.51936070126E+03  0.10100000352E+00 0.  1.
</event>
<event>
 5   0  0.9215829E-04  0.1300740E+04  0.7818609E-02  0.9028979E-01
       -1   -1    0    0    0  501  0.00000000000E+00  0.00000000000E+00  0.27361977059E+03  0.27361977064E+03  0.50400001928E-02 0.  1.
        1   -1    0    0  501    0  0.00000000000E+00  0.00000000000E+00 -0.15458719574E+04  0.15458719574E+04  0.50400001928E-02 0. -1.
    10030    2    1    2    0    0  0.00000000000E+00  0.00000000000E+00 -0.12722521868E+04  0.18194917280E+04  0.13007399900E+04 0.  0.
        3    1    3    3  502    0 -0.41000446155E+03  0.47491733816E+03 -0.87569083852E+03  0.10772579039E+04  0.10100000352E+00 0. -1.
       -3    1    3    3    0  502  0.41000446155E+03 -0.47491733816E+03 -0.39656134826E+03  0.74223382415E+03  0.10100000352E+00 0.  1.
</event>
<event>
 5   0  0.1700511E-03  0.1258883E+04  0.7818609E-02  0.9062822E-01
        2   -1    0    0  501    0  0.00000000000E+00  0.00000000000E+00  0.12421520875E+04  0.12421520875E+04  0.25500000920E-02 0. -1.
       -2   -1    0    0    0  501  0.00000000000E+00  0.00000000000E+00 -0.31895986912E+03  0.31895986913E+03  0.25500000920E-02 0.  1.
    10030    2    1    2    0    0  0.00000000000E+00  0.00000000000E+00  0.92319221835E+03  0.15611119566E+04  0.12588831038E+04 0.  0.
        2    1    3    3  502    0  0.43663368296E+03  0.40084617336E+03  0.72427602656E+03  0.93589657038E+03  0.25500000920E-02 0. -1.
       -2    1    3    3    0  502 -0.43663368296E+03 -0.40084617336E+03  0.19891619179E+03  0.62521538622E+03  0.25500000920E-02 0.  1.
</event>
<event>
 5   0  0.9027076E-04  0.1304140E+04  0.7818609E-02  0.9026289E-01
       -1   -1    0    0    0  501  0.00000000000E+00  0.00000000000E+00  0.24577776695E+03  0.24577776700E+03  0.50400001928E-02 0. -1.
        1   -1    0    0  501    0  0.00000000000E+00  0.00000000000E+00 -0.17299987950E+04  0.17299987950E+04  0.50400001928E-02 0.  1.
    10030    2    1    2    0    0  0.00000000000E+00  0.00000000000E+00 -0.14842210280E+04  0.19757765620E+04  0.13041399322E+04 0.  0.
        5    1    3    3  502    0 -0.61782730259E+03  0.20136279181E+03 -0.66030592273E+03  0.92643594022E+03  0.46999998093E+01 0. -1.
       -5    1    3    3    0  502  0.61782730259E+03 -0.20136279181E+03 -0.82391510531E+03  0.10493406218E+04  0.46999998093E+01 0.  1.
</event>
<event>
 5   0  0.1667342E-03  0.1326780E+04  0.7818609E-02  0.9008594E-01
        2   -1    0    0  501    0  0.00000000000E+00  0.00000000000E+00  0.67339378842E+03  0.67339378843E+03  0.25500000920E-02 0. -1.
       -2   -1    0    0    0  501  0.00000000000E+00  0.00000000000E+00 -0.65353504269E+03  0.65353504269E+03  0.25500000920E-02 0.  1.
    10030    2    1    2    0    0  0.00000000000E+00  0.00000000000E+00  0.19858745735E+02  0.13269288311E+04  0.13267802203E+04 0.  0.
        5    1    3    3  502    0 -0.30540042465E+03 -0.25990217331E+03  0.53842568181E+03  0.67137386298E+03  0.46999998093E+01 0. -1.
       -5    1    3    3    0  502  0.30540042465E+03  0.25990217331E+03 -0.51856693607E+03  0.65555496814E+03  0.46999998093E+01 0.  1.
</event>
<event>
 5   0  0.9110949E-04  0.1292615E+04  0.7818609E-02  0.9035442E-01
       -1   -1    0    0    0  501  0.00000000000E+00  0.00000000000E+00  0.10331891209E+04  0.10331891209E+04  0.50400001928E-02 0. -1.
        1   -1    0    0  501    0  0.00000000000E+00  0.00000000000E+00 -0.40429509127E+03  0.40429509130E+03  0.50400001928E-02 0.  1.
    10030    2    1    2    0    0  0.00000000000E+00  0.00000000000E+00  0.62889402960E+03  0.14374842122E+04  0.12926148536E+04 0.  0.
        2    1    3    3  502    0  0.20761213458E+03  0.29136896819E+02  0.99432541285E+03  0.10161863923E+04  0.25500000920E-02 0. -1.
       -2    1    3    3    0  502 -0.20761213458E+03 -0.29136896819E+02 -0.36543138325E+03  0.42129781990E+03  0.25500000920E-02 0.  1.
</event>
<event>
 5   0  0.6284125E-04  0.1307162E+04  0.7818609E-02  0.9023905E-01
       -4   -1    0    0    0  501  0.00000000000E+00  0.00000000000E+00  0.91009202676E+03  0.91009291288E+03  0.12699999809E+01 0.  1.
        4   -1    0    0  501    0  0.00000000000E+00  0.00000000000E+00 -0.46936574700E+03  0.46936746517E+03  0.12699999809E+01 0. -1.
    10030    2    1    2    0    0  0.00000000000E+00  0.00000000000E+00  0.44072627976E+03  0.13794603780E+04  0.13071615359E+04 0.  0.
        3    1    3    3  502    0 -0.33199154521E+03 -0.78133823541E+02  0.80873458216E+03  0.87771004042E+03  0.10100000352E+00 0.  1.
       -3    1    3    3    0  502  0.33199154521E+03  0.78133823541E+02 -0.36800830240E+03  0.50175033763E+03  0.10100000352E+00 0. -1.
</event>
<event>
 5   0  0.9098192E-04  0.1224195E+04  0.7818609E-02  0.9091938E-01
        1   -1    0    0  501    0  0.00000000000E+00  0.00000000000E+00  0.36696660658E+03  0.36696660662E+03  0.50400001928E-02 0.  1.
       -1   -1    0    0    0  501  0.00000000000E+00  0.00000000000E+00 -0.10209745127E+04  0.10209745127E+04  0.50400001928E-02 0. -1.
    10030    2    1    2    0    0  0.00000000000E+00  0.00000000000E+00 -0.65400790610E+03  0.13879411193E+04  0.12241953314E+04 0.  0.
        1    1    3    3  502    0 -0.84427089230E+01 -0.51605864106E+03  0.46062267810E+02  0.51817905485E+03  0.50400001928E-02 0.  1.
       -1    1    3    3    0  502  0.84427089230E+01  0.51605864106E+03 -0.70007017391E+03  0.86976206446E+03  0.50400001928E-02 0. -1.
</event>
<event>
 5   0  0.9110949E-04  0.1279552E+04  0.7818609E-02  0.9045940E-01
        1   -1    0    0  501    0  0.00000000000E+00  0.00000000000E+00  0.67337418026E+03  0.67337418028E+03  0.50400001928E-02 0.  1.
       -1   -1    0    0    0  501  0.00000000000E+00  0.00000000000E+00 -0.60785428490E+03  0.60785428492E+03  0.50400001928E-02 0. -1.
    10030    2    1    2    0    0  0.00000000000E+00  0.00000000000E+00  0.65519895366E+02  0.12812284652E+04  0.12795520792E+04 0.  0.
        2    1    3    3  502    0 -0.21473664979E+03  0.15773755544E+03 -0.54965527125E+03  0.61083048580E+03  0.25500000920E-02 0. -1.
       -2    1    3    3    0  502  0.21473664979E+03 -0.15773755544E+03  0.61517516662E+03  0.67039797940E+03  0.25500000920E-02 0.  1.
</event>
<event>
 5   0  0.1714861E-03  0.1315829E+04  0.7818609E-02  0.9017106E-01
       -2   -1    0    0    0  501  0.00000000000E+00  0.00000000000E+00  0.72849525030E+03  0.72849525031E+03  0.25500000920E-02 0.  1.
        2   -1    0    0  501    0  0.00000000000E+00  0.00000000000E+00 -0.59417216410E+03  0.59417216410E+03  0.25500000920E-02 0. -1.
    10030    2    1    2    0    0  0.00000000000E+00  0.00000000000E+00  0.13432308621E+03  0.13226674144E+04  0.13158291674E+04 0.  0.
        1    1    3    3  502    0  0.16468852529E+03  0.37861151711E+03 -0.44773344877E+03  0.60904370321E+03  0.50400001928E-02 0. -1.
       -1    1    3    3    0  502 -0.16468852529E+03 -0.37861151711E+03  0.58205653498E+03  0.71362371120E+03  0.50400001928E-02 0.  1.
</event>
<event>
 5   0  0.1714861E-03  0.1333537E+04  0.7818609E-02  0.9003384E-01
       -2   -1    0    0    0  501  0.00000000000E+00  0.00000000000E+00  0.11412015918E+04  0.11412015918E+04  0.25500000920E-02 0. -1.
        2   -1    0    0  501    0  0.00000000000E+00  0.00000000000E+00 -0.38957226237E+03  0.38957226238E+03  0.25500000920E-02 0.  1.
    10030    2    1    2    0    0  0.00000000000E+00  0.00000000000E+00  0.75162932944E+03  0.15307738542E+04  0.13335373800E+04 0.  0.
        1    1    3    3  502    0 -0.57277576632E+03 -0.20860589252E+02 -0.15271004158E+02  0.57335891574E+03  0.50400001928E-02 0.  1.
       -1    1    3    3    0  502  0.57277576632E+03  0.20860589252E+02  0.76690033360E+03  0.95741493845E+03  0.50400001928E-02 0. -1.
</event>
<event>
 5   0  0.6284125E-04  0.1283689E+04  0.7818609E-02  0.9042601E-01
        3   -1    0    0  501    0  0.00000000000E+00  0.00000000000E+00  0.87757971416E+03  0.87757971997E+03  0.10100000352E+00 0.  1.
       -3   -1    0    0    0  501  0.00000000000E+00  0.00000000000E+00 -0.46943234282E+03  0.46943235368E+03  0.10100000352E+00 0. -1.
    10030    2    1    2    0    0  0.00000000000E+00  0.00000000000E+00  0.40814737135E+03  0.13470120737E+04  0.12836889225E+04 0.  0.
        4    1    3    3  502    0 -0.24866910954E+03  0.34841330975E+03  0.70592789264E+03  0.82556887233E+03  0.12699999809E+01 0.  1.
       -4    1    3    3    0  502  0.24866910954E+03 -0.34841330975E+03 -0.29778052129E+03  0.52144320133E+03  0.12699999809E+01 0. -1.
</event>
<event>
 5   0  0.9081324E-04  0.1301640E+04  0.7818609E-02  0.9028266E-01
        1   -1    0    0  501    0  0.00000000000E+00  0.00000000000E+00  0.12095409290E+04  0.12095409290E+04  0.50400001928E-02 0.  1.
       -1   -1    0    0    0  501  0.00000000000E+00  0.00000000000E+00 -0.35018792473E+03  0.35018792476E+03  0.50400001928E-02 0. -1.
    10030    2    1    2    0    0  0.00000000000E+00  0.00000000000E+00  0.85935300426E+03  0.15597288538E+04  0.13016399315E+04 0.  0.
        4    1    3    3  502    0 -0.29744887292E+03 -0.35549690841E+03  0.97710959674E+03  0.10814798476E+04  0.12699999809E+01 0.  1.
       -4    1    3    3    0  502  0.29744887292E+03  0.35549690841E+03 -0.11775659248E+03  0.47824900613E+03  0.12699999809E+01 0. -1.
</event>
<event>
 5   0  0.1667342E-03  0.1279814E+04  0.7818609E-02  0.9045728E-01
        2   -1    0    0  501    0  0.00000000000E+00  0.00000000000E+00  0.18468361349E+04  0.18468361349E+04  0.25500000920E-02 0. -1.
       -2   -1    0    0    0  501  0.00000000000E+00  0.00000000000E+00 -0.22172015585E+03  0.22172015587E+03  0.25500000920E-02 0.  1.
    10030    2    1    2    0    0  0.00000000000E+00  0.00000000000E+00  0.16251159790E+04  0.20685562908E+04  0.12798137297E+04 0.  0.
        5    1    3    3  502    0 -0.19452330470E+03 -0.32276899099E+03 -0.23301754932E+02  0.37760323013E+03  0.46999998093E+01 0.  1.
       -5    1    3    3    0  502  0.19452330470E+03  0.32276899099E+03  0.16484177340E+04  0.16909530606E+04  0.46999998093E+01 0. -1.
</event>
<event>
 5   0  0.9027076E-04  0.1301138E+04  0.7818609E-02  0.9028663E-01
       -1   -1    0    0    0  501  0.00000000000E+00  0.00000000000E+00  0.14927452840E+04  0.14927452840E+04  0.50400001928E-02 0. -1.
        1   -1    0    0  501    0  0.00000000000E+00  0.00000000000E+00 -0.28353139619E+03  0.28353139624E+03  0.50400001928E-02 0.  1.
    10030    2    1    2    0    0  0.00000000000E+00  0.00000000000E+00  0.12092138878E+04  0.17762766802E+04  0.13011382011E+04 0.  0.
        5    1    3    3  502    0  0.53121223109E+03  0.43170318813E+01  0.91961912835E+02  0.53915132814E+03  0.46999998093E+01 0. -1.
       -5    1    3    3    0  502 -0.53121223109E+03 -0.43170318813E+01  0.11172519749E+04  0.12371253521E+04  0.46999998093E+01 0.  1.
</event>
<event>
 5   0  0.9110949E-04  0.1294152E+04  0.7818609E-02  0.9034216E-01
        1   -1    0    0  501    0  0.00000000000E+00  0.00000000000E+00  0.98225630380E+03  0.98225630381E+03  0.50400001928E-02 0. -1.
       -1   -1    0    0    0  501  0.00000000000E+00  0.00000000000E+00 -0.42627098030E+03  0.42627098033E+03  0.50400001928E-02 0.  1.
    10030    2    1    2    0    0  0.00000000000E+00  0.00000000000E+00  0.55598532349E+03  0.14085272841E+04  0.12941520120E+04 0.  0.
        2    1    3    3  502    0 -0.37222308876E+02 -0.63031327643E+03  0.43201661118E+03  0.76506122570E+03  0.25500000920E-02 0. -1.
       -2    1    3    3    0  502  0.37222308876E+02  0.63031327643E+03  0.12396871231E+03  0.64346605844E+03  0.25500000920E-02 0.  1.
</event>
<event>
 5   0  0.1667342E-03  0.1326269E+04  0.7818609E-02  0.9008989E-01
        2   -1    0    0  501    0  0.00000000000E+00  0.00000000000E+00  0.10430824003E+04  0.10430824003E+04  0.25500000920E-02 0. -1.
       -2   -1    0    0    0  501  0.00000000000E+00  0.00000000000E+00 -0.42158457824E+03  0.42158457824E+03  0.25500000920E-02 0.  1.
    10030    2    1    2    0    0  0.00000000000E+00  0.00000000000E+00  0.62149782206E+03  0.14646669785E+04  0.13262691338E+04 0.  0.
        5    1    3    3  502    0  0.64160637912E+02 -0.45155494230E+03  0.84233881127E+03  0.95790146484E+03  0.46999998093E+01 0. -1.
       -5    1    3    3    0  502 -0.64160637912E+02  0.45155494230E+03 -0.22084098921E+03  0.50676551371E+03  0.46999998093E+01 0.  1.
</event>
<event>
 5   0  0.1714861E-03  0.1115885E+04  0.7818609E-02  0.9189846E-01
        2   -1    0    0  501    0  0.00000000000E+00  0.00000000000E+00  0.79951507554E+03  0.79951507555E+03  0.25500000920E-02 0. -1.
       -2   -1    0    0    0  501  0.00000000000E+00  0.00000000000E+00 -0.38936057817E+03  0.38936057818E+03  0.25500000920E-02 0.  1.
    10030    2    1    2    0    0  0.00000000000E+00  0.00000000000E+00  0.41015449737E+03  0.11888756537E+04  0.11158846752E+04 0.  0.
        1    1    3    3  502    0  0.12615619816E+02  0.86792458540E+02 -0.38197048554E+03  0.39191011288E+03  0.50400001928E-02 0.  1.
       -1    1    3    3    0  502 -0.12615619816E+02 -0.86792458540E+02  0.79212498292E+03  0.79696554085E+03  0.50400001928E-02 0. -1.
</event>
<event>
 5   0  0.9110949E-04  0.1288979E+04  0.7818609E-02  0.9038351E-01
        1   -1    0    0  501    0  0.00000000000E+00  0.00000000000E+00  0.14895717158E+04  0.14895717158E+04  0.50400001928E-02 0.  1.
       -1   -1    0    0    0  501  0.00000000000E+00  0.00000000000E+00 -0.27884970821E+03  0.27884970825E+03  0.50400001928E-02 0. -1.
    10030    2    1    2    0    0  0.00000000000E+00  0.00000000000E+00  0.12107220076E+04  0.17684214240E+04  0.12889788801E+04 0.  0.
        2    1    3    3  502    0 -0.21195768637E+03 -0.96209983747E+02 -0.21916498310E+03  0.31971191972E+03  0.25500000920E-02 0. -1.
       -2    1    3    3    0  502  0.21195768637E+03  0.96209983747E+02  0.14298869907E+04  0.14487095043E+04  0.25500000920E-02 0.  1.
</event>
<event>
 5   0  0.9027076E-04  0.1287420E+04  0.7818609E-02  0.9039601E-01
       -1   -1    0    0    0  501  0.00000000000E+00  0.00000000000E+00  0.36141169775E+03  0.36141169779E+03  0.50400001928E-02 0. -1.
        1   -1    0    0  501    0  0.00000000000E+00  0.00000000000E+00 -0.11465106583E+04  0.11465106583E+04  0.50400001928E-02 0.  1.
    10030    2    1    2    0    0  0.00000000000E+00  0.00000000000E+00 -0.78509896050E+03  0.15079223561E+04  0.12874196884E+04 0.  0.
        5    1    3    3  502    0 -0.39558887392E+03 -0.36473678184E+03  0.21255153161E+02  0.53851401907E+03  0.46999998093E+01 0. -1.
       -5    1    3    3    0  502  0.39558887392E+03  0.36473678184E+03 -0.80635411366E+03  0.96940833698E+03  0.46999998093E+01 0.  1.
</event>
<event>
 5   0  0.9215829E-04  0.1304270E+04  0.7818609E-02  0.9026186E-01
       -1   -1    0    0    0  501  0.00000000000E+00  0.00000000000E+00  0.61724641751E+03  0.61724641753E+03  0.50400001928E-02 0. -1.
        1   -1    0    0  501    0  0.00000000000E+00  0.00000000000E+00 -0.68899561230E+03  0.68899561231E+03  0.50400001928E-02 0.  1.
    10030    2    1    2    0    0  0.00000000000E+00  0.00000000000E+00 -0.71749194789E+02  0.13062420298E+04  0.13042700233E+04 0.  0.
        3    1    3    3  502    0  0.52892727794E+02 -0.22830153119E+03  0.57361832544E+03  0.61964281912E+03  0.10100000352E+00 0. -1.
       -3    1    3    3    0  502 -0.52892727794E+02  0.22830153119E+03 -0.64536752023E+03  0.68659921072E+03  0.10100000352E+00 0.  1.
</event>
<event>
 5   0  0.9215829E-04  0.1291893E+04  0.7818609E-02  0.9036019E-01
        1   -1    0    0  501    0  0.00000000000E+00  0.00000000000E+00  0.11459033419E+04  0.11459033419E+04  0.50400001928E-02 0. -1.
       -1   -1    0    0    0  501  0.00000000000E+00  0.00000000000E+00 -0.36412039912E+03  0.36412039915E+03  0.50400001928E-02 0.  1.
    10030    2    1    2    0    0  0.00000000000E+00  0.00000000000E+00  0.78178294282E+03  0.15100237411E+04  0.12918928473E+04 0.  0.
        3    1    3    3  502    0 -0.31400211233E+03  0.46456220408E+03  0.16073708245E+02  0.56095787926E+03  0.10100000352E+00 0.  1.
       -3    1    3    3    0  502  0.31400211233E+03 -0.46456220408E+03  0.76570923457E+03  0.94906586184E+03  0.10100000352E+00 0. -1.
</event>
<event>
 5   0  0.9027076E-04  0.1299940E+04  0.7818609E-02  0.9029613E-01
       -1   -1    0    0    0  501  0.00000000000E+00  0.00000000000E+00  0.43645899573E+03  0.43645899576E+03  0.50400001928E-02 0. -1.
        1   -1    0    0  501    0  0.00000000000E+00  0.00000000000E+00 -0.96792833783E+03  0.96792833784E+03  0.50400001928E-02 0.  1.
    10030    2    1    2    0    0  0.00000000000E+00  0.00000000000E+00 -0.53146934210E+03  0.14043873336E+04  0.12999400452E+04 0.  0.
        5    1    3    3  502    0  0.51575559628E+03 -0.27631669079E+02  0.16051913545E+03  0.54088430101E+03  0.46999998093E+01 0. -1.
       -5    1    3    3    0  502 -0.51575559628E+03  0.27631669079E+02 -0.69198847755E+03  0.86350303259E+03  0.46999998093E+01 0.  1.
</event>
<event>
 5   0  0.9081324E-04  0.1243773E+04  0.7818609E-02  0.9075382E-01
       -1   -1    0    0    0  501  0.00000000000E+00  0.00000000000E+00  0.30022762812E+03  0.30022762816E+03  0.50400001928E-02 0.  1.
        1   -1    0    0  501    0  0.00000000000E+00  0.00000000000E+00 -0.12881656462E+04  0.12881656462E+04  0.50400001928E-02 0. -1.
    10030    2    1    2    0    0  0.00000000000E+00  0.00000000000E+00 -0.98793801812E+03  0.15883932744E+04  0.12437731572E+04 0.  0.
        4    1    3    3  502    0  0.23986762584E+03 -0.11614227731E+03  0.22360221804E+03  0.34788657824E+03  0.12699999809E+01 0.  1.
       -4    1    3    3    0  502 -0.23986762584E+03  0.11614227731E+03 -0.12115402362E+04  0.12405066962E+04  0.12699999809E+01 0. -1.
</event>
<event>
 5   0  0.9027076E-04  0.1298875E+04  0.7818609E-02  0.9030458E-01
       -1   -1    0    0    0  501  0.00000000000E+00  0.00000000000E+00  0.97649969335E+03  0.97649969337E+03  0.50400001928E-02 0.  1.
        1   -1    0    0  501    0  0.00000000000E+00  0.00000000000E+00 -0.43191924066E+03  0.43191924069E+03  0.50400001928E-02 0. -1.
    10030    2    1    2    0    0  0.00000000000E+00  0.00000000000E+00  0.54458045269E+03  0.14084189341E+04  0.12988749071E+04 0.  0.
        5    1    3    3  502    0  0.22895448711E+03  0.29166380498E+03 -0.30583461067E+03  0.48067123004E+03  0.46999998093E+01 0. -1.
       -5    1    3    3    0  502 -0.22895448711E+03 -0.29166380498E+03  0.85041506337E+03  0.92774770401E+03  0.46999998093E+01 0.  1.
</event>
<event>
 5   0  0.1694675E-03  0.1282608E+04  0.7818609E-02  0.9043472E-01
        2   -1    0    0  501    0  0.00000000000E+00  0.00000000000E+00  0.92287651151E+03  0.92287651152E+03  0.25500000920E-02 0. -1.
       -2   -1    0    0    0  501  0.00000000000E+00  0.00000000000E+00 -0.44564018382E+03  0.44564018383E+03  0.25500000920E-02 0.  1.
    10030    2    1    2    0    0  0.00000000000E+00  0.00000000000E+00  0.47723632769E+03  0.13685166953E+04  0.12826080590E+04 0.  0.
        4    1    3    3  502    0  0.15482379597E+03  0.26398312002E+03  0.83993645679E+03  0.89395322014E+03  0.12699999809E+01 0. -1.
       -4    1    3    3    0  502 -0.15482379597E+03 -0.26398312002E+03 -0.36270012909E+03  0.47456347520E+03  0.12699999809E+01 0.  1.
</event>
<event>
 5   0  0.9027076E-04  0.1342944E+04  0.7818609E-02  0.8996187E-01
        1   -1    0    0  501    0  0.00000000000E+00  0.00000000000E+00  0.18527774845E+04  0.18527774846E+04  0.50400001928E-02 0.  1.
       -1   -1    0    0    0  501  0.00000000000E+00  0.00000000000E+00 -0.24335062756E+03  0.24335062761E+03  0.50400001928E-02 0. -1.
    10030    2    1    2    0    0  0.00000000000E+00  0.00000000000E+00  0.16094268570E+04  0.20961281122E+04  0.13429438762E+04 0.  0.
        5    1    3    3  502    0  0.46651211895E+02 -0.53172699071E+03  0.14405402340E+04  0.15362578507E+04  0.46999998093E+01 0.  1.
       -5    1    3    3    0  502 -0.46651211895E+02  0.53172699071E+03  0.16888662302E+03  0.55987026145E+03  0.46999998093E+01 0. -1.
</event>
<event>
 5   0  0.1623890E-03  0.1311137E+04  0.7818609E-02  0.9020780E-01
        2   -1    0    0  501    0  0.00000000000E+00  0.00000000000E+00  0.16154416855E+04  0.16154416855E+04  0.25500000920E-02 0.  1.
       -2   -1    0    0    0  501  0.00000000000E+00  0.00000000000E+00 -0.26603877953E+03  0.26603877954E+03  0.25500000920E-02 0. -1.
    10030    2    1    2    0    0  0.00000000000E+00  0.00000000000E+00  0.13494029060E+04  0.18814804650E+04  0.13111371163E+04 0.  0.
        3    1    3    3  502    0 -0.23588509996E+03 -0.58515928060E+03  0.93026410143E+03  0.11240304590E+04  0.10100000352E+00 0.  1.
       -3    1    3    3    0  502  0.23588509996E+03  0.58515928060E+03  0.41913880454E+03  0.75745000609E+03  0.10100000352E+00 0. -1.
</event>
<event>
 5   0  0.1623890E-03  0.1286670E+04  0.7818609E-02  0.9040203E-01
        2   -1    0    0  501    0  0.00000000000E+00  0.00000000000E+00  0.66119978693E+03  0.66119978693E+03  0.25500000920E-02 0.  1.
       -2   -1    0    0    0  501  0.00000000000E+00  0.00000000000E+00 -0.62595330501E+03  0.62595330502E+03  0.25500000920E-02 0. -1.
    10030    2    1    2    0    0  0.00000000000E+00  0.00000000000E+00  0.35246481913E+02  0.12871530919E+04  0.12866704192E+04 0.  0.
        3    1    3    3  502    0 -0.34071879391E+03  0.12915941740E+03  0.54801901399E+03  0.65810052540E+03  0.10100000352E+00 0.  1.
       -3    1    3    3    0  502  0.34071879391E+03 -0.12915941740E+03 -0.51277253208E+03  0.62905256655E+03  0.10100000352E+00 0. -1.
</event>
<event>
 5   0  0.6284125E-04  0.1286155E+04  0.7818609E-02  0.9040617E-01
       -4   -1    0    0    0  501  0.00000000000E+00  0.00000000000E+00  0.69616844605E+03  0.69616960446E+03  0.12699999809E+01 0. -1.
        4   -1    0    0  501    0  0.00000000000E+00  0.00000000000E+00 -0.59403299573E+03  0.59403435331E+03  0.12699999809E+01 0.  1.
    10030    2    1    2    0    0  0.00000000000E+00  0.00000000000E+00  0.10213545032E+03  0.12902039578E+04  0.12861549683E+04 0.  0.
        5    1    3    3  502    0  0.10620589692E+03 -0.25349713215E+03  0.63426363850E+03  0.69126908051E+03  0.46999998093E+01 0. -1.
       -5    1    3    3    0  502 -0.10620589692E+03  0.25349713215E+03 -0.53212818818E+03  0.59893487726E+03  0.46999998093E+01 0.  1.
</event>
<event>
 5   0  0.1667342E-03  0.1312088E+04  0.7818609E-02  0.9020034E-01
        2   -1    0    0  501    0  0.00000000000E+00  0.00000000000E+00  0.79346448918E+03  0.79346448918E+03  0.25500000920E-02 0.  1.
       -2   -1    0    0    0  501  0.00000000000E+00  0.00000000000E+00 -0.54242368650E+03  0.54242368650E+03  0.25500000920E-02 0. -1.
    10030    2    1    2    0    0  0.00000000000E+00  0.00000000000E+00  0.25104080268E+03  0.13358881757E+04  0.13120883100E+04 0.  0.
        5    1    3    3  502    0  0.24855256225E+03 -0.52385012501E+03  0.43796551180E+03  0.72665893595E+03  0.46999998093E+01 0.  1.
       -5    1    3    3    0  502 -0.24855256225E+03  0.52385012501E+03 -0.18692470912E+03  0.60922923973E+03  0.46999998093E+01 0. -1.
</event>
<event>
 5   0  0.9027076E-04  0.1299365E+04  0.7818609E-02  0.9030069E-01
        1   -1    0    0  501    0  0.00000000000E+00  0.00000000000E+00  0.51274453916E+03  0.51274453918E+03  0.50400001928E-02 0. -1.
       -1   -1    0    0    0  501  0.00000000000E+00  0.00000000000E+00 -0.82319269591E+03  0.82319269593E+03  0.50400001928E-02 0.  1.
    10030    2    1    2    0    0  0.00000000000E+00  0.00000000000E+00 -0.31044815675E+03  0.13359372351E+04  0.12993653213E+04 0.  0.
        5    1    3    3  502    0  0.63358092779E+03 -0.37405224572E+02 -0.29784214550E+03  0.70111053088E+03  0.46999998093E+01 0.  1.
       -5    1    3    3    0  502 -0.63358092779E+03  0.37405224572E+02 -0.12606011253E+02  0.63482670423E+03  0.46999998093E+01 0. -1.
</event>
<event>
 5   0  0.9110949E-04  0.1294029E+04  0.7818609E-02  0.9034313E-01
        1   -1    0    0  501    0  0.00000000000E+00  0.00000000000E+00  0.86423534741E+03  0.86423534742E+03  0.50400001928E-02 0.  1.
       -1   -1    0    0    0  501  0.00000000000E+00  0.00000000000E+00 -0.48439121072E+03  0.48439121075E+03  0.50400001928E-02 0. -1.
    10030    2    1    2    0    0  0.00000000000E+00  0.00000000000E+00  0.37984413669E+03  0.13486265582E+04  0.12940293757E+04 0.  0.
        2    1    3    3  502    0  0.22624403121E+02 -0.59628385498E+03 -0.70754423351E+02  0.60089307515E+03  0.25500000920E-02 0. -1.
       -2    1    3    3    0  502 -0.22624403121E+02  0.59628385498E+03  0.45059856004E+03  0.74773348303E+03  0.25500000920E-02 0.  1.
</event>
<event>
 5   0  0.1667342E-03  0.1298507E+04  0.7818609E-02  0.9030750E-01
       -2   -1    0    0    0  501  0.00000000000E+00  0.00000000000E+00  0.40805872022E+03  0.40805872023E+03  0.25500000920E-02 0. -1.
        2   -1    0    0  501    0  0.00000000000E+00  0.00000000000E+00 -0.10330128795E+04  0.10330128795E+04  0.25500000920E-02 0.  1.
    10030    2    1    2    0    0  0.00000000000E+00  0.00000000000E+00 -0.62495415932E+03  0.14410715998E+04  0.12985067017E+04 0.  0.
        5    1    3    3  502    0 -0.36309898895E+02 -0.14023070571E+03  0.38987690479E+03  0.41594368665E+03  0.46999998093E+01 0. -1.
       -5    1    3    3    0  502  0.36309898895E+02  0.14023070571E+03 -0.10148310641E+04  0.10251279131E+04  0.46999998093E+01 0.  1.
</event>
<event>
 5   0  0.1714861E-03  0.1301657E+04  0.7818609E-02  0.9028252E-01
       -2   -1    0    0    0  501  0.00000000000E+00  0.00000000000E+00  0.20684761542E+03  0.20684761544E+03  0.25500000920E-02 0. -1.
        2   -1    0    0  501    0  0.00000000000E+00  0.00000000000E+00 -0.20477759143E+04  0.20477759143E+04  0.25500000920E-02 0.  1.
    10030    2    1    2    0    0  0.00000000000E+00  0.00000000000E+00 -0.18409282989E+04  0.22546235297E+04  0.13016567363E+04 0.  0.
        1    1    3    3  502    0  0.38132270923E+03  0.39520380141E+03 -0.15254286774E+04  0.16212728651E+04  0.50400001928E-02 0.  1.
       -1    1    3    3    0  502 -0.38132270923E+03 -0.39520380141E+03 -0.31549962147E+03  0.63335066464E+03  0.50400001928E-02 0. -1.
</event>
<event>
 5   0  0.9110949E-04  0.1286903E+04  0.7818609E-02  0.9040016E-01
       -1   -1    0    0    0  501  0.00000000000E+00  0.00000000000E+00  0.50296761617E+03  0.50296761620E+03  0.50400001928E-02 0. -1.
        1   -1    0    0  501    0  0.00000000000E+00  0.00000000000E+00 -0.82317371480E+03  0.82317371482E+03  0.50400001928E-02 0.  1.
    10030    2    1    2    0    0  0.00000000000E+00  0.00000000000E+00 -0.32020609863E+03  0.13261413310E+04  0.12869028263E+04 0.  0.
        2    1    3    3  502    0  0.29942298953E+03  0.45032828736E+03 -0.51941790688E+03  0.74982975070E+03  0.25500000920E-02 0.  1.
       -2    1    3    3    0  502 -0.29942298953E+03 -0.45032828736E+03  0.19921180825E+03  0.57631158031E+03  0.25500000920E-02 0. -1.
</event>
<event>
 5   0  0.1714861E-03  0.1303172E+04  0.7818609E-02  0.9027054E-01
        2   -1    0    0  501    0  0.00000000000E+00  0.00000000000E+00  0.23816208734E+04  0.23816208734E+04  0.25500000920E-02 0.  1.
       -2   -1    0    0    0  501  0.00000000000E+00  0.00000000000E+00 -0.17826687394E+03  0.17826687395E+03  0.25500000920E-02 0. -1.
    10030    2    1    2    0    0  0.00000000000E+00  0.00000000000E+00  0.22033539995E+04  0.25598877474E+04  0.13031716817E+04 0.  0.
        1    1    3    3  502    0 -0.45957217849E+03 -0.37928951370E+03  0.16195249616E+04  0.17256674719E+04  0.50400001928E-02 0.  1.
       -1    1    3    3    0  502  0.45957217849E+03  0.37928951370E+03  0.58382903788E+03  0.83422027543E+03  0.50400001928E-02 0. -1.
</event>
<event>
 5   0  0.9081324E-04  0.1252535E+04  0.7818609E-02  0.9068076E-01
       -1   -1    0    0    0  501  0.00000000000E+00  0.00000000000E+00  0.26621209759E+03  0.26621209764E+03  0.50400001928E-02 0.  1.
        1   -1    0    0  501    0  0.00000000000E+00  0.00000000000E+00 -0.14733022942E+04  0.14733022942E+04  0.50400001928E-02 0. -1.
    10030    2    1    2    0    0  0.00000000000E+00  0.00000000000E+00 -0.12070901966E+04  0.17395143918E+04  0.12525348605E+04 0.  0.
        4    1    3    3  502    0 -0.27434755769E+03  0.41999444139E+03 -0.11241995222E+04  0.12310516203E+04  0.12699999809E+01 0. -1.
       -4    1    3    3    0  502  0.27434755769E+03 -0.41999444139E+03 -0.82890674361E+02  0.50846277151E+03  0.12699999809E+01 0.  1.
</event>
<event>
 5   0  0.1623890E-03  0.1301634E+04  0.7818609E-02  0.9028270E-01
        2   -1    0    0  501    0  0.00000000000E+00  0.00000000000E+00  0.16823326996E+04  0.16823326996E+04  0.25500000920E-02 0. -1.
       -2   -1    0    0    0  501  0.00000000000E+00  0.00000000000E+00 -0.25177106071E+03  0.25177106072E+03  0.25500000920E-02 0.  1.
    10030    2    1    2    0    0  0.00000000000E+00  0.00000000000E+00  0.14305616389E+04  0.19341037603E+04  0.13016338783E+04 0.  0.
        3    1    3    3  502    0 -0.39778874298E+03  0.40192741024E+03  0.11939662033E+04  0.13211119680E+04  0.10100000352E+00 0. -1.
       -3    1    3    3    0  502  0.39778874298E+03 -0.40192741024E+03  0.23659543562E+03  0.61299179236E+03  0.10100000352E+00 0.  1.
</event>
<event>
 5   0  0.9081324E-04  0.1302387E+04  0.7818609E-02  0.9027674E-01
        1   -1    0    0  501    0  0.00000000000E+00  0.00000000000E+00  0.59261749924E+03  0.59261749926E+03  0.50400001928E-02 0. -1.
       -1   -1    0    0    0  501  0.00000000000E+00  0.00000000000E+00 -0.71555977399E+03  0.71555977400E+03  0.50400001928E-02 0.  1.
    10030    2    1    2    0    0  0.00000000000E+00  0.00000000000E+00 -0.12294227475E+03  0.13081772733E+04  0.13023874137E+04 0.  0.
        4    1    3    3  502    0 -0.30626446398E+03 -0.33371160013E+03 -0.53140814248E+03  0.69825323540E+03  0.12699999809E+01 0.  1.
       -4    1    3    3    0  502  0.30626446398E+03  0.33371160013E+03  0.40846586773E+03  0.60992403786E+03  0.12699999809E+01 0. -1.
</event>
<event>
 5   0  0.1623890E-03  0.1294545E+04  0.7818609E-02  0.9033902E-01
        2   -1    0    0  501    0  0.00000000000E+00  0.00000000000E+00  0.10671640537E+04  0.10671640537E+04  0.25500000920E-02 0. -1.
       -2   -1    0    0    0  501  0.00000000000E+00  0.00000000000E+00 -0.39259362297E+03  0.39259362298E+03  0.25500000920E-02 0.  1.
    10030    2    1    2    0    0  0.00000000000E+00  0.00000000000E+00  0.67457043075E+03  0.14597576767E+04  0.12945451744E+04 0.  0.
        3    1    3    3  502    0 -0.10344871358E+03 -0.17721066226E+02  0.10575048564E+04  0.10627004301E+04  0.10100000352E+00 0. -1.
       -3    1    3    3    0  502  0.10344871358E+03  0.17721066226E+02 -0.38293442568E+03  0.39705724663E+03  0.10100000352E+00 0.  1.
</event>
<event>
 5   0  0.1694675E-03  0.1299708E+04  0.7818609E-02  0.9029796E-01
        2   -1    0    0  501    0  0.00000000000E+00  0.00000000000E+00  0.77107090379E+03  0.77107090380E+03  0.25500000920E-02 0.  1.
       -2   -1    0    0    0  501  0.00000000000E+00  0.00000000000E+00 -0.54769342389E+03  0.54769342389E+03  0.25500000920E-02 0. -1.
    10030    2    1    2    0    0  0.00000000000E+00  0.00000000000E+00  0.22337747991E+03  0.13187643277E+04  0.12997083725E+04 0.  0.
        4    1    3    3  502    0 -0.55820087931E+03  0.24625132985E+03  0.33875749882E+03  0.69784396180E+03  0.12699999809E+01 0.  1.
       -4    1    3    3    0  502  0.55820087931E+03 -0.24625132985E+03 -0.11538001891E+03  0.62092036589E+03  0.12699999809E+01 0. -1.
</event>
<event>
 5   0  0.1700511E-03  0.1305537E+04  0.7818609E-02  0.9025186E-01
        2   -1    0    0  501    0  0.00000000000E+00  0.00000000000E+00  0.13878569075E+04  0.13878569075E+04  0.25500000920E-02 0. -1.
       -2   -1    0    0    0  501  0.00000000000E+00  0.00000000000E+00 -0.30702508477E+03  0.30702508479E+03  0.25500000920E-02 0.  1.
    10030    2    1    2    0    0  0.00000000000E+00  0.00000000000E+00  0.10808318228E+04  0.16948819923E+04  0.13055372606E+04 0.  0.
        2    1    3    3  502    0  0.28936874206E+03 -0.57516946354E+03  0.40087806441E+03  0.75845725206E+03  0.25500000920E-02 0.  1.
       -2    1    3    3    0  502 -0.28936874206E+03  0.57516946354E+03  0.67995375834E+03  0.93642474026E+03  0.25500000920E-02 0. -1.
</event>
<event>
 5   0  0.1700511E-03  0.1293539E+04  0.7818609E-02  0.9034704E-01
        2   -1    0    0  501    0  0.00000000000E+00  0.00000000000E+00  0.30062813261E+03  0.30062813262E+03  0.25500000920E-02 0. -1.
       -2   -1    0    0    0  501  0.00000000000E+00  0.00000000000E+00 -0.13914561341E+04  0.13914561341E+04  0.25500000920E-02 0.  1.
    10030    2    1    2    0    0  0.00000000000E+00  0.00000000000E+00 -0.10908280015E+04  0.16920842667E+04  0.12935391130E+04 0.  0.
        2    1    3    3  502    0 -0.10076092452E+03  0.44595233680E+03  0.53012844157E+02  0.46025711538E+03  0.25500000920E-02 0. -1.
       -2    1    3    3    0  502  0.10076092452E+03 -0.44595233680E+03 -0.11438408456E+04  0.12318271513E+04  0.25500000920E-02 0.  1.
</event>
<event>
 5   0  0.9081324E-04  0.1267884E+04  0.7818609E-02  0.9055428E-01
       -1   -1    0    0    0  501  0.00000000000E+00  0.00000000000E+00  0.23639088920E+03  0.23639088926E+03  0.50400001928E-02 0.  1.
        1   -1    0    0  501    0  0.00000000000E+00  0.00000000000E+00 -0.17000767349E+04  0.17000767349E+04  0.50400001928E-02 0. -1.
    10030    2    1    2    0    0  0.00000000000E+00  0.00000000000E+00 -0.14636858457E+04  0.19364676241E+04  0.12678843025E+04 0.  0.
        4    1    3    3  502    0  0.28479433697E+03  0.42270431498E+03 -0.15611284025E+03  0.53306620983E+03  0.12699999809E+01 0.  1.
       -4    1    3    3    0  502 -0.28479433697E+03 -0.42270431498E+03 -0.13075730054E+04  0.14034014143E+04  0.12699999809E+01 0. -1.
</event>
<event>
 5   0  0.1700511E-03  0.1271289E+04  0.7818609E-02  0.9052648E-01
       -2   -1    0    0    0  501  0.00000000000E+00  0.00000000000E+00  0.55425027132E+03  0.55425027132E+03  0.25500000920E-02 0.  1.
        2   -1    0    0  501    0  0.00000000000E+00  0.00000000000E+00 -0.72899169278E+03  0.72899169279E+03  0.25500000920E-02 0. -1.
    10030    2    1    2    0    0  0.00000000000E+00  0.00000000000E+00 -0.17474142147E+03  0.12832419641E+04  0.12712888634E+04 0.  0.
        2    1    3    3  502    0  0.54327288804E+03 -0.37900112397E+02  0.24352547300E+03  0.59656223934E+03  0.25500000920E-02 0. -1.
       -2    1    3    3    0  502 -0.54327288804E+03  0.37900112397E+02 -0.41826689446E+03  0.68667972477E+03  0.25500000920E-02 0.  1.
</event>
<event>
 5   0  0.1667342E-03  0.1215068E+04  0.7818609E-02  0.9099769E-01
       -2   -1    0    0    0  501  0.00000000000E+00  0.00000000000E+00  0.45323210901E+03  0.45323210902E+03  0.25500000920E-02 0.  1.
        2   -1    0    0  501    0  0.00000000000E+00  0.00000000000E+00 -0.81436730305E+03  0.81436730305E+03  0.25500000920E-02 0. -1.
    10030    2    1    2    0    0  0.00000000000E+00  0.00000000000E+00 -0.36113519404E+03  0.12675994121E+04  0.12150677517E+04 0.  0.
        5    1    3    3  502    0  0.29318898784E+03  0.28146836786E+03  0.29049721498E+03  0.49959478241E+03  0.46999998093E+01 0.  1.
       -5    1    3    3    0  502 -0.29318898784E+03 -0.28146836786E+03 -0.65163240902E+03  0.76800462966E+03  0.46999998093E+01 0. -1.
</event>
<event>
 5   0  0.1667342E-03  0.1323666E+04  0.7818609E-02  0.9011006E-01
        2   -1    0    0  501    0  0.00000000000E+00  0.00000000000E+00  0.13662474154E+04  0.13662474154E+04  0.25500000920E-02 0.  1.
       -2   -1    0    0    0  501  0.00000000000E+00  0.00000000000E+00 -0.32060268481E+03  0.32060268482E+03  0.25500000920E-02 0. -1.
    10030    2    1    2    0    0  0.00000000000E+00  0.00000000000E+00  0.10456447306E+04  0.16868501002E+04  0.13236655008E+04 0.  0.
        5    1    3    3  502    0 -0.26249110219E+03  0.52859685655E+03  0.90446458588E+03  0.10799974503E+04  0.46999998093E+01 0.  1.
       -5    1    3    3    0  502  0.26249110219E+03 -0.52859685655E+03  0.14118014469E+03  0.60685264994E+03  0.46999998093E+01 0. -1.
</event>
<event>
 5   0  0.1623890E-03  0.1353511E+04  0.7818609E-02  0.8988174E-01
        2   -1    0    0  501    0  0.00000000000E+00  0.00000000000E+00  0.10760692184E+04  0.10760692184E+04  0.25500000920E-02 0.  1.
       -2   -1    0    0    0  501  0.00000000000E+00  0.00000000000E+00 -0.42562157684E+03  0.42562157685E+03  0.25500000920E-02 0. -1.
    10030    2    1    2    0    0  0.00000000000E+00  0.00000000000E+00  0.65044764152E+03  0.15016907952E+04  0.13535114000E+04 0.  0.
        3    1    3    3  502    0 -0.45648496974E+02  0.66798641359E+03  0.43454332399E+03  0.79819643237E+03  0.10100000352E+00 0. -1.
       -3    1    3    3    0  502  0.45648496974E+02 -0.66798641359E+03  0.21590431753E+03  0.70349436284E+03  0.10100000352E+00 0.  1.
</event>
<event>
 5   0  0.9027076E-04  0.1314434E+04  0.7818609E-02  0.9018197E-01
        1   -1    0    0  501    0  0.00000000000E+00  0.00000000000E+00  0.66437222557E+03  0.66437222559E+03  0.50400001928E-02 0.  1.
       -1   -1    0    0    0  501  0.00000000000E+00  0.00000000000E+00 -0.65013872626E+03  0.65013872628E+03  0.50400001928E-02 0. -1.
    10030    2    1    2    0    0  0.00000000000E+00  0.00000000000E+00  0.14233499310E+02  0.13145109519E+04  0.13144338896E+04 0.  0.
        5    1    3    3  502    0 -0.17299467451E+03  0.11493718207E+03 -0.61643749542E+03  0.65050364256E+03  0.46999998093E+01 0. -1.
       -5    1    3    3    0  502  0.17299467451E+03 -0.11493718207E+03  0.63067099473E+03  0.66400730931E+03  0.46999998093E+01 0.  1.
</event>
<event>
 5   0  0.9098192E-04  0.1294091E+04  0.7818609E-02  0.9034264E-01
        1   -1    0    0  501    0  0.00000000000E+00  0.00000000000E+00  0.17197254367E+04  0.17197254367E+04  0.50400001928E-02 0. -1.
       -1   -1    0    0    0  501  0.00000000000E+00  0.00000000000E+00 -0.24345043113E+03  0.24345043118E+03  0.50400001928E-02 0.  1.
    10030    2    1    2    0    0  0.00000000000E+00  0.00000000000E+00  0.14762750056E+04  0.19631758679E+04  0.12940910309E+04 0.  0.
        1    1    3    3  502    0 -0.44607418907E+03 -0.29959488731E+03  0.19131447762E+03  0.57038627966E+03  0.50400001928E-02 0.  1.
       -1    1    3    3    0  502  0.44607418907E+03  0.29959488731E+03  0.12849605280E+04  0.13927895882E+04  0.50400001928E-02 0. -1.
</event>
<event>
 5   0  0.1623890E-03  0.1300991E+04  0.7818609E-02  0.9028780E-01
       -2   -1    0    0    0  501  0.00000000000E+00  0.00000000000E+00  0.27542643767E+03  0.27542643768E+03  0.25500000920E-02 0.  1.
        2   -1    0    0  501    0  0.00000000000E+00  0.00000000000E+00 -0.15363244231E+04  0.15363244231E+04  0.25500000920E-02 0. -1.
    10030    2    1    2    0    0  0.00000000000E+00  0.00000000000E+00 -0.12608979855E+04  0.18117508608E+04  0.13009909500E+04 0.  0.
        3    1    3    3  502    0 -0.37521148412E+03  0.62549815569E+02 -0.13652951380E+04  0.14172956506E+04  0.10100000352E+00 0. -1.
       -3    1    3    3    0  502  0.37521148412E+03 -0.62549815569E+02  0.10439715247E+03  0.39445521024E+03  0.10100000352E+00 0.  1.
</event>
<event>
 5   0  0.9110949E-04  0.1304298E+04  0.7818609E-02  0.9026164E-01
       -1   -1    0    0    0  501  0.00000000000E+00  0.00000000000E+00  0.82868330890E+03  0.82868330892E+03  0.50400001928E-02 0. -1.
        1   -1    0    0  501    0  0.00000000000E+00  0.00000000000E+00 -0.51322171926E+03  0.51322171929E+03  0.50400001928E-02 0.  1.
    10030    2    1    2    0    0  0.00000000000E+00  0.00000000000E+00  0.31546158964E+03  0.13419050282E+04  0.13042979300E+04 0.  0.
        2    1    3    3  502    0  0.22190534346E+03  0.69705226250E+02 -0.46909589542E+03  0.52359503352E+03  0.25500000920E-02 0.  1.
       -2    1    3    3    0  502 -0.22190534346E+03 -0.69705226250E+02  0.78455748506E+03  0.81830999468E+03  0.25500000920E-02 0. -1.
</event>
<event>
 5   0  0.1694675E-03  0.1310594E+04  0.7818609E-02  0.9021206E-01
       -2   -1    0    0    0  501  0.00000000000E+00  0.00000000000E+00  0.29950312517E+03  0.29950312518E+03  0.25500000920E-02 0.  1.
        2   -1    0    0  501    0  0.00000000000E+00  0.00000000000E+00 -0.14337541325E+04  0.14337541325E+04  0.25500000920E-02 0. -1.
    10030    2    1    2    0    0  0.00000000000E+00  0.00000000000E+00 -0.11342510073E+04  0.17332572577E+04  0.13105935196E+04 0.  0.
        4    1    3    3  502    0 -0.50136630198E+03 -0.35594545105E+03 -0.86680160881E+03  0.10627379615E+04  0.12699999809E+01 0.  1.
       -4    1    3    3    0  502  0.50136630198E+03  0.35594545105E+03 -0.26744939850E+03  0.67051929617E+03  0.12699999809E+01 0. -1.
</event>
<event>
 5   0  0.6284125E-04  0.1287339E+04  0.7818609E-02  0.9039666E-01
        3   -1    0    0  501    0  0.00000000000E+00  0.00000000000E+00  0.48763971113E+03  0.48763972159E+03  0.10100000352E+00 0.  1.
       -3   -1    0    0    0  501  0.00000000000E+00  0.00000000000E+00 -0.84962348376E+03  0.84962348976E+03  0.10100000352E+00 0. -1.
    10030    2    1    2    0    0  0.00000000000E+00  0.00000000000E+00 -0.36198377262E+03  0.13372632114E+04  0.12873385898E+04 0.  0.
        5    1    3    3  502    0  0.29089963852E+03 -0.19699251288E+03 -0.74122100357E+03  0.82028002289E+03  0.46999998093E+01 0. -1.
       -5    1    3    3    0  502 -0.29089963852E+03  0.19699251288E+03  0.37923723095E+03  0.51698318846E+03  0.46999998093E+01 0.  1.
</event>
<event>
 5   0  0.9081324E-04  0.1286361E+04  0.7818609E-02  0.9040451E-01
       -1   -1    0    0    0  501  0.00000000000E+00  0.00000000000E+00  0.30304265946E+03  0.30304265950E+03  0.50400001928E-02 0. -1.
        1   -1    0    0  501    0  0.00000000000E+00  0.00000000000E+00 -0.13650930429E+04  0.13650930429E+04  0.50400001928E-02 0.  1.
    10030    2    1    2    0    0  0.00000000000E+00  0.00000000000E+00 -0.10620503835E+04  0.16681357024E+04  0.12863614207E+04 0.  0.
        4    1    3    3  502    0  0.61574614444E+02 -0.22582102760E+03 -0.13078999522E+04  0.13286799719E+04  0.12699999809E+01 0.  1.
       -4    1    3    3    0  502 -0.61574614444E+02  0.22582102760E+03  0.24584956878E+03  0.33945573057E+03  0.12699999809E+01 0. -1.
</event>
<event>
 5   0  0.1694675E-03  0.1302333E+04  0.7818609E-02  0.9027717E-01
        2   -1    0    0  501    0  0.00000000000E+00  0.00000000000E+00  0.18511173713E+04  0.18511173713E+04  0.25500000920E-02 0. -1.
       -2   -1    0    0    0  501  0.00000000000E+00  0.00000000000E+00 -0.22906044894E+03  0.22906044895E+03  0.25500000920E-02 0.  1.
    10030    2    1    2    0    0  0.00000000000E+00  0.00000000000E+00  0.16220569224E+04  0.20801778202E+04  0.13023329469E+04 0.  0.
        4    1    3    3  502    0  0.39176561843E+03 -0.51614874716E+03  0.91363159722E+03  0.11200955929E+04  0.12699999809E+01 0. -1.
       -4    1    3    3    0  502 -0.39176561843E+03  0.51614874716E+03  0.70842532513E+03  0.96008222730E+03  0.12699999809E+01 0.  1.
</event>
<event>
 5   0  0.1714861E-03  0.1316779E+04  0.7818609E-02  0.9016364E-01
        2   -1    0    0  501    0  0.00000000000E+00  0.00000000000E+00  0.61805878884E+03  0.61805878884E+03  0.25500000920E-02 0.  1.
       -2   -1    0    0    0  501  0.00000000000E+00  0.00000000000E+00 -0.70135225253E+03  0.70135225253E+03  0.25500000920E-02 0. -1.
    10030    2    1    2    0    0  0.00000000000E+00  0.00000000000E+00 -0.83293463692E+02  0.13194110414E+04  0.13167792886E+04 0.  0.
        1    1    3    3  502    0 -0.60991471808E+03 -0.20296519584E+03  0.10106717576E+03  0.65069609503E+03  0.50400001928E-02 0.  1.
       -1    1    3    3    0  502  0.60991471808E+03  0.20296519584E+03 -0.18436063945E+03  0.66871494634E+03  0.50400001928E-02 0. -1.
</event>
<event>
 5   0  0.1700511E-03  0.1298164E+04  0.7818609E-02  0.9031022E-01
        2   -1    0    0  501    0  0.00000000000E+00  0.00000000000E+00  0.68534673246E+03  0.68534673246E+03  0.25500000920E-02 0.  1.
       -2   -1    0    0    0  501  0.00000000000E+00  0.00000000000E+00 -0.61473654959E+03  0.61473654959E+03  0.25500000920E-02 0. -1.
    10030    2    1    2    0    0  0.00000000000E+00  0.00000000000E+00  0.70610182872E+02  0.13000832821E+04  0.12981643742E+04 0.  0.
        2    1    3    3  502    0  0.53160381173E+03 -0.22153377810E+03  0.33512674574E+03  0.66632556847E+03  0.25500000920E-02 0.  1.
       -2    1    3    3    0  502 -0.53160381173E+03  0.22153377810E+03 -0.26451656286E+03  0.63375771358E+03  0.25500000920E-02 0. -1.
</event>
<event>
 5   0  0.9215829E-04  0.1277256E+04  0.7818609E-02  0.9047798E-01
        1   -1    0    0  501    0  0.00000000000E+00  0.00000000000E+00  0.10506700902E+04  0.10506700902E+04  0.50400001928E-02 0. -1.
       -1   -1    0    0    0  501  0.00000000000E+00  0.00000000000E+00 -0.38817692406E+03  0.38817692409E+03  0.50400001928E-02 0.  1.
    10030    2    1    2    0    0  0.00000000000E+00  0.00000000000E+00  0.66249316616E+03  0.14388470143E+04  0.12772562528E+04 0.  0.
        3    1    3    3  502    0  0.32394778200E+03 -0.20217719082E+03 -0.24540104433E+03  0.45391570221E+03  0.10100000352E+00 0.  1.
       -3    1    3    3    0  502 -0.32394778200E+03  0.20217719082E+03  0.90789421049E+03  0.98493131212E+03  0.10100000352E+00 0. -1.
</event>
<event>
 5   0  0.6284125E-04  0.1301600E+04  0.7818609E-02  0.9028297E-01
        3   -1    0    0  501    0  0.00000000000E+00  0.00000000000E+00  0.56650419395E+03  0.56650420295E+03  0.10100000352E+00 0.  1.
       -3   -1    0    0    0  501  0.00000000000E+00  0.00000000000E+00 -0.74763917990E+03  0.74763918672E+03  0.10100000352E+00 0. -1.
    10030    2    1    2    0    0  0.00000000000E+00  0.00000000000E+00 -0.18113498596E+03  0.13141433897E+04  0.13016001558E+04 0.  0.
        3    1    3    3  502    0  0.23598728632E+03 -0.52629118203E+03 -0.39491617184E+03  0.69902160236E+03  0.10100000352E+00 0. -1.
       -3    1    3    3    0  502 -0.23598728632E+03  0.52629118203E+03  0.21378118589E+03  0.61512178731E+03  0.10100000352E+00 0.  1.
</event>
<event>
 5   0  0.9098192E-04  0.1301887E+04  0.7818609E-02  0.9028070E-01
       -1   -1    0    0    0  501  0.00000000000E+00  0.00000000000E+00  0.64147867940E+03  0.64147867942E+03  0.50400001928E-02 0. -1.
        1   -1    0    0  501    0  0.00000000000E+00  0.00000000000E+00 -0.66054838665E+03  0.66054838666E+03  0.50400001928E-02 0.  1.
    10030    2    1    2    0    0  0.00000000000E+00  0.00000000000E+00 -0.19069707249E+02  0.13020270661E+04  0.13018874095E+04 0.  0.
        1    1    3    3  502    0  0.53842003701E+02  0.54081717345E+01 -0.65829504216E+03  0.66051538380E+03  0.50400001928E-02 0.  1.
       -1    1    3    3    0  502 -0.53842003701E+02 -0.54081717345E+01  0.63922533491E+03  0.64151168228E+03  0.50400001928E-02 0. -1.
</event>
<event>
 5   0  0.9110949E-04  0.1314641E+04  0.7818609E-02  0.9018035E-01
        1   -1    0    0  501    0  0.00000000000E+00  0.00000000000E+00  0.97933534921E+03  0.97933534922E+03  0.50400001928E-02 0.  1.
       -1   -1    0    0    0  501  0.00000000000E+00  0.00000000000E+00 -0.44118727724E+03  0.44118727727E+03  0.50400001928E-02 0. -1.
    10030    2    1    2    0    0  0.00000000000E+00  0.00000000000E+00  0.53814807197E+03  0.14205226265E+04  0.13146410860E+04 0.  0.
        2    1    3    3  502    0 -0.61342630857E+03 -0.17046130734E+03  0.44570652235E+03  0.77717642618E+03  0.25500000920E-02 0.  1.
       -2    1    3    3    0  502  0.61342630857E+03  0.17046130734E+03  0.92441549621E+02  0.64334620031E+03  0.25500000920E-02 0. -1.
</event>
<event>
 5   0  0.1700511E-03  0.1240965E+04  0.7818609E-02  0.9077736E-01
       -2   -1    0    0    0  501  0.00000000000E+00  0.00000000000E+00  0.22675120160E+03  0.22675120161E+03  0.25500000920E-02 0.  1.
        2   -1    0    0  501    0  0.00000000000E+00  0.00000000000E+00 -0.16978908138E+04  0.16978908138E+04  0.25500000920E-02 0. -1.
    10030    2    1    2    0    0  0.00000000000E+00  0.00000000000E+00 -0.14711396122E+04  0.19246420154E+04  0.12409654020E+04 0.  0.
        2    1    3    3  502    0 -0.28179447275E+02  0.53310124829E+03 -0.12260338096E+04  0.13372172315E+04  0.25500000920E-02 0.  1.
       -2    1    3    3    0  502  0.28179447275E+02 -0.53310124829E+03 -0.24510580260E+03  0.58742478382E+03  0.25500000920E-02 0. -1.
</event>
<event>
 5   0  0.1667342E-03  0.1290722E+04  0.7818609E-02  0.9036955E-01
        2   -1    0    0  501    0  0.00000000000E+00  0.00000000000E+00  0.14496454241E+04  0.14496454241E+04  0.25500000920E-02 0. -1.
       -2   -1    0    0    0  501  0.00000000000E+00  0.00000000000E+00 -0.28730544413E+03  0.28730544414E+03  0.25500000920E-02 0.  1.
    10030    2    1    2    0    0  0.00000000000E+00  0.00000000000E+00  0.11623399799E+04  0.17369508682E+04  0.12907223131E+04 0.  0.
        5    1    3    3  502    0  0.38959145638E+03  0.51327795018E+03  0.53391288215E+03  0.83685172686E+03  0.46999998093E+01 0. -1.
       -5    1    3    3    0  502 -0.38959145638E+03 -0.51327795018E+03  0.62842709779E+03  0.90009914135E+03  0.46999998093E+01 0.  1.
</event>
<event>
 5   0  0.9098192E-04  0.1315543E+04  0.7818609E-02  0.9017329E-01
       -1   -1    0    0    0  501  0.00000000000E+00  0.00000000000E+00  0.79735623634E+03  0.79735623635E+03  0.50400001928E-02 0.  1.
        1   -1    0    0  501    0  0.00000000000E+00  0.00000000000E+00 -0.54262274571E+03  0.54262274573E+03  0.50400001928E-02 0. -1.
    10030    2    1    2    0    0  0.00000000000E+00  0.00000000000E+00  0.25473349063E+03  0.13399789821E+04  0.13155434319E+04 0.  0.
        1    1    3    3  502    0  0.29413084671E+02  0.58156865818E+03 -0.18421783301E+03  0.61075645207E+03  0.50400001928E-02 0. -1.
       -1    1    3    3    0  502 -0.29413084671E+02 -0.58156865818E+03  0.43895132364E+03  0.72922253001E+03  0.50400001928E-02 0.  1.
</event>
<event>
 5   0  0.1714861E-03  0.1300692E+04  0.7818609E-02  0.9029017E-01
       -2   -1    0    0    0  501  0.00000000000E+00  0.00000000000E+00  0.68597879770E+03  0.68597879771E+03  0.25500000920E-02 0.  1.
        2   -1    0    0  501    0  0.00000000000E+00  0.00000000000E+00 -0.61656400130E+03  0.61656400130E+03  0.25500000920E-02 0. -1.
    10030    2    1    2    0    0  0.00000000000E+00  0.00000000000E+00  0.69414796408E+02  0.13025427990E+04  0.13006918656E+04 0.  0.
        1    1    3    3  502    0  0.25051521572E+03  0.11074407467E+03 -0.55598595869E+03  0.61979231172E+03  0.50400001928E-02 0. -1.
       -1    1    3    3    0  502 -0.25051521572E+03 -0.11074407467E+03  0.62540075510E+03  0.68275048729E+03  0.50400001928E-02 0.  1.
</event>
<event>
 5   0  0.9098192E-04  0.1289839E+04  0.7818609E-02  0.9037662E-01
       -1   -1    0    0    0  501  0.00000000000E+00  0.00000000000E+00  0.71981008376E+03  0.71981008377E+03  0.50400001928E-02 0. -1.
        1   -1    0    0  501    0  0.00000000000E+00  0.00000000000E+00 -0.57782099837E+03  0.57782099839E+03  0.50400001928E-02 0.  1.
    10030    2    1    2    0    0  0.00000000000E+00  0.00000000000E+00  0.14198908539E+03  0.12976310822E+04  0.12898393408E+04 0.  0.
        1    1    3    3  502    0  0.20989646343E+03 -0.17208721371E+03  0.65955067120E+03  0.71321639240E+03  0.50400001928E-02 0. -1.
       -1    1    3    3    0  502 -0.20989646343E+03  0.17208721371E+03 -0.51756158581E+03  0.58441468977E+03  0.50400001928E-02 0.  1.
</event>
<event>
 5   0  0.1667342E-03  0.1303719E+04  0.7818609E-02  0.9026621E-01
        2   -1    0    0  501    0  0.00000000000E+00  0.00000000000E+00  0.27960504850E+04  0.27960504850E+04  0.25500000920E-02 0.  1.
       -2   -1    0    0    0  501  0.00000000000E+00  0.00000000000E+00 -0.15197183378E+03  0.15197183380E+03  0.25500000920E-02 0. -1.
    10030    2    1    2    0    0  0.00000000000E+00  0.00000000000E+00  0.26440786512E+04  0.29480223188E+04  0.13037191716E+04 0.  0.
        5    1    3    3  502    0  0.68053930789E+02 -0.39006301135E+03  0.24929128219E+04  0.25241665789E+04  0.46999998093E+01 0.  1.
       -5    1    3    3    0  502 -0.68053930789E+02  0.39006301135E+03  0.15116582933E+03  0.42385573994E+03  0.46999998093E+01 0. -1.
</event>
<event>
 5   0  0.1714861E-03  0.1299139E+04  0.7818609E-02  0.9030248E-01
       -2   -1    0    0    0  501  0.00000000000E+00  0.00000000000E+00  0.11037611770E+04  0.11037611770E+04  0.25500000920E-02 0. -1.
        2   -1    0    0  501    0  0.00000000000E+00  0.00000000000E+00 -0.38227545748E+03  0.38227545749E+03  0.25500000920E-02 0.  1.
    10030    2    1    2    0    0  0.00000000000E+00  0.00000000000E+00  0.72148571951E+03  0.14860366345E+04  0.12991394211E+04 0.  0.
        1    1    3    3  502    0 -0.27564172564E+03 -0.37227124765E+01 -0.31204715433E+03  0.41637200441E+03  0.50400001928E-02 0.  1.
       -1    1    3    3    0  502  0.27564172564E+03  0.37227124765E+01  0.10335328738E+04  0.10696646301E+04  0.50400001928E-02 0. -1.
</event>
<event>
 5   0  0.1667342E-03  0.1334662E+04  0.7818609E-02  0.9002521E-01
        2   -1    0    0  501    0  0.00000000000E+00  0.00000000000E+00  0.17618589723E+04  0.17618589723E+04  0.25500000920E-02 0. -1.
       -2   -1    0    0    0  501  0.00000000000E+00  0.00000000000E+00 -0.25276177359E+03  0.25276177360E+03  0.25500000920E-02 0.  1.
    10030    2    1    2    0    0  0.00000000000E+00  0.00000000000E+00  0.15090971987E+04  0.20146207459E+04  0.13346619028E+04 0.  0.
        5    1    3    3  502    0  0.38178778446E+03 -0.29948739444E+03  0.63067112676E+02  0.48934053837E+03  0.46999998093E+01 0.  1.
       -5    1    3    3    0  502 -0.38178778446E+03  0.29948739444E+03  0.14460300860E+04  0.15252802075E+04  0.46999998093E+01 0. -1.
</event>
<event>
 5   0  0.1667342E-03  0.1304247E+04  0.7818609E-02  0.9026204E-01
        2   -1    0    0  501    0  0.00000000000E+00  0.00000000000E+00  0.47904994666E+03  0.47904994666E+03  0.25500000920E-02 0. -1.
       -2   -1    0    0    0  501  0.00000000000E+00  0.00000000000E+00 -0.88772573057E+03  0.88772573058E+03  0.25500000920E-02 0.  1.
    10030    2    1    2    0    0  0.00000000000E+00  0.00000000000E+00 -0.40867578392E+03  0.13667756772E+04  0.13042468538E+04 0.  0.
        5    1    3    3  502    0 -0.52735988999E+03  0.19708495567E+03 -0.54919208587E+03  0.78650172950E+03  0.46999998093E+01 0.  1.
       -5    1    3    3    0  502  0.52735988999E+03 -0.19708495567E+03  0.14051630195E+03  0.58027394775E+03  0.46999998093E+01 0. -1.
</event>
<event>
 5   0  0.6284125E-04  0.1301490E+04  0.7818609E-02  0.9028384E-01
       -4   -1    0    0    0  501  0.00000000000E+00  0.00000000000E+00  0.50360663089E+03  0.50360823223E+03  0.12699999809E+01 0.  1.
        4   -1    0    0  501    0  0.00000000000E+00  0.00000000000E+00 -0.84086977616E+03  0.84087073522E+03  0.12699999809E+01 0. -1.
    10030    2    1    2    0    0  0.00000000000E+00  0.00000000000E+00 -0.33726314527E+03  0.13444789675E+04  0.13014904013E+04 0.  0.
        5    1    3    3  502    0  0.45647368366E+03 -0.39428656151E+03  0.83599450704E+02  0.60896721966E+03  0.46999998093E+01 0.  1.
       -5    1    3    3    0  502 -0.45647368366E+03  0.39428656151E+03 -0.42086259598E+03  0.73551174780E+03  0.46999998093E+01 0. -1.
</event>
<event>
 5   0  0.1623890E-03  0.1308046E+04  0.7818609E-02  0.9023209E-01
       -2   -1    0    0    0  501  0.00000000000E+00  0.00000000000E+00  0.76398908265E+03  0.76398908265E+03  0.25500000920E-02 0. -1.
        2   -1    0    0  501    0  0.00000000000E+00  0.00000000000E+00 -0.55988468998E+03  0.55988468998E+03  0.25500000920E-02 0.  1.
    10030    2    1    2    0    0  0.00000000000E+00  0.00000000000E+00  0.20410439267E+03  0.13238737726E+04  0.13080455507E+04 0.  0.
        3    1    3    3  502    0  0.18984995552E+03  0.55108301169E+03  0.40230732498E+03  0.70822784845E+03  0.10100000352E+00 0. -1.
       -3    1    3    3    0  502 -0.18984995552E+03 -0.55108301169E+03 -0.19820293231E+03  0.61564592418E+03  0.10100000352E+00 0.  1.
</event>
<event>
 5   0  0.9110949E-04  0.1296717E+04  0.7818609E-02  0.9032173E-01
        1   -1    0    0  501    0  0.00000000000E+00  0.00000000000E+00  0.80206454826E+03  0.80206454828E+03  0.50400001928E-02 0. -1.
       -1   -1    0    0    0  501  0.00000000000E+00  0.00000000000E+00 -0.52410851670E+03  0.52410851672E+03  0.50400001928E-02 0.  1.
    10030    2    1    2    0    0  0.00000000000E+00  0.00000000000E+00  0.27795603156E+03  0.13261730650E+04  0.12967171792E+04 0.  0.
        2    1    3    3  502    0  0.50981649440E+02  0.64563837561E+03  0.17001234232E+03  0.66959109701E+03  0.25500000920E-02 0. -1.
       -2    1    3    3    0  502 -0.50981649440E+02 -0.64563837561E+03  0.10794368925E+03  0.65658196800E+03  0.25500000920E-02 0.  1.
</event>
<event>
 5   0  0.1694675E-03  0.1254753E+04  0.7818609E-02  0.9066237E-01
       -2   -1    0    0    0  501  0.00000000000E+00  0.00000000000E+00  0.25412271411E+03  0.25412271412E+03  0.25500000920E-02 0. -1.
        2   -1    0    0  501    0  0.00000000000E+00  0.00000000000E+00 -0.15488622363E+04  0.15488622363E+04  0.25500000920E-02 0.  1.
    10030    2    1    2    0    0  0.00000000000E+00  0.00000000000E+00 -0.12947395222E+04  0.18029849504E+04  0.12547526852E+04 0.  0.
        4    1    3    3  502    0  0.55727994204E+03 -0.15115653534E+03 -0.29483903881E+03  0.64833702940E+03  0.12699999809E+01 0. -1.
       -4    1    3    3    0  502 -0.55727994204E+03  0.15115653534E+03 -0.99990048338E+03  0.11546479210E+04  0.12699999809E+01 0.  1.
</event>
<event>
 5   0  0.9215829E-04  0.1303026E+04  0.7818609E-02  0.9027169E-01
       -1   -1    0    0    0  501  0.00000000000E+00  0.00000000000E+00  0.15530149615E+03  0.15530149623E+03  0.50400001928E-02 0.  1.
        1   -1    0    0  501    0  0.00000000000E+00  0.00000000000E+00 -0.27331948354E+04  0.27331948354E+04  0.50400001928E-02 0. -1.
    10030    2    1    2    0    0  0.00000000000E+00  0.00000000000E+00 -0.25778933393E+04  0.28884963317E+04  0.13030260893E+04 0.  0.
        3    1    3    3  502    0 -0.37658636987E+03 -0.40650298118E+03 -0.52937946895E+03  0.76635801035E+03  0.10100000352E+00 0. -1.
       -3    1    3    3    0  502  0.37658636987E+03  0.40650298118E+03 -0.20485138703E+04  0.21221383213E+04  0.10100000352E+00 0.  1.
</event>
<event>
 5   0  0.1623890E-03  0.1343324E+04  0.7818609E-02  0.8995897E-01
       -2   -1    0    0    0  501  0.00000000000E+00  0.00000000000E+00  0.66020041723E+03  0.66020041724E+03  0.25500000920E-02 0.  1.
        2   -1    0    0  501    0  0.00000000000E+00  0.00000000000E+00 -0.68332276072E+03  0.68332276073E+03  0.25500000920E-02 0. -1.
    10030    2    1    2    0    0  0.00000000000E+00  0.00000000000E+00 -0.23122343489E+02  0.13435231780E+04  0.13433241928E+04 0.  0.
        3    1    3    3  502    0  0.12289519325E+02 -0.97896104666E+02  0.65291310048E+03  0.66032583364E+03  0.10100000352E+00 0.  1.
       -3    1    3    3    0  502 -0.12289519325E+02  0.97896104666E+02 -0.67603544397E+03  0.68319734433E+03  0.10100000352E+00 0. -1.
</event>
<event>
 5   0  0.9081324E-04  0.1288429E+04  0.7818609E-02  0.9038792E-01
        1   -1    0    0  501    0  0.00000000000E+00  0.00000000000E+00  0.67093988347E+03  0.67093988349E+03  0.50400001928E-02 0. -1.
       -1   -1    0    0    0  501  0.00000000000E+00  0.00000000000E+00 -0.61855361191E+03  0.61855361193E+03  0.50400001928E-02 0.  1.
    10030    2    1    2    0    0  0.00000000000E+00  0.00000000000E+00  0.52386271566E+02  0.12894934954E+04  0.12884289477E+04 0.  0.
        4    1    3    3  502    0  0.56217274298E+03  0.24373038394E+03 -0.17288824076E+03  0.63665897441E+03  0.12699999809E+01 0.  1.
       -4    1    3    3    0  502 -0.56217274298E+03 -0.24373038394E+03  0.22527451233E+03  0.65283452100E+03  0.12699999809E+01 0. -1.
</event>
<event>
 5   0  0.1714861E-03  0.1287004E+04  0.7818609E-02  0.9039935E-01
        2   -1    0    0  501    0  0.00000000000E+00  0.00000000000E+00  0.77755945037E+03  0.77755945037E+03  0.25500000920E-02 0.  1.
       -2   -1    0    0    0  501  0.00000000000E+00  0.00000000000E+00 -0.53255684670E+03  0.53255684671E+03  0.25500000920E-02 0. -1.
    10030    2    1    2    0    0  0.00000000000E+00  0.00000000000E+00  0.24500260366E+03  0.13101162971E+04  0.12870036659E+04 0.  0.
        1    1    3    3  502    0  0.71121858653E+02  0.21240434759E+03 -0.49159069115E+03  0.54021785726E+03  0.50400001928E-02 0. -1.
       -1    1    3    3    0  502 -0.71121858653E+02 -0.21240434759E+03  0.73659329481E+03  0.76989843982E+03  0.50400001928E-02 0.  1.
</event>
<event>
 5   0  0.9027076E-04  0.1313930E+04  0.7818609E-02  0.9018591E-01
       -1   -1    0    0    0  501  0.00000000000E+00  0.00000000000E+00  0.56236213564E+03  0.56236213566E+03  0.50400001928E-02 0. -1.
        1   -1    0    0  501    0  0.00000000000E+00  0.00000000000E+00 -0.76748238371E+03  0.76748238373E+03  0.50400001928E-02 0.  1.
    10030    2    1    2    0    0  0.00000000000E+00  0.00000000000E+00 -0.20512024807E+03  0.13298445194E+04  0.13139300322E+04 0.  0.
        5    1    3    3  502    0  0.11098329038E+03 -0.28741351376E+03  0.48468920983E+03  0.57434270149E+03  0.46999998093E+01 0. -1.
       -5    1    3    3    0  502 -0.11098329038E+03  0.28741351376E+03 -0.68980945791E+03  0.75550181790E+03  0.46999998093E+01 0.  1.
</event>
<event>
 5   0  0.9081324E-04  0.1291197E+04  0.7818609E-02  0.9036576E-01
       -1   -1    0    0    0  501  0.00000000000E+00  0.00000000000E+00  0.30926453255E+03  0.30926453259E+03  0.50400001928E-02 0. -1.
        1   -1    0    0  501    0  0.00000000000E+00  0.00000000000E+00 -0.13477043398E+04  0.13477043398E+04  0.50400001928E-02 0.  1.
    10030    2    1    2    0    0  0.00000000000E+00  0.00000000000E+00 -0.10384398073E+04  0.16569688724E+04  0.12911965810E+04 0.  0.
        4    1    3    3  502    0 -0.41651633375E+03  0.11691878197E+03  0.95738089596E+02  0.44308379858E+03  0.12699999809E+01 0. -1.
       -4    1    3    3    0  502  0.41651633375E+03 -0.11691878197E+03 -0.11341778969E+04  0.12138850738E+04  0.12699999809E+01 0.  1.
</event>
<event>
 5   0  0.1623890E-03  0.1291214E+04  0.7818609E-02  0.9036562E-01
       -2   -1    0    0    0  501  0.00000000000E+00  0.00000000000E+00  0.30733253733E+03  0.30733253734E+03  0.25500000920E-02 0. -1.
        2   -1    0    0  501    0  0.00000000000E+00  0.00000000000E+00 -0.13562124754E+04  0.13562124754E+04  0.25500000920E-02 0.  1.
    10030    2    1    2    0    0  0.00000000000E+00  0.00000000000E+00 -0.10488799381E+04  0.16635450128E+04  0.12912137255E+04 0.  0.
        3    1    3    3  502    0 -0.68193786726E+02  0.17470094628E+03  0.27146622715E+03  0.32994656516E+03  0.10100000352E+00 0. -1.
       -3    1    3    3    0  502  0.68193786726E+02 -0.17470094628E+03 -0.13203461652E+04  0.13335984476E+04  0.10100000352E+00 0.  1.
</event>
<event>
 5   0  0.9027076E-04  0.1223436E+04  0.7818609E-02  0.9092587E-01
       -1   -1    0    0    0  501  0.00000000000E+00  0.00000000000E+00  0.10175840658E+04  0.10175840659E+04  0.50400001928E-02 0. -1.
        1   -1    0    0  501    0  0.00000000000E+00  0.00000000000E+00 -0.36773245603E+03  0.36773245606E+03  0.50400001928E-02 0.  1.
    10030    2    1    2    0    0  0.00000000000E+00  0.00000000000E+00  0.64985160982E+03  0.13853165219E+04  0.12234356342E+04 0.  0.
        5    1    3    3  502    0  0.40009271736E+03  0.12078170029E+03  0.83069781275E+03  0.92991577453E+03  0.46999998093E+01 0. -1.
       -5    1    3    3    0  502 -0.40009271736E+03 -0.12078170029E+03 -0.18084620294E+03  0.45540074739E+03  0.46999998093E+01 0.  1.
</event>
<event>
 5   0  0.9215829E-04  0.1266012E+04  0.7818609E-02  0.9056961E-01
        1   -1    0    0  501    0  0.00000000000E+00  0.00000000000E+00  0.47011961339E+03  0.47011961342E+03  0.50400001928E-02 0.  1.
       -1   -1    0    0    0  501  0.00000000000E+00  0.00000000000E+00 -0.85232852246E+03  0.85232852248E+03  0.50400001928E-02 0. -1.
    10030    2    1    2    0    0  0.00000000000E+00  0.00000000000E+00 -0.38220890907E+03  0.13224481359E+04  0.12660116200E+04 0.  0.
        3    1    3    3  502    0  0.33070122683E+03 -0.23532508719E+03 -0.69851055543E+03  0.80787264116E+03  0.10100000352E+00 0. -1.
       -3    1    3    3    0  502 -0.33070122683E+03  0.23532508719E+03  0.31630164636E+03  0.51457549473E+03  0.10100000352E+00 0.  1.
</event>
<event>
 5   0  0.9110949E-04  0.1325993E+04  0.7818609E-02  0.9009203E-01
       -1   -1    0    0    0  501  0.00000000000E+00  0.00000000000E+00  0.61293609637E+03  0.61293609639E+03  0.50400001928E-02 0. -1.
        1   -1    0    0  501    0  0.00000000000E+00  0.00000000000E+00 -0.71714528702E+03  0.71714528703E+03  0.50400001928E-02 0.  1.
    10030    2    1    2    0    0  0.00000000000E+00  0.00000000000E+00 -0.10420919064E+03  0.13300813834E+04  0.13259928096E+04 0.  0.
        2    1    3    3  502    0 -0.27364546918E+03 -0.58975631616E+03 -0.18238917332E+03  0.67524822533E+03  0.25500000920E-02 0. -1.
       -2    1    3    3    0  502  0.27364546918E+03  0.58975631616E+03  0.78179982675E+02  0.65483315810E+03  0.25500000920E-02 0.  1.
</event>
<event>
 5   0  0.1700511E-03  0.1307031E+04  0.7818609E-02  0.9024008E-01
        2   -1    0    0  501    0  0.00000000000E+00  0.00000000000E+00  0.27314755915E+04  0.27314755915E+04  0.25500000920E-02 0. -1.
       -2   -1    0    0    0  501  0.00000000000E+00  0.00000000000E+00 -0.15635602531E+03  0.15635602533E+03  0.25500000920E-02 0.  1.
    10030    2    1    2    0    0  0.00000000000E+00  0.00000000000E+00  0.25751195662E+04  0.28878316169E+04  0.13070312418E+04 0.  0.
        2    1    3    3  502    0 -0.13830908528E+03  0.49080062856E+03  0.38446664219E+03  0.63861511024E+03  0.25500000920E-02 0. -1.
       -2    1    3    3    0  502  0.13830908528E+03 -0.49080062856E+03  0.21906529240E+04  0.22492165066E+04  0.25500000920E-02 0.  1.
</event>
<event>
 5   0  0.9110949E-04  0.1302980E+04  0.7818609E-02  0.9027205E-01
        1   -1    0    0  501    0  0.00000000000E+00  0.00000000000E+00  0.10545671095E+04  0.10545671095E+04  0.50400001928E-02 0. -1.
       -1   -1    0    0    0  501  0.00000000000E+00  0.00000000000E+00 -0.40247747780E+03  0.40247747783E+03  0.50400001928E-02 0.  1.
    10030    2    1    2    0    0  0.00000000000E+00  0.00000000000E+00  0.65208963165E+03  0.14570445873E+04  0.13029804456E+04 0.  0.
        2    1    3    3  502    0  0.26555339638E+03 -0.26123403100E+03  0.92373084285E+03  0.99601229677E+03  0.25500000920E-02 0. -1.
       -2    1    3    3    0  502 -0.26555339638E+03  0.26123403100E+03 -0.27164121120E+03  0.46103229053E+03  0.25500000920E-02 0.  1.
</event>
<event>
 5   0  0.9110949E-04  0.1057442E+04  0.7818609E-02  0.9247694E-01
       -1   -1    0    0    0  501  0.00000000000E+00  0.00000000000E+00  0.11372749702E+03  0.11372749713E+03  0.50400001928E-02 0.  1.
        1   -1    0    0  501    0  0.00000000000E+00  0.00000000000E+00 -0.24580324087E+04  0.24580324087E+04  0.50400001928E-02 0. -1.
    10030    2    1    2    0    0  0.00000000000E+00  0.00000000000E+00 -0.23443049117E+04  0.25717599058E+04  0.10574419579E+04 0.  0.
        2    1    3    3  502    0  0.16297659670E+03  0.28686667936E+03 -0.21769544306E+04  0.22018139012E+04  0.25500000920E-02 0. -1.
       -2    1    3    3    0  502 -0.16297659670E+03 -0.28686667936E+03 -0.16735048110E+03  0.36994600461E+03  0.25500000920E-02 0.  1.
</event>
<event>
 5   0  0.9215829E-04  0.1290895E+04  0.7818609E-02  0.9036817E-01
        1   -1    0    0  501    0  0.00000000000E+00  0.00000000000E+00  0.85450924081E+03  0.85450924082E+03  0.50400001928E-02 0.  1.
       -1   -1    0    0    0  501  0.00000000000E+00  0.00000000000E+00 -0.48753409651E+03  0.48753409653E+03  0.50400001928E-02 0. -1.
    10030    2    1    2    0    0  0.00000000000E+00  0.00000000000E+00  0.36697514430E+03  0.13420433374E+04  0.12908948690E+04 0.  0.
        3    1    3    3  502    0 -0.51153016212E+02  0.10472550075E+03  0.84347864207E+03  0.85149297790E+03  0.10100000352E+00 0.  1.
       -3    1    3    3    0  502  0.51153016212E+02 -0.10472550075E+03 -0.47650349777E+03  0.49055035946E+03  0.10100000352E+00 0. -1.
</event>
<event>
 5   0  0.1714861E-03  0.1280436E+04  0.7818609E-02  0.9045225E-01
       -2   -1    0    0    0  501  0.00000000000E+00  0.00000000000E+00  0.38421226222E+03  0.38421226223E+03  0.25500000920E-02 0. -1.
        2   -1    0    0  501    0  0.00000000000E+00  0.00000000000E+00 -0.10668030098E+04  0.10668030098E+04  0.25500000920E-02 0.  1.
    10030    2    1    2    0    0  0.00000000000E+00  0.00000000000E+00 -0.68259074757E+03  0.14510152720E+04  0.12804355474E+04 0.  0.
        1    1    3    3  502    0 -0.21840538991E+03  0.13172924282E+03  0.32415215405E+03  0.41246590981E+03  0.50400001928E-02 0. -1.
       -1    1    3    3    0  502  0.21840538991E+03 -0.13172924282E+03 -0.10067429016E+04  0.10385493622E+04  0.50400001928E-02 0.  1.
</event>
<event>
 5   0  0.1694675E-03  0.1306919E+04  0.7818609E-02  0.9024096E-01
       -2   -1    0    0    0  501  0.00000000000E+00  0.00000000000E+00  0.81323771573E+03  0.81323771573E+03  0.25500000920E-02 0. -1.
        2   -1    0    0  501    0  0.00000000000E+00  0.00000000000E+00 -0.52507340337E+03  0.52507340337E+03  0.25500000920E-02 0.  1.
    10030    2    1    2    0    0  0.00000000000E+00  0.00000000000E+00  0.28816431236E+03  0.13383111191E+04  0.13069192709E+04 0.  0.
        4    1    3    3  502    0  0.19039048475E+03 -0.37738026636E+02 -0.49487266625E+03  0.53157620718E+03  0.12699999809E+01 0.  1.
       -4    1    3    3    0  502 -0.19039048475E+03  0.37738026636E+02  0.78303697862E+03  0.80673491193E+03  0.12699999809E+01 0. -1.
</event>
<event>
 5   0  0.9098192E-04  0.1261212E+04  0.7818609E-02  0.9060903E-01
       -1   -1    0    0    0  501  0.00000000000E+00  0.00000000000E+00  0.64991933244E+03  0.64991933246E+03  0.50400001928E-02 0. -1.
        1   -1    0    0  501    0  0.00000000000E+00  0.00000000000E+00 -0.61186672209E+03  0.61186672211E+03  0.50400001928E-02 0.  1.
    10030    2    1    2    0    0  0.00000000000E+00  0.00000000000E+00  0.38052610349E+02  0.12617860546E+04  0.12612121338E+04 0.  0.
        1    1    3    3  502    0  0.12275159027E+03 -0.46628573226E+03 -0.38757427886E+03  0.61863087434E+03  0.50400001928E-02 0.  1.
       -1    1    3    3    0  502 -0.12275159027E+03  0.46628573226E+03  0.42562688921E+03  0.64315518024E+03  0.50400001928E-02 0. -1.
</event>
<event>
 5   0  0.1714861E-03  0.1296518E+04  0.7818609E-02  0.9032331E-01
       -2   -1    0    0    0  501  0.00000000000E+00  0.00000000000E+00  0.72256496164E+03  0.72256496165E+03  0.25500000920E-02 0.  1.
        2   -1    0    0  501    0  0.00000000000E+00  0.00000000000E+00 -0.58159401427E+03  0.58159401427E+03  0.25500000920E-02 0. -1.
    10030    2    1    2    0    0  0.00000000000E+00  0.00000000000E+00  0.14097094738E+03  0.13041589759E+04  0.12965175766E+04 0.  0.
        1    1    3    3  502    0 -0.48417523426E+03  0.42561018027E+03  0.13922397156E+03  0.65950966430E+03  0.50400001928E-02 0.  1.
       -1    1    3    3    0  502  0.48417523426E+03 -0.42561018027E+03  0.17469758169E+01  0.64464931162E+03  0.50400001928E-02 0. -1.
</event>
<event>
 5   0  0.1694675E-03  0.1299287E+04  0.7818609E-02  0.9030130E-01
        2   -1    0    0  501    0  0.00000000000E+00  0.00000000000E+00  0.72784503701E+03  0.72784503701E+03  0.25500000920E-02 0. -1.
       -2   -1    0    0    0  501  0.00000000000E+00  0.00000000000E+00 -0.57984446372E+03  0.57984446373E+03  0.25500000920E-02 0.  1.
    10030    2    1    2    0    0  0.00000000000E+00  0.00000000000E+00  0.14800057329E+03  0.13076895007E+04  0.12992873665E+04 0.  0.
        4    1    3    3  502    0  0.54589767733E+03  0.81649311451E+02 -0.27080002218E+03  0.61482123344E+03  0.12699999809E+01 0.  1.
       -4    1    3    3    0  502 -0.54589767733E+03 -0.81649311451E+02  0.41880059547E+03  0.69286826730E+03  0.12699999809E+01 0. -1.
</event>
<event>
 5   0  0.1667342E-03  0.1304788E+04  0.7818609E-02  0.9025777E-01
        2   -1    0    0  501    0  0.00000000000E+00  0.00000000000E+00  0.14328439668E+04  0.14328439668E+04  0.25500000920E-02 0.  1.
       -2   -1    0    0    0  501  0.00000000000E+00  0.00000000000E+00 -0.29704397250E+03  0.29704397251E+03  0.25500000920E-02 0. -1.
    10030    2    1    2    0    0  0.00000000000E+00  0.00000000000E+00  0.11357999943E+04  0.17298879393E+04  0.13047875902E+04 0.  0.
        5    1    3    3  502    0 -0.10849798978E+03 -0.63652261620E+03  0.69129718734E+03  0.94596339567E+03  0.46999998093E+01 0.  1.
       -5    1    3    3    0  502  0.10849798978E+03  0.63652261620E+03  0.44450280694E+03  0.78392454362E+03  0.46999998093E+01 0. -1.
</event>
<event>
 5   0  0.1714861E-03  0.1298441E+04  0.7818609E-02  0.9030802E-01
       -2   -1    0    0    0  501  0.00000000000E+00  0.00000000000E+00  0.33574383937E+03  0.33574383938E+03  0.25500000920E-02 0. -1.
        2   -1    0    0  501    0  0.00000000000E+00  0.00000000000E+00 -0.12553842384E+04  0.12553842384E+04  0.25500000920E-02 0.  1.
    10030    2    1    2    0    0  0.00000000000E+00  0.00000000000E+00 -0.91964039900E+03  0.15911280778E+04  0.12984414104E+04 0.  0.
        1    1    3    3  502    0  0.58692507114E+03  0.26959288773E+03 -0.54042001754E+03  0.84214913146E+03  0.50400001928E-02 0.  1.
       -1    1    3    3    0  502 -0.58692507114E+03 -0.26959288773E+03 -0.37922038147E+03  0.74897894630E+03  0.50400001928E-02 0. -1.
</event>
<event>
 5   0  0.1667342E-03  0.1296359E+04  0.7818609E-02  0.9032457E-01
       -2   -1    0    0    0  501  0.00000000000E+00  0.00000000000E+00  0.40338296617E+03  0.40338296618E+03  0.25500000920E-02 0. -1.
        2   -1    0    0  501    0  0.00000000000E+00  0.00000000000E+00 -0.10415331221E+04  0.10415331221E+04  0.25500000920E-02 0.  1.
    10030    2    1    2    0    0  0.00000000000E+00  0.00000000000E+00 -0.63815015593E+03  0.14449160883E+04  0.12963590863E+04 0.  0.
        5    1    3    3  502    0  0.42118608336E+03 -0.28212629598E+02  0.22914389296E+03  0.48033601048E+03  0.46999998093E+01 0. -1.
       -5    1    3    3    0  502 -0.42118608336E+03  0.28212629598E+02 -0.86729404889E+03  0.96458007781E+03  0.46999998093E+01 0.  1.
</event>
<event>
 5   0  0.1714861E-03  0.1282873E+04  0.7818609E-02  0.9043259E-01
        2   -1    0    0  501    0  0.00000000000E+00  0.00000000000E+00  0.12159579857E+04  0.12159579857E+04  0.25500000920E-02 0.  1.
       -2   -1    0    0    0  501  0.00000000000E+00  0.00000000000E+00 -0.33836738048E+03  0.33836738049E+03  0.25500000920E-02 0. -1.
    10030    2    1    2    0    0  0.00000000000E+00  0.00000000000E+00  0.87759060526E+03  0.15543253662E+04  0.12828725867E+04 0.  0.
        1    1    3    3  502    0 -0.97760535107E+02  0.33728112447E+03  0.10891477216E+04  0.11443594010E+04  0.50400001928E-02 0.  1.
       -1    1    3    3    0  502  0.97760535107E+02 -0.33728112447E+03 -0.21155711634E+03  0.40996596523E+03  0.50400001928E-02 0. -1.
</event>
<event>
 5   0  0.9081324E-04  0.1275672E+04  0.7818609E-02  0.9049083E-01
       -1   -1    0    0    0  501  0.00000000000E+00  0.00000000000E+00  0.12549446758E+04  0.12549446758E+04  0.50400001928E-02 0.  1.
        1   -1    0    0  501    0  0.00000000000E+00  0.00000000000E+00 -0.32418566120E+03  0.32418566124E+03  0.50400001928E-02 0. -1.
    10030    2    1    2    0    0  0.00000000000E+00  0.00000000000E+00  0.93075901462E+03  0.15791303371E+04  0.12756724808E+04 0.  0.
        4    1    3    3  502    0  0.41443783718E+03 -0.48449862851E+03  0.48806397850E+03  0.80293567733E+03  0.12699999809E+01 0. -1.
       -4    1    3    3    0  502 -0.41443783718E+03  0.48449862851E+03  0.44269503611E+03  0.77619465974E+03  0.12699999809E+01 0.  1.
</event>
<event>
 5   0  0.9215829E-04  0.1278129E+04  0.7818609E-02  0.9047091E-01
       -1   -1    0    0    0  501  0.00000000000E+00  0.00000000000E+00  0.56888191371E+03  0.56888191374E+03  0.50400001928E-02 0. -1.
        1   -1    0    0  501    0  0.00000000000E+00  0.00000000000E+00 -0.71790584702E+03  0.71790584703E+03  0.50400001928E-02 0.  1.
    10030    2    1    2    0    0  0.00000000000E+00  0.00000000000E+00 -0.14902393330E+03  0.12867877608E+04  0.12781293395E+04 0.  0.
        3    1    3    3  502    0 -0.55835860040E+03  0.24445402962E+03 -0.26785861881E+03  0.66578551285E+03  0.10100000352E+00 0.  1.
       -3    1    3    3    0  502  0.55835860040E+03 -0.24445402962E+03  0.11883468551E+03  0.62100224792E+03  0.10100000352E+00 0. -1.
</event>
<event>
 5   0  0.1714861E-03  0.1298330E+04  0.7818609E-02  0.9030890E-01
       -2   -1    0    0    0  501  0.00000000000E+00  0.00000000000E+00  0.52812578452E+03  0.52812578453E+03  0.25500000920E-02 0. -1.
        2   -1    0    0  501    0  0.00000000000E+00  0.00000000000E+00 -0.79794492619E+03  0.79794492619E+03  0.25500000920E-02 0.  1.
    10030    2    1    2    0    0  0.00000000000E+00  0.00000000000E+00 -0.26981914166E+03  0.13260707107E+04  0.12983301432E+04 0.  0.
        1    1    3    3  502    0 -0.33405963080E+03  0.38895957049E+02  0.43220776583E+03  0.54764247943E+03  0.50400001928E-02 0. -1.
       -1    1    3    3    0  502  0.33405963080E+03 -0.38895957049E+02 -0.70202690749E+03  0.77842823129E+03  0.50400001928E-02 0.  1.
</event>
<event>
 5   0  0.9110949E-04  0.1275538E+04  0.7818609E-02  0.9049192E-01
        1   -1    0    0  501    0  0.00000000000E+00  0.00000000000E+00  0.29459778296E+03  0.29459778301E+03  0.50400001928E-02 0. -1.
       -1   -1    0    0    0  501  0.00000000000E+00  0.00000000000E+00 -0.13806938726E+04  0.13806938726E+04  0.50400001928E-02 0.  1.
    10030    2    1    2    0    0  0.00000000000E+00  0.00000000000E+00 -0.10860960896E+04  0.16752916556E+04  0.12755380886E+04 0.  0.
        2    1    3    3  502    0  0.38486174110E+03 -0.41440435793E+03 -0.15587381973E+03  0.58663973554E+03  0.25500000920E-02 0. -1.
       -2    1    3    3    0  502 -0.38486174110E+03  0.41440435793E+03 -0.93022226986E+03  0.10886519200E+04  0.25500000920E-02 0.  1.
</event>
<event>
 5   0  0.1700511E-03  0.1295189E+04  0.7818609E-02  0.9033389E-01
       -2   -1    0    0    0  501  0.00000000000E+00  0.00000000000E+00  0.25555512541E+03  0.25555512542E+03  0.25500000920E-02 0. -1.
        2   -1    0    0  501    0  0.00000000000E+00  0.00000000000E+00 -0.16410503001E+04  0.16410503001E+04  0.25500000920E-02 0.  1.
    10030    2    1    2    0    0  0.00000000000E+00  0.00000000000E+00 -0.13854951747E+04  0.18966054255E+04  0.12951892761E+04 0.  0.
        2    1    3    3  502    0  0.34313753447E+03  0.34043129510E+03 -0.61646708066E+02  0.48727523113E+03  0.25500000920E-02 0. -1.
       -2    1    3    3    0  502 -0.34313753447E+03 -0.34043129510E+03 -0.13238484666E+04  0.14093301944E+04  0.25500000920E-02 0.  1.
</event>
<event>
 5   0  0.9081324E-04  0.1305042E+04  0.7818609E-02  0.9025576E-01
       -1   -1    0    0    0  501  0.00000000000E+00  0.00000000000E+00  0.15219995783E+04  0.15219995783E+04  0.50400001928E-02 0.  1.
        1   -1    0    0  501    0  0.00000000000E+00  0.00000000000E+00 -0.27975278726E+03  0.27975278731E+03  0.50400001928E-02 0. -1.
    10030    2    1    2    0    0  0.00000000000E+00  0.00000000000E+00  0.12422467911E+04  0.18017523656E+04  0.13050419523E+04 0.  0.
        4    1    3    3  502    0 -0.51968896935E+02 -0.52286341782E+03  0.11552871405E+04  0.12691638625E+04  0.12699999809E+01 0.  1.
       -4    1    3    3    0  502  0.51968896935E+02  0.52286341782E+03  0.86959650537E+02  0.53258850313E+03  0.12699999809E+01 0. -1.
</event>
<event>
 5   0  0.1667342E-03  0.1296139E+04  0.7818609E-02  0.9032632E-01
        2   -1    0    0  501    0  0.00000000000E+00  0.00000000000E+00  0.65424454346E+03  0.65424454347E+03  0.25500000920E-02 0. -1.
       -2   -1    0    0    0  501  0.00000000000E+00  0.00000000000E+00 -0.64195304203E+03  0.64195304203E+03  0.25500000920E-02 0.  1.
    10030    2    1    2    0    0  0.00000000000E+00  0.00000000000E+00  0.12291501432E+02  0.12961975855E+04  0.12961393056E+04 0.  0.
        5    1    3    3  502    0 -0.56324243314E+02  0.64262712509E+03  0.68036679524E+02  0.64868568818E+03  0.46999998093E+01 0.  1.
       -5    1    3    3    0  502  0.56324243314E+02 -0.64262712509E+03 -0.55745178092E+02  0.64751189732E+03  0.46999998093E+01 0. -1.
</event>
<event>
 5   0  0.9081324E-04  0.1287394E+04  0.7818609E-02  0.9039622E-01
        1   -1    0    0  501    0  0.00000000000E+00  0.00000000000E+00  0.14545160249E+04  0.14545160249E+04  0.50400001928E-02 0.  1.
       -1   -1    0    0    0  501  0.00000000000E+00  0.00000000000E+00 -0.28486830496E+03  0.28486830501E+03  0.50400001928E-02 0. -1.
    10030    2    1    2    0    0  0.00000000000E+00  0.00000000000E+00  0.11696477199E+04  0.17393843299E+04  0.12873935134E+04 0.  0.
        4    1    3    3  502    0 -0.38325926308E+03 -0.43753607984E+03  0.21230895892E+03  0.61919479232E+03  0.12699999809E+01 0. -1.
       -4    1    3    3    0  502  0.38325926308E+03  0.43753607984E+03  0.95733876100E+03  0.11201895376E+04  0.12699999809E+01 0.  1.
</event>
<event>
 5   0  0.1714861E-03  0.1307952E+04  0.7818609E-02  0.9023283E-01
        2   -1    0    0  501    0  0.00000000000E+00  0.00000000000E+00  0.14081458399E+04  0.14081458399E+04  0.25500000920E-02 0.  1.
       -2   -1    0    0    0  501  0.00000000000E+00  0.00000000000E+00 -0.30372172476E+03  0.30372172477E+03  0.25500000920E-02 0. -1.
    10030    2    1    2    0    0  0.00000000000E+00  0.00000000000E+00  0.11044241151E+04  0.17118675647E+04  0.13079518083E+04 0.  0.
        1    1    3    3  502    0  0.22398107234E+03  0.20940183892E+03 -0.20381195670E+03  0.36817925611E+03  0.50400001928E-02 0. -1.
       -1    1    3    3    0  502 -0.22398107234E+03 -0.20940183892E+03  0.13082360718E+04  0.13436883086E+04  0.50400001928E-02 0.  1.
</event>
<event>
 5   0  0.9110949E-04  0.1175279E+04  0.7818609E-02  0.9134774E-01
       -1   -1    0    0    0  501  0.00000000000E+00  0.00000000000E+00  0.28585947763E+03  0.28585947768E+03  0.50400001928E-02 0. -1.
        1   -1    0    0  501    0  0.00000000000E+00  0.00000000000E+00 -0.12080067126E+04  0.12080067126E+04  0.50400001928E-02 0.  1.
    10030    2    1    2    0    0  0.00000000000E+00  0.00000000000E+00 -0.92214723497E+03  0.14938661903E+04  0.11752789760E+04 0.  0.
        2    1    3    3  502    0  0.18626205487E+03  0.11913076858E+03 -0.11531198136E+04  0.11741256311E+04  0.25500000920E-02 0.  1.
       -2    1    3    3    0  502 -0.18626205487E+03 -0.11913076858E+03  0.23097257862E+03  0.31974055919E+03  0.25500000920E-02 0. -1.
</event>
<event>
 5   0  0.9110949E-04  0.1296737E+04  0.7818609E-02  0.9032157E-01
        1   -1    0    0  501    0  0.00000000000E+00  0.00000000000E+00  0.78399146887E+03  0.78399146889E+03  0.50400001928E-02 0. -1.
       -1   -1    0    0    0  501  0.00000000000E+00  0.00000000000E+00 -0.53620674184E+03  0.53620674186E+03  0.50400001928E-02 0.  1.
    10030    2    1    2    0    0  0.00000000000E+00  0.00000000000E+00  0.24778472703E+03  0.13201982107E+04  0.12967366906E+04 0.  0.
        2    1    3    3  502    0  0.41305790492E+03 -0.10037879974E+03 -0.37454568668E+03  0.56654850425E+03  0.25500000920E-02 0. -1.
       -2    1    3    3    0  502 -0.41305790492E+03  0.10037879974E+03  0.62233041372E+03  0.75364970649E+03  0.25500000920E-02 0.  1.
</event>
<event>
 5   0  0.9215829E-04  0.1311783E+04  0.7818609E-02  0.9020273E-01
        1   -1    0    0  501    0  0.00000000000E+00  0.00000000000E+00  0.94537492270E+03  0.94537492271E+03  0.50400001928E-02 0.  1.
       -1   -1    0    0    0  501  0.00000000000E+00  0.00000000000E+00 -0.45505112079E+03  0.45505112082E+03  0.50400001928E-02 0. -1.
    10030    2    1    2    0    0  0.00000000000E+00  0.00000000000E+00  0.49032380190E+03  0.14004260435E+04  0.13117833940E+04 0.  0.
        3    1    3    3  502    0  0.27185632045E+03 -0.57577925415E+03  0.77154423898E+02  0.64138944784E+03  0.10100000352E+00 0. -1.
       -3    1    3    3    0  502 -0.27185632045E+03  0.57577925415E+03  0.41316937801E+03  0.75903659569E+03  0.10100000352E+00 0.  1.
</event>
<event>
 5   0  0.9027076E-04  0.1291765E+04  0.7818609E-02  0.9036121E-01
        1   -1    0    0  501    0  0.00000000000E+00  0.00000000000E+00  0.70759073044E+03  0.70759073046E+03  0.50400001928E-02 0.  1.
       -1   -1    0    0    0  501  0.00000000000E+00  0.00000000000E+00 -0.58955612384E+03  0.58955612386E+03  0.50400001928E-02 0. -1.
    10030    2    1    2    0    0  0.00000000000E+00  0.00000000000E+00  0.11803460660E+03  0.12971468543E+04  0.12917653786E+04 0.  0.
        5    1    3    3  502    0  0.31142361704E+03  0.27196816266E+03 -0.43922614787E+03  0.60323548446E+03  0.46999998093E+01 0. -1.
       -5    1    3    3    0  502 -0.31142361704E+03 -0.27196816266E+03  0.55726075446E+03  0.69391136985E+03  0.46999998093E+01 0.  1.
</event>
<event>
 5   0  0.9081324E-04  0.1299095E+04  0.7818609E-02  0.9030283E-01
       -1   -1    0    0    0  501  0.00000000000E+00  0.00000000000E+00  0.69405318722E+03  0.69405318724E+03  0.50400001928E-02 0. -1.
        1   -1    0    0  501    0  0.00000000000E+00  0.00000000000E+00 -0.60789568337E+03  0.60789568339E+03  0.50400001928E-02 0.  1.
    10030    2    1    2    0    0  0.00000000000E+00  0.00000000000E+00  0.86157503845E+02  0.13019488706E+04  0.12990949720E+04 0.  0.
        4    1    3    3  502    0 -0.47877002721E+03  0.33512144645E+02  0.48172339837E+03  0.68000209429E+03  0.12699999809E+01 0. -1.
       -4    1    3    3    0  502  0.47877002721E+03 -0.33512144645E+02 -0.39556589452E+03  0.62194677635E+03  0.12699999809E+01 0.  1.
</event>
<event>
 5   0  0.1694675E-03  0.1308490E+04  0.7818609E-02  0.9022859E-01
        2   -1    0    0  501    0  0.00000000000E+00  0.00000000000E+00  0.23644938293E+04  0.23644938293E+04  0.25500000920E-02 0. -1.
       -2   -1    0    0    0  501  0.00000000000E+00  0.00000000000E+00 -0.18102673214E+03  0.18102673215E+03  0.25500000920E-02 0.  1.
    10030    2    1    2    0    0  0.00000000000E+00  0.00000000000E+00  0.21834670971E+04  0.25455205614E+04  0.13084901086E+04 0.  0.
        4    1    3    3  502    0  0.59628301805E+03  0.26465702281E+03  0.11877931776E+04  0.13551571949E+04  0.12699999809E+01 0. -1.
       -4    1    3    3    0  502 -0.59628301805E+03 -0.26465702281E+03  0.99567391955E+03  0.11903633665E+04  0.12699999809E+01 0.  1.
</event>
<event>
 5   0  0.1714861E-03  0.1329207E+04  0.7818609E-02  0.9006719E-01
        2   -1    0    0  501    0  0.00000000000E+00  0.00000000000E+00  0.85512707567E+03  0.85512707568E+03  0.25500000920E-02 0. -1.
       -2   -1    0    0    0  501  0.00000000000E+00  0.00000000000E+00 -0.51652850004E+03  0.51652850005E+03  0.25500000920E-02 0.  1.
    10030    2    1    2    0    0  0.00000000000E+00  0.00000000000E+00  0.33859857563E+03  0.13716555757E+04  0.13292065389E+04 0.  0.
        1    1    3    3  502    0 -0.24263511673E+03  0.61859003681E+03  0.15576273817E+03  0.68248623732E+03  0.50400001928E-02 0. -1.
       -1    1    3    3    0  502  0.24263511673E+03 -0.61859003681E+03  0.18283583747E+03  0.68916933840E+03  0.50400001928E-02 0.  1.
</event>
<event>
 5   0  0.1667342E-03  0.1297854E+04  0.7818609E-02  0.9031268E-01
        2   -1    0    0  501    0  0.00000000000E+00  0.00000000000E+00  0.49132285077E+03  0.49132285078E+03  0.25500000920E-02 0.  1.
       -2   -1    0    0    0  501  0.00000000000E+00  0.00000000000E+00 -0.85708725902E+03  0.85708725902E+03  0.25500000920E-02 0. -1.
    10030    2    1    2    0    0  0.00000000000E+00  0.00000000000E+00 -0.36576440824E+03  0.13484101098E+04  0.12978544687E+04 0.  0.
        5    1    3    3  502    0  0.17971864199E+03 -0.59528495453E+03 -0.37563952754E+03  0.72649164622E+03  0.46999998093E+01 0. -1.
       -5    1    3    3    0  502 -0.17971864199E+03  0.59528495453E+03  0.98751193000E+01  0.62191846359E+03  0.46999998093E+01 0.  1.
</event>
<event>
 5   0  0.1700511E-03  0.1293839E+04  0.7818609E-02  0.9034465E-01
        2   -1    0    0  501    0  0.00000000000E+00  0.00000000000E+00  0.97764164957E+03  0.97764164958E+03  0.25500000920E-02 0. -1.
       -2   -1    0    0    0  501  0.00000000000E+00  0.00000000000E+00 -0.42807572041E+03  0.42807572042E+03  0.25500000920E-02 0.  1.
    10030    2    1    2    0    0  0.00000000000E+00  0.00000000000E+00  0.54956592916E+03  0.14057173700E+04  0.12938387124E+04 0.  0.
        2    1    3    3  502    0 -0.21917906529E+02  0.49523790823E+03 -0.17680679422E+03  0.52630943642E+03  0.25500000920E-02 0.  1.
       -2    1    3    3    0  502  0.21917906529E+02 -0.49523790823E+03  0.72637272338E+03  0.87940793358E+03  0.25500000920E-02 0. -1.
</event>
<event>
 5   0  0.9110949E-04  0.1276491E+04  0.7818609E-02  0.9048418E-01
        1   -1    0    0  501    0  0.00000000000E+00  0.00000000000E+00  0.53208300667E+03  0.53208300669E+03  0.50400001928E-02 0. -1.
       -1   -1    0    0    0  501  0.00000000000E+00  0.00000000000E+00 -0.76559008400E+03  0.76559008401E+03  0.50400001928E-02 0.  1.
    10030    2    1    2    0    0  0.00000000000E+00  0.00000000000E+00 -0.23350707733E+03  0.12976730907E+04  0.12764912437E+04 0.  0.
        2    1    3    3  502    0 -0.24737172955E+03  0.52066792100E+03 -0.39528840040E+03  0.69895692002E+03  0.25500000920E-02 0. -1.
       -2    1    3    3    0  502  0.24737172955E+03 -0.52066792100E+03  0.16178132307E+03  0.59871617069E+03  0.25500000920E-02 0.  1.
</event>
<event>
 5   0  0.9098192E-04  0.1334627E+04  0.7818609E-02  0.9002547E-01
        1   -1    0    0  501    0  0.00000000000E+00  0.00000000000E+00  0.33049280374E+03  0.33049280378E+03  0.50400001928E-02 0.  1.
       -1   -1    0    0    0  501  0.00000000000E+00  0.00000000000E+00 -0.13474044038E+04  0.13474044038E+04  0.50400001928E-02 0. -1.
    10030    2    1    2    0    0  0.00000000000E+00  0.00000000000E+00 -0.10169116001E+04  0.16778972076E+04  0.13346272277E+04 0.  0.
        1    1    3    3  502    0  0.20470450975E+03  0.30833351979E+03  0.18964165287E+03  0.41585749033E+03  0.50400001928E-02 0.  1.
       -1    1    3    3    0  502 -0.20470450975E+03 -0.30833351979E+03 -0.12065532530E+04  0.12620397173E+04  0.50400001928E-02 0. -1.
</event>
<event>
 5   0  0.1667342E-03  0.1292797E+04  0.7818609E-02  0.9035297E-01
       -2   -1    0    0    0  501  0.00000000000E+00  0.00000000000E+00  0.42038917582E+03  0.42038917583E+03  0.25500000920E-02 0.  1.
        2   -1    0    0  501    0  0.00000000000E+00  0.00000000000E+00 -0.99391462279E+03  0.99391462279E+03  0.25500000920E-02 0. -1.
    10030    2    1    2    0    0  0.00000000000E+00  0.00000000000E+00 -0.57352544696E+03  0.14143037986E+04  0.12927968891E+04 0.  0.
        5    1    3    3  502    0 -0.48363462909E+03 -0.33129906662E+02  0.18098423798E+03  0.51747215342E+03  0.46999998093E+01 0.  1.
       -5    1    3    3    0  502  0.48363462909E+03  0.33129906662E+02 -0.75450968494E+03  0.89683164520E+03  0.46999998093E+01 0. -1.
</event>
<event>
 5   0  0.1714861E-03  0.1231584E+04  0.7818609E-02  0.9085651E-01
        2   -1    0    0  501    0  0.00000000000E+00  0.00000000000E+00  0.15437909642E+04  0.15437909642E+04  0.25500000920E-02 0.  1.
       -2   -1    0    0    0  501  0.00000000000E+00  0.00000000000E+00 -0.24562908127E+03  0.24562908128E+03  0.25500000920E-02 0. -1.
    10030    2    1    2    0    0  0.00000000000E+00  0.00000000000E+00  0.12981618829E+04  0.17894200455E+04  0.12315842744E+04 0.  0.
        1    1    3    3  502    0 -0.42395386415E+03  0.16837405429E+03  0.48059466896E+02  0.45868988813E+03  0.50400001928E-02 0. -1.
       -1    1    3    3    0  502  0.42395386415E+03 -0.16837405429E+03  0.12501024160E+04  0.13307301573E+04  0.50400001928E-02 0.  1.
</event>
<event>
 5   0  0.9027076E-04  0.1292393E+04  0.7818609E-02  0.9035619E-01
        1   -1    0    0  501    0  0.00000000000E+00  0.00000000000E+00  0.10986372051E+04  0.10986372052E+04  0.50400001928E-02 0.  1.
       -1   -1    0    0    0  501  0.00000000000E+00  0.00000000000E+00 -0.38008014016E+03  0.38008014019E+03  0.50400001928E-02 0. -1.
    10030    2    1    2    0    0  0.00000000000E+00  0.00000000000E+00  0.71855706498E+03  0.14787173453E+04  0.12923934122E+04 0.  0.
        5    1    3    3  502    0 -0.52438437159E+03  0.13808540444E+03  0.76137163812E+03  0.93474884831E+03  0.46999998093E+01 0.  1.
       -5    1    3    3    0  502  0.52438437159E+03 -0.13808540444E+03 -0.42814573140E+02  0.54396849703E+03  0.46999998093E+01 0. -1.
</event>
<event>
 5   0  0.9215829E-04  0.1309788E+04  0.7818609E-02  0.9021839E-01
       -1   -1    0    0    0  501  0.00000000000E+00  0.00000000000E+00  0.19278068310E+04  0.19278068310E+04  0.50400001928E-02 0. -1.
        1   -1    0    0  501    0  0.00000000000E+00  0.00000000000E+00 -0.22247369125E+03  0.22247369131E+03  0.50400001928E-02 0.  1.
    10030    2    1    2    0    0  0.00000000000E+00  0.00000000000E+00  0.17053331397E+04  0.21502805223E+04  0.13097882299E+04 0.  0.
        3    1    3    3  502    0 -0.62444030254E+03 -0.16012589632E+03  0.10421411700E+04  0.12254077781E+04  0.10100000352E+00 0. -1.
       -3    1    3    3    0  502  0.62444030254E+03  0.16012589632E+03  0.66319196970E+03  0.92487274421E+03  0.10100000352E+00 0.  1.
</event>
<event>
 5   0  0.1667342E-03  0.1238595E+04  0.7818609E-02  0.9079729E-01
        2   -1    0    0  501    0  0.00000000000E+00  0.00000000000E+00  0.18409747651E+04  0.18409747651E+04  0.25500000920E-02 0. -1.
       -2   -1    0    0    0  501  0.00000000000E+00  0.00000000000E+00 -0.20832956691E+03  0.20832956692E+03  0.25500000920E-02 0.  1.
    10030    2    1    2    0    0  0.00000000000E+00  0.00000000000E+00  0.16326451982E+04  0.20493043320E+04  0.12385951324E+04 0.  0.
        5    1    3    3  502    0 -0.38444558508E+03  0.70464243158E+02  0.16110937225E+04  0.16578325277E+04  0.46999998093E+01 0. -1.
       -5    1    3    3    0  502  0.38444558508E+03 -0.70464243158E+02  0.21551475735E+02  0.39147180429E+03  0.46999998093E+01 0.  1.
</event>
<event>
 5   0  0.9215829E-04  0.1297582E+04  0.7818609E-02  0.9031485E-01
       -1   -1    0    0    0  501  0.00000000000E+00  0.00000000000E+00  0.28161513772E+03  0.28161513777E+03  0.50400001928E-02 0. -1.
        1   -1    0    0  501    0  0.00000000000E+00  0.00000000000E+00 -0.14946992661E+04  0.14946992662E+04  0.50400001928E-02 0.  1.
    10030    2    1    2    0    0  0.00000000000E+00  0.00000000000E+00 -0.12130841284E+04  0.17763144039E+04  0.12975822744E+04 0.  0.
        3    1    3    3  502    0 -0.35696643176E+03  0.37369797057E+03 -0.11435001040E+04  0.12548576432E+04  0.10100000352E+00 0.  1.
       -3    1    3    3    0  502  0.35696643176E+03 -0.37369797057E+03 -0.69584024374E+02  0.52145676069E+03  0.10100000352E+00 0. -1.
</event>
<event>
 5   0  0.1667342E-03  0.1299910E+04  0.7818609E-02  0.9029636E-01
       -2   -1    0    0    0  501  0.00000000000E+00  0.00000000000E+00  0.31299710355E+03  0.31299710356E+03  0.25500000920E-02 0.  1.
        2   -1    0    0  501    0  0.00000000000E+00  0.00000000000E+00 -0.13496663078E+04  0.13496663078E+04  0.25500000920E-02 0. -1.
    10030    2    1    2    0    0  0.00000000000E+00  0.00000000000E+00 -0.10366692042E+04  0.16626634114E+04  0.12999102201E+04 0.  0.
        5    1    3    3  502    0  0.19544431825E+03  0.58873146625E+03 -0.27026176317E+03  0.67665850436E+03  0.46999998093E+01 0. -1.
       -5    1    3    3    0  502 -0.19544431825E+03 -0.58873146625E+03 -0.76640744107E+03  0.98600490700E+03  0.46999998093E+01 0.  1.
</event>
<event>
 5   0  0.9110949E-04  0.1302797E+04  0.7818609E-02  0.9027350E-01
       -1   -1    0    0    0  501  0.00000000000E+00  0.00000000000E+00  0.16441573147E+03  0.16441573155E+03  0.50400001928E-02 0.  1.
        1   -1    0    0  501    0  0.00000000000E+00  0.00000000000E+00 -0.25807730126E+04  0.25807730126E+04  0.50400001928E-02 0. -1.
    10030    2    1    2    0    0  0.00000000000E+00  0.00000000000E+00 -0.24163572811E+04  0.27451887441E+04  0.13027965040E+04 0.  0.
        2    1    3    3  502    0 -0.63657518332E+03  0.11758236989E+03 -0.10552670582E+04  0.12379992496E+04  0.25500000920E-02 0. -1.
       -2    1    3    3    0  502  0.63657518332E+03 -0.11758236989E+03 -0.13610902229E+04  0.15071894946E+04  0.25500000920E-02 0.  1.
</event>
<event>
 5   0  0.1714861E-03  0.1328818E+04  0.7818609E-02  0.9007020E-01
       -2   -1    0    0    0  501  0.00000000000E+00  0.00000000000E+00  0.60220115984E+03  0.60220115984E+03  0.25500000920E-02 0. -1.
        2   -1    0    0  501    0  0.00000000000E+00  0.00000000000E+00 -0.73304261334E+03  0.73304261334E+03  0.25500000920E-02 0.  1.
    10030    2    1    2    0    0  0.00000000000E+00  0.00000000000E+00 -0.13084145350E+03  0.13352437732E+04  0.13288176880E+04 0.  0.
        1    1    3    3  502    0 -0.43668893901E+02  0.71186475739E+02  0.59690613914E+03  0.60272002255E+03  0.50400001928E-02 0. -1.
       -1    1    3    3    0  502  0.43668893901E+02 -0.71186475739E+02 -0.72774759264E+03  0.73252375063E+03  0.50400001928E-02 0.  1.
</event>
<event>
 5   0  0.9110949E-04  0.1308148E+04  0.7818609E-02  0.9023129E-01
        1   -1    0    0  501    0  0.00000000000E+00  0.00000000000E+00  0.26557964586E+04  0.26557964587E+04  0.50400001928E-02 0. -1.
       -1   -1    0    0    0  501  0.00000000000E+00  0.00000000000E+00 -0.16108640047E+03  0.16108640054E+03  0.50400001928E-02 0.  1.
    10030    2    1    2    0    0  0.00000000000E+00  0.00000000000E+00  0.24947100582E+04  0.28168828592E+04  0.13081478388E+04 0.  0.
        2    1    3    3  502    0  0.59812736160E+03 -0.18564542304E+03  0.16536008793E+04  0.17682240898E+04  0.25500000920E-02 0. -1.
       -2    1    3    3    0  502 -0.59812736160E+03  0.18564542304E+03  0.84110917888E+03  0.10486587694E+04  0.25500000920E-02 0.  1.
</event>
<event>
 5   0  0.1694675E-03  0.1299597E+04  0.7818609E-02  0.9029884E-01
        2   -1    0    0  501    0  0.00000000000E+00  0.00000000000E+00  0.14284741892E+04  0.14284741892E+04  0.25500000920E-02 0. -1.
       -2   -1    0    0    0  501  0.00000000000E+00  0.00000000000E+00 -0.29558698568E+03  0.29558698569E+03  0.25500000920E-02 0.  1.
    10030    2    1    2    0    0  0.00000000000E+00  0.00000000000E+00  0.11328872035E+04  0.17240611749E+04  0.12995974449E+04 0.  0.
        4    1    3    3  502    0  0.44467594333E+03  0.46050035594E+03  0.41848330705E+03  0.76480531090E+03  0.12699999809E+01 0.  1.
       -4    1    3    3    0  502 -0.44467594333E+03 -0.46050035594E+03  0.71440389649E+03  0.95925586400E+03  0.12699999809E+01 0. -1.
</event>
<event>
 5   0  0.9081324E-04  0.1314146E+04  0.7818609E-02  0.9018422E-01
        1   -1    0    0  501    0  0.00000000000E+00  0.00000000000E+00  0.29109444216E+03  0.29109444220E+03  0.50400001928E-02 0.  1.
       -1   -1    0    0    0  501  0.00000000000E+00  0.00000000000E+00 -0.14831790775E+04  0.14831790775E+04  0.50400001928E-02 0. -1.
    10030    2    1    2    0    0  0.00000000000E+00  0.00000000000E+00 -0.11920846354E+04  0.17742735197E+04  0.13141463940E+04 0.  0.
        4    1    3    3  502    0 -0.52038343453E+03  0.30292187203E+03 -0.24092119975E+03  0.64854083671E+03  0.12699999809E+01 0.  1.
       -4    1    3    3    0  502  0.52038343453E+03 -0.30292187203E+03 -0.95116343561E+03  0.11257326830E+04  0.12699999809E+01 0. -1.
</event>
<event>
 5   0  0.6284125E-04  0.1305467E+04  0.7818609E-02  0.9025241E-01
       -4   -1    0    0    0  501  0.00000000000E+00  0.00000000000E+00  0.13653089085E+04  0.13653094991E+04  0.12699999809E+01 0.  1.
        4   -1    0    0  501    0  0.00000000000E+00  0.00000000000E+00 -0.31206023719E+03  0.31206282146E+03  0.12699999809E+01 0. -1.
    10030    2    1    2    0    0  0.00000000000E+00  0.00000000000E+00  0.10532486713E+04  0.16773723206E+04  0.13054674023E+04 0.  0.
        5    1    3    3  502    0  0.34369159317E+03  0.17326129913E+03  0.12039607684E+04  0.12639964442E+04  0.46999998093E+01 0.  1.
       -5    1    3    3    0  502 -0.34369159317E+03 -0.17326129913E+03 -0.15071209714E+03  0.41337587643E+03  0.46999998093E+01 0. -1.
</event>
<event>
 5   0  0.9027076E-04  0.1300671E+04  0.7818609E-02  0.9029033E-01
       -1   -1    0    0    0  501  0.00000000000E+00  0.00000000000E+00  0.47954500998E+03  0.47954501001E+03  0.50400001928E-02 0.  1.
        1   -1    0    0  501    0  0.00000000000E+00  0.00000000000E+00 -0.88195305847E+03  0.88195305848E+03  0.50400001928E-02 0. -1.
    10030    2    1    2    0    0  0.00000000000E+00  0.00000000000E+00 -0.40240804849E+03  0.13614980685E+04  0.13006708857E+04 0.  0.
        5    1    3    3  502    0  0.24881351993E+03  0.46461620363E+03  0.19758183451E+03  0.56288280814E+03  0.46999998093E+01 0.  1.
       -5    1    3    3    0  502 -0.24881351993E+03 -0.46461620363E+03 -0.59998988299E+03  0.79861526035E+03  0.46999998093E+01 0. -1.
</event>
<event>
 5   0  0.9110949E-04  0.1297054E+04  0.7818609E-02  0.9031904E-01
       -1   -1    0    0    0  501  0.00000000000E+00  0.00000000000E+00  0.92724382201E+03  0.92724382202E+03  0.50400001928E-02 0.  1.
        1   -1    0    0  501    0  0.00000000000E+00  0.00000000000E+00 -0.45358894698E+03  0.45358894700E+03  0.50400001928E-02 0. -1.
    10030    2    1    2    0    0  0.00000000000E+00  0.00000000000E+00  0.47365487503E+03  0.13808327690E+04  0.12970544304E+04 0.  0.
        2    1    3    3  502    0 -0.20483168955E+03 -0.64485348642E+02  0.88829565876E+03  0.91388377741E+03  0.25500000920E-02 0.  1.
       -2    1    3    3    0  502  0.20483168955E+03  0.64485348642E+02 -0.41464078373E+03  0.46694899162E+03  0.25500000920E-02 0. -1.
</event>
<event>
 5   0  0.9215829E-04  0.1296477E+04  0.7818609E-02  0.9032364E-01
        1   -1    0    0  501    0  0.00000000000E+00  0.00000000000E+00  0.89825750834E+03  0.89825750835E+03  0.50400001928E-02 0. -1.
       -1   -1    0    0    0  501  0.00000000000E+00  0.00000000000E+00 -0.46780920130E+03  0.46780920133E+03  0.50400001928E-02 0.  1.
    10030    2    1    2    0    0  0.00000000000E+00  0.00000000000E+00  0.43044830703E+03  0.13660667097E+04  0.12964769610E+04 0.  0.
        3    1    3    3  502    0 -0.31523087534E+03  0.55582819978E+03  0.10029313874E+03  0.64681853430E+03  0.10100000352E+00 0.  1.
       -3    1    3    3    0  502  0.31523087534E+03 -0.55582819978E+03  0.33015516829E+03  0.71924817538E+03  0.10100000352E+00 0. -1.
</event>
<event>
 5   0  0.9027076E-04  0.1266865E+04  0.7818609E-02  0.9056262E-01
       -1   -1    0    0    0  501  0.00000000000E+00  0.00000000000E+00  0.92216767127E+03  0.92216767129E+03  0.50400001928E-02 0.  1.
        1   -1    0    0  501    0  0.00000000000E+00  0.00000000000E+00 -0.43510181068E+03  0.43510181071E+03  0.50400001928E-02 0. -1.
    10030    2    1    2    0    0  0.00000000000E+00  0.00000000000E+00  0.48706586059E+03  0.13572694820E+04  0.12668651444E+04 0.  0.
        5    1    3    3  502    0  0.39544330866E+03  0.28499674046E+03  0.67689293031E+03  0.83414907632E+03  0.46999998093E+01 0.  1.
       -5    1    3    3    0  502 -0.39544330866E+03 -0.28499674046E+03 -0.18982706971E+03  0.52312040567E+03  0.46999998093E+01 0. -1.
</event>
<event>
 5   0  0.9027076E-04  0.1300087E+04  0.7818609E-02  0.9029496E-01
       -1   -1    0    0    0  501  0.00000000000E+00  0.00000000000E+00  0.60630899731E+03  0.60630899733E+03  0.50400001928E-02 0. -1.
        1   -1    0    0  501    0  0.00000000000E+00  0.00000000000E+00 -0.69693304175E+03  0.69693304176E+03  0.50400001928E-02 0.  1.
    10030    2    1    2    0    0  0.00000000000E+00  0.00000000000E+00 -0.90624044438E+02  0.13032420391E+04  0.13000873413E+04 0.  0.
        5    1    3    3  502    0 -0.17506043194E+03  0.50941934174E+03 -0.41003615405E+03  0.67698298221E+03  0.46999998093E+01 0.  1.
       -5    1    3    3    0  502  0.17506043194E+03 -0.50941934174E+03  0.31941210961E+03  0.62625905689E+03  0.46999998093E+01 0. -1.
</event>
<event>
 5   0  0.9027076E-04  0.1291867E+04  0.7818609E-02  0.9036039E-01
       -1   -1    0    0    0  501  0.00000000000E+00  0.00000000000E+00  0.35238093698E+03  0.35238093701E+03  0.50400001928E-02 0.  1.
        1   -1    0    0  501    0  0.00000000000E+00  0.00000000000E+00 -0.11840319085E+04  0.11840319085E+04  0.50400001928E-02 0. -1.
    10030    2    1    2    0    0  0.00000000000E+00  0.00000000000E+00 -0.83165097149E+03  0.15364128455E+04  0.12918672894E+04 0.  0.
        5    1    3    3  502    0 -0.34547176289E+03 -0.87494057057E+02  0.22485338823E+03  0.42141082707E+03  0.46999998093E+01 0.  1.
       -5    1    3    3    0  502  0.34547176289E+03  0.87494057057E+02 -0.10565043597E+04  0.11150020184E+04  0.46999998093E+01 0. -1.
</event>
<event>
 5   0  0.1694675E-03  0.1300121E+04  0.7818609E-02  0.9029469E-01
        2   -1    0    0  501    0  0.00000000000E+00  0.00000000000E+00  0.52612945928E+03  0.52612945929E+03  0.25500000920E-02 0. -1.
       -2   -1    0    0    0  501  0.00000000000E+00  0.00000000000E+00 -0.80318432226E+03  0.80318432226E+03  0.25500000920E-02 0.  1.
    10030    2    1    2    0    0  0.00000000000E+00  0.00000000000E+00 -0.27705486298E+03  0.13293137815E+04  0.13001214300E+04 0.  0.
        4    1    3    3  502    0  0.82194236532E+02 -0.77057841845E+02 -0.79312414013E+03  0.80108758452E+03  0.12699999809E+01 0.  1.
       -4    1    3    3    0  502 -0.82194236532E+02  0.77057841845E+02  0.51606927715E+03  0.52822619703E+03  0.12699999809E+01 0. -1.
</event>
<event>
 5   0  0.9081324E-04  0.1299785E+04  0.7818609E-02  0.9029736E-01
        1   -1    0    0  501    0  0.00000000000E+00  0.00000000000E+00  0.11443573330E+04  0.11443573331E+04  0.50400001928E-02 0.  1.
       -1   -1    0    0    0  501  0.00000000000E+00  0.00000000000E+00 -0.36908066030E+03  0.36908066033E+03  0.50400001928E-02 0. -1.
    10030    2    1    2    0    0  0.00000000000E+00  0.00000000000E+00  0.77527667275E+03  0.15134379934E+04  0.12997848439E+04 0.  0.
        4    1    3    3  502    0  0.27566640967E+03 -0.22036679264E+03 -0.24777919941E+03  0.43121878123E+03  0.12699999809E+01 0. -1.
       -4    1    3    3    0  502 -0.27566640967E+03  0.22036679264E+03  0.10230558722E+04  0.10822192122E+04  0.12699999809E+01 0.  1.
</event>
<event>
 5   0  0.1623890E-03  0.1283850E+04  0.7818609E-02  0.9042471E-01
       -2   -1    0    0    0  501  0.00000000000E+00  0.00000000000E+00  0.19801354284E+03  0.19801354286E+03  0.25500000920E-02 0. -1.
        2   -1    0    0  501    0  0.00000000000E+00  0.00000000000E+00 -0.20810073087E+04  0.20810073087E+04  0.25500000920E-02 0.  1.
    10030    2    1    2    0    0  0.00000000000E+00  0.00000000000E+00 -0.18829937659E+04  0.22790208516E+04  0.12838498820E+04 0.  0.
        3    1    3    3  502    0 -0.36624383161E+03  0.22179926183E+03 -0.92505333160E+02  0.43804874570E+03  0.10100000352E+00 0. -1.
       -3    1    3    3    0  502  0.36624383161E+03 -0.22179926183E+03 -0.17904884327E+04  0.18409721059E+04  0.10100000352E+00 0.  1.
</event>
<event>
 5   0  0.1714861E-03  0.1286246E+04  0.7818609E-02  0.9040544E-01
       -2   -1    0    0    0  501  0.00000000000E+00  0.00000000000E+00  0.20993663893E+03  0.20993663895E+03  0.25500000920E-02 0.  1.
        2   -1    0    0  501    0  0.00000000000E+00  0.00000000000E+00 -0.19701526348E+04  0.19701526348E+04  0.25500000920E-02 0. -1.
    10030    2    1    2    0    0  0.00000000000E+00  0.00000000000E+00 -0.17602159958E+04  0.21800892737E+04  0.12862460454E+04 0.  0.
        1    1    3    3  502    0  0.22046562681E+03 -0.19952945207E+03 -0.18466459278E+04  0.18704326445E+04  0.50400001928E-02 0. -1.
       -1    1    3    3    0  502 -0.22046562681E+03  0.19952945207E+03  0.86429931987E+02  0.30965662921E+03  0.50400001928E-02 0.  1.
</event>
<event>
 5   0  0.9081324E-04  0.1263248E+04  0.7818609E-02  0.9059229E-01
       -1   -1    0    0    0  501  0.00000000000E+00  0.00000000000E+00  0.16858984244E+03  0.16858984252E+03  0.50400001928E-02 0.  1.
        1   -1    0    0  501    0  0.00000000000E+00  0.00000000000E+00 -0.23663866682E+04  0.23663866683E+04  0.50400001928E-02 0. -1.
    10030    2    1    2    0    0  0.00000000000E+00  0.00000000000E+00 -0.21977968258E+04  0.25349765108E+04  0.12632478073E+04 0.  0.
        4    1    3    3  502    0 -0.17762256539E+03  0.40915368973E+03 -0.19963069681E+04  0.20455316281E+04  0.12699999809E+01 0.  1.
       -4    1    3    3    0  502  0.17762256539E+03 -0.40915368973E+03 -0.20148985769E+03  0.48944488270E+03  0.12699999809E+01 0. -1.
</event>
<event>
 5   0  0.1714861E-03  0.1300554E+04  0.7818609E-02  0.9029126E-01
       -2   -1    0    0    0  501  0.00000000000E+00  0.00000000000E+00  0.20098230618E+03  0.20098230619E+03  0.25500000920E-02 0.  1.
        2   -1    0    0  501    0  0.00000000000E+00  0.00000000000E+00 -0.21039687721E+04  0.21039687721E+04  0.25500000920E-02 0. -1.
    10030    2    1    2    0    0  0.00000000000E+00  0.00000000000E+00 -0.19029864660E+04  0.23049510783E+04  0.13005544909E+04 0.  0.
        1    1    3    3  502    0 -0.14262368590E+02  0.28395357415E+03  0.84993241824E+02  0.29674382657E+03  0.50400001928E-02 0.  1.
       -1    1    3    3    0  502  0.14262368590E+02 -0.28395357415E+03 -0.19879797078E+04  0.20082072518E+04  0.50400001928E-02 0. -1.
</event>
<event>
 5   0  0.1623890E-03  0.1360256E+04  0.7818609E-02  0.8983101E-01
        2   -1    0    0  501    0  0.00000000000E+00  0.00000000000E+00  0.88750638351E+03  0.88750638351E+03  0.25500000920E-02 0.  1.
       -2   -1    0    0    0  501  0.00000000000E+00  0.00000000000E+00 -0.52120650063E+03  0.52120650064E+03  0.25500000920E-02 0. -1.
    10030    2    1    2    0    0  0.00000000000E+00  0.00000000000E+00  0.36629988288E+03  0.14087128842E+04  0.13602560001E+04 0.  0.
        3    1    3    3  502    0 -0.10656684958E+03  0.18114410623E+03  0.85303449045E+03  0.87854284628E+03  0.10100000352E+00 0.  1.
       -3    1    3    3    0  502  0.10656684958E+03 -0.18114410623E+03 -0.48673460757E+03  0.53017003787E+03  0.10100000352E+00 0. -1.
</event>
<event>
 5   0  0.9110949E-04  0.1271459E+04  0.7818609E-02  0.9052509E-01
       -1   -1    0    0    0  501  0.00000000000E+00  0.00000000000E+00  0.24137830035E+03  0.24137830041E+03  0.50400001928E-02 0. -1.
        1   -1    0    0  501    0  0.00000000000E+00  0.00000000000E+00 -0.16743521987E+04  0.16743521987E+04  0.50400001928E-02 0.  1.
    10030    2    1    2    0    0  0.00000000000E+00  0.00000000000E+00 -0.14329738984E+04  0.19157304991E+04  0.12714594574E+04 0.  0.
        2    1    3    3  502    0  0.39405554200E+03 -0.46142462802E+03 -0.43076690110E+03  0.74414553725E+03  0.25500000920E-02 0. -1.
       -2    1    3    3    0  502 -0.39405554200E+03  0.46142462802E+03 -0.10022069973E+04  0.11715849619E+04  0.25500000920E-02 0.  1.
</event>
<event>
 5   0  0.1623890E-03  0.1291592E+04  0.7818609E-02  0.9036259E-01
        2   -1    0    0  501    0  0.00000000000E+00  0.00000000000E+00  0.71403594679E+03  0.71403594680E+03  0.25500000920E-02 0. -1.
       -2   -1    0    0    0  501  0.00000000000E+00  0.00000000000E+00 -0.58407791965E+03  0.58407791965E+03  0.25500000920E-02 0.  1.
    10030    2    1    2    0    0  0.00000000000E+00  0.00000000000E+00  0.12995802715E+03  0.12981138664E+04  0.12915922427E+04 0.  0.
        3    1    3    3  502    0 -0.54897817953E+03 -0.28835855297E+03  0.24623631206E+03  0.66720313867E+03  0.10100000352E+00 0. -1.
       -3    1    3    3    0  502  0.54897817953E+03  0.28835855297E+03 -0.11627828491E+03  0.63091072777E+03  0.10100000352E+00 0.  1.
</event>
<event>
 5   0  0.9081324E-04  0.1287948E+04  0.7818609E-02  0.9039177E-01
        1   -1    0    0  501    0  0.00000000000E+00  0.00000000000E+00  0.30848211640E+03  0.30848211644E+03  0.50400001928E-02 0.  1.
       -1   -1    0    0    0  501  0.00000000000E+00  0.00000000000E+00 -0.13443326637E+04  0.13443326637E+04  0.50400001928E-02 0. -1.
    10030    2    1    2    0    0  0.00000000000E+00  0.00000000000E+00 -0.10358505473E+04  0.16528147801E+04  0.12879481127E+04 0.  0.
        4    1    3    3  502    0 -0.12059072009E+03 -0.40694043528E+03  0.10358920994E+03  0.43689240890E+03  0.12699999809E+01 0.  1.
       -4    1    3    3    0  502  0.12059072009E+03  0.40694043528E+03 -0.11394397572E+04  0.12159223712E+04  0.12699999809E+01 0. -1.
</event>
<event>
 5   0  0.9110949E-04  0.1308134E+04  0.7818609E-02  0.9023140E-01
        1   -1    0    0  501    0  0.00000000000E+00  0.00000000000E+00  0.63819952725E+03  0.63819952727E+03  0.50400001928E-02 0. -1.
       -1   -1    0    0    0  501  0.00000000000E+00  0.00000000000E+00 -0.67032850530E+03  0.67032850532E+03  0.50400001928E-02 0.  1.
    10030    2    1    2    0    0  0.00000000000E+00  0.00000000000E+00 -0.32128978056E+02  0.13085280326E+04  0.13081335333E+04 0.  0.
        2    1    3    3  502    0  0.58231878061E+03  0.26374502733E+03  0.12234896255E+03  0.65086547791E+03  0.25500000920E-02 0.  1.
       -2    1    3    3    0  502 -0.58231878061E+03 -0.26374502733E+03 -0.15447794061E+03  0.65766255468E+03  0.25500000920E-02 0. -1.
</event>
<event>
 5   0  0.9081324E-04  0.1315883E+04  0.7818609E-02  0.9017064E-01
       -1   -1    0    0    0  501  0.00000000000E+00  0.00000000000E+00  0.34299000202E+03  0.34299000206E+03  0.50400001928E-02 0. -1.
        1   -1    0    0  501    0  0.00000000000E+00  0.00000000000E+00 -0.12620972877E+04  0.12620972877E+04  0.50400001928E-02 0.  1.
    10030    2    1    2    0    0  0.00000000000E+00  0.00000000000E+00 -0.91910728569E+03  0.16050872898E+04  0.13158825955E+04 0.  0.
        4    1    3    3  502    0 -0.62527933868E+03 -0.18532154308E+02 -0.70824356423E+03  0.94494880882E+03  0.12699999809E+01 0.  1.
       -4    1    3    3    0  502  0.62527933868E+03  0.18532154308E+02 -0.21086372146E+03  0.66013848096E+03  0.12699999809E+01 0. -1.
</event>
<event>
 5   0  0.1714861E-03  0.1307471E+04  0.7818609E-02  0.9023661E-01
       -2   -1    0    0    0  501  0.00000000000E+00  0.00000000000E+00  0.53550649557E+03  0.53550649557E+03  0.25500000920E-02 0. -1.
        2   -1    0    0  501    0  0.00000000000E+00  0.00000000000E+00 -0.79806754748E+03  0.79806754749E+03  0.25500000920E-02 0.  1.
    10030    2    1    2    0    0  0.00000000000E+00  0.00000000000E+00 -0.26256105191E+03  0.13335740431E+04  0.13074713849E+04 0.  0.
        1    1    3    3  502    0 -0.36155147272E+02 -0.30232357895E+03  0.45876998341E+03  0.55061478255E+03  0.50400001928E-02 0. -1.
       -1    1    3    3    0  502  0.36155147272E+02  0.30232357895E+03 -0.72133103532E+03  0.78295926051E+03  0.50400001928E-02 0.  1.
</event>
<event>
 5   0  0.9098192E-04  0.1322499E+04  0.7818609E-02  0.9011911E-01
        1   -1    0    0  501    0  0.00000000000E+00  0.00000000000E+00  0.71961838631E+03  0.71961838633E+03  0.50400001928E-02 0. -1.
       -1   -1    0    0    0  501  0.00000000000E+00  0.00000000000E+00 -0.60761484732E+03  0.60761484734E+03  0.50400001928E-02 0.  1.
    10030    2    1    2    0    0  0.00000000000E+00  0.00000000000E+00  0.11200353900E+03  0.13272332337E+04  0.13224988710E+04 0.  0.
        1    1    3    3  502    0 -0.11041973787E+03  0.59866881606E+03  0.31510025285E+03  0.68548161113E+03  0.50400001928E-02 0. -1.
       -1    1    3    3    0  502  0.11041973787E+03 -0.59866881606E+03 -0.20309671385E+03  0.64175162254E+03  0.50400001928E-02 0.  1.
</event>
<event>
 5   0  0.9081324E-04  0.1288883E+04  0.7818609E-02  0.9038428E-01
        1   -1    0    0  501    0  0.00000000000E+00  0.00000000000E+00  0.62498206671E+03  0.62498206673E+03  0.50400001928E-02 0. -1.
       -1   -1    0    0    0  501  0.00000000000E+00  0.00000000000E+00 -0.66450711990E+03  0.66450711992E+03  0.50400001928E-02 0.  1.
    10030    2    1    2    0    0  0.00000000000E+00  0.00000000000E+00 -0.39525053197E+02  0.12894891867E+04  0.12888832890E+04 0.  0.
        4    1    3    3  502    0 -0.11332754030E+03 -0.10553558964E+03  0.60608931868E+03  0.62556116183E+03  0.12699999809E+01 0. -1.
       -4    1    3    3    0  502  0.11332754030E+03  0.10553558964E+03 -0.64561437188E+03  0.66392802482E+03  0.12699999809E+01 0.  1.
</event>
<event>
 5   0  0.1700511E-03  0.1310493E+04  0.7818609E-02  0.9021285E-01
       -2   -1    0    0    0  501  0.00000000000E+00  0.00000000000E+00  0.28058251050E+03  0.28058251051E+03  0.25500000920E-02 0.  1.
        2   -1    0    0  501    0  0.00000000000E+00  0.00000000000E+00 -0.15302033306E+04  0.15302033306E+04  0.25500000920E-02 0. -1.
    10030    2    1    2    0    0  0.00000000000E+00  0.00000000000E+00 -0.12496208201E+04  0.18107858412E+04  0.13104934828E+04 0.  0.
        2    1    3    3  502    0  0.27985997789E+03  0.17401515803E+03  0.15774022704E+03  0.36535580149E+03  0.25500000920E-02 0.  1.
       -2    1    3    3    0  502 -0.27985997789E+03 -0.17401515803E+03 -0.14073610472E+04  0.14454300397E+04  0.25500000920E-02 0. -1.
</event>
<event>
 5   0  0.1700511E-03  0.1287313E+04  0.7818609E-02  0.9039687E-01
       -2   -1    0    0    0  501  0.00000000000E+00  0.00000000000E+00  0.51757339571E+03  0.51757339572E+03  0.25500000920E-02 0. -1.
        2   -1    0    0  501    0  0.00000000000E+00  0.00000000000E+00 -0.80045391183E+03  0.80045391183E+03  0.25500000920E-02 0.  1.
    10030    2    1    2    0    0  0.00000000000E+00  0.00000000000E+00 -0.28288051612E+03  0.13180273075E+04  0.12873129367E+04 0.  0.
        2    1    3    3  502    0 -0.12862820635E+03  0.62760124114E+03 -0.20509364772E+03  0.67267520966E+03  0.25500000920E-02 0. -1.
       -2    1    3    3    0  502  0.12862820635E+03 -0.62760124114E+03 -0.77786868403E+02  0.64535209789E+03  0.25500000920E-02 0.  1.
</event>
<event>
 5   0  0.6284125E-04  0.1311199E+04  0.7818609E-02  0.9020731E-01
        4   -1    0    0  501    0  0.00000000000E+00  0.00000000000E+00  0.45583671437E+03  0.45583848353E+03  0.12699999809E+01 0.  1.
       -4   -1    0    0    0  501  0.00000000000E+00  0.00000000000E+00 -0.94290132482E+03  0.94290218011E+03  0.12699999809E+01 0. -1.
    10030    2    1    2    0    0  0.00000000000E+00  0.00000000000E+00 -0.48706461045E+03  0.13987406636E+04  0.13111992638E+04 0.  0.
        4    1    3    3  502    0 -0.87349879561E+02 -0.28011786624E+03  0.38188031028E+03  0.48159132542E+03  0.12699999809E+01 0.  1.
       -4    1    3    3    0  502  0.87349879561E+02  0.28011786624E+03 -0.86894492072E+03  0.91714933822E+03  0.12699999809E+01 0. -1.
</event>
<event>
 5   0  0.1714861E-03  0.1338723E+04  0.7818609E-02  0.8999409E-01
        2   -1    0    0  501    0  0.00000000000E+00  0.00000000000E+00  0.12292853964E+04  0.12292853964E+04  0.25500000920E-02 0. -1.
       -2   -1    0    0    0  501  0.00000000000E+00  0.00000000000E+00 -0.36447585229E+03  0.36447585230E+03  0.25500000920E-02 0.  1.
    10030    2    1    2    0    0  0.00000000000E+00  0.00000000000E+00  0.86480954407E+03  0.15937612487E+04  0.13387230372E+04 0.  0.
        1    1    3    3  502    0 -0.28612267419E+03  0.38627154703E+02 -0.28653486738E+03  0.40676832721E+03  0.50400001928E-02 0.  1.
       -1    1    3    3    0  502  0.28612267419E+03 -0.38627154703E+02  0.11513444115E+04  0.11869929215E+04  0.50400001928E-02 0. -1.
</event>
<event>
 5   0  0.9215829E-04  0.1300173E+04  0.7818609E-02  0.9029428E-01
        1   -1    0    0  501    0  0.00000000000E+00  0.00000000000E+00  0.52115044686E+03  0.52115044688E+03  0.50400001928E-02 0.  1.
       -1   -1    0    0    0  501  0.00000000000E+00  0.00000000000E+00 -0.81092165771E+03  0.81092165773E+03  0.50400001928E-02 0. -1.
    10030    2    1    2    0    0  0.00000000000E+00  0.00000000000E+00 -0.28977121085E+03  0.13320721046E+04  0.13001725798E+04 0.  0.
        3    1    3    3  502    0 -0.40954298294E+03 -0.34049429533E+03 -0.52679167440E+03  0.74911367524E+03  0.10100000352E+00 0. -1.
       -3    1    3    3    0  502  0.40954298294E+03  0.34049429533E+03  0.23702046354E+03  0.58295842936E+03  0.10100000352E+00 0.  1.
</event>
<event>
 5   0  0.1694675E-03  0.1292518E+04  0.7818609E-02  0.9035519E-01
        2   -1    0    0  501    0  0.00000000000E+00  0.00000000000E+00  0.18693120672E+04  0.18693120672E+04  0.25500000920E-02 0.  1.
       -2   -1    0    0    0  501  0.00000000000E+00  0.00000000000E+00 -0.22342492007E+03  0.22342492009E+03  0.25500000920E-02 0. -1.
    10030    2    1    2    0    0  0.00000000000E+00  0.00000000000E+00  0.16458871472E+04  0.20927369873E+04  0.12925183159E+04 0.  0.
        4    1    3    3  502    0 -0.22676052047E+03 -0.51444092103E+02  0.17992348412E+04  0.18141980198E+04  0.12699999809E+01 0.  1.
       -4    1    3    3    0  502  0.22676052047E+03  0.51444092103E+02 -0.15334769406E+03  0.27853896753E+03  0.12699999809E+01 0. -1.
</event>
<event>
 5   0  0.1667342E-03  0.1298532E+04  0.7818609E-02  0.9030730E-01
       -2   -1    0    0    0  501  0.00000000000E+00  0.00000000000E+00  0.42180733545E+03  0.42180733546E+03  0.25500000920E-02 0. -1.
        2   -1    0    0  501    0  0.00000000000E+00  0.00000000000E+00 -0.99938088750E+03  0.99938088751E+03  0.25500000920E-02 0.  1.
    10030    2    1    2    0    0  0.00000000000E+00  0.00000000000E+00 -0.57757355205E+03  0.14211882230E+04  0.12985317698E+04 0.  0.
        5    1    3    3  502    0 -0.26300185882E+03  0.28762277434E+03  0.27951749584E+03  0.47963419242E+03  0.46999998093E+01 0. -1.
       -5    1    3    3    0  502  0.26300185882E+03 -0.28762277434E+03 -0.85709104789E+03  0.94155403054E+03  0.46999998093E+01 0.  1.
</event>
<event>
 5   0  0.1623890E-03  0.1301086E+04  0.7818609E-02  0.9028705E-01
        2   -1    0    0  501    0  0.00000000000E+00  0.00000000000E+00  0.88030589228E+03  0.88030589229E+03  0.25500000920E-02 0. -1.
       -2   -1    0    0    0  501  0.00000000000E+00  0.00000000000E+00 -0.48074887580E+03  0.48074887580E+03  0.25500000920E-02 0.  1.
    10030    2    1    2    0    0  0.00000000000E+00  0.00000000000E+00  0.39955701648E+03  0.13610547681E+04  0.13010858051E+04 0.  0.
        3    1    3    3  502    0 -0.24426978395E+03  0.42143767783E+03  0.65084729826E+03  0.81294505319E+03  0.10100000352E+00 0. -1.
       -3    1    3    3    0  502  0.24426978395E+03 -0.42143767783E+03 -0.25129028178E+03  0.54810971490E+03  0.10100000352E+00 0.  1.
</event>
<event>
 5   0  0.9098192E-04  0.1292343E+04  0.7818609E-02  0.9035660E-01
       -1   -1    0    0    0  501  0.00000000000E+00  0.00000000000E+00  0.24870826384E+03  0.24870826389E+03  0.50400001928E-02 0.  1.
        1   -1    0    0  501    0  0.00000000000E+00  0.00000000000E+00 -0.16788241857E+04  0.16788241857E+04  0.50400001928E-02 0. -1.
    10030    2    1    2    0    0  0.00000000000E+00  0.00000000000E+00 -0.14301159218E+04  0.19275324496E+04  0.12923427542E+04 0.  0.
        1    1    3    3  502    0 -0.47321233499E+03 -0.29794259077E+03 -0.11979864495E+04  0.13220708130E+04  0.50400001928E-02 0. -1.
       -1    1    3    3    0  502  0.47321233499E+03  0.29794259077E+03 -0.23212947229E+03  0.60546163653E+03  0.50400001928E-02 0.  1.
</event>
<event>
 5   0  0.9110949E-04  0.1306295E+04  0.7818609E-02  0.9024588E-01
        1   -1    0    0  501    0  0.00000000000E+00  0.00000000000E+00  0.11179054751E+04  0.11179054752E+04  0.50400001928E-02 0.  1.
       -1   -1    0    0    0  501  0.00000000000E+00  0.00000000000E+00 -0.38160785344E+03  0.38160785347E+03  0.50400001928E-02 0. -1.
    10030    2    1    2    0    0  0.00000000000E+00  0.00000000000E+00  0.73629762170E+03  0.14995133286E+04  0.13062947734E+04 0.  0.
        2    1    3    3  502    0 -0.19344287122E+03  0.12215718007E+03 -0.33410686900E+03  0.40493199551E+03  0.25500000920E-02 0. -1.
       -2    1    3    3    0  502  0.19344287122E+03 -0.12215718007E+03  0.10704044907E+04  0.10945813331E+04  0.25500000920E-02 0.  1.
</event>
<event>
 5   0  0.9110949E-04  0.1299836E+04  0.7818609E-02  0.9029695E-01
        1   -1    0    0  501    0  0.00000000000E+00  0.00000000000E+00  0.87102722390E+03  0.87102722391E+03  0.50400001928E-02 0.  1.
       -1   -1    0    0    0  501  0.00000000000E+00  0.00000000000E+00 -0.48493692972E+03  0.48493692975E+03  0.50400001928E-02 0. -1.
    10030    2    1    2    0    0  0.00000000000E+00  0.00000000000E+00  0.38609029418E+03  0.13559641537E+04  0.12998357861E+04 0.  0.
        2    1    3    3  502    0  0.72708653436E+01  0.14136894979E+03 -0.46866004207E+03  0.48957152745E+03  0.25500000920E-02 0. -1.
       -2    1    3    3    0  502 -0.72708653436E+01 -0.14136894979E+03  0.85475033624E+03  0.86639262622E+03  0.25500000920E-02 0.  1.
</event>
<event>
 5   0  0.1700511E-03  0.1304674E+04  0.7818609E-02  0.9025867E-01
       -2   -1    0    0    0  501  0.00000000000E+00  0.00000000000E+00  0.27145653778E+03  0.27145653779E+03  0.25500000920E-02 0.  1.
        2   -1    0    0  501    0  0.00000000000E+00  0.00000000000E+00 -0.15676300806E+04  0.15676300806E+04  0.25500000920E-02 0. -1.
    10030    2    1    2    0    0  0.00000000000E+00  0.00000000000E+00 -0.12961735429E+04  0.18390866184E+04  0.13046738048E+04 0.  0.
        2    1    3    3  502    0  0.33613509660E+03 -0.50837869424E+03 -0.97597808833E+03  0.11506384875E+04  0.25500000920E-02 0. -1.
       -2    1    3    3    0  502 -0.33613509660E+03  0.50837869424E+03 -0.32019545453E+03  0.68844813097E+03  0.25500000920E-02 0.  1.
</event>
<event>
 5   0  0.1694675E-03  0.1315217E+04  0.7818609E-02  0.9017584E-01
       -2   -1    0    0    0  501  0.00000000000E+00  0.00000000000E+00  0.10163384346E+04  0.10163384346E+04  0.25500000920E-02 0.  1.
        2   -1    0    0  501    0  0.00000000000E+00  0.00000000000E+00 -0.42549679660E+03  0.42549679661E+03  0.25500000920E-02 0. -1.
    10030    2    1    2    0    0  0.00000000000E+00  0.00000000000E+00  0.59084163800E+03  0.14418352312E+04  0.13152167094E+04 0.  0.
        4    1    3    3  502    0 -0.42756551451E+03  0.42155961074E+03  0.14188206660E+01  0.60044017234E+03  0.12699999809E+01 0. -1.
       -4    1    3    3    0  502  0.42756551451E+03 -0.42155961074E+03  0.58942281733E+03  0.84139505887E+03  0.12699999809E+01 0.  1.
</event>
<event>
 5   0  0.1667342E-03  0.1298761E+04  0.7818609E-02  0.9030549E-01
        2   -1    0    0  501    0  0.00000000000E+00  0.00000000000E+00  0.26899915203E+03  0.26899915204E+03  0.25500000920E-02 0.  1.
       -2   -1    0    0    0  501  0.00000000000E+00  0.00000000000E+00 -0.15676435058E+04  0.15676435058E+04  0.25500000920E-02 0. -1.
    10030    2    1    2    0    0  0.00000000000E+00  0.00000000000E+00 -0.12986443538E+04  0.18366426578E+04  0.12987605996E+04 0.  0.
        5    1    3    3  502    0  0.28343604642E+03 -0.57927625962E+03 -0.54184948771E+03  0.84233006280E+03  0.46999998093E+01 0. -1.
       -5    1    3    3    0  502 -0.28343604642E+03  0.57927625962E+03 -0.75679486606E+03  0.99431259504E+03  0.46999998093E+01 0.  1.
</event>
<event>
 5   0  0.9098192E-04  0.1287141E+04  0.7818609E-02  0.9039825E-01
       -1   -1    0    0    0  501  0.00000000000E+00  0.00000000000E+00  0.39647815051E+03  0.39647815054E+03  0.50400001928E-02 0. -1.
        1   -1    0    0  501    0  0.00000000000E+00  0.00000000000E+00 -0.10446555936E+04  0.10446555936E+04  0.50400001928E-02 0.  1.
    10030    2    1    2    0    0  0.00000000000E+00  0.00000000000E+00 -0.64817744307E+03  0.14411337441E+04  0.12871412008E+04 0.  0.
        1    1    3    3  502    0  0.23212785164E+02 -0.32734968853E+02 -0.10432533884E+04  0.10440249250E+04  0.50400001928E-02 0.  1.
       -1    1    3    3    0  502 -0.23212785164E+02  0.32734968853E+02  0.39507594536E+03  0.39710881910E+03  0.50400001928E-02 0. -1.
</event>
<event>
 5   0  0.9081324E-04  0.1361619E+04  0.7818609E-02  0.8982079E-01
       -1   -1    0    0    0  501  0.00000000000E+00  0.00000000000E+00  0.22520056010E+04  0.22520056010E+04  0.50400001928E-02 0. -1.
        1   -1    0    0  501    0  0.00000000000E+00  0.00000000000E+00 -0.20581718534E+03  0.20581718541E+03  0.50400001928E-02 0.  1.
    10030    2    1    2    0    0  0.00000000000E+00  0.00000000000E+00  0.20461884157E+04  0.24578227865E+04  0.13616188222E+04 0.  0.
        4    1    3    3  502    0  0.31622308282E+03  0.20015551178E+03 -0.34845412178E+01  0.37426330561E+03  0.12699999809E+01 0.  1.
       -4    1    3    3    0  502 -0.31622308282E+03 -0.20015551178E+03  0.20496729569E+04  0.20835594808E+04  0.12699999809E+01 0. -1.
</event>
<event>
 5   0  0.1700511E-03  0.1301267E+04  0.7818609E-02  0.9028561E-01
       -2   -1    0    0    0  501  0.00000000000E+00  0.00000000000E+00  0.90991509495E+03  0.90991509495E+03  0.25500000920E-02 0. -1.
        2   -1    0    0  501    0  0.00000000000E+00  0.00000000000E+00 -0.46523467733E+03  0.46523467733E+03  0.25500000920E-02 0.  1.
    10030    2    1    2    0    0  0.00000000000E+00  0.00000000000E+00  0.44468041762E+03  0.13751497723E+04  0.13012671603E+04 0.  0.
        2    1    3    3  502    0  0.37421501201E+03  0.21641583770E+03  0.73621160582E+03  0.85374482052E+03  0.25500000920E-02 0. -1.
       -2    1    3    3    0  502 -0.37421501201E+03 -0.21641583770E+03 -0.29153118819E+03  0.52140495176E+03  0.25500000920E-02 0.  1.
</event>
<event>
 5   0  0.1714861E-03  0.1330384E+04  0.7818609E-02  0.9005811E-01
       -2   -1    0    0    0  501  0.00000000000E+00  0.00000000000E+00  0.60465435922E+03  0.60465435923E+03  0.25500000920E-02 0. -1.
        2   -1    0    0  501    0  0.00000000000E+00  0.00000000000E+00 -0.73179059295E+03  0.73179059295E+03  0.25500000920E-02 0.  1.
    10030    2    1    2    0    0  0.00000000000E+00  0.00000000000E+00 -0.12713623372E+03  0.13364449522E+04  0.13303839627E+04 0.  0.
        1    1    3    3  502    0 -0.28049259801E+03  0.41046244025E+03  0.38040107509E+03  0.62598761197E+03  0.50400001928E-02 0. -1.
       -1    1    3    3    0  502  0.28049259801E+03 -0.41046244025E+03 -0.50753730881E+03  0.71045734021E+03  0.50400001928E-02 0.  1.
</event>
<event>
 5   0  0.1714861E-03  0.1307380E+04  0.7818609E-02  0.9023733E-01
        2   -1    0    0  501    0  0.00000000000E+00  0.00000000000E+00  0.11511417519E+04  0.11511417519E+04  0.25500000920E-02 0. -1.
       -2   -1    0    0    0  501  0.00000000000E+00  0.00000000000E+00 -0.37120587065E+03  0.37120587066E+03  0.25500000920E-02 0.  1.
    10030    2    1    2    0    0  0.00000000000E+00  0.00000000000E+00  0.77993588130E+03  0.15223476226E+04  0.13073799391E+04 0.  0.
        1    1    3    3  502    0 -0.61907384194E+03  0.20061993818E+03  0.46184045094E+03  0.79799585433E+03  0.50400001928E-02 0. -1.
       -1    1    3    3    0  502  0.61907384194E+03 -0.20061993818E+03  0.31809543035E+03  0.72435176828E+03  0.50400001928E-02 0.  1.
</event>
<event>
 5   0  0.9110949E-04  0.1145698E+04  0.7818609E-02  0.9161762E-01
        1   -1    0    0  501    0  0.00000000000E+00  0.00000000000E+00  0.10833586515E+04  0.10833586515E+04  0.50400001928E-02 0.  1.
       -1   -1    0    0    0  501  0.00000000000E+00  0.00000000000E+00 -0.30290606152E+03  0.30290606156E+03  0.50400001928E-02 0. -1.
    10030    2    1    2    0    0  0.00000000000E+00  0.00000000000E+00  0.78045259001E+03  0.13862647131E+04  0.11456978701E+04 0.  0.
        2    1    3    3  502    0  0.53769731856E+03  0.84841456674E+02  0.60612928595E+03  0.81468349097E+03  0.25500000920E-02 0.  1.
       -2    1    3    3    0  502 -0.53769731856E+03 -0.84841456674E+02  0.17432330406E+03  0.57158122214E+03  0.25500000920E-02 0. -1.
</event>
<event>
 5   0  0.1667342E-03  0.1290625E+04  0.7818609E-02  0.9037033E-01
       -2   -1    0    0    0  501  0.00000000000E+00  0.00000000000E+00  0.71117961900E+03  0.71117961901E+03  0.25500000920E-02 0.  1.
        2   -1    0    0  501    0  0.00000000000E+00  0.00000000000E+00 -0.58554535172E+03  0.58554535173E+03  0.25500000920E-02 0. -1.
    10030    2    1    2    0    0  0.00000000000E+00  0.00000000000E+00  0.12563426728E+03  0.12967249707E+04  0.12906245312E+04 0.  0.
        5    1    3    3  502    0  0.36945189076E+03  0.51246630473E+03  0.19492787631E+03  0.66116214353E+03  0.46999998093E+01 0. -1.
       -5    1    3    3    0  502 -0.36945189076E+03 -0.51246630473E+03 -0.69293609025E+02  0.63556282720E+03  0.46999998093E+01 0.  1.
</event>
<event>
 5   0  0.9081324E-04  0.1293806E+04  0.7818609E-02  0.9034492E-01
        1   -1    0    0  501    0  0.00000000000E+00  0.00000000000E+00  0.92779665361E+03  0.92779665362E+03  0.50400001928E-02 0. -1.
       -1   -1    0    0    0  501  0.00000000000E+00  0.00000000000E+00 -0.45105085726E+03  0.45105085729E+03  0.50400001928E-02 0.  1.
    10030    2    1    2    0    0  0.00000000000E+00  0.00000000000E+00  0.47674579635E+03  0.13788475109E+04  0.12938059762E+04 0.  0.
        4    1    3    3  502    0 -0.36579250274E+03  0.22156435613E+03 -0.27890353904E+03  0.51057194984E+03  0.12699999809E+01 0.  1.
       -4    1    3    3    0  502  0.36579250274E+03 -0.22156435613E+03  0.75564933539E+03  0.86827556107E+03  0.12699999809E+01 0. -1.
</event>
<event>
 5   0  0.9098192E-04  0.1318755E+04  0.7818609E-02  0.9014823E-01
        1   -1    0    0  501    0  0.00000000000E+00  0.00000000000E+00  0.77395177290E+03  0.77395177292E+03  0.50400001928E-02 0.  1.
       -1   -1    0    0    0  501  0.00000000000E+00  0.00000000000E+00 -0.56176419537E+03  0.56176419539E+03  0.50400001928E-02 0. -1.
    10030    2    1    2    0    0  0.00000000000E+00  0.00000000000E+00  0.21218757753E+03  0.13357159683E+04  0.13187545564E+04 0.  0.
        1    1    3    3  502    0 -0.32491917778E+03  0.57318080107E+03  0.13230503989E+03  0.67202181989E+03  0.50400001928E-02 0. -1.
       -1    1    3    3    0  502  0.32491917778E+03 -0.57318080107E+03  0.79882537638E+02  0.66369414842E+03  0.50400001928E-02 0.  1.
</event>
<event>
 5   0  0.9098192E-04  0.1316673E+04  0.7818609E-02  0.9016447E-01
       -1   -1    0    0    0  501  0.00000000000E+00  0.00000000000E+00  0.35004638859E+03  0.35004638862E+03  0.50400001928E-02 0. -1.
        1   -1    0    0  501    0  0.00000000000E+00  0.00000000000E+00 -0.12381414395E+04  0.12381414396E+04  0.50400001928E-02 0.  1.
    10030    2    1    2    0    0  0.00000000000E+00  0.00000000000E+00 -0.88809505096E+03  0.15881878282E+04  0.13166729883E+04 0.  0.
        1    1    3    3  502    0  0.24443192154E+03  0.18464245932E+03 -0.11469365533E+04  0.11871407918E+04  0.50400001928E-02 0.  1.
       -1    1    3    3    0  502 -0.24443192154E+03 -0.18464245932E+03  0.25884150237E+03  0.40104703643E+03  0.50400001928E-02 0. -1.
</event>
<event>
 5   0  0.9110949E-04  0.1323006E+04  0.7818609E-02  0.9011518E-01
        1   -1    0    0  501    0  0.00000000000E+00  0.00000000000E+00  0.14106306297E+04  0.14106306297E+04  0.50400001928E-02 0.  1.
       -1   -1    0    0    0  501  0.00000000000E+00  0.00000000000E+00 -0.31020595978E+03  0.31020595982E+03  0.50400001928E-02 0. -1.
    10030    2    1    2    0    0  0.00000000000E+00  0.00000000000E+00  0.11004246699E+04  0.17208365896E+04  0.13230057119E+04 0.  0.
        2    1    3    3  502    0  0.13065400650E+03 -0.33575653673E+03 -0.17139394196E+03  0.39897218539E+03  0.25500000920E-02 0. -1.
       -2    1    3    3    0  502 -0.13065400650E+03  0.33575653673E+03  0.12718186119E+04  0.13218644042E+04  0.25500000920E-02 0.  1.
</event>
<event>
 5   0  0.9098192E-04  0.1319145E+04  0.7818609E-02  0.9014520E-01
        1   -1    0    0  501    0  0.00000000000E+00  0.00000000000E+00  0.10185671556E+04  0.10185671556E+04  0.50400001928E-02 0. -1.
       -1   -1    0    0    0  501  0.00000000000E+00  0.00000000000E+00 -0.42710553692E+03  0.42710553695E+03  0.50400001928E-02 0.  1.
    10030    2    1    2    0    0  0.00000000000E+00  0.00000000000E+00  0.59146161870E+03  0.14456726926E+04  0.13191446803E+04 0.  0.
        1    1    3    3  502    0  0.58444247030E+02 -0.64150456866E+03  0.45107223894E+03  0.78639049230E+03  0.50400001928E-02 0. -1.
       -1    1    3    3    0  502 -0.58444247030E+02  0.64150456866E+03  0.14038937977E+03  0.65928220027E+03  0.50400001928E-02 0.  1.
</event>
<event>
 5   0  0.1623890E-03  0.1322248E+04  0.7818609E-02  0.9012106E-01
       -2   -1    0    0    0  501  0.00000000000E+00  0.00000000000E+00  0.32781525542E+03  0.32781525543E+03  0.25500000920E-02 0.  1.
        2   -1    0    0  501    0  0.00000000000E+00  0.00000000000E+00 -0.13333276932E+04  0.13333276932E+04  0.25500000920E-02 0. -1.
    10030    2    1    2    0    0  0.00000000000E+00  0.00000000000E+00 -0.10055124378E+04  0.16611429486E+04  0.13222483251E+04 0.  0.
        3    1    3    3  502    0  0.58643562972E+02 -0.32606192450E+03 -0.12215208347E+04  0.12656494799E+04  0.10100000352E+00 0. -1.
       -3    1    3    3    0  502 -0.58643562972E+02  0.32606192450E+03  0.21600839693E+03  0.39549346876E+03  0.10100000352E+00 0.  1.
</event>
<event>
 5   0  0.9215829E-04  0.1304792E+04  0.7818609E-02  0.9025774E-01
        1   -1    0    0  501    0  0.00000000000E+00  0.00000000000E+00  0.57129642322E+03  0.57129642325E+03  0.50400001928E-02 0.  1.
       -1   -1    0    0    0  501  0.00000000000E+00  0.00000000000E+00 -0.74500825643E+03  0.74500825645E+03  0.50400001928E-02 0. -1.
    10030    2    1    2    0    0  0.00000000000E+00  0.00000000000E+00 -0.17371183321E+03  0.13163046797E+04  0.13047920174E+04 0.  0.
        3    1    3    3  502    0 -0.50425153268E+03 -0.45683312335E+02 -0.50190302646E+03  0.71292582461E+03  0.10100000352E+00 0. -1.
       -3    1    3    3    0  502  0.50425153268E+03  0.45683312335E+02  0.32819119325E+03  0.60337885508E+03  0.10100000352E+00 0.  1.
</event>
<event>
 5   0  0.1694675E-03  0.1305182E+04  0.7818609E-02  0.9025465E-01
       -2   -1    0    0    0  501  0.00000000000E+00  0.00000000000E+00  0.37922765369E+03  0.37922765370E+03  0.25500000920E-02 0.  1.
        2   -1    0    0  501    0  0.00000000000E+00  0.00000000000E+00 -0.11230070712E+04  0.11230070712E+04  0.25500000920E-02 0. -1.
    10030    2    1    2    0    0  0.00000000000E+00  0.00000000000E+00 -0.74377941752E+03  0.15022347249E+04  0.13051824956E+04 0.  0.
        4    1    3    3  502    0 -0.33314998535E+03  0.21282550607E+03  0.22572122973E+03  0.45523103500E+03  0.12699999809E+01 0.  1.
       -4    1    3    3    0  502  0.33314998535E+03 -0.21282550607E+03 -0.96950064725E+03  0.10470036899E+04  0.12699999809E+01 0. -1.
</event>
<event>
 5   0  0.1623890E-03  0.1297126E+04  0.7818609E-02  0.9031848E-01
       -2   -1    0    0    0  501  0.00000000000E+00  0.00000000000E+00  0.20809558868E+03  0.20809558870E+03  0.25500000920E-02 0. -1.
        2   -1    0    0  501    0  0.00000000000E+00  0.00000000000E+00 -0.20213489018E+04  0.20213489018E+04  0.25500000920E-02 0.  1.
    10030    2    1    2    0    0  0.00000000000E+00  0.00000000000E+00 -0.18132533131E+04  0.22294444905E+04  0.12971257297E+04 0.  0.
        3    1    3    3  502    0 -0.10411546662E+03 -0.37110642097E+03 -0.18031424186E+04  0.18438770561E+04  0.10100000352E+00 0.  1.
       -3    1    3    3    0  502  0.10411546662E+03  0.37110642097E+03 -0.10110894510E+02  0.38556743439E+03  0.10100000352E+00 0. -1.
</event>
<event>
 5   0  0.1700511E-03  0.1292464E+04  0.7818609E-02  0.9035562E-01
       -2   -1    0    0    0  501  0.00000000000E+00  0.00000000000E+00  0.71366271891E+03  0.71366271892E+03  0.25500000920E-02 0. -1.
        2   -1    0    0  501    0  0.00000000000E+00  0.00000000000E+00 -0.58517280793E+03  0.58517280793E+03  0.25500000920E-02 0.  1.
    10030    2    1    2    0    0  0.00000000000E+00  0.00000000000E+00  0.12848991098E+03  0.12988355268E+04  0.12924643394E+04 0.  0.
        2    1    3    3  502    0  0.14963816311E+03  0.61080298024E+03  0.21378763641E+03  0.66421157324E+03  0.25500000920E-02 0. -1.
       -2    1    3    3    0  502 -0.14963816311E+03 -0.61080298024E+03 -0.85297725428E+02  0.63462395361E+03  0.25500000920E-02 0.  1.
</event>
<event>
 5   0  0.9027076E-04  0.1303637E+04  0.7818609E-02  0.9026686E-01
       -1   -1    0    0    0  501  0.00000000000E+00  0.00000000000E+00  0.23213380408E+03  0.23213380414E+03  0.50400001928E-02 0.  1.
        1   -1    0    0  501    0  0.00000000000E+00  0.00000000000E+00 -0.18302688939E+04  0.18302688939E+04  0.50400001928E-02 0. -1.
    10030    2    1    2    0    0  0.00000000000E+00  0.00000000000E+00 -0.15981350898E+04  0.20624026981E+04  0.13036368833E+04 0.  0.
        5    1    3    3  502    0  0.39912111073E+03  0.51469306332E+03 -0.75908921599E+03  0.10002225444E+04  0.46999998093E+01 0.  1.
       -5    1    3    3    0  502 -0.39912111073E+03 -0.51469306332E+03 -0.83904587385E+03  0.10621801537E+04  0.46999998093E+01 0. -1.
</event>
<event>
 5   0  0.9098192E-04  0.1296248E+04  0.7818609E-02  0.9032546E-01
       -1   -1    0    0    0  501  0.00000000000E+00  0.00000000000E+00  0.28375127254E+03  0.28375127258E+03  0.50400001928E-02 0.  1.
        1   -1    0    0  501    0  0.00000000000E+00  0.00000000000E+00 -0.14803980512E+04  0.14803980512E+04  0.50400001928E-02 0. -1.
    10030    2    1    2    0    0  0.00000000000E+00  0.00000000000E+00 -0.11966467787E+04  0.17641493238E+04  0.12962481721E+04 0.  0.
        1    1    3    3  502    0 -0.28685945770E+03  0.58043203191E+03 -0.63858449070E+03  0.90938432135E+03  0.50400001928E-02 0. -1.
       -1    1    3    3    0  502  0.28685945770E+03 -0.58043203191E+03 -0.55806228800E+03  0.85476500247E+03  0.50400001928E-02 0.  1.
</event>
<event>
 5   0  0.1714861E-03  0.1296676E+04  0.7818609E-02  0.9032205E-01
        2   -1    0    0  501    0  0.00000000000E+00  0.00000000000E+00  0.65630637694E+03  0.65630637694E+03  0.25500000920E-02 0.  1.
       -2   -1    0    0    0  501  0.00000000000E+00  0.00000000000E+00 -0.64046611200E+03  0.64046611201E+03  0.25500000920E-02 0. -1.
    10030    2    1    2    0    0  0.00000000000E+00  0.00000000000E+00  0.15840264934E+02  0.12967724889E+04  0.12966757398E+04 0.  0.
        1    1    3    3  502    0 -0.51586897893E+03 -0.12764138542E+03 -0.36349533600E+03  0.64384935040E+03  0.50400001928E-02 0. -1.
       -1    1    3    3    0  502  0.51586897893E+03  0.12764138542E+03  0.37933560094E+03  0.65292313855E+03  0.50400001928E-02 0.  1.
</event>
<event>
 5   0  0.1694675E-03  0.1298048E+04  0.7818609E-02  0.9031115E-01
        2   -1    0    0  501    0  0.00000000000E+00  0.00000000000E+00  0.13925806551E+04  0.13925806551E+04  0.25500000920E-02 0.  1.
       -2   -1    0    0    0  501  0.00000000000E+00  0.00000000000E+00 -0.30248298768E+03  0.30248298769E+03  0.25500000920E-02 0. -1.
    10030    2    1    2    0    0  0.00000000000E+00  0.00000000000E+00  0.10900976674E+04  0.16950636428E+04  0.12980476989E+04 0.  0.
        4    1    3    3  502    0  0.36914819278E+03 -0.35649169541E+02  0.12405801301E+04  0.12948289167E+04  0.12699999809E+01 0.  1.
       -4    1    3    3    0  502 -0.36914819278E+03  0.35649169541E+02 -0.15048246263E+03  0.40023472611E+03  0.12699999809E+01 0. -1.
</event>
<event>
 5   0  0.6284125E-04  0.1300095E+04  0.7818609E-02  0.9029490E-01
        4   -1    0    0  501    0  0.00000000000E+00  0.00000000000E+00  0.71144866530E+03  0.71144979883E+03  0.12699999809E+01 0.  1.
       -4   -1    0    0    0  501  0.00000000000E+00  0.00000000000E+00 -0.59394283666E+03  0.59394419445E+03  0.12699999809E+01 0. -1.
    10030    2    1    2    0    0  0.00000000000E+00  0.00000000000E+00  0.11750582864E+03  0.13053939933E+04  0.13000945573E+04 0.  0.
        2    1    3    3  502    0 -0.20919381001E+03  0.16993683940E+03  0.65270525999E+03  0.70616197573E+03  0.25500000920E-02 0.  1.
       -2    1    3    3    0  502  0.20919381001E+03 -0.16993683940E+03 -0.53519943136E+03  0.59923201756E+03  0.25500000920E-02 0. -1.
</event>
<event>
 5   0  0.1623890E-03  0.1292579E+04  0.7818609E-02  0.9035471E-01
       -2   -1    0    0    0  501  0.00000000000E+00  0.00000000000E+00  0.20712439610E+03  0.20712439611E+03  0.25500000920E-02 0.  1.
        2   -1    0    0  501    0  0.00000000000E+00  0.00000000000E+00 -0.20166141424E+04  0.20166141424E+04  0.25500000920E-02 0. -1.
    10030    2    1    2    0    0  0.00000000000E+00  0.00000000000E+00 -0.18094897463E+04  0.22237385385E+04  0.12925787967E+04 0.  0.
        3    1    3    3  502    0 -0.58294350189E+03 -0.27688407112E+03 -0.96439205744E+03  0.11604050870E+04  0.10100000352E+00 0.  1.
       -3    1    3    3    0  502  0.58294350189E+03  0.27688407112E+03 -0.84509768888E+03  0.10633334515E+04  0.10100000352E+00 0. -1.
</event>
<event>
 5   0  0.1694675E-03  0.1297880E+04  0.7818609E-02  0.9031248E-01
       -2   -1    0    0    0  501  0.00000000000E+00  0.00000000000E+00  0.64177987459E+03  0.64177987459E+03  0.25500000920E-02 0. -1.
        2   -1    0    0  501    0  0.00000000000E+00  0.00000000000E+00 -0.65618001976E+03  0.65618001977E+03  0.25500000920E-02 0.  1.
    10030    2    1    2    0    0  0.00000000000E+00  0.00000000000E+00 -0.14400145176E+02  0.12979598944E+04  0.12978800111E+04 0.  0.
        4    1    3    3  502    0  0.11972023448E+03  0.35385051612E+03  0.52347219767E+03  0.64309243265E+03  0.12699999809E+01 0. -1.
       -4    1    3    3    0  502 -0.11972023448E+03 -0.35385051612E+03 -0.53787234284E+03  0.65486746171E+03  0.12699999809E+01 0.  1.
</event>
<event>
 5   0  0.9027076E-04  0.1298392E+04  0.7818609E-02  0.9030842E-01
       -1   -1    0    0    0  501  0.00000000000E+00  0.00000000000E+00  0.26331177127E+03  0.26331177132E+03  0.50400001928E-02 0.  1.
        1   -1    0    0  501    0  0.00000000000E+00  0.00000000000E+00 -0.16005939120E+04  0.16005939120E+04  0.50400001928E-02 0. -1.
    10030    2    1    2    0    0  0.00000000000E+00  0.00000000000E+00 -0.13372821407E+04  0.18639056833E+04  0.12983916483E+04 0.  0.
        5    1    3    3  502    0 -0.33550020901E+03  0.48708126948E+03 -0.10528338933E+04  0.12075967250E+04  0.46999998093E+01 0. -1.
       -5    1    3    3    0  502  0.33550020901E+03 -0.48708126948E+03 -0.28444824740E+03  0.65630895832E+03  0.46999998093E+01 0.  1.
</event>
<event>
 5   0  0.9110949E-04  0.1307826E+04  0.7818609E-02  0.9023382E-01
        1   -1    0    0  501    0  0.00000000000E+00  0.00000000000E+00  0.15240277891E+04  0.15240277891E+04  0.50400001928E-02 0.  1.
       -1   -1    0    0    0  501  0.00000000000E+00  0.00000000000E+00 -0.28057376044E+03  0.28057376049E+03  0.50400001928E-02 0. -1.
    10030    2    1    2    0    0  0.00000000000E+00  0.00000000000E+00  0.12434540286E+04  0.18046015496E+04  0.13078259943E+04 0.  0.
        2    1    3    3  502    0 -0.33969113386E+03  0.29397749789E+03 -0.33939657762E+02  0.45051607748E+03  0.25500000920E-02 0. -1.
       -2    1    3    3    0  502  0.33969113386E+03 -0.29397749789E+03  0.12773936864E+04  0.13540854721E+04  0.25500000920E-02 0.  1.
</event>
<event>
 5   0  0.1694675E-03  0.1300151E+04  0.7818609E-02  0.9029445E-01
       -2   -1    0    0    0  501  0.00000000000E+00  0.00000000000E+00  0.27253180222E+03  0.27253180223E+03  0.25500000920E-02 0. -1.
        2   -1    0    0  501    0  0.00000000000E+00  0.00000000000E+00 -0.15506390510E+04  0.15506390510E+04  0.25500000920E-02 0.  1.
    10030    2    1    2    0    0  0.00000000000E+00  0.00000000000E+00 -0.12781072488E+04  0.18231708532E+04  0.13001514607E+04 0.  0.
        4    1    3    3  502    0 -0.13880734134E+03  0.36842709430E+02 -0.15281141153E+04  0.15348482744E+04  0.12699999809E+01 0.  1.
       -4    1    3    3    0  502  0.13880734134E+03 -0.36842709430E+02  0.25000686651E+03  0.28832257881E+03  0.12699999809E+01 0. -1.
</event>
<event>
 5   0  0.1623890E-03  0.1272150E+04  0.7818609E-02  0.9051947E-01
        2   -1    0    0  501    0  0.00000000000E+00  0.00000000000E+00  0.12398603793E+04  0.12398603793E+04  0.25500000920E-02 0.  1.
       -2   -1    0    0    0  501  0.00000000000E+00  0.00000000000E+00 -0.32631994920E+03  0.32631994921E+03  0.25500000920E-02 0. -1.
    10030    2    1    2    0    0  0.00000000000E+00  0.00000000000E+00  0.91354043009E+03  0.15661803285E+04  0.12721496390E+04 0.  0.
        3    1    3    3  502    0  0.49589389439E+03 -0.18079665358E+03  0.19774939046E+02  0.52819432300E+03  0.10100000352E+00 0. -1.
       -3    1    3    3    0  502 -0.49589389439E+03  0.18079665358E+03  0.89376549104E+03  0.10379860055E+04  0.10100000352E+00 0.  1.
</event>
<event>
 5   0  0.6284125E-04  0.1299858E+04  0.7818609E-02  0.9029678E-01
        3   -1    0    0  501    0  0.00000000000E+00  0.00000000000E+00  0.57994857814E+03  0.57994858693E+03  0.10100000352E+00 0. -1.
       -3   -1    0    0    0  501  0.00000000000E+00  0.00000000000E+00 -0.72835314639E+03  0.72835315339E+03  0.10100000352E+00 0.  1.
    10030    2    1    2    0    0  0.00000000000E+00  0.00000000000E+00 -0.14840456825E+03  0.13083017403E+04  0.12998575029E+04 0.  0.
        2    1    3    3  502    0 -0.32787135764E+02  0.59518316228E+03  0.18649655193E+03  0.62457902369E+03  0.25500000920E-02 0. -1.
       -2    1    3    3    0  502  0.32787135764E+02 -0.59518316228E+03 -0.33490112018E+03  0.68372271664E+03  0.25500000920E-02 0.  1.
</event>
<event>
 5   0  0.1700511E-03  0.1269329E+04  0.7818609E-02  0.9054247E-01
       -2   -1    0    0    0  501  0.00000000000E+00  0.00000000000E+00  0.15877063440E+03  0.15877063442E+03  0.25500000920E-02 0.  1.
        2   -1    0    0  501    0  0.00000000000E+00  0.00000000000E+00 -0.25369883396E+04  0.25369883396E+04  0.25500000920E-02 0. -1.
    10030    2    1    2    0    0  0.00000000000E+00  0.00000000000E+00 -0.23782177052E+04  0.26957589740E+04  0.12693293476E+04 0.  0.
        2    1    3    3  502    0  0.23513794797E+03  0.46281222644E+02  0.58985549503E+02  0.24680174473E+03  0.25500000920E-02 0.  1.
       -2    1    3    3    0  502 -0.23513794797E+03 -0.46281222644E+02 -0.24372032547E+04  0.24489572293E+04  0.25500000920E-02 0. -1.
</event>
<event>
 5   0  0.1694675E-03  0.1298796E+04  0.7818609E-02  0.9030520E-01
       -2   -1    0    0    0  501  0.00000000000E+00  0.00000000000E+00  0.29623031534E+03  0.29623031535E+03  0.25500000920E-02 0. -1.
        2   -1    0    0  501    0  0.00000000000E+00  0.00000000000E+00 -0.14236151096E+04  0.14236151096E+04  0.25500000920E-02 0.  1.
    10030    2    1    2    0    0  0.00000000000E+00  0.00000000000E+00 -0.11273847942E+04  0.17198454249E+04  0.12987962932E+04 0.  0.
        4    1    3    3  502    0  0.66379908597E+02 -0.54379050587E+03 -0.10254548485E+04  0.11626150118E+04  0.12699999809E+01 0.  1.
       -4    1    3    3    0  502 -0.66379908597E+02  0.54379050587E+03 -0.10192994574E+03  0.55723041309E+03  0.12699999809E+01 0. -1.
</event>
<event>
 5   0  0.9098192E-04  0.1293332E+04  0.7818609E-02  0.9034870E-01
       -1   -1    0    0    0  501  0.00000000000E+00  0.00000000000E+00  0.53216584898E+03  0.53216584901E+03  0.50400001928E-02 0.  1.
        1   -1    0    0  501    0  0.00000000000E+00  0.00000000000E+00 -0.78580173866E+03  0.78580173868E+03  0.50400001928E-02 0. -1.
    10030    2    1    2    0    0  0.00000000000E+00  0.00000000000E+00 -0.25363588968E+03  0.13179675877E+04  0.12933318977E+04 0.  0.
        1    1    3    3  502    0  0.39171653164E+03 -0.44109212563E+03 -0.39676523591E+03  0.71093372188E+03  0.50400001928E-02 0.  1.
       -1    1    3    3    0  502 -0.39171653164E+03  0.44109212563E+03  0.14312934623E+03  0.60703386580E+03  0.50400001928E-02 0. -1.
</event>
<event>
 5   0  0.1700511E-03  0.1278268E+04  0.7818609E-02  0.9046979E-01
       -2   -1    0    0    0  501  0.00000000000E+00  0.00000000000E+00  0.36359297227E+03  0.36359297228E+03  0.25500000920E-02 0. -1.
        2   -1    0    0  501    0  0.00000000000E+00  0.00000000000E+00 -0.11234875058E+04  0.11234875058E+04  0.25500000920E-02 0.  1.
    10030    2    1    2    0    0  0.00000000000E+00  0.00000000000E+00 -0.75989453355E+03  0.14870804781E+04  0.12782678304E+04 0.  0.
        2    1    3    3  502    0 -0.55945691877E+03  0.29209801591E+03 -0.26257585555E+03  0.68356373132E+03  0.25500000920E-02 0.  1.
       -2    1    3    3    0  502  0.55945691877E+03 -0.29209801591E+03 -0.49731867800E+03  0.80351674678E+03  0.25500000920E-02 0. -1.
</event>
<event>
 5   0  0.9027076E-04  0.1295429E+04  0.7818609E-02  0.9033198E-01
        1   -1    0    0  501    0  0.00000000000E+00  0.00000000000E+00  0.32415231892E+03  0.32415231896E+03  0.50400001928E-02 0. -1.
       -1   -1    0    0    0  501  0.00000000000E+00  0.00000000000E+00 -0.12942498576E+04  0.12942498576E+04  0.50400001928E-02 0.  1.
    10030    2    1    2    0    0  0.00000000000E+00  0.00000000000E+00 -0.97009753867E+03  0.16184021766E+04  0.12954290295E+04 0.  0.
        5    1    3    3  502    0  0.13055338325E+03 -0.59984500137E+03 -0.22702979314E+03  0.65454016570E+03  0.46999998093E+01 0. -1.
       -5    1    3    3    0  502 -0.13055338325E+03  0.59984500137E+03 -0.74306774553E+03  0.96386201086E+03  0.46999998093E+01 0.  1.
</event>
<event>
 5   0  0.6284125E-04  0.1350795E+04  0.7818609E-02  0.8990226E-01
        3   -1    0    0  501    0  0.00000000000E+00  0.00000000000E+00  0.75158658407E+03  0.75158659086E+03  0.10100000352E+00 0.  1.
       -3   -1    0    0    0  501  0.00000000000E+00  0.00000000000E+00 -0.60693182774E+03  0.60693183615E+03  0.10100000352E+00 0. -1.
    10030    2    1    2    0    0  0.00000000000E+00  0.00000000000E+00  0.14465475633E+03  0.13585184270E+04  0.13507950688E+04 0.  0.
        5    1    3    3  502    0 -0.59961678016E+03 -0.24543366594E+03  0.26410529071E+03  0.69967968529E+03  0.46999998093E+01 0.  1.
       -5    1    3    3    0  502  0.59961678016E+03  0.24543366594E+03 -0.11945053438E+03  0.65883874172E+03  0.46999998093E+01 0. -1.
</event>
<event>
 5   0  0.9215829E-04  0.1291718E+04  0.7818609E-02  0.9036159E-01
        1   -1    0    0  501    0  0.00000000000E+00  0.00000000000E+00  0.13084037408E+04  0.13084037408E+04  0.50400001928E-02 0. -1.
       -1   -1    0    0    0  501  0.00000000000E+00  0.00000000000E+00 -0.31881122169E+03  0.31881122173E+03  0.50400001928E-02 0.  1.
    10030    2    1    2    0    0  0.00000000000E+00  0.00000000000E+00  0.98959251913E+03  0.16272149626E+04  0.12917179183E+04 0.  0.
        3    1    3    3  502    0  0.17344417867E+03  0.56791466302E+03  0.17480557255E+03  0.61900480287E+03  0.10100000352E+00 0.  1.
       -3    1    3    3    0  502 -0.17344417867E+03 -0.56791466302E+03  0.81478694658E+03  0.10082101597E+04  0.10100000352E+00 0. -1.
</event>
<event>
 5   0  0.1667342E-03  0.1389789E+04  0.7818609E-02  0.8961243E-01
        2   -1    0    0  501    0  0.00000000000E+00  0.00000000000E+00  0.99273549652E+03  0.99273549652E+03  0.25500000920E-02 0.  1.
       -2   -1    0    0    0  501  0.00000000000E+00  0.00000000000E+00 -0.48641218387E+03  0.48641218388E+03  0.25500000920E-02 0. -1.
    10030    2    1    2    0    0  0.00000000000E+00  0.00000000000E+00  0.50632331265E+03  0.14791476804E+04  0.13897893954E+04 0.  0.
        5    1    3    3  502    0  0.64173272443E+03  0.16158762286E+03  0.47874502427E+03  0.81679271405E+03  0.46999998093E+01 0.  1.
       -5    1    3    3    0  502 -0.64173272443E+03 -0.16158762286E+03  0.27578288376E+02  0.66235496635E+03  0.46999998093E+01 0. -1.
</event>
<event>
 5   0  0.9027076E-04  0.1283716E+04  0.7818609E-02  0.9042579E-01
       -1   -1    0    0    0  501  0.00000000000E+00  0.00000000000E+00  0.40553018555E+03  0.40553018558E+03  0.50400001928E-02 0.  1.
        1   -1    0    0  501    0  0.00000000000E+00  0.00000000000E+00 -0.10159083774E+04  0.10159083774E+04  0.50400001928E-02 0. -1.
    10030    2    1    2    0    0  0.00000000000E+00  0.00000000000E+00 -0.61037819187E+03  0.14214385630E+04  0.12837157206E+04 0.  0.
        5    1    3    3  502    0 -0.33108947084E+03  0.53178611760E+03 -0.15039598434E+03  0.64424976110E+03  0.46999998093E+01 0.  1.
       -5    1    3    3    0  502  0.33108947084E+03 -0.53178611760E+03 -0.45998220753E+03  0.77718880191E+03  0.46999998093E+01 0. -1.
</event>
<event>
 5   0  0.1623890E-03  0.1267525E+04  0.7818609E-02  0.9055722E-01
        2   -1    0    0  501    0  0.00000000000E+00  0.00000000000E+00  0.95266102431E+03  0.95266102431E+03  0.25500000920E-02 0.  1.
       -2   -1    0    0    0  501  0.00000000000E+00  0.00000000000E+00 -0.42161385771E+03  0.42161385772E+03  0.25500000920E-02 0. -1.
    10030    2    1    2    0    0  0.00000000000E+00  0.00000000000E+00  0.53104716660E+03  0.13742748820E+04  0.12675252890E+04 0.  0.
        3    1    3    3  502    0  0.36855889423E+02  0.47864703695E+03  0.71412527998E+03  0.86048606513E+03  0.10100000352E+00 0.  1.
       -3    1    3    3    0  502 -0.36855889423E+02 -0.47864703695E+03 -0.18307811338E+03  0.51378881690E+03  0.10100000352E+00 0. -1.
</event>
<event>
 5   0  0.9098192E-04  0.1308520E+04  0.7818609E-02  0.9022836E-01
        1   -1    0    0  501    0  0.00000000000E+00  0.00000000000E+00  0.47267414653E+03  0.47267414656E+03  0.50400001928E-02 0.  1.
       -1   -1    0    0    0  501  0.00000000000E+00  0.00000000000E+00 -0.90560518352E+03  0.90560518353E+03  0.50400001928E-02 0. -1.
    10030    2    1    2    0    0  0.00000000000E+00  0.00000000000E+00 -0.43293103698E+03  0.13782793301E+04  0.13085200147E+04 0.  0.
        1    1    3    3  502    0 -0.45139042529E+03  0.47216747272E+03 -0.25531999657E+03  0.70134423717E+03  0.50400001928E-02 0. -1.
       -1    1    3    3    0  502  0.45139042529E+03 -0.47216747272E+03 -0.17761104041E+03  0.67693509292E+03  0.50400001928E-02 0.  1.
</event>
<event>
 5   0  0.9027076E-04  0.1278864E+04  0.7818609E-02  0.9046496E-01
        1   -1    0    0  501    0  0.00000000000E+00  0.00000000000E+00  0.66252448818E+03  0.66252448820E+03  0.50400001928E-02 0.  1.
       -1   -1    0    0    0  501  0.00000000000E+00  0.00000000000E+00 -0.61714455582E+03  0.61714455584E+03  0.50400001928E-02 0. -1.
    10030    2    1    2    0    0  0.00000000000E+00  0.00000000000E+00  0.45379932368E+02  0.12796690440E+04  0.12788641539E+04 0.  0.
        5    1    3    3  502    0  0.42161668417E+03 -0.63388442179E+02  0.49951119827E+03  0.65674367159E+03  0.46999998093E+01 0.  1.
       -5    1    3    3    0  502 -0.42161668417E+03  0.63388442179E+02 -0.45413126590E+03  0.62292537245E+03  0.46999998093E+01 0. -1.
</event>
<event>
 5   0  0.1623890E-03  0.1303868E+04  0.7818609E-02  0.9026503E-01
       -2   -1    0    0    0  501  0.00000000000E+00  0.00000000000E+00  0.27395144514E+03  0.27395144515E+03  0.25500000920E-02 0. -1.
        2   -1    0    0  501    0  0.00000000000E+00  0.00000000000E+00 -0.15514354516E+04  0.15514354516E+04  0.25500000920E-02 0.  1.
    10030    2    1    2    0    0  0.00000000000E+00  0.00000000000E+00 -0.12774840065E+04  0.18253868968E+04  0.13038680670E+04 0.  0.
        3    1    3    3  502    0  0.12136472398E+03  0.15258439685E+03  0.23218238825E+03  0.30318322184E+03  0.10100000352E+00 0. -1.
       -3    1    3    3    0  502 -0.12136472398E+03 -0.15258439685E+03 -0.15096663947E+04  0.15222036749E+04  0.10100000352E+00 0.  1.
</event>
<event>
 5   0  0.1667342E-03  0.1260520E+04  0.7818609E-02  0.9061473E-01
       -2   -1    0    0    0  501  0.00000000000E+00  0.00000000000E+00  0.41222717080E+03  0.41222717081E+03  0.25500000920E-02 0.  1.
        2   -1    0    0  501    0  0.00000000000E+00  0.00000000000E+00 -0.96361295768E+03  0.96361295768E+03  0.25500000920E-02 0. -1.
    10030    2    1    2    0    0  0.00000000000E+00  0.00000000000E+00 -0.55138578688E+03  0.13758401285E+04  0.12605196441E+04 0.  0.
        5    1    3    3  502    0 -0.59215952161E+02  0.11476363780E+03  0.39761194976E+03  0.41808441031E+03  0.46999998093E+01 0.  1.
       -5    1    3    3    0  502  0.59215952161E+02 -0.11476363780E+03 -0.94899773664E+03  0.95775571818E+03  0.46999998093E+01 0. -1.
</event>
<event>
 5   0  0.1667342E-03  0.1298394E+04  0.7818609E-02  0.9030839E-01
        2   -1    0    0  501    0  0.00000000000E+00  0.00000000000E+00  0.48312781354E+03  0.48312781355E+03  0.25500000920E-02 0.  1.
       -2   -1    0    0    0  501  0.00000000000E+00  0.00000000000E+00 -0.87235086684E+03  0.87235086684E+03  0.25500000920E-02 0. -1.
    10030    2    1    2    0    0  0.00000000000E+00  0.00000000000E+00 -0.38922305330E+03  0.13554786804E+04  0.12983943422E+04 0.  0.
        5    1    3    3  502    0  0.20058647749E+02 -0.18866188239E+03 -0.84274437049E+03  0.86384941929E+03  0.46999998093E+01 0. -1.
       -5    1    3    3    0  502 -0.20058647749E+02  0.18866188239E+03  0.45352131719E+03  0.49162926109E+03  0.46999998093E+01 0.  1.
</event>
<event>
 5   0  0.9081324E-04  0.1309830E+04  0.7818609E-02  0.9021806E-01
        1   -1    0    0  501    0  0.00000000000E+00  0.00000000000E+00  0.76809378460E+03  0.76809378462E+03  0.50400001928E-02 0.  1.
       -1   -1    0    0    0  501  0.00000000000E+00  0.00000000000E+00 -0.55841335052E+03  0.55841335055E+03  0.50400001928E-02 0. -1.
    10030    2    1    2    0    0  0.00000000000E+00  0.00000000000E+00  0.20968043408E+03  0.13265071352E+04  0.13098302543E+04 0.  0.
        4    1    3    3  502    0 -0.28997955438E+03 -0.45743373270E+03 -0.26805765387E+03  0.60430975540E+03  0.12699999809E+01 0. -1.
       -4    1    3    3    0  502  0.28997955438E+03  0.45743373270E+03  0.47773808794E+03  0.72219737977E+03  0.12699999809E+01 0.  1.
</event>
<event>
 5   0  0.9027076E-04  0.1299047E+04  0.7818609E-02  0.9030321E-01
       -1   -1    0    0    0  501  0.00000000000E+00  0.00000000000E+00  0.11449583208E+04  0.11449583208E+04  0.50400001928E-02 0.  1.
        1   -1    0    0  501    0  0.00000000000E+00  0.00000000000E+00 -0.36846819802E+03  0.36846819805E+03  0.50400001928E-02 0. -1.
    10030    2    1    2    0    0  0.00000000000E+00  0.00000000000E+00  0.77649012279E+03  0.15134265189E+04  0.12990469265E+04 0.  0.
        5    1    3    3  502    0  0.12501439071E+03 -0.23857321059E+03 -0.30031810962E+03  0.40343380084E+03  0.46999998093E+01 0. -1.
       -5    1    3    3    0  502 -0.12501439071E+03  0.23857321059E+03  0.10768082324E+04  0.11099927180E+04  0.46999998093E+01 0.  1.
</event>
<event>
 5   0  0.9081324E-04  0.1310981E+04  0.7818609E-02  0.9020902E-01
       -1   -1    0    0    0  501  0.00000000000E+00  0.00000000000E+00  0.52139291487E+03  0.52139291489E+03  0.50400001928E-02 0.  1.
        1   -1    0    0  501    0  0.00000000000E+00  0.00000000000E+00 -0.82407677434E+03  0.82407677435E+03  0.50400001928E-02 0. -1.
    10030    2    1    2    0    0  0.00000000000E+00  0.00000000000E+00 -0.30268385947E+03  0.13454696892E+04  0.13109809937E+04 0.  0.
        4    1    3    3  502    0  0.60709729664E+03  0.17201903896E+03 -0.33351802772E+03  0.71371812717E+03  0.12699999809E+01 0. -1.
       -4    1    3    3    0  502 -0.60709729664E+03 -0.17201903896E+03  0.30834168249E+02  0.63175156207E+03  0.12699999809E+01 0.  1.
</event>
<event>
 5   0  0.9215829E-04  0.1305891E+04  0.7818609E-02  0.9024907E-01
        1   -1    0    0  501    0  0.00000000000E+00  0.00000000000E+00  0.93991363563E+03  0.93991363564E+03  0.50400001928E-02 0. -1.
       -1   -1    0    0    0  501  0.00000000000E+00  0.00000000000E+00 -0.45359238357E+03  0.45359238360E+03  0.50400001928E-02 0.  1.
    10030    2    1    2    0    0  0.00000000000E+00  0.00000000000E+00  0.48632125206E+03  0.13935060192E+04  0.13058907556E+04 0.  0.
        3    1    3    3  502    0 -0.35281293010E+03 -0.40596108369E+02 -0.34151702626E+03  0.49270569013E+03  0.10100000352E+00 0.  1.
       -3    1    3    3    0  502  0.35281293010E+03  0.40596108369E+02  0.82783827832E+03  0.90080032911E+03  0.10100000352E+00 0. -1.
</event>
<event>
 5   0  0.9081324E-04  0.1308363E+04  0.7818609E-02  0.9022959E-01
       -1   -1    0    0    0  501  0.00000000000E+00  0.00000000000E+00  0.46582856477E+03  0.46582856480E+03  0.50400001928E-02 0. -1.
        1   -1    0    0  501    0  0.00000000000E+00  0.00000000000E+00 -0.91869290638E+03  0.91869290639E+03  0.50400001928E-02 0.  1.
    10030    2    1    2    0    0  0.00000000000E+00  0.00000000000E+00 -0.45286434161E+03  0.13845214712E+04  0.13083629436E+04 0.  0.
        4    1    3    3  502    0  0.34428515679E+02 -0.47459755246E+03  0.24861249299E+03  0.53687796012E+03  0.12699999809E+01 0. -1.
       -4    1    3    3    0  502 -0.34428515679E+02  0.47459755246E+03 -0.70147683459E+03  0.84764351107E+03  0.12699999809E+01 0.  1.
</event>
<event>
 5   0  0.1623890E-03  0.1310987E+04  0.7818609E-02  0.9020897E-01
        2   -1    0    0  501    0  0.00000000000E+00  0.00000000000E+00  0.77195913920E+03  0.77195913920E+03  0.25500000920E-02 0.  1.
       -2   -1    0    0    0  501  0.00000000000E+00  0.00000000000E+00 -0.55659947241E+03  0.55659947241E+03  0.25500000920E-02 0. -1.
    10030    2    1    2    0    0  0.00000000000E+00  0.00000000000E+00  0.21535966679E+03  0.13285586116E+04  0.13109874898E+04 0.  0.
        3    1    3    3  502    0 -0.28836612470E+03  0.49989567830E-01  0.70422654178E+03  0.76097966906E+03  0.10100000352E+00 0.  1.
       -3    1    3    3    0  502  0.28836612470E+03 -0.49989567830E-01 -0.48886687499E+03  0.56757894256E+03  0.10100000352E+00 0. -1.
</event>
<event>
 5   0  0.1667342E-03  0.1296120E+04  0.7818609E-02  0.9032648E-01
        2   -1    0    0  501    0  0.00000000000E+00  0.00000000000E+00  0.12750799404E+04  0.12750799404E+04  0.25500000920E-02 0. -1.
       -2   -1    0    0    0  501  0.00000000000E+00  0.00000000000E+00 -0.32937669518E+03  0.32937669519E+03  0.25500000920E-02 0.  1.
    10030    2    1    2    0    0  0.00000000000E+00  0.00000000000E+00  0.94570324519E+03  0.16044566356E+04  0.12961197736E+04 0.  0.
        5    1    3    3  502    0  0.49284543839E+03  0.94338021223E+02 -0.34779661328E+02  0.50301888954E+03  0.46999998093E+01 0.  1.
       -5    1    3    3    0  502 -0.49284543839E+03 -0.94338021223E+02  0.98048290652E+03  0.11014377460E+04  0.46999998093E+01 0. -1.
</event>
<event>
 5   0  0.1667342E-03  0.1297728E+04  0.7818609E-02  0.9031369E-01
       -2   -1    0    0    0  501  0.00000000000E+00  0.00000000000E+00  0.47252697598E+03  0.47252697598E+03  0.25500000920E-02 0.  1.
        2   -1    0    0  501    0  0.00000000000E+00  0.00000000000E+00 -0.89100631895E+03  0.89100631895E+03  0.25500000920E-02 0. -1.
    10030    2    1    2    0    0  0.00000000000E+00  0.00000000000E+00 -0.41847934297E+03  0.13635332949E+04  0.12977280477E+04 0.  0.
        5    1    3    3  502    0 -0.62368270688E+02  0.63826021852E+03 -0.31291705287E+03  0.71358607029E+03  0.46999998093E+01 0. -1.
       -5    1    3    3    0  502  0.62368270688E+02 -0.63826021852E+03 -0.10556229010E+03  0.64994722465E+03  0.46999998093E+01 0.  1.
</event>
<event>
 5   0  0.9098192E-04  0.1302522E+04  0.7818609E-02  0.9027568E-01
       -1   -1    0    0    0  501  0.00000000000E+00  0.00000000000E+00  0.36650864231E+03  0.36650864235E+03  0.50400001928E-02 0.  1.
        1   -1    0    0  501    0  0.00000000000E+00  0.00000000000E+00 -0.11572466549E+04  0.11572466549E+04  0.50400001928E-02 0. -1.
    10030    2    1    2    0    0  0.00000000000E+00  0.00000000000E+00 -0.79073801259E+03  0.15237552973E+04  0.13025220157E+04 0.  0.
        1    1    3    3  502    0  0.49406574500E+03  0.20463601831E+03  0.39469171954E+02  0.53622259924E+03  0.50400001928E-02 0.  1.
       -1    1    3    3    0  502 -0.49406574500E+03 -0.20463601831E+03 -0.83020718455E+03  0.98753269802E+03  0.50400001928E-02 0. -1.
</event>
<event>
 5   0  0.1714861E-03  0.1300201E+04  0.7818609E-02  0.9029406E-01
        2   -1    0    0  501    0  0.00000000000E+00  0.00000000000E+00  0.73789238821E+03  0.73789238822E+03  0.25500000920E-02 0. -1.
       -2   -1    0    0    0  501  0.00000000000E+00  0.00000000000E+00 -0.57275389714E+03  0.57275389714E+03  0.25500000920E-02 0.  1.
    10030    2    1    2    0    0  0.00000000000E+00  0.00000000000E+00  0.16513849107E+03  0.13106462854E+04  0.13002011245E+04 0.  0.
        1    1    3    3  502    0  0.24009779558E+03 -0.60306248643E+03  0.46232091496E+02  0.65074474281E+03  0.50400001928E-02 0. -1.
       -1    1    3    3    0  502 -0.24009779558E+03  0.60306248643E+03  0.11890639958E+03  0.65990154255E+03  0.50400001928E-02 0.  1.
</event>
<event>
 5   0  0.1714861E-03  0.1297473E+04  0.7818609E-02  0.9031572E-01
        2   -1    0    0  501    0  0.00000000000E+00  0.00000000000E+00  0.51993872458E+03  0.51993872459E+03  0.25500000920E-02 0.  1.
       -2   -1    0    0    0  501  0.00000000000E+00  0.00000000000E+00 -0.80943947298E+03  0.80943947298E+03  0.25500000920E-02 0. -1.
    10030    2    1    2    0    0  0.00000000000E+00  0.00000000000E+00 -0.28950074840E+03  0.13293781976E+04  0.12974728162E+04 0.  0.
        1    1    3    3  502    0 -0.25188425363E+03  0.74953851679E+02  0.46295799948E+03  0.53234750532E+03  0.50400001928E-02 0.  1.
       -1    1    3    3    0  502  0.25188425363E+03 -0.74953851679E+02 -0.75245874788E+03  0.79703069225E+03  0.50400001928E-02 0. -1.
</event>
<event>
 5   0  0.9215829E-04  0.1309780E+04  0.7818609E-02  0.9021845E-01
       -1   -1    0    0    0  501  0.00000000000E+00  0.00000000000E+00  0.11176925005E+04  0.11176925005E+04  0.50400001928E-02 0. -1.
        1   -1    0    0  501    0  0.00000000000E+00  0.00000000000E+00 -0.38371981079E+03  0.38371981082E+03  0.50400001928E-02 0.  1.
    10030    2    1    2    0    0  0.00000000000E+00  0.00000000000E+00  0.73397268972E+03  0.15014123114E+04  0.13097797599E+04 0.  0.
        3    1    3    3  502    0 -0.23937629724E+03 -0.32791602832E+02 -0.33076134668E+03  0.40960881284E+03  0.10100000352E+00 0.  1.
       -3    1    3    3    0  502  0.23937629724E+03  0.32791602832E+02  0.10647340364E+04  0.10918034985E+04  0.10100000352E+00 0. -1.
</event>
<event>
 5   0  0.1694675E-03  0.1283780E+04  0.7818609E-02  0.9042528E-01
       -2   -1    0    0    0  501  0.00000000000E+00  0.00000000000E+00  0.16590788707E+03  0.16590788709E+03  0.25500000920E-02 0. -1.
        2   -1    0    0  501    0  0.00000000000E+00  0.00000000000E+00 -0.24834416841E+04  0.24834416841E+04  0.25500000920E-02 0.  1.
    10030    2    1    2    0    0  0.00000000000E+00  0.00000000000E+00 -0.23175337971E+04  0.26493495712E+04  0.12837796735E+04 0.  0.
        4    1    3    3  502    0  0.58863821171E+03  0.16993887133E+03 -0.76370357532E+03  0.97909086817E+03  0.12699999809E+01 0.  1.
       -4    1    3    3    0  502 -0.58863821171E+03 -0.16993887133E+03 -0.15538302217E+04  0.16702587031E+04  0.12699999809E+01 0. -1.
</event>
<event>
 5   0  0.9110949E-04  0.1304999E+04  0.7818609E-02  0.9025610E-01
       -1   -1    0    0    0  501  0.00000000000E+00  0.00000000000E+00  0.57256551397E+03  0.57256551399E+03  0.50400001928E-02 0. -1.
        1   -1    0    0  501    0  0.00000000000E+00  0.00000000000E+00 -0.74359258270E+03  0.74359258272E+03  0.50400001928E-02 0.  1.
    10030    2    1    2    0    0  0.00000000000E+00  0.00000000000E+00 -0.17102706873E+03  0.13161580967E+04  0.13049988036E+04 0.  0.
        2    1    3    3  502    0  0.27949634660E+03 -0.30736327738E+03  0.42194416332E+03  0.59213788007E+03  0.25500000920E-02 0. -1.
       -2    1    3    3    0  502 -0.27949634660E+03  0.30736327738E+03 -0.59297123205E+03  0.72402021663E+03  0.25500000920E-02 0.  1.
</event>
<event>
 5   0  0.1700511E-03  0.1273777E+04  0.7818609E-02  0.9050623E-01
        2   -1    0    0  501    0  0.00000000000E+00  0.00000000000E+00  0.94222736554E+03  0.94222736554E+03  0.25500000920E-02 0. -1.
       -2   -1    0    0    0  501  0.00000000000E+00  0.00000000000E+00 -0.43049782811E+03  0.43049782811E+03  0.25500000920E-02 0.  1.
    10030    2    1    2    0    0  0.00000000000E+00  0.00000000000E+00  0.51172953743E+03  0.13727251937E+04  0.12737768006E+04 0.  0.
        2    1    3    3  502    0 -0.53887886494E+03  0.26066901237E+03  0.49021536412E+03  0.77372467216E+03  0.25500000920E-02 0.  1.
       -2    1    3    3    0  502  0.53887886494E+03 -0.26066901237E+03  0.21514173313E+02  0.59900052149E+03  0.25500000920E-02 0. -1.
</event>
<event>
 5   0  0.9098192E-04  0.1303435E+04  0.7818609E-02  0.9026846E-01
        1   -1    0    0  501    0  0.00000000000E+00  0.00000000000E+00  0.18928346078E+04  0.18928346078E+04  0.50400001928E-02 0.  1.
       -1   -1    0    0    0  501  0.00000000000E+00  0.00000000000E+00 -0.22439122943E+03  0.22439122949E+03  0.50400001928E-02 0. -1.
    10030    2    1    2    0    0  0.00000000000E+00  0.00000000000E+00  0.16684433784E+04  0.21172258373E+04  0.13034346701E+04 0.  0.
        1    1    3    3  502    0 -0.50496752572E+03  0.14625445184E+03  0.20857959189E+03  0.56558643273E+03  0.50400001928E-02 0. -1.
       -1    1    3    3    0  502  0.50496752572E+03 -0.14625445184E+03  0.14598637865E+04  0.15516394046E+04  0.50400001928E-02 0.  1.
</event>
<event>
 5   0  0.1700511E-03  0.1300881E+04  0.7818609E-02  0.9028867E-01
       -2   -1    0    0    0  501  0.00000000000E+00  0.00000000000E+00  0.11748682572E+04  0.11748682572E+04  0.25500000920E-02 0.  1.
        2   -1    0    0  501    0  0.00000000000E+00  0.00000000000E+00 -0.36010210244E+03  0.36010210245E+03  0.25500000920E-02 0. -1.
    10030    2    1    2    0    0  0.00000000000E+00  0.00000000000E+00  0.81476615480E+03  0.15349703597E+04  0.13008805165E+04 0.  0.
        2    1    3    3  502    0  0.50827420283E+03  0.14127938065E+03  0.85633710597E+03  0.10057911153E+04  0.25500000920E-02 0.  1.
       -2    1    3    3    0  502 -0.50827420283E+03 -0.14127938065E+03 -0.41570951167E+02  0.52917924434E+03  0.25500000920E-02 0. -1.
</event>
<event>
 5   0  0.1667342E-03  0.1283350E+04  0.7818609E-02  0.9042874E-01
       -2   -1    0    0    0  501  0.00000000000E+00  0.00000000000E+00  0.52606480433E+03  0.52606480434E+03  0.25500000920E-02 0. -1.
        2   -1    0    0  501    0  0.00000000000E+00  0.00000000000E+00 -0.78269227119E+03  0.78269227120E+03  0.25500000920E-02 0.  1.
    10030    2    1    2    0    0  0.00000000000E+00  0.00000000000E+00 -0.25662746686E+03  0.13087570755E+04  0.12833500793E+04 0.  0.
        5    1    3    3  502    0 -0.20806849807E+02  0.29152735846E+03 -0.71085253847E+03  0.76860558622E+03  0.46999998093E+01 0.  1.
       -5    1    3    3    0  502  0.20806849807E+02 -0.29152735846E+03  0.45422507161E+03  0.54015148931E+03  0.46999998093E+01 0. -1.
</event>
<event>
 5   0  0.1667342E-03  0.1268793E+04  0.7818609E-02  0.9054686E-01
       -2   -1    0    0    0  501  0.00000000000E+00  0.00000000000E+00  0.22698005627E+03  0.22698005629E+03  0.25500000920E-02 0.  1.
        2   -1    0    0  501    0  0.00000000000E+00  0.00000000000E+00 -0.17731016492E+04  0.17731016492E+04  0.25500000920E-02 0. -1.
    10030    2    1    2    0    0  0.00000000000E+00  0.00000000000E+00 -0.15461215929E+04  0.20000817055E+04  0.12687926736E+04 0.  0.
        5    1    3    3  502    0 -0.58999513440E+03 -0.23249183708E+03 -0.79990114023E+03  0.10207892226E+04  0.46999998093E+01 0.  1.
       -5    1    3    3    0  502  0.58999513440E+03  0.23249183708E+03 -0.74622045266E+03  0.97929248281E+03  0.46999998093E+01 0. -1.
</event>
<event>
 5   0  0.6284125E-04  0.1337323E+04  0.7818609E-02  0.9000480E-01
       -4   -1    0    0    0  501  0.00000000000E+00  0.00000000000E+00  0.85029047641E+03  0.85029142485E+03  0.12699999809E+01 0. -1.
        4   -1    0    0  501    0  0.00000000000E+00  0.00000000000E+00 -0.52582833043E+03  0.52582986410E+03  0.12699999809E+01 0.  1.
    10030    2    1    2    0    0  0.00000000000E+00  0.00000000000E+00  0.32446214599E+03  0.13761212890E+04  0.13373234903E+04 0.  0.
        4    1    3    3  502    0 -0.30859996775E+03  0.11873715102E+03 -0.43581362996E+03  0.54705354774E+03  0.12699999809E+01 0.  1.
       -4    1    3    3    0  502  0.30859996775E+03 -0.11873715102E+03  0.76027577595E+03  0.82906774122E+03  0.12699999809E+01 0. -1.
</event>
<event>
 5   0  0.9098192E-04  0.1267699E+04  0.7818609E-02  0.9055580E-01
        1   -1    0    0  501    0  0.00000000000E+00  0.00000000000E+00  0.68204434185E+03  0.68204434187E+03  0.50400001928E-02 0.  1.
       -1   -1    0    0    0  501  0.00000000000E+00  0.00000000000E+00 -0.58905976512E+03  0.58905976515E+03  0.50400001928E-02 0. -1.
    10030    2    1    2    0    0  0.00000000000E+00  0.00000000000E+00  0.92984576723E+02  0.12711041070E+04  0.12676985128E+04 0.  0.
        1    1    3    3  502    0  0.32989898631E+03  0.18958028017E+03 -0.46181223750E+03  0.59836825328E+03  0.50400001928E-02 0. -1.
       -1    1    3    3    0  502 -0.32989898631E+03 -0.18958028017E+03  0.55479681423E+03  0.67273585373E+03  0.50400001928E-02 0.  1.
</event>
<event>
 5   0  0.9215829E-04  0.1292265E+04  0.7818609E-02  0.9035722E-01
        1   -1    0    0  501    0  0.00000000000E+00  0.00000000000E+00  0.47185768182E+03  0.47185768185E+03  0.50400001928E-02 0. -1.
       -1   -1    0    0    0  501  0.00000000000E+00  0.00000000000E+00 -0.88477314339E+03  0.88477314341E+03  0.50400001928E-02 0.  1.
    10030    2    1    2    0    0  0.00000000000E+00  0.00000000000E+00 -0.41291546158E+03  0.13566308253E+04  0.12922646856E+04 0.  0.
        3    1    3    3  502    0  0.24829493254E+03 -0.37753155445E+03 -0.69131319717E+03  0.82589006225E+03  0.10100000352E+00 0.  1.
       -3    1    3    3    0  502 -0.24829493254E+03  0.37753155445E+03  0.27839773560E+03  0.53074076301E+03  0.10100000352E+00 0. -1.
</event>
<event>
 5   0  0.9215829E-04  0.1301589E+04  0.7818609E-02  0.9028306E-01
       -1   -1    0    0    0  501  0.00000000000E+00  0.00000000000E+00  0.50610097449E+03  0.50610097451E+03  0.50400001928E-02 0.  1.
        1   -1    0    0  501    0  0.00000000000E+00  0.00000000000E+00 -0.83685619732E+03  0.83685619734E+03  0.50400001928E-02 0. -1.
    10030    2    1    2    0    0  0.00000000000E+00  0.00000000000E+00 -0.33075522284E+03  0.13429571719E+04  0.13015893930E+04 0.  0.
        3    1    3    3  502    0 -0.34374785826E+03 -0.32135769401E+03 -0.62922136828E+03  0.78571807798E+03  0.10100000352E+00 0. -1.
       -3    1    3    3    0  502  0.34374785826E+03  0.32135769401E+03  0.29846614544E+03  0.55723909387E+03  0.10100000352E+00 0.  1.
</event>
<event>
 5   0  0.1714861E-03  0.1303810E+04  0.7818609E-02  0.9026549E-01
       -2   -1    0    0    0  501  0.00000000000E+00  0.00000000000E+00  0.35508699690E+03  0.35508699691E+03  0.25500000920E-02 0.  1.
        2   -1    0    0  501    0  0.00000000000E+00  0.00000000000E+00 -0.11968339571E+04  0.11968339571E+04  0.25500000920E-02 0. -1.
    10030    2    1    2    0    0  0.00000000000E+00  0.00000000000E+00 -0.84174696019E+03  0.15519209540E+04  0.13038100715E+04 0.  0.
        1    1    3    3  502    0 -0.35843221593E+03  0.33750415397E+03 -0.92950426381E+03  0.10518369093E+04  0.50400001928E-02 0. -1.
       -1    1    3    3    0  502  0.35843221593E+03 -0.33750415397E+03  0.87757303623E+02  0.50008404466E+03  0.50400001928E-02 0.  1.
</event>
<event>
 5   0  0.9027076E-04  0.1292554E+04  0.7818609E-02  0.9035491E-01
        1   -1    0    0  501    0  0.00000000000E+00  0.00000000000E+00  0.12805954623E+04  0.12805954623E+04  0.50400001928E-02 0. -1.
       -1   -1    0    0    0  501  0.00000000000E+00  0.00000000000E+00 -0.32615599892E+03  0.32615599896E+03  0.50400001928E-02 0.  1.
    10030    2    1    2    0    0  0.00000000000E+00  0.00000000000E+00  0.95443946337E+03  0.16067514613E+04  0.12925538941E+04 0.  0.
        5    1    3    3  502    0 -0.22808669385E+03  0.31792228652E+03 -0.16215717827E+03  0.42357426815E+03  0.46999998093E+01 0.  1.
       -5    1    3    3    0  502  0.22808669385E+03 -0.31792228652E+03  0.11165966416E+04  0.11831771931E+04  0.46999998093E+01 0. -1.
</event>
<event>
 5   0  0.1714861E-03  0.1304391E+04  0.7818609E-02  0.9026090E-01
       -2   -1    0    0    0  501  0.00000000000E+00  0.00000000000E+00  0.39618270446E+03  0.39618270447E+03  0.25500000920E-02 0.  1.
        2   -1    0    0  501    0  0.00000000000E+00  0.00000000000E+00 -0.10736432433E+04  0.10736432433E+04  0.25500000920E-02 0. -1.
    10030    2    1    2    0    0  0.00000000000E+00  0.00000000000E+00 -0.67746053879E+03  0.14698259477E+04  0.13043908674E+04 0.  0.
        1    1    3    3  502    0 -0.16849429272E+03  0.39860432909E+03  0.21109220339E+03  0.48149315281E+03  0.50400001928E-02 0.  1.
       -1    1    3    3    0  502  0.16849429272E+03 -0.39860432909E+03 -0.88855274218E+03  0.98833279492E+03  0.50400001928E-02 0. -1.
</event>
<event>
 5   0  0.1623890E-03  0.1301084E+04  0.7818609E-02  0.9028706E-01
       -2   -1    0    0    0  501  0.00000000000E+00  0.00000000000E+00  0.10169464209E+04  0.10169464209E+04  0.25500000920E-02 0. -1.
        2   -1    0    0  501    0  0.00000000000E+00  0.00000000000E+00 -0.41615268411E+03  0.41615268412E+03  0.25500000920E-02 0.  1.
    10030    2    1    2    0    0  0.00000000000E+00  0.00000000000E+00  0.60079373680E+03  0.14330991050E+04  0.13010841367E+04 0.  0.
        3    1    3    3  502    0 -0.25694497592E+03  0.12590393260E+03 -0.34311955178E+03  0.44677013990E+03  0.10100000352E+00 0.  1.
       -3    1    3    3    0  502  0.25694497592E+03 -0.12590393260E+03  0.94391328858E+03  0.98632896513E+03  0.10100000352E+00 0. -1.
</event>
<event>
 5   0  0.1700511E-03  0.1194418E+04  0.7818609E-02  0.9117756E-01
       -2   -1    0    0    0  501  0.00000000000E+00  0.00000000000E+00  0.19774460932E+03  0.19774460934E+03  0.25500000920E-02 0.  1.
        2   -1    0    0  501    0  0.00000000000E+00  0.00000000000E+00 -0.18036336255E+04  0.18036336255E+04  0.25500000920E-02 0. -1.
    10030    2    1    2    0    0  0.00000000000E+00  0.00000000000E+00 -0.16058890162E+04  0.20013782348E+04  0.11944183968E+04 0.  0.
        2    1    3    3  502    0 -0.12434899807E+03  0.42766429362E+03 -0.13627233166E+03  0.46575698571E+03  0.25500000920E-02 0.  1.
       -2    1    3    3    0  502  0.12434899807E+03 -0.42766429362E+03 -0.14696166845E+04  0.15356212491E+04  0.25500000920E-02 0. -1.
</event>
<event>
 5   0  0.9110949E-04  0.1297173E+04  0.7818609E-02  0.9031810E-01
        1   -1    0    0  501    0  0.00000000000E+00  0.00000000000E+00  0.20604311093E+04  0.20604311093E+04  0.50400001928E-02 0.  1.
       -1   -1    0    0    0  501  0.00000000000E+00  0.00000000000E+00 -0.20416345872E+03  0.20416345879E+03  0.50400001928E-02 0. -1.
    10030    2    1    2    0    0  0.00000000000E+00  0.00000000000E+00  0.18562676506E+04  0.22645945681E+04  0.12971734530E+04 0.  0.
        2    1    3    3  502    0 -0.36051216446E+03  0.29503057843E+03  0.14029483061E+03  0.48651279781E+03  0.25500000920E-02 0. -1.
       -2    1    3    3    0  502  0.36051216446E+03 -0.29503057843E+03  0.17159728200E+04  0.17780817703E+04  0.25500000920E-02 0.  1.
</event>
<event>
 5   0  0.1667342E-03  0.1294518E+04  0.7818609E-02  0.9033924E-01
        2   -1    0    0  501    0  0.00000000000E+00  0.00000000000E+00  0.48786383928E+03  0.48786383928E+03  0.25500000920E-02 0. -1.
       -2   -1    0    0    0  501  0.00000000000E+00  0.00000000000E+00 -0.85873127981E+03  0.85873127982E+03  0.25500000920E-02 0.  1.
    10030    2    1    2    0    0  0.00000000000E+00  0.00000000000E+00 -0.37086744054E+03  0.13465951191E+04  0.12945175767E+04 0.  0.
        5    1    3    3  502    0 -0.23929326542E+03 -0.18069864640E+03  0.41123421169E+03  0.50896850055E+03  0.46999998093E+01 0. -1.
       -5    1    3    3    0  502  0.23929326542E+03  0.18069864640E+03 -0.78210165223E+03  0.83762661855E+03  0.46999998093E+01 0.  1.
</event>
<event>
 5   0  0.6284125E-04  0.1308383E+04  0.7818609E-02  0.9022944E-01
       -3   -1    0    0    0  501  0.00000000000E+00  0.00000000000E+00  0.37983515617E+03  0.37983516960E+03  0.10100000352E+00 0. -1.
        3   -1    0    0  501    0  0.00000000000E+00  0.00000000000E+00 -0.11267161863E+04  0.11267161909E+04  0.10100000352E+00 0.  1.
    10030    2    1    2    0    0  0.00000000000E+00  0.00000000000E+00 -0.74688103017E+03  0.15065513605E+04  0.13083828677E+04 0.  0.
        4    1    3    3  502    0  0.30502431936E+03  0.40445770691E+03  0.10318483821E+03  0.51698606927E+03  0.12699999809E+01 0. -1.
       -4    1    3    3    0  502 -0.30502431936E+03 -0.40445770691E+03 -0.85006586838E+03  0.98956529121E+03  0.12699999809E+01 0.  1.
</event>
<event>
 5   0  0.1667342E-03  0.1295956E+04  0.7818609E-02  0.9032778E-01
        2   -1    0    0  501    0  0.00000000000E+00  0.00000000000E+00  0.15502084198E+04  0.15502084198E+04  0.25500000920E-02 0.  1.
       -2   -1    0    0    0  501  0.00000000000E+00  0.00000000000E+00 -0.27085104671E+03  0.27085104673E+03  0.25500000920E-02 0. -1.
    10030    2    1    2    0    0  0.00000000000E+00  0.00000000000E+00  0.12793573731E+04  0.18210594666E+04  0.12959561307E+04 0.  0.
        5    1    3    3  502    0 -0.41079969475E+03  0.39483062480E+03  0.10732551455E+04  0.12151322187E+04  0.46999998093E+01 0.  1.
       -5    1    3    3    0  502  0.41079969475E+03 -0.39483062480E+03  0.20610222757E+03  0.60592724786E+03  0.46999998093E+01 0. -1.
</event>
<event>
 5   0  0.1714861E-03  0.1305791E+04  0.7818609E-02  0.9024986E-01
        2   -1    0    0  501    0  0.00000000000E+00  0.00000000000E+00  0.97201725652E+03  0.97201725652E+03  0.25500000920E-02 0. -1.
       -2   -1    0    0    0  501  0.00000000000E+00  0.00000000000E+00 -0.43854402127E+03  0.43854402128E+03  0.25500000920E-02 0.  1.
    10030    2    1    2    0    0  0.00000000000E+00  0.00000000000E+00  0.53347323524E+03  0.14105612778E+04  0.13057907281E+04 0.  0.
        1    1    3    3  502    0  0.64710264890E+03  0.69050549586E+02  0.32351364467E+03  0.72675366867E+03  0.50400001928E-02 0.  1.
       -1    1    3    3    0  502 -0.64710264890E+03 -0.69050549586E+02  0.20995959057E+03  0.68380760913E+03  0.50400001928E-02 0. -1.
</event>
<event>
 5   0  0.1694675E-03  0.1295086E+04  0.7818609E-02  0.9033471E-01
       -2   -1    0    0    0  501  0.00000000000E+00  0.00000000000E+00  0.14150202740E+03  0.14150202743E+03  0.25500000920E-02 0.  1.
        2   -1    0    0  501    0  0.00000000000E+00  0.00000000000E+00 -0.29632940267E+04  0.29632940267E+04  0.25500000920E-02 0. -1.
    10030    2    1    2    0    0  0.00000000000E+00  0.00000000000E+00 -0.28217919993E+04  0.31047960541E+04  0.12950862714E+04 0.  0.
        4    1    3    3  502    0 -0.35499113895E+03 -0.33648916955E+03 -0.39359086303E+03  0.62782087439E+03  0.12699999809E+01 0.  1.
       -4    1    3    3    0  502  0.35499113895E+03  0.33648916955E+03 -0.24282011362E+04  0.24769751797E+04  0.12699999809E+01 0. -1.
</event>
<event>
 5   0  0.9110949E-04  0.1294304E+04  0.7818609E-02  0.9034094E-01
        1   -1    0    0  501    0  0.00000000000E+00  0.00000000000E+00  0.13626403396E+04  0.13626403397E+04  0.50400001928E-02 0.  1.
       -1   -1    0    0    0  501  0.00000000000E+00  0.00000000000E+00 -0.30734871690E+03  0.30734871694E+03  0.50400001928E-02 0. -1.
    10030    2    1    2    0    0  0.00000000000E+00  0.00000000000E+00  0.10552916227E+04  0.16699890566E+04  0.12943040756E+04 0.  0.
        2    1    3    3  502    0 -0.52859964884E+03  0.16874277522E+03  0.95735098508E+03  0.11065317987E+04  0.25500000920E-02 0.  1.
       -2    1    3    3    0  502  0.52859964884E+03 -0.16874277522E+03  0.97940637664E+02  0.56345725787E+03  0.25500000920E-02 0. -1.
</event>
<event>
 5   0  0.9110949E-04  0.1281628E+04  0.7818609E-02  0.9044262E-01
       -1   -1    0    0    0  501  0.00000000000E+00  0.00000000000E+00  0.65192594582E+03  0.65192594584E+03  0.50400001928E-02 0.  1.
        1   -1    0    0  501    0  0.00000000000E+00  0.00000000000E+00 -0.62989181689E+03  0.62989181691E+03  0.50400001928E-02 0. -1.
    10030    2    1    2    0    0  0.00000000000E+00  0.00000000000E+00  0.22034128926E+02  0.12818177628E+04  0.12816283682E+04 0.  0.
        2    1    3    3  502    0 -0.26444405266E+03  0.47585840626E+03  0.34910686664E+03  0.64672056109E+03  0.25500000920E-02 0.  1.
       -2    1    3    3    0  502  0.26444405266E+03 -0.47585840626E+03 -0.32707273771E+03  0.63509720166E+03  0.25500000920E-02 0. -1.
</event>
<event>
 5   0  0.1667342E-03  0.1288956E+04  0.7818609E-02  0.9038370E-01
       -2   -1    0    0    0  501  0.00000000000E+00  0.00000000000E+00  0.16078533719E+04  0.16078533719E+04  0.25500000920E-02 0. -1.
        2   -1    0    0  501    0  0.00000000000E+00  0.00000000000E+00 -0.25832678753E+03  0.25832678754E+03  0.25500000920E-02 0.  1.
    10030    2    1    2    0    0  0.00000000000E+00  0.00000000000E+00  0.13495265844E+04  0.18661801595E+04  0.12889555406E+04 0.  0.
        5    1    3    3  502    0  0.25979867043E+03 -0.10105197325E+02 -0.17900099773E+03  0.31569116452E+03  0.46999998093E+01 0.  1.
       -5    1    3    3    0  502 -0.25979867043E+03  0.10105197325E+02  0.15285275821E+04  0.15504889949E+04  0.46999998093E+01 0. -1.
</event>
<event>
 5   0  0.1623890E-03  0.1293673E+04  0.7818609E-02  0.9034598E-01
        2   -1    0    0  501    0  0.00000000000E+00  0.00000000000E+00  0.10269313016E+04  0.10269313016E+04  0.25500000920E-02 0.  1.
       -2   -1    0    0    0  501  0.00000000000E+00  0.00000000000E+00 -0.40742475745E+03  0.40742475746E+03  0.25500000920E-02 0. -1.
    10030    2    1    2    0    0  0.00000000000E+00  0.00000000000E+00  0.61950654418E+03  0.14343560591E+04  0.12936726580E+04 0.  0.
        3    1    3    3  502    0 -0.27576242328E+03 -0.32972095641E+03 -0.22617026206E+03  0.48570960545E+03  0.10100000352E+00 0. -1.
       -3    1    3    3    0  502  0.27576242328E+03  0.32972095641E+03  0.84567680624E+03  0.94864645364E+03  0.10100000352E+00 0.  1.
</event>
<event>
 5   0  0.9110949E-04  0.1292614E+04  0.7818609E-02  0.9035443E-01
       -1   -1    0    0    0  501  0.00000000000E+00  0.00000000000E+00  0.35503307068E+03  0.35503307072E+03  0.50400001928E-02 0. -1.
        1   -1    0    0  501    0  0.00000000000E+00  0.00000000000E+00 -0.11765464582E+04  0.11765464582E+04  0.50400001928E-02 0.  1.
    10030    2    1    2    0    0  0.00000000000E+00  0.00000000000E+00 -0.82151338756E+03  0.15315795290E+04  0.12926142532E+04 0.  0.
        2    1    3    3  502    0 -0.23102076873E+03 -0.49649447898E+03 -0.40243042075E+01  0.54762538133E+03  0.25500000920E-02 0. -1.
       -2    1    3    3    0  502  0.23102076873E+03  0.49649447898E+03 -0.81748908335E+03  0.98395414763E+03  0.25500000920E-02 0.  1.
</event>
<event>
 5   0  0.1694675E-03  0.1292702E+04  0.7818609E-02  0.9035373E-01
       -2   -1    0    0    0  501  0.00000000000E+00  0.00000000000E+00  0.46709929472E+03  0.46709929473E+03  0.25500000920E-02 0.  1.
        2   -1    0    0  501    0  0.00000000000E+00  0.00000000000E+00 -0.89439119599E+03  0.89439119600E+03  0.25500000920E-02 0. -1.
    10030    2    1    2    0    0  0.00000000000E+00  0.00000000000E+00 -0.42729190127E+03  0.13614904907E+04  0.12927018169E+04 0.  0.
        4    1    3    3  502    0 -0.19474938341E+03 -0.25294401917E+03 -0.80556659825E+03  0.86651437166E+03  0.12699999809E+01 0. -1.
       -4    1    3    3    0  502  0.19474938341E+03  0.25294401917E+03  0.37827469698E+03  0.49497611907E+03  0.12699999809E+01 0.  1.
</event>
<event>
 5   0  0.9081324E-04  0.1218614E+04  0.7818609E-02  0.9096718E-01
        1   -1    0    0  501    0  0.00000000000E+00  0.00000000000E+00  0.82732484617E+03  0.82732484619E+03  0.50400001928E-02 0.  1.
       -1   -1    0    0    0  501  0.00000000000E+00  0.00000000000E+00 -0.44874124640E+03  0.44874124643E+03  0.50400001928E-02 0. -1.
    10030    2    1    2    0    0  0.00000000000E+00  0.00000000000E+00  0.37858359978E+03  0.12760660926E+04  0.12186136101E+04 0.  0.
        4    1    3    3  502    0 -0.75010218529E+02 -0.37810509693E+02 -0.44264744656E+03  0.45054915645E+03  0.12699999809E+01 0. -1.
       -4    1    3    3    0  502  0.75010218529E+02  0.37810509693E+02  0.82123104634E+03  0.82551693617E+03  0.12699999809E+01 0.  1.
</event>
<event>
 5   0  0.9215829E-04  0.1297484E+04  0.7818609E-02  0.9031563E-01
       -1   -1    0    0    0  501  0.00000000000E+00  0.00000000000E+00  0.70521698382E+03  0.70521698384E+03  0.50400001928E-02 0.  1.
        1   -1    0    0  501    0  0.00000000000E+00  0.00000000000E+00 -0.59678989122E+03  0.59678989124E+03  0.50400001928E-02 0. -1.
    10030    2    1    2    0    0  0.00000000000E+00  0.00000000000E+00  0.10842709260E+03  0.13020068751E+04  0.12974842844E+04 0.  0.
        3    1    3    3  502    0 -0.31821267720E+02  0.15119592469E+03 -0.57805692561E+03  0.59834991449E+03  0.10100000352E+00 0. -1.
       -3    1    3    3    0  502  0.31821267720E+02 -0.15119592469E+03  0.68648401821E+03  0.70365696059E+03  0.10100000352E+00 0.  1.
</event>
<event>
 5   0  0.1623890E-03  0.1222618E+04  0.7818609E-02  0.9093286E-01
       -2   -1    0    0    0  501  0.00000000000E+00  0.00000000000E+00  0.51443557926E+03  0.51443557927E+03  0.25500000920E-02 0. -1.
        2   -1    0    0  501    0  0.00000000000E+00  0.00000000000E+00 -0.72642455782E+03  0.72642455783E+03  0.25500000920E-02 0.  1.
    10030    2    1    2    0    0  0.00000000000E+00  0.00000000000E+00 -0.21198897856E+03  0.12408601371E+04  0.12226179096E+04 0.  0.
        3    1    3    3  502    0 -0.12970071349E+03 -0.28955377811E+03 -0.63631840293E+03  0.71103079090E+03  0.10100000352E+00 0.  1.
       -3    1    3    3    0  502  0.12970071349E+03  0.28955377811E+03  0.42432942437E+03  0.52982934620E+03  0.10100000352E+00 0. -1.
</event>
<event>
 5   0  0.9110949E-04  0.1389151E+04  0.7818609E-02  0.8961710E-01
        1   -1    0    0  501    0  0.00000000000E+00  0.00000000000E+00  0.13856547507E+04  0.13856547507E+04  0.50400001928E-02 0. -1.
       -1   -1    0    0    0  501  0.00000000000E+00  0.00000000000E+00 -0.34816376900E+03  0.34816376903E+03  0.50400001928E-02 0.  1.
    10030    2    1    2    0    0  0.00000000000E+00  0.00000000000E+00  0.10374909817E+04  0.17338185198E+04  0.13891505038E+04 0.  0.
        2    1    3    3  502    0  0.18209945711E+02 -0.32674961958E+03 -0.24590949769E+03  0.40935119039E+03  0.25500000920E-02 0.  1.
       -2    1    3    3    0  502 -0.18209945711E+02  0.32674961958E+03  0.12834004794E+04  0.13244673294E+04  0.25500000920E-02 0. -1.
</event>
<event>
 5   0  0.1714861E-03  0.1299233E+04  0.7818609E-02  0.9030173E-01
       -2   -1    0    0    0  501  0.00000000000E+00  0.00000000000E+00  0.40217713070E+03  0.40217713071E+03  0.25500000920E-02 0.  1.
        2   -1    0    0  501    0  0.00000000000E+00  0.00000000000E+00 -0.10492936359E+04  0.10492936359E+04  0.25500000920E-02 0. -1.
    10030    2    1    2    0    0  0.00000000000E+00  0.00000000000E+00 -0.64711650521E+03  0.14514707666E+04  0.12992334721E+04 0.  0.
        1    1    3    3  502    0  0.49816301925E+03 -0.38416446416E+03 -0.50457218572E+03  0.80643773467E+03  0.50400001928E-02 0. -1.
       -1    1    3    3    0  502 -0.49816301925E+03  0.38416446416E+03 -0.14254431949E+03  0.64503303195E+03  0.50400001928E-02 0.  1.
</event>
<event>
 5   0  0.1623890E-03  0.1310291E+04  0.7818609E-02  0.9021444E-01
        2   -1    0    0  501    0  0.00000000000E+00  0.00000000000E+00  0.12563715688E+04  0.12563715688E+04  0.25500000920E-02 0.  1.
       -2   -1    0    0    0  501  0.00000000000E+00  0.00000000000E+00 -0.34163128132E+03  0.34163128133E+03  0.25500000920E-02 0. -1.
    10030    2    1    2    0    0  0.00000000000E+00  0.00000000000E+00  0.91474028751E+03  0.15980028502E+04  0.13102913094E+04 0.  0.
        3    1    3    3  502    0 -0.32666996423E+03 -0.35328805809E+03 -0.84883090277E+02  0.48860092789E+03  0.10100000352E+00 0. -1.
       -3    1    3    3    0  502  0.32666996423E+03  0.35328805809E+03  0.99962337779E+03  0.11094019223E+04  0.10100000352E+00 0.  1.
</event>
<event>
 5   0  0.9098192E-04  0.1272270E+04  0.7818609E-02  0.9051849E-01
       -1   -1    0    0    0  501  0.00000000000E+00  0.00000000000E+00  0.87825468997E+03  0.87825468999E+03  0.50400001928E-02 0.  1.
        1   -1    0    0  501    0  0.00000000000E+00  0.00000000000E+00 -0.46076342635E+03  0.46076342638E+03  0.50400001928E-02 0. -1.
    10030    2    1    2    0    0  0.00000000000E+00  0.00000000000E+00  0.41749126362E+03  0.13390181164E+04  0.12722698459E+04 0.  0.
        1    1    3    3  502    0 -0.10378300688E+03 -0.22119255329E+03  0.82690186029E+03  0.86224343705E+03  0.50400001928E-02 0.  1.
       -1    1    3    3    0  502  0.10378300688E+03  0.22119255329E+03 -0.40941059667E+03  0.47677467932E+03  0.50400001928E-02 0. -1.
</event>
<event>
 5   0  0.9098192E-04  0.1545048E+04  0.7818609E-02  0.8855037E-01
       -1   -1    0    0    0  501  0.00000000000E+00  0.00000000000E+00  0.29551476254E+03  0.29551476258E+03  0.50400001928E-02 0.  1.
        1   -1    0    0  501    0  0.00000000000E+00  0.00000000000E+00 -0.20195044461E+04  0.20195044461E+04  0.50400001928E-02 0. -1.
    10030    2    1    2    0    0  0.00000000000E+00  0.00000000000E+00 -0.17239896836E+04  0.23150192087E+04  0.15450480599E+04 0.  0.
        1    1    3    3  502    0  0.53027714786E+03  0.53287079831E+02 -0.24044629485E+02  0.53348993491E+03  0.50400001928E-02 0.  1.
       -1    1    3    3    0  502 -0.53027714786E+03 -0.53287079831E+02 -0.16999450541E+04  0.17815292738E+04  0.50400001928E-02 0. -1.
</event>
<event>
 5   0  0.1714861E-03  0.1297951E+04  0.7818609E-02  0.9031192E-01
       -2   -1    0    0    0  501  0.00000000000E+00  0.00000000000E+00  0.19004401510E+03  0.19004401512E+03  0.25500000920E-02 0. -1.
        2   -1    0    0  501    0  0.00000000000E+00  0.00000000000E+00 -0.22161656144E+04  0.22161656144E+04  0.25500000920E-02 0.  1.
    10030    2    1    2    0    0  0.00000000000E+00  0.00000000000E+00 -0.20261215993E+04  0.24062096295E+04  0.12979507102E+04 0.  0.
        1    1    3    3  502    0  0.73084508929E+02 -0.63849115784E+03 -0.11804905778E+04  0.13440871655E+04  0.50400001928E-02 0. -1.
       -1    1    3    3    0  502 -0.73084508929E+02  0.63849115784E+03 -0.84563102147E+03  0.10621224640E+04  0.50400001928E-02 0.  1.
</event>
<event>
 5   0  0.9110949E-04  0.1286010E+04  0.7818609E-02  0.9040734E-01
       -1   -1    0    0    0  501  0.00000000000E+00  0.00000000000E+00  0.80617815595E+03  0.80617815597E+03  0.50400001928E-02 0.  1.
        1   -1    0    0  501    0  0.00000000000E+00  0.00000000000E+00 -0.51285857674E+03  0.51285857676E+03  0.50400001928E-02 0. -1.
    10030    2    1    2    0    0  0.00000000000E+00  0.00000000000E+00  0.29331957922E+03  0.13190367327E+04  0.12860099248E+04 0.  0.
        2    1    3    3  502    0 -0.10775828843E+03 -0.54178327195E+03  0.48422346540E+03  0.73458377803E+03  0.25500000920E-02 0.  1.
       -2    1    3    3    0  502  0.10775828843E+03  0.54178327195E+03 -0.19090388618E+03  0.58445295470E+03  0.25500000920E-02 0. -1.
</event>
<event>
 5   0  0.9098192E-04  0.1276487E+04  0.7818609E-02  0.9048422E-01
       -1   -1    0    0    0  501  0.00000000000E+00  0.00000000000E+00  0.62218239340E+03  0.62218239342E+03  0.50400001928E-02 0. -1.
        1   -1    0    0  501    0  0.00000000000E+00  0.00000000000E+00 -0.65471890863E+03  0.65471890865E+03  0.50400001928E-02 0.  1.
    10030    2    1    2    0    0  0.00000000000E+00  0.00000000000E+00 -0.32536515235E+02  0.12769013021E+04  0.12764867059E+04 0.  0.
        1    1    3    3  502    0  0.12609109078E+03  0.47726234433E+03 -0.42096889850E+03  0.64876276251E+03  0.50400001928E-02 0.  1.
       -1    1    3    3    0  502 -0.12609109078E+03 -0.47726234433E+03  0.38843238326E+03  0.62813853956E+03  0.50400001928E-02 0. -1.
</event>
<event>
 5   0  0.1623890E-03  0.1293594E+04  0.7818609E-02  0.9034661E-01
       -2   -1    0    0    0  501  0.00000000000E+00  0.00000000000E+00  0.19077362941E+03  0.19077362943E+03  0.25500000920E-02 0.  1.
        2   -1    0    0  501    0  0.00000000000E+00  0.00000000000E+00 -0.21928927232E+04  0.21928927232E+04  0.25500000920E-02 0. -1.
    10030    2    1    2    0    0  0.00000000000E+00  0.00000000000E+00 -0.20021190938E+04  0.23836663526E+04  0.12935936050E+04 0.  0.
        3    1    3    3  502    0  0.41450059337E+03  0.29658798554E+03 -0.26729051797E+03  0.57551664291E+03  0.10100000352E+00 0.  1.
       -3    1    3    3    0  502 -0.41450059337E+03 -0.29658798554E+03 -0.17348285758E+04  0.18081497097E+04  0.10100000352E+00 0. -1.
</event>
<event>
 5   0  0.9081324E-04  0.1333677E+04  0.7818609E-02  0.9003277E-01
        1   -1    0    0  501    0  0.00000000000E+00  0.00000000000E+00  0.63169033639E+03  0.63169033641E+03  0.50400001928E-02 0.  1.
       -1   -1    0    0    0  501  0.00000000000E+00  0.00000000000E+00 -0.70394287548E+03  0.70394287550E+03  0.50400001928E-02 0. -1.
    10030    2    1    2    0    0  0.00000000000E+00  0.00000000000E+00 -0.72252539094E+02  0.13356332119E+04  0.13336774900E+04 0.  0.
        4    1    3    3  502    0 -0.25915008720E+03 -0.61441831202E+03 -0.34207971373E+02  0.66771283352E+03  0.12699999809E+01 0.  1.
       -4    1    3    3    0  502  0.25915008720E+03  0.61441831202E+03 -0.38044567721E+02  0.66792037839E+03  0.12699999809E+01 0. -1.
</event>
<event>
 5   0  0.9098192E-04  0.1304344E+04  0.7818609E-02  0.9026127E-01
        1   -1    0    0  501    0  0.00000000000E+00  0.00000000000E+00  0.10545168896E+04  0.10545168897E+04  0.50400001928E-02 0. -1.
       -1   -1    0    0    0  501  0.00000000000E+00  0.00000000000E+00 -0.40333972273E+03  0.40333972276E+03  0.50400001928E-02 0.  1.
    10030    2    1    2    0    0  0.00000000000E+00  0.00000000000E+00  0.65117716691E+03  0.14578566124E+04  0.13043443562E+04 0.  0.
        1    1    3    3  502    0 -0.53883609550E+03  0.35603874404E+03  0.42692719784E+03  0.77419297165E+03  0.50400001928E-02 0. -1.
       -1    1    3    3    0  502  0.53883609550E+03 -0.35603874404E+03  0.22424996907E+03  0.68366364077E+03  0.50400001928E-02 0.  1.
</event>
<event>
 5   0  0.9081324E-04  0.1295173E+04  0.7818609E-02  0.9033402E-01
        1   -1    0    0  501    0  0.00000000000E+00  0.00000000000E+00  0.92893075503E+03  0.92893075504E+03  0.50400001928E-02 0.  1.
       -1   -1    0    0    0  501  0.00000000000E+00  0.00000000000E+00 -0.45145274807E+03  0.45145274809E+03  0.50400001928E-02 0. -1.
    10030    2    1    2    0    0  0.00000000000E+00  0.00000000000E+00  0.47747800696E+03  0.13803835031E+04  0.12951731037E+04 0.  0.
        4    1    3    3  502    0 -0.31090501646E+03  0.10827491619E+02  0.84407396115E+03  0.89957858391E+03  0.12699999809E+01 0.  1.
       -4    1    3    3    0  502  0.31090501646E+03 -0.10827491619E+02 -0.36659595419E+03  0.48080491923E+03  0.12699999809E+01 0. -1.
</event>
<event>
 5   0  0.1700511E-03  0.1283399E+04  0.7818609E-02  0.9042834E-01
        2   -1    0    0  501    0  0.00000000000E+00  0.00000000000E+00  0.26030024420E+03  0.26030024422E+03  0.25500000920E-02 0. -1.
       -2   -1    0    0    0  501  0.00000000000E+00  0.00000000000E+00 -0.15819361371E+04  0.15819361371E+04  0.25500000920E-02 0.  1.
    10030    2    1    2    0    0  0.00000000000E+00  0.00000000000E+00 -0.13216358929E+04  0.18422363814E+04  0.12833991785E+04 0.  0.
        2    1    3    3  502    0  0.43348632819E+03  0.39488318060E+03 -0.10349553725E+04  0.11895275306E+04  0.25500000920E-02 0.  1.
       -2    1    3    3    0  502 -0.43348632819E+03 -0.39488318060E+03 -0.28668052047E+03  0.65270885076E+03  0.25500000920E-02 0. -1.
</event>
<event>
 5   0  0.1694675E-03  0.1293950E+04  0.7818609E-02  0.9034377E-01
        2   -1    0    0  501    0  0.00000000000E+00  0.00000000000E+00  0.53234631050E+03  0.53234631051E+03  0.25500000920E-02 0. -1.
       -2   -1    0    0    0  501  0.00000000000E+00  0.00000000000E+00 -0.78628656650E+03  0.78628656651E+03  0.25500000920E-02 0.  1.
    10030    2    1    2    0    0  0.00000000000E+00  0.00000000000E+00 -0.25394025600E+03  0.13186328770E+04  0.12939501577E+04 0.  0.
        4    1    3    3  502    0  0.58253403345E+03 -0.12203500591E+03 -0.38545535791E+03  0.70909511959E+03  0.12699999809E+01 0.  1.
       -4    1    3    3    0  502 -0.58253403345E+03  0.12203500591E+03  0.13151510192E+03  0.60953775742E+03  0.12699999809E+01 0. -1.
</event>
<event>
 5   0  0.1623890E-03  0.1299186E+04  0.7818609E-02  0.9030211E-01
       -2   -1    0    0    0  501  0.00000000000E+00  0.00000000000E+00  0.21076865039E+03  0.21076865040E+03  0.25500000920E-02 0.  1.
        2   -1    0    0  501    0  0.00000000000E+00  0.00000000000E+00 -0.20020588285E+04  0.20020588285E+04  0.25500000920E-02 0. -1.
    10030    2    1    2    0    0  0.00000000000E+00  0.00000000000E+00 -0.17912901782E+04  0.22128274789E+04  0.12991862642E+04 0.  0.
        3    1    3    3  502    0 -0.51414506947E+03  0.39654122463E+03 -0.86239339834E+03  0.10794964006E+04  0.10100000352E+00 0. -1.
       -3    1    3    3    0  502  0.51414506947E+03 -0.39654122463E+03 -0.92889677981E+03  0.11333310783E+04  0.10100000352E+00 0.  1.
</event>
<event>
 5   0  0.9215829E-04  0.1314283E+04  0.7818609E-02  0.9018315E-01
        1   -1    0    0  501    0  0.00000000000E+00  0.00000000000E+00  0.45039135667E+03  0.45039135670E+03  0.50400001928E-02 0.  1.
       -1   -1    0    0    0  501  0.00000000000E+00  0.00000000000E+00 -0.95879971155E+03  0.95879971157E+03  0.50400001928E-02 0. -1.
    10030    2    1    2    0    0  0.00000000000E+00  0.00000000000E+00 -0.50840835488E+03  0.14091910683E+04  0.13142832311E+04 0.  0.
        3    1    3    3  502    0  0.60172458250E+02  0.47398061678E+03  0.22954881178E+03  0.53006699294E+03  0.10100000352E+00 0.  1.
       -3    1    3    3    0  502 -0.60172458250E+02 -0.47398061678E+03 -0.73795716666E+03  0.87912407533E+03  0.10100000352E+00 0. -1.
</event>
<event>
 5   0  0.1667342E-03  0.1298444E+04  0.7818609E-02  0.9030800E-01
       -2   -1    0    0    0  501  0.00000000000E+00  0.00000000000E+00  0.25729728866E+03  0.25729728867E+03  0.25500000920E-02 0.  1.
        2   -1    0    0  501    0  0.00000000000E+00  0.00000000000E+00 -0.16381405751E+04  0.16381405751E+04  0.25500000920E-02 0. -1.
    10030    2    1    2    0    0  0.00000000000E+00  0.00000000000E+00 -0.13808432865E+04  0.18954378638E+04  0.12984438816E+04 0.  0.
        5    1    3    3  502    0 -0.11487934142E+03  0.16622875221E+03 -0.15910431466E+04  0.16038296809E+04  0.46999998093E+01 0. -1.
       -5    1    3    3    0  502  0.11487934142E+03 -0.16622875221E+03  0.21019986010E+03  0.29160818289E+03  0.46999998093E+01 0.  1.
</event>
<event>
 5   0  0.1700511E-03  0.1285705E+04  0.7818609E-02  0.9040979E-01
        2   -1    0    0  501    0  0.00000000000E+00  0.00000000000E+00  0.16128565137E+04  0.16128565137E+04  0.25500000920E-02 0. -1.
       -2   -1    0    0    0  501  0.00000000000E+00  0.00000000000E+00 -0.25622801911E+03  0.25622801912E+03  0.25500000920E-02 0.  1.
    10030    2    1    2    0    0  0.00000000000E+00  0.00000000000E+00  0.13566284946E+04  0.18690845329E+04  0.12857045222E+04 0.  0.
        2    1    3    3  502    0 -0.81085725007E+02  0.41912464988E+03  0.13770473280E+04  0.14417002846E+04  0.25500000920E-02 0. -1.
       -2    1    3    3    0  502  0.81085725007E+02 -0.41912464988E+03 -0.20418833368E+02  0.42738424830E+03  0.25500000920E-02 0.  1.
</event>
<event>
 5   0  0.9215829E-04  0.1298292E+04  0.7818609E-02  0.9030921E-01
        1   -1    0    0  501    0  0.00000000000E+00  0.00000000000E+00  0.90669692800E+03  0.90669692801E+03  0.50400001928E-02 0. -1.
       -1   -1    0    0    0  501  0.00000000000E+00  0.00000000000E+00 -0.46475343819E+03  0.46475343822E+03  0.50400001928E-02 0.  1.
    10030    2    1    2    0    0  0.00000000000E+00  0.00000000000E+00  0.44194348981E+03  0.13714503662E+04  0.12982919775E+04 0.  0.
        3    1    3    3  502    0 -0.22527387438E+03 -0.21569359482E+03  0.82236645562E+03  0.87952182625E+03  0.10100000352E+00 0. -1.
       -3    1    3    3    0  502  0.22527387438E+03  0.21569359482E+03 -0.38042296581E+03  0.49192853997E+03  0.10100000352E+00 0.  1.
</event>
<event>
 5   0  0.1667342E-03  0.1285867E+04  0.7818609E-02  0.9040848E-01
        2   -1    0    0  501    0  0.00000000000E+00  0.00000000000E+00  0.88757071986E+03  0.88757071986E+03  0.25500000920E-02 0.  1.
       -2   -1    0    0    0  501  0.00000000000E+00  0.00000000000E+00 -0.46572487229E+03  0.46572487230E+03  0.25500000920E-02 0. -1.
    10030    2    1    2    0    0  0.00000000000E+00  0.00000000000E+00  0.42184584757E+03  0.13532955922E+04  0.12858674273E+04 0.  0.
        5    1    3    3  502    0  0.19071457898E+03  0.19962048276E+03  0.82199094592E+03  0.86712836013E+03  0.46999998093E+01 0.  1.
       -5    1    3    3    0  502 -0.19071457898E+03 -0.19962048276E+03 -0.40014509834E+03  0.48616723203E+03  0.46999998093E+01 0. -1.
</event>
<event>
 5   0  0.9027076E-04  0.1298539E+04  0.7818609E-02  0.9030725E-01
       -1   -1    0    0    0  501  0.00000000000E+00  0.00000000000E+00  0.14653848587E+04  0.14653848587E+04  0.50400001928E-02 0. -1.
        1   -1    0    0  501    0  0.00000000000E+00  0.00000000000E+00 -0.28767248124E+03  0.28767248128E+03  0.50400001928E-02 0.  1.
    10030    2    1    2    0    0  0.00000000000E+00  0.00000000000E+00  0.11777123775E+04  0.17530573400E+04  0.12985390226E+04 0.  0.
        5    1    3    3  502    0 -0.61490826575E+03  0.66632573543E+02  0.85538479866E+03  0.10555838758E+04  0.46999998093E+01 0. -1.
       -5    1    3    3    0  502  0.61490826575E+03 -0.66632573543E+02  0.32232757880E+03  0.69747346415E+03  0.46999998093E+01 0.  1.
</event>
<event>
 5   0  0.1667342E-03  0.1499638E+04  0.7818609E-02  0.8884694E-01
        2   -1    0    0  501    0  0.00000000000E+00  0.00000000000E+00  0.20470717428E+04  0.20470717428E+04  0.25500000920E-02 0. -1.
       -2   -1    0    0    0  501  0.00000000000E+00  0.00000000000E+00 -0.27465018654E+03  0.27465018655E+03  0.25500000920E-02 0.  1.
    10030    2    1    2    0    0  0.00000000000E+00  0.00000000000E+00  0.17724215563E+04  0.23217219294E+04  0.14996381377E+04 0.  0.
        5    1    3    3  502    0 -0.32590152668E+03 -0.27815185021E+03  0.18388514284E+04  0.18881146476E+04  0.46999998093E+01 0. -1.
       -5    1    3    3    0  502  0.32590152668E+03  0.27815185021E+03 -0.66429872119E+02  0.43360728174E+03  0.46999998093E+01 0.  1.
</event>
<event>
 5   0  0.1714861E-03  0.1312005E+04  0.7818609E-02  0.9020099E-01
        2   -1    0    0  501    0  0.00000000000E+00  0.00000000000E+00  0.48320757159E+03  0.48320757159E+03  0.25500000920E-02 0.  1.
       -2   -1    0    0    0  501  0.00000000000E+00  0.00000000000E+00 -0.89058900811E+03  0.89058900811E+03  0.25500000920E-02 0. -1.
    10030    2    1    2    0    0  0.00000000000E+00  0.00000000000E+00 -0.40738143652E+03  0.13737965797E+04  0.13120051096E+04 0.  0.
        1    1    3    3  502    0 -0.25999024746E+03 -0.56008586243E+03 -0.43558960401E+03  0.75566487626E+03  0.50400001928E-02 0.  1.
       -1    1    3    3    0  502  0.25999024746E+03  0.56008586243E+03  0.28208167487E+02  0.61813170345E+03  0.50400001928E-02 0. -1.
</event>
<event>
 5   0  0.1694675E-03  0.1301932E+04  0.7818609E-02  0.9028034E-01
        2   -1    0    0  501    0  0.00000000000E+00  0.00000000000E+00  0.70931186674E+03  0.70931186674E+03  0.25500000920E-02 0.  1.
       -2   -1    0    0    0  501  0.00000000000E+00  0.00000000000E+00 -0.59741956869E+03  0.59741956869E+03  0.25500000920E-02 0. -1.
    10030    2    1    2    0    0  0.00000000000E+00  0.00000000000E+00  0.11189229805E+03  0.13067314354E+04  0.13019320866E+04 0.  0.
        4    1    3    3  502    0  0.18935155923E+03 -0.12480393448E+03 -0.55648770567E+03  0.60092446656E+03  0.12699999809E+01 0. -1.
       -4    1    3    3    0  502 -0.18935155923E+03  0.12480393448E+03  0.66838000372E+03  0.70580696888E+03  0.12699999809E+01 0.  1.
</event>
<event>
 5   0  0.9215829E-04  0.1322048E+04  0.7818609E-02  0.9012262E-01
       -1   -1    0    0    0  501  0.00000000000E+00  0.00000000000E+00  0.68012269818E+03  0.68012269820E+03  0.50400001928E-02 0. -1.
        1   -1    0    0  501    0  0.00000000000E+00  0.00000000000E+00 -0.64246138637E+03  0.64246138639E+03  0.50400001928E-02 0.  1.
    10030    2    1    2    0    0  0.00000000000E+00  0.00000000000E+00  0.37661311807E+02  0.13225840846E+04  0.13220477625E+04 0.  0.
        3    1    3    3  502    0 -0.50719674156E+02  0.65664727886E+03 -0.37711536693E+02  0.65968197215E+03  0.10100000352E+00 0. -1.
       -3    1    3    3    0  502  0.50719674156E+02 -0.65664727886E+03  0.75372848500E+02  0.66290211244E+03  0.10100000352E+00 0.  1.
</event>
<event>
 5   0  0.9081324E-04  0.1283278E+04  0.7818609E-02  0.9042932E-01
       -1   -1    0    0    0  501  0.00000000000E+00  0.00000000000E+00  0.48405774965E+03  0.48405774967E+03  0.50400001928E-02 0.  1.
        1   -1    0    0  501    0  0.00000000000E+00  0.00000000000E+00 -0.85051923212E+03  0.85051923213E+03  0.50400001928E-02 0. -1.
    10030    2    1    2    0    0  0.00000000000E+00  0.00000000000E+00 -0.36646148247E+03  0.13345769818E+04  0.12832777183E+04 0.  0.
        4    1    3    3  502    0 -0.58251132592E+03  0.16623760136E+03 -0.40321543052E+03  0.72769408493E+03  0.12699999809E+01 0.  1.
       -4    1    3    3    0  502  0.58251132592E+03 -0.16623760136E+03  0.36753948049E+02  0.60688289688E+03  0.12699999809E+01 0. -1.
</event>
<event>
 5   0  0.1714861E-03  0.1306677E+04  0.7818609E-02  0.9024287E-01
        2   -1    0    0  501    0  0.00000000000E+00  0.00000000000E+00  0.80508124491E+03  0.80508124492E+03  0.25500000920E-02 0. -1.
       -2   -1    0    0    0  501  0.00000000000E+00  0.00000000000E+00 -0.53019669282E+03  0.53019669283E+03  0.25500000920E-02 0.  1.
    10030    2    1    2    0    0  0.00000000000E+00  0.00000000000E+00  0.27488455209E+03  0.13352779377E+04  0.13066773336E+04 0.  0.
        1    1    3    3  502    0 -0.54253295853E+03  0.27442220133E+03 -0.10696176525E+03  0.61732517762E+03  0.50400001928E-02 0.  1.
       -1    1    3    3    0  502  0.54253295853E+03 -0.27442220133E+03  0.38184631734E+03  0.71795276012E+03  0.50400001928E-02 0. -1.
</event>
<event>
 5   0  0.9098192E-04  0.1322056E+04  0.7818609E-02  0.9012255E-01
       -1   -1    0    0    0  501  0.00000000000E+00  0.00000000000E+00  0.46139074576E+03  0.46139074579E+03  0.50400001928E-02 0. -1.
        1   -1    0    0  501    0  0.00000000000E+00  0.00000000000E+00 -0.94704570969E+03  0.94704570970E+03  0.50400001928E-02 0.  1.
    10030    2    1    2    0    0  0.00000000000E+00  0.00000000000E+00 -0.48565496393E+03  0.14084364555E+04  0.13220561657E+04 0.  0.
        1    1    3    3  502    0 -0.34422001094E+03  0.54443767757E+02  0.35557249307E+03  0.49787883830E+03  0.50400001928E-02 0. -1.
       -1    1    3    3    0  502  0.34422001094E+03 -0.54443767757E+02 -0.84122745700E+03  0.91055761719E+03  0.50400001928E-02 0.  1.
</event>
<event>
 5   0  0.1694675E-03  0.1302866E+04  0.7818609E-02  0.9027296E-01
        2   -1    0    0  501    0  0.00000000000E+00  0.00000000000E+00  0.15261642504E+04  0.15261642504E+04  0.25500000920E-02 0.  1.
       -2   -1    0    0    0  501  0.00000000000E+00  0.00000000000E+00 -0.27805976904E+03  0.27805976905E+03  0.25500000920E-02 0. -1.
    10030    2    1    2    0    0  0.00000000000E+00  0.00000000000E+00  0.12481044814E+04  0.18042240195E+04  0.13028658857E+04 0.  0.
        4    1    3    3  502    0 -0.16715356603E+03 -0.57373425529E+03  0.26492925176E+03  0.65368221000E+03  0.12699999809E+01 0. -1.
       -4    1    3    3    0  502  0.16715356603E+03  0.57373425529E+03  0.98317522964E+03  0.11505418095E+04  0.12699999809E+01 0.  1.
</event>
<event>
 5   0  0.1667342E-03  0.1284247E+04  0.7818609E-02  0.9042151E-01
        2   -1    0    0  501    0  0.00000000000E+00  0.00000000000E+00  0.78971179475E+03  0.78971179476E+03  0.25500000920E-02 0.  1.
       -2   -1    0    0    0  501  0.00000000000E+00  0.00000000000E+00 -0.52211817125E+03  0.52211817125E+03  0.25500000920E-02 0. -1.
    10030    2    1    2    0    0  0.00000000000E+00  0.00000000000E+00  0.26759362351E+03  0.13118299660E+04  0.12842474498E+04 0.  0.
        5    1    3    3  502    0 -0.93847151747E+02 -0.51305386246E+03  0.51636605207E+03  0.73395336596E+03  0.46999998093E+01 0.  1.
       -5    1    3    3    0  502  0.93847151747E+02  0.51305386246E+03 -0.24877242857E+03  0.57787660005E+03  0.46999998093E+01 0. -1.
</event>
<event>
 5   0  0.1667342E-03  0.1361545E+04  0.7818609E-02  0.8982135E-01
        2   -1    0    0  501    0  0.00000000000E+00  0.00000000000E+00  0.13444880451E+04  0.13444880451E+04  0.25500000920E-02 0. -1.
       -2   -1    0    0    0  501  0.00000000000E+00  0.00000000000E+00 -0.34470451795E+03  0.34470451796E+03  0.25500000920E-02 0.  1.
    10030    2    1    2    0    0  0.00000000000E+00  0.00000000000E+00  0.99978352714E+03  0.16891925631E+04  0.13615448630E+04 0.  0.
        5    1    3    3  502    0  0.55515360541E+03 -0.12566290473E+03  0.36610743482E+02  0.57039383566E+03  0.46999998093E+01 0.  1.
       -5    1    3    3    0  502 -0.55515360541E+03  0.12566290473E+03  0.96317278366E+03  0.11187987274E+04  0.46999998093E+01 0. -1.
</event>
<event>
 5   0  0.9081324E-04  0.1300633E+04  0.7818609E-02  0.9029064E-01
        1   -1    0    0  501    0  0.00000000000E+00  0.00000000000E+00  0.11603178150E+04  0.11603178150E+04  0.50400001928E-02 0.  1.
       -1   -1    0    0    0  501  0.00000000000E+00  0.00000000000E+00 -0.36447892758E+03  0.36447892762E+03  0.50400001928E-02 0. -1.
    10030    2    1    2    0    0  0.00000000000E+00  0.00000000000E+00  0.79583888738E+03  0.15247967426E+04  0.13006327581E+04 0.  0.
        4    1    3    3  502    0 -0.21165123648E+03 -0.47227881025E+03 -0.63733833509E+02  0.52144715451E+03  0.12699999809E+01 0. -1.
       -4    1    3    3    0  502  0.21165123648E+03  0.47227881025E+03  0.85957272089E+03  0.10033495881E+04  0.12699999809E+01 0.  1.
</event>
<event>
 5   0  0.9081324E-04  0.1292523E+04  0.7818609E-02  0.9035515E-01
        1   -1    0    0  501    0  0.00000000000E+00  0.00000000000E+00  0.20229998122E+04  0.20229998122E+04  0.50400001928E-02 0.  1.
       -1   -1    0    0    0  501  0.00000000000E+00  0.00000000000E+00 -0.20645293212E+03  0.20645293218E+03  0.50400001928E-02 0. -1.
    10030    2    1    2    0    0  0.00000000000E+00  0.00000000000E+00  0.18165468801E+04  0.22294527444E+04  0.12925234899E+04 0.  0.
        4    1    3    3  502    0  0.51070063858E+02  0.15991719483E+03  0.19847321415E+04  0.19918195067E+04  0.12699999809E+01 0.  1.
       -4    1    3    3    0  502 -0.51070063858E+02 -0.15991719483E+03 -0.16818526142E+03  0.23763323775E+03  0.12699999809E+01 0. -1.
</event>
<event>
 5   0  0.9098192E-04  0.1332928E+04  0.7818609E-02  0.9003853E-01
       -1   -1    0    0    0  501  0.00000000000E+00  0.00000000000E+00  0.11514851953E+04  0.11514851953E+04  0.50400001928E-02 0. -1.
        1   -1    0    0  501    0  0.00000000000E+00  0.00000000000E+00 -0.38574003852E+03  0.38574003856E+03  0.50400001928E-02 0.  1.
    10030    2    1    2    0    0  0.00000000000E+00  0.00000000000E+00  0.76574515677E+03  0.15372252339E+04  0.13329275203E+04 0.  0.
        1    1    3    3  502    0 -0.58279551757E+03 -0.13359384163E+03  0.72240436219E+03  0.93774516387E+03  0.50400001928E-02 0.  1.
       -1    1    3    3    0  502  0.58279551757E+03  0.13359384163E+03  0.43340794578E+02  0.59948006999E+03  0.50400001928E-02 0. -1.
</event>
<event>
 5   0  0.1667342E-03  0.1300051E+04  0.7818609E-02  0.9029525E-01
       -2   -1    0    0    0  501  0.00000000000E+00  0.00000000000E+00  0.26874405096E+03  0.26874405097E+03  0.25500000920E-02 0. -1.
        2   -1    0    0  501    0  0.00000000000E+00  0.00000000000E+00 -0.15722514296E+04  0.15722514296E+04  0.25500000920E-02 0.  1.
    10030    2    1    2    0    0  0.00000000000E+00  0.00000000000E+00 -0.13035073786E+04  0.18409954805E+04  0.13000511041E+04 0.  0.
        5    1    3    3  502    0  0.46969708855E+03  0.18602989805E+03 -0.72557712373E+02  0.51040100860E+03  0.46999998093E+01 0. -1.
       -5    1    3    3    0  502 -0.46969708855E+03 -0.18602989805E+03 -0.12309496662E+04  0.13305944719E+04  0.46999998093E+01 0.  1.
</event>
<event>
 5   0  0.1714861E-03  0.1255452E+04  0.7818609E-02  0.9065657E-01
        2   -1    0    0  501    0  0.00000000000E+00  0.00000000000E+00  0.48722346995E+03  0.48722346996E+03  0.25500000920E-02 0.  1.
       -2   -1    0    0    0  501  0.00000000000E+00  0.00000000000E+00 -0.80874622555E+03  0.80874622555E+03  0.25500000920E-02 0. -1.
    10030    2    1    2    0    0  0.00000000000E+00  0.00000000000E+00 -0.32152275560E+03  0.12959696955E+04  0.12554523365E+04 0.  0.
        1    1    3    3  502    0 -0.42668594824E+03  0.41886932410E+02 -0.63406139188E+03  0.76540790578E+03  0.50400001928E-02 0. -1.
       -1    1    3    3    0  502  0.42668594824E+03 -0.41886932410E+02  0.31253863628E+03  0.53056178973E+03  0.50400001928E-02 0.  1.
</event>
<event>
 5   0  0.1714861E-03  0.1268665E+04  0.7818609E-02  0.9054790E-01
        2   -1    0    0  501    0  0.00000000000E+00  0.00000000000E+00  0.62161238295E+03  0.62161238295E+03  0.25500000920E-02 0. -1.
       -2   -1    0    0    0  501  0.00000000000E+00  0.00000000000E+00 -0.64731265298E+03  0.64731265299E+03  0.25500000920E-02 0.  1.
    10030    2    1    2    0    0  0.00000000000E+00  0.00000000000E+00 -0.25700270034E+02  0.12689250359E+04  0.12686647481E+04 0.  0.
        1    1    3    3  502    0 -0.28934390887E+03 -0.39138267707E+03  0.39402229099E+03  0.62622189624E+03  0.50400001928E-02 0. -1.
       -1    1    3    3    0  502  0.28934390887E+03  0.39138267707E+03 -0.41972256102E+03  0.64270313969E+03  0.50400001928E-02 0.  1.
</event>
<event>
 5   0  0.1714861E-03  0.1301108E+04  0.7818609E-02  0.9028687E-01
       -2   -1    0    0    0  501  0.00000000000E+00  0.00000000000E+00  0.16828145989E+03  0.16828145991E+03  0.25500000920E-02 0. -1.
        2   -1    0    0  501    0  0.00000000000E+00  0.00000000000E+00 -0.25149571851E+04  0.25149571851E+04  0.25500000920E-02 0.  1.
    10030    2    1    2    0    0  0.00000000000E+00  0.00000000000E+00 -0.23466757252E+04  0.26832386450E+04  0.13011082456E+04 0.  0.
        1    1    3    3  502    0  0.30392337777E+03 -0.85720041716E+02 -0.37235039617E+00  0.31578075271E+03  0.50400001928E-02 0. -1.
       -1    1    3    3    0  502 -0.30392337777E+03  0.85720041716E+02 -0.23463033748E+04  0.23674578923E+04  0.50400001928E-02 0.  1.
</event>
<event>
 5   0  0.9110949E-04  0.1291793E+04  0.7818609E-02  0.9036099E-01
        1   -1    0    0  501    0  0.00000000000E+00  0.00000000000E+00  0.15279897055E+04  0.15279897055E+04  0.50400001928E-02 0. -1.
       -1   -1    0    0    0  501  0.00000000000E+00  0.00000000000E+00 -0.27302681896E+03  0.27302681901E+03  0.50400001928E-02 0.  1.
    10030    2    1    2    0    0  0.00000000000E+00  0.00000000000E+00  0.12549628865E+04  0.18010165245E+04  0.12917928142E+04 0.  0.
        2    1    3    3  502    0  0.10119597781E+03  0.50886105410E+03  0.11638441599E+04  0.12742501430E+04  0.25500000920E-02 0. -1.
       -2    1    3    3    0  502 -0.10119597781E+03 -0.50886105410E+03  0.91118726541E+02  0.52676638146E+03  0.25500000920E-02 0.  1.
</event>
<event>
 5   0  0.9027076E-04  0.1295198E+04  0.7818609E-02  0.9033382E-01
        1   -1    0    0  501    0  0.00000000000E+00  0.00000000000E+00  0.21882700934E+04  0.21882700934E+04  0.50400001928E-02 0.  1.
       -1   -1    0    0    0  501  0.00000000000E+00  0.00000000000E+00 -0.19165115079E+03  0.19165115085E+03  0.50400001928E-02 0. -1.
    10030    2    1    2    0    0  0.00000000000E+00  0.00000000000E+00  0.19966189426E+04  0.23799212443E+04  0.12951980261E+04 0.  0.
        5    1    3    3  502    0 -0.38055220165E+03  0.33105139702E+03  0.17445848795E+04  0.18160433633E+04  0.46999998093E+01 0.  1.
       -5    1    3    3    0  502  0.38055220165E+03 -0.33105139702E+03  0.25203406311E+03  0.56387788094E+03  0.46999998093E+01 0. -1.
</event>
<event>
 5   0  0.1667342E-03  0.1315409E+04  0.7818609E-02  0.9017434E-01
       -2   -1    0    0    0  501  0.00000000000E+00  0.00000000000E+00  0.20362874742E+03  0.20362874743E+03  0.25500000920E-02 0.  1.
        2   -1    0    0  501    0  0.00000000000E+00  0.00000000000E+00 -0.21243332592E+04  0.21243332592E+04  0.25500000920E-02 0. -1.
    10030    2    1    2    0    0  0.00000000000E+00  0.00000000000E+00 -0.19207045118E+04  0.23279620067E+04  0.13154091693E+04 0.  0.
        5    1    3    3  502    0  0.75248140253E+01 -0.21446124049E+03  0.13989792596E+03  0.25621039437E+03  0.46999998093E+01 0.  1.
       -5    1    3    3    0  502 -0.75248140253E+01  0.21446124049E+03 -0.20606024378E+04  0.20717516123E+04  0.46999998093E+01 0. -1.
</event>
<event>
 5   0  0.9081324E-04  0.1296866E+04  0.7818609E-02  0.9032054E-01
       -1   -1    0    0    0  501  0.00000000000E+00  0.00000000000E+00  0.45433606212E+03  0.45433606215E+03  0.50400001928E-02 0.  1.
        1   -1    0    0  501    0  0.00000000000E+00  0.00000000000E+00 -0.92544964549E+03  0.92544964550E+03  0.50400001928E-02 0. -1.
    10030    2    1    2    0    0  0.00000000000E+00  0.00000000000E+00 -0.47111358337E+03  0.13797857076E+04  0.12968656795E+04 0.  0.
        4    1    3    3  502    0 -0.61958769498E+03 -0.18332777564E+03 -0.17761802510E+03  0.67011026020E+03  0.12699999809E+01 0.  1.
       -4    1    3    3    0  502  0.61958769498E+03  0.18332777564E+03 -0.29349555827E+03  0.70967544745E+03  0.12699999809E+01 0. -1.
</event>
<event>
 5   0  0.1700511E-03  0.1288420E+04  0.7818609E-02  0.9038799E-01
       -2   -1    0    0    0  501  0.00000000000E+00  0.00000000000E+00  0.39076912599E+03  0.39076912600E+03  0.25500000920E-02 0. -1.
        2   -1    0    0  501    0  0.00000000000E+00  0.00000000000E+00 -0.10620251369E+04  0.10620251369E+04  0.25500000920E-02 0.  1.
    10030    2    1    2    0    0  0.00000000000E+00  0.00000000000E+00 -0.67125601087E+03  0.14527942629E+04  0.12884201714E+04 0.  0.
        2    1    3    3  502    0  0.25986474271E+03  0.53610076093E+03 -0.59261131043E+02  0.59870325875E+03  0.25500000920E-02 0. -1.
       -2    1    3    3    0  502 -0.25986474271E+03 -0.53610076093E+03 -0.61199487982E+03  0.85409100412E+03  0.25500000920E-02 0.  1.
</event>
<event>
 5   0  0.9098192E-04  0.1306340E+04  0.7818609E-02  0.9024553E-01
        1   -1    0    0  501    0  0.00000000000E+00  0.00000000000E+00  0.64459631232E+03  0.64459631234E+03  0.50400001928E-02 0. -1.
       -1   -1    0    0    0  501  0.00000000000E+00  0.00000000000E+00 -0.66185757526E+03  0.66185757528E+03  0.50400001928E-02 0.  1.
    10030    2    1    2    0    0  0.00000000000E+00  0.00000000000E+00 -0.17261262943E+02  0.13064538876E+04  0.13063398521E+04 0.  0.
        1    1    3    3  502    0 -0.64476433701E+03 -0.60541633983E+02 -0.93753351337E+02  0.65435161086E+03  0.50400001928E-02 0.  1.
       -1    1    3    3    0  502  0.64476433701E+03  0.60541633983E+02  0.76492088394E+02  0.65210227675E+03  0.50400001928E-02 0. -1.
</event>
<event>
 5   0  0.1623890E-03  0.1282053E+04  0.7818609E-02  0.9043919E-01
        2   -1    0    0  501    0  0.00000000000E+00  0.00000000000E+00  0.97577375823E+03  0.97577375823E+03  0.25500000920E-02 0.  1.
       -2   -1    0    0    0  501  0.00000000000E+00  0.00000000000E+00 -0.42111717331E+03  0.42111717332E+03  0.25500000920E-02 0. -1.
    10030    2    1    2    0    0  0.00000000000E+00  0.00000000000E+00  0.55465658492E+03  0.13968909315E+04  0.12820531765E+04 0.  0.
        3    1    3    3  502    0 -0.34320464015E+03 -0.23570662460E+03 -0.25374011317E+03  0.48757675615E+03  0.10100000352E+00 0. -1.
       -3    1    3    3    0  502  0.34320464015E+03  0.23570662460E+03  0.80839669809E+03  0.90931417540E+03  0.10100000352E+00 0.  1.
</event>
<event>
 5   0  0.1667342E-03  0.1305210E+04  0.7818609E-02  0.9025443E-01
       -2   -1    0    0    0  501  0.00000000000E+00  0.00000000000E+00  0.58344149011E+03  0.58344149011E+03  0.25500000920E-02 0.  1.
        2   -1    0    0  501    0  0.00000000000E+00  0.00000000000E+00 -0.72996784267E+03  0.72996784267E+03  0.25500000920E-02 0. -1.
    10030    2    1    2    0    0  0.00000000000E+00  0.00000000000E+00 -0.14652635256E+03  0.13134093328E+04  0.13052103675E+04 0.  0.
        5    1    3    3  502    0  0.22814133635E+03  0.39642088306E+03 -0.54166915782E+03  0.70896089625E+03  0.46999998093E+01 0. -1.
       -5    1    3    3    0  502 -0.22814133635E+03 -0.39642088306E+03  0.39514280526E+03  0.60444843653E+03  0.46999998093E+01 0.  1.
</event>
<event>
 5   0  0.9098192E-04  0.1298332E+04  0.7818609E-02  0.9030889E-01
       -1   -1    0    0    0  501  0.00000000000E+00  0.00000000000E+00  0.69999184362E+03  0.69999184364E+03  0.50400001928E-02 0. -1.
        1   -1    0    0  501    0  0.00000000000E+00  0.00000000000E+00 -0.60203018934E+03  0.60203018936E+03  0.50400001928E-02 0.  1.
    10030    2    1    2    0    0  0.00000000000E+00  0.00000000000E+00  0.97961654279E+02  0.13020220330E+04  0.12983315789E+04 0.  0.
        1    1    3    3  502    0 -0.59098744726E+03  0.24152414206E+03 -0.68895393694E+02  0.64214223448E+03  0.50400001928E-02 0.  1.
       -1    1    3    3    0  502  0.59098744726E+03 -0.24152414206E+03  0.16685704797E+03  0.65987979852E+03  0.50400001928E-02 0. -1.
</event>
<event>
 5   0  0.9081324E-04  0.1304833E+04  0.7818609E-02  0.9025741E-01
        1   -1    0    0  501    0  0.00000000000E+00  0.00000000000E+00  0.10319748871E+04  0.10319748872E+04  0.50400001928E-02 0.  1.
       -1   -1    0    0    0  501  0.00000000000E+00  0.00000000000E+00 -0.41245884503E+03  0.41245884506E+03  0.50400001928E-02 0. -1.
    10030    2    1    2    0    0  0.00000000000E+00  0.00000000000E+00  0.61951604211E+03  0.14444337322E+04  0.13048328170E+04 0.  0.
        4    1    3    3  502    0  0.20581535481E+03  0.43518863904E+03 -0.17768928541E+03  0.51315125146E+03  0.12699999809E+01 0. -1.
       -4    1    3    3    0  502 -0.20581535481E+03 -0.43518863904E+03  0.79720532752E+03  0.93128248075E+03  0.12699999809E+01 0.  1.
</event>
<event>
 5   0  0.9027076E-04  0.1336747E+04  0.7818609E-02  0.9000921E-01
        1   -1    0    0  501    0  0.00000000000E+00  0.00000000000E+00  0.28422388910E+04  0.28422388910E+04  0.50400001928E-02 0.  1.
       -1   -1    0    0    0  501  0.00000000000E+00  0.00000000000E+00 -0.15717307256E+03  0.15717307264E+03  0.50400001928E-02 0. -1.
    10030    2    1    2    0    0  0.00000000000E+00  0.00000000000E+00  0.26850658184E+04  0.29994119636E+04  0.13367474250E+04 0.  0.
        5    1    3    3  502    0  0.23523732064E+02  0.62444454952E+03  0.18745437393E+04  0.19759606985E+04  0.46999998093E+01 0. -1.
       -5    1    3    3    0  502 -0.23523732064E+02 -0.62444454952E+03  0.81052207914E+03  0.10234512652E+04  0.46999998093E+01 0.  1.
</event>
<event>
 5   0  0.9027076E-04  0.1237365E+04  0.7818609E-02  0.9080765E-01
       -1   -1    0    0    0  501  0.00000000000E+00  0.00000000000E+00  0.27987976715E+03  0.27987976720E+03  0.50400001928E-02 0.  1.
        1   -1    0    0  501    0  0.00000000000E+00  0.00000000000E+00 -0.13676170393E+04  0.13676170393E+04  0.50400001928E-02 0. -1.
    10030    2    1    2    0    0  0.00000000000E+00  0.00000000000E+00 -0.10877372722E+04  0.16474968065E+04  0.12373654893E+04 0.  0.
        5    1    3    3  502    0  0.36098485730E+03  0.46128533911E+03 -0.27873842009E+03  0.64869979814E+03  0.46999998093E+01 0.  1.
       -5    1    3    3    0  502 -0.36098485730E+03 -0.46128533911E+03 -0.80899885207E+03  0.99879700837E+03  0.46999998093E+01 0. -1.
</event>
<event>
 5   0  0.1667342E-03  0.1319050E+04  0.7818609E-02  0.9014593E-01
        2   -1    0    0  501    0  0.00000000000E+00  0.00000000000E+00  0.12666722277E+04  0.12666722277E+04  0.25500000920E-02 0. -1.
       -2   -1    0    0    0  501  0.00000000000E+00  0.00000000000E+00 -0.34339852151E+03  0.34339852152E+03  0.25500000920E-02 0.  1.
    10030    2    1    2    0    0  0.00000000000E+00  0.00000000000E+00  0.92327370614E+03  0.16100707492E+04  0.13190502193E+04 0.  0.
        5    1    3    3  502    0 -0.58525863392E+03  0.23842232369E+03  0.69187478756E+03  0.93706226296E+03  0.46999998093E+01 0. -1.
       -5    1    3    3    0  502  0.58525863392E+03 -0.23842232369E+03  0.23139891859E+03  0.67300848622E+03  0.46999998093E+01 0.  1.
</event>
<event>
 5   0  0.1667342E-03  0.1325500E+04  0.7818609E-02  0.9009585E-01
        2   -1    0    0  501    0  0.00000000000E+00  0.00000000000E+00  0.14903081965E+04  0.14903081965E+04  0.25500000920E-02 0.  1.
       -2   -1    0    0    0  501  0.00000000000E+00  0.00000000000E+00 -0.29472912549E+03  0.29472912550E+03  0.25500000920E-02 0. -1.
    10030    2    1    2    0    0  0.00000000000E+00  0.00000000000E+00  0.11955790710E+04  0.17850373220E+04  0.13254995005E+04 0.  0.
        5    1    3    3  502    0 -0.43922864469E+02 -0.26520745266E+03  0.14135670472E+04  0.14389086482E+04  0.46999998093E+01 0.  1.
       -5    1    3    3    0  502  0.43922864469E+02  0.26520745266E+03 -0.21798797627E+03  0.34612867371E+03  0.46999998093E+01 0. -1.
</event>
<event>
 5   0  0.1623890E-03  0.1332846E+04  0.7818609E-02  0.9003916E-01
       -2   -1    0    0    0  501  0.00000000000E+00  0.00000000000E+00  0.16362809232E+03  0.16362809234E+03  0.25500000920E-02 0. -1.
        2   -1    0    0  501    0  0.00000000000E+00  0.00000000000E+00 -0.27142027222E+04  0.27142027222E+04  0.25500000920E-02 0.  1.
    10030    2    1    2    0    0  0.00000000000E+00  0.00000000000E+00 -0.25505746299E+04  0.28778308145E+04  0.13328462981E+04 0.  0.
        3    1    3    3  502    0 -0.45406175715E+03  0.20979091211E+03 -0.32443330467E+03  0.59618896794E+03  0.10100000352E+00 0. -1.
       -3    1    3    3    0  502  0.45406175715E+03 -0.20979091211E+03 -0.22261413252E+04  0.22816418466E+04  0.10100000352E+00 0.  1.
</event>
<event>
 5   0  0.1667342E-03  0.1345741E+04  0.7818609E-02  0.8994058E-01
        2   -1    0    0  501    0  0.00000000000E+00  0.00000000000E+00  0.11677581916E+04  0.11677581916E+04  0.25500000920E-02 0. -1.
       -2   -1    0    0    0  501  0.00000000000E+00  0.00000000000E+00 -0.38771281781E+03  0.38771281782E+03  0.25500000920E-02 0.  1.
    10030    2    1    2    0    0  0.00000000000E+00  0.00000000000E+00  0.78004537383E+03  0.15554710095E+04  0.13457411624E+04 0.  0.
        5    1    3    3  502    0 -0.31654784935E+02 -0.18367964252E+02 -0.38654255726E+03  0.38829968593E+03  0.46999998093E+01 0.  1.
       -5    1    3    3    0  502  0.31654784935E+02  0.18367964252E+02  0.11665879311E+04  0.11671713235E+04  0.46999998093E+01 0. -1.
</event>
<event>
 5   0  0.9110949E-04  0.1285496E+04  0.7818609E-02  0.9041147E-01
        1   -1    0    0  501    0  0.00000000000E+00  0.00000000000E+00  0.11317686223E+04  0.11317686224E+04  0.50400001928E-02 0.  1.
       -1   -1    0    0    0  501  0.00000000000E+00  0.00000000000E+00 -0.36502610428E+03  0.36502610432E+03  0.50400001928E-02 0. -1.
    10030    2    1    2    0    0  0.00000000000E+00  0.00000000000E+00  0.76674251806E+03  0.14967947267E+04  0.12854961551E+04 0.  0.
        2    1    3    3  502    0  0.17599689132E+03  0.17163462355E+03 -0.30812384198E+03  0.39417464627E+03  0.25500000920E-02 0. -1.
       -2    1    3    3    0  502 -0.17599689132E+03 -0.17163462355E+03  0.10748663600E+04  0.11026200804E+04  0.25500000920E-02 0.  1.
</event>
<event>
 5   0  0.1623890E-03  0.1313941E+04  0.7818609E-02  0.9018582E-01
        2   -1    0    0  501    0  0.00000000000E+00  0.00000000000E+00  0.11973447134E+04  0.11973447134E+04  0.25500000920E-02 0. -1.
       -2   -1    0    0    0  501  0.00000000000E+00  0.00000000000E+00 -0.36047277831E+03  0.36047277831E+03  0.25500000920E-02 0.  1.
    10030    2    1    2    0    0  0.00000000000E+00  0.00000000000E+00  0.83687193506E+03  0.15578174917E+04  0.13139409049E+04 0.  0.
        3    1    3    3  502    0  0.35293378751E+03 -0.55333027054E+03  0.38339494165E+03  0.76008442830E+03  0.10100000352E+00 0. -1.
       -3    1    3    3    0  502 -0.35293378751E+03  0.55333027054E+03  0.45347699340E+03  0.79773306338E+03  0.10100000352E+00 0.  1.
</event>
<event>
 5   0  0.1694675E-03  0.1300910E+04  0.7818609E-02  0.9028844E-01
        2   -1    0    0  501    0  0.00000000000E+00  0.00000000000E+00  0.13601791601E+04  0.13601791601E+04  0.25500000920E-02 0.  1.
       -2   -1    0    0    0  501  0.00000000000E+00  0.00000000000E+00 -0.31105577282E+03  0.31105577283E+03  0.25500000920E-02 0. -1.
    10030    2    1    2    0    0  0.00000000000E+00  0.00000000000E+00  0.10491233872E+04  0.16712349329E+04  0.13009098044E+04 0.  0.
        4    1    3    3  502    0 -0.44079495527E+03 -0.16006279140E+03  0.11036166234E+04  0.11991211590E+04  0.12699999809E+01 0.  1.
       -4    1    3    3    0  502  0.44079495527E+03  0.16006279140E+03 -0.54493236120E+02  0.47211377386E+03  0.12699999809E+01 0. -1.
</event>
<event>
 5   0  0.1623890E-03  0.1302425E+04  0.7818609E-02  0.9027645E-01
       -2   -1    0    0    0  501  0.00000000000E+00  0.00000000000E+00  0.47630977322E+03  0.47630977322E+03  0.25500000920E-02 0. -1.
        2   -1    0    0  501    0  0.00000000000E+00  0.00000000000E+00 -0.89033973168E+03  0.89033973169E+03  0.25500000920E-02 0.  1.
    10030    2    1    2    0    0  0.00000000000E+00  0.00000000000E+00 -0.41402995847E+03  0.13666495049E+04  0.13024246860E+04 0.  0.
        3    1    3    3  502    0  0.54513733174E+03  0.32378532982E+03 -0.36288583198E+03  0.73054622545E+03  0.10100000352E+00 0.  1.
       -3    1    3    3    0  502 -0.54513733174E+03 -0.32378532982E+03 -0.51144126491E+02  0.63610327946E+03  0.10100000352E+00 0. -1.
</event>
<event>
 5   0  0.9110949E-04  0.1295522E+04  0.7818609E-02  0.9033124E-01
        1   -1    0    0  501    0  0.00000000000E+00  0.00000000000E+00  0.89767230181E+03  0.89767230183E+03  0.50400001928E-02 0. -1.
       -1   -1    0    0    0  501  0.00000000000E+00  0.00000000000E+00 -0.46742477404E+03  0.46742477407E+03  0.50400001928E-02 0.  1.
    10030    2    1    2    0    0  0.00000000000E+00  0.00000000000E+00  0.43024752777E+03  0.13650970759E+04  0.12955219379E+04 0.  0.
        2    1    3    3  502    0  0.58735499062E+03 -0.19973579968E+03  0.41144671920E+03  0.74442506501E+03  0.25500000920E-02 0. -1.
       -2    1    3    3    0  502 -0.58735499062E+03  0.19973579968E+03  0.18800808574E+02  0.62067201088E+03  0.25500000920E-02 0.  1.
</event>
<event>
 5   0  0.1700511E-03  0.1290714E+04  0.7818609E-02  0.9036962E-01
       -2   -1    0    0    0  501  0.00000000000E+00  0.00000000000E+00  0.28687823809E+03  0.28687823810E+03  0.25500000920E-02 0.  1.
        2   -1    0    0  501    0  0.00000000000E+00  0.00000000000E+00 -0.14517847157E+04  0.14517847157E+04  0.25500000920E-02 0. -1.
    10030    2    1    2    0    0  0.00000000000E+00  0.00000000000E+00 -0.11649064776E+04  0.17386629538E+04  0.12907136651E+04 0.  0.
        2    1    3    3  502    0  0.38992974332E+03  0.47046712995E+03 -0.86211220235E+03  0.10567033522E+04  0.25500000920E-02 0.  1.
       -2    1    3    3    0  502 -0.38992974332E+03 -0.47046712995E+03 -0.30279427526E+03  0.68195960161E+03  0.25500000920E-02 0. -1.
</event>
<event>
 5   0  0.9081324E-04  0.1400158E+04  0.7818609E-02  0.8953704E-01
        1   -1    0    0  501    0  0.00000000000E+00  0.00000000000E+00  0.10836761663E+04  0.10836761663E+04  0.50400001928E-02 0. -1.
       -1   -1    0    0    0  501  0.00000000000E+00  0.00000000000E+00 -0.45226677251E+03  0.45226677253E+03  0.50400001928E-02 0.  1.
    10030    2    1    2    0    0  0.00000000000E+00  0.00000000000E+00  0.63140939375E+03  0.15359429388E+04  0.14001581656E+04 0.  0.
        4    1    3    3  502    0 -0.11898842073E+03  0.68642516061E+03  0.23993086429E+03  0.73682167309E+03  0.12699999809E+01 0.  1.
       -4    1    3    3    0  502  0.11898842073E+03 -0.68642516061E+03  0.39147852946E+03  0.79912126572E+03  0.12699999809E+01 0. -1.
</event>
<event>
 5   0  0.9081324E-04  0.1292106E+04  0.7818609E-02  0.9035849E-01
       -1   -1    0    0    0  501  0.00000000000E+00  0.00000000000E+00  0.35985485487E+03  0.35985485490E+03  0.50400001928E-02 0.  1.
        1   -1    0    0  501    0  0.00000000000E+00  0.00000000000E+00 -0.11598691510E+04  0.11598691510E+04  0.50400001928E-02 0. -1.
    10030    2    1    2    0    0  0.00000000000E+00  0.00000000000E+00 -0.80001429617E+03  0.15197240059E+04  0.12921061025E+04 0.  0.
        4    1    3    3  502    0 -0.28384494853E+02  0.61116406599E+03 -0.15595532280E+03  0.63138805082E+03  0.12699999809E+01 0.  1.
       -4    1    3    3    0  502  0.28384494853E+02 -0.61116406599E+03 -0.64405897337E+03  0.88833595513E+03  0.12699999809E+01 0. -1.
</event>
<event>
 5   0  0.1694675E-03  0.1293088E+04  0.7818609E-02  0.9035065E-01
        2   -1    0    0  501    0  0.00000000000E+00  0.00000000000E+00  0.88258549997E+03  0.88258549997E+03  0.25500000920E-02 0. -1.
       -2   -1    0    0    0  501  0.00000000000E+00  0.00000000000E+00 -0.47362991699E+03  0.47362991700E+03  0.25500000920E-02 0.  1.
    10030    2    1    2    0    0  0.00000000000E+00  0.00000000000E+00  0.40895558297E+03  0.13562154170E+04  0.12930876182E+04 0.  0.
        4    1    3    3  502    0  0.94304341362E+02  0.63670769657E+03  0.26850978118E+03  0.69741602731E+03  0.12699999809E+01 0.  1.
       -4    1    3    3    0  502 -0.94304341362E+02 -0.63670769657E+03  0.14044580180E+03  0.65879938966E+03  0.12699999809E+01 0. -1.
</event>
<event>
 5   0  0.9215829E-04  0.1301993E+04  0.7818609E-02  0.9027986E-01
        1   -1    0    0  501    0  0.00000000000E+00  0.00000000000E+00  0.65604373020E+03  0.65604373022E+03  0.50400001928E-02 0. -1.
       -1   -1    0    0    0  501  0.00000000000E+00  0.00000000000E+00 -0.64598847072E+03  0.64598847074E+03  0.50400001928E-02 0.  1.
    10030    2    1    2    0    0  0.00000000000E+00  0.00000000000E+00  0.10055259483E+02  0.13020322010E+04  0.13019933733E+04 0.  0.
        3    1    3    3  502    0  0.15470445061E+03  0.61374876300E+03  0.15726772626E+03  0.65219181155E+03  0.10100000352E+00 0. -1.
       -3    1    3    3    0  502 -0.15470445061E+03 -0.61374876300E+03 -0.14721246678E+03  0.64984038941E+03  0.10100000352E+00 0.  1.
</event>
<event>
 5   0  0.9110949E-04  0.1302637E+04  0.7818609E-02  0.9027477E-01
        1   -1    0    0  501    0  0.00000000000E+00  0.00000000000E+00  0.61243059863E+03  0.61243059865E+03  0.50400001928E-02 0.  1.
       -1   -1    0    0    0  501  0.00000000000E+00  0.00000000000E+00 -0.69267583011E+03  0.69267583013E+03  0.50400001928E-02 0. -1.
    10030    2    1    2    0    0  0.00000000000E+00  0.00000000000E+00 -0.80245231482E+02  0.13051064288E+04  0.13026371303E+04 0.  0.
        2    1    3    3  502    0  0.54523252986E+03  0.69625528663E+02  0.30995302765E+03  0.63102860887E+03  0.25500000920E-02 0.  1.
       -2    1    3    3    0  502 -0.54523252986E+03 -0.69625528663E+02 -0.39019825913E+03  0.67407781991E+03  0.25500000920E-02 0. -1.
</event>
<event>
 5   0  0.1623890E-03  0.1341006E+04  0.7818609E-02  0.8997665E-01
       -2   -1    0    0    0  501  0.00000000000E+00  0.00000000000E+00  0.19655893986E+03  0.19655893987E+03  0.25500000920E-02 0. -1.
        2   -1    0    0  501    0  0.00000000000E+00  0.00000000000E+00 -0.22872227951E+04  0.22872227951E+04  0.25500000920E-02 0.  1.
    10030    2    1    2    0    0  0.00000000000E+00  0.00000000000E+00 -0.20906638552E+04  0.24837817350E+04  0.13410057238E+04 0.  0.
        3    1    3    3  502    0  0.30363889926E+03  0.47949181983E+03 -0.38406252502E+03  0.68528316757E+03  0.10100000352E+00 0. -1.
       -3    1    3    3    0  502 -0.30363889926E+03 -0.47949181983E+03 -0.17066013302E+04  0.17984985674E+04  0.10100000352E+00 0.  1.
</event>
<event>
 5   0  0.1623890E-03  0.1303821E+04  0.7818609E-02  0.9026540E-01
        2   -1    0    0  501    0  0.00000000000E+00  0.00000000000E+00  0.95911481671E+03  0.95911481671E+03  0.25500000920E-02 0. -1.
       -2   -1    0    0    0  501  0.00000000000E+00  0.00000000000E+00 -0.44310400050E+03  0.44310400050E+03  0.25500000920E-02 0.  1.
    10030    2    1    2    0    0  0.00000000000E+00  0.00000000000E+00  0.51601081621E+03  0.14022188172E+04  0.13038214789E+04 0.  0.
        3    1    3    3  502    0 -0.31952426305E+03  0.51099592338E+03  0.52530856297E+03  0.79947588139E+03  0.10100000352E+00 0. -1.
       -3    1    3    3    0  502  0.31952426305E+03 -0.51099592338E+03 -0.92977467583E+01  0.60274293583E+03  0.10100000352E+00 0.  1.
</event>
<event>
 5   0  0.1694675E-03  0.1296529E+04  0.7818609E-02  0.9032322E-01
        2   -1    0    0  501    0  0.00000000000E+00  0.00000000000E+00  0.12649647822E+04  0.12649647822E+04  0.25500000920E-02 0. -1.
       -2   -1    0    0    0  501  0.00000000000E+00  0.00000000000E+00 -0.33222004323E+03  0.33222004324E+03  0.25500000920E-02 0.  1.
    10030    2    1    2    0    0  0.00000000000E+00  0.00000000000E+00  0.93274473898E+03  0.15971848255E+04  0.12965286802E+04 0.  0.
        4    1    3    3  502    0 -0.35523142082E+03  0.47295584744E+03  0.79315730424E+03  0.98943252328E+03  0.12699999809E+01 0. -1.
       -4    1    3    3    0  502  0.35523142082E+03 -0.47295584744E+03  0.13958743474E+03  0.60775230217E+03  0.12699999809E+01 0.  1.
</event>
<event>
 5   0  0.9098192E-04  0.1179042E+04  0.7818609E-02  0.9131401E-01
       -1   -1    0    0    0  501  0.00000000000E+00  0.00000000000E+00  0.23790823868E+03  0.23790823874E+03  0.50400001928E-02 0.  1.
        1   -1    0    0  501    0  0.00000000000E+00  0.00000000000E+00 -0.14607952010E+04  0.14607952010E+04  0.50400001928E-02 0. -1.
    10030    2    1    2    0    0  0.00000000000E+00  0.00000000000E+00 -0.12228869623E+04  0.16987034398E+04  0.11790423460E+04 0.  0.
        1    1    3    3  502    0 -0.46863847115E+03  0.19981535229E+03 -0.18407993769E+03  0.54169513118E+03  0.50400001928E-02 0.  1.
       -1    1    3    3    0  502  0.46863847115E+03 -0.19981535229E+03 -0.10388070246E+04  0.11570083086E+04  0.50400001928E-02 0. -1.
</event>
<event>
 5   0  0.1694675E-03  0.1300530E+04  0.7818609E-02  0.9029145E-01
       -2   -1    0    0    0  501  0.00000000000E+00  0.00000000000E+00  0.20228340989E+03  0.20228340991E+03  0.25500000920E-02 0. -1.
        2   -1    0    0  501    0  0.00000000000E+00  0.00000000000E+00 -0.20903583936E+04  0.20903583936E+04  0.25500000920E-02 0.  1.
    10030    2    1    2    0    0  0.00000000000E+00  0.00000000000E+00 -0.18880749837E+04  0.22926418035E+04  0.13005303899E+04 0.  0.
        4    1    3    3  502    0  0.63123533837E+03  0.91039714092E+02 -0.11676969226E+04  0.13305126823E+04  0.12699999809E+01 0.  1.
       -4    1    3    3    0  502 -0.63123533837E+03 -0.91039714092E+02 -0.72037806113E+03  0.96212912117E+03  0.12699999809E+01 0. -1.
</event>
<event>
 5   0  0.9215829E-04  0.1292352E+04  0.7818609E-02  0.9035652E-01
        1   -1    0    0  501    0  0.00000000000E+00  0.00000000000E+00  0.56961610768E+03  0.56961610770E+03  0.50400001928E-02 0. -1.
       -1   -1    0    0    0  501  0.00000000000E+00  0.00000000000E+00 -0.73302602401E+03  0.73302602403E+03  0.50400001928E-02 0.  1.
    10030    2    1    2    0    0  0.00000000000E+00  0.00000000000E+00 -0.16340991634E+03  0.13026421317E+04  0.12923520119E+04 0.  0.
        3    1    3    3  502    0  0.41254579997E+03  0.15569721776E+03  0.39439882787E+03  0.59159623588E+03  0.10100000352E+00 0. -1.
       -3    1    3    3    0  502 -0.41254579997E+03 -0.15569721776E+03 -0.55780874420E+03  0.71104589585E+03  0.10100000352E+00 0.  1.
</event>
<event>
 5   0  0.1623890E-03  0.1283766E+04  0.7818609E-02  0.9042539E-01
       -2   -1    0    0    0  501  0.00000000000E+00  0.00000000000E+00  0.75655720221E+03  0.75655720221E+03  0.25500000920E-02 0. -1.
        2   -1    0    0  501    0  0.00000000000E+00  0.00000000000E+00 -0.54459017835E+03  0.54459017836E+03  0.25500000920E-02 0.  1.
    10030    2    1    2    0    0  0.00000000000E+00  0.00000000000E+00  0.21196702386E+03  0.13011473806E+04  0.12837657445E+04 0.  0.
        3    1    3    3  502    0  0.40640903361E+03  0.29336162853E+03  0.51239172829E+03  0.71678074829E+03  0.10100000352E+00 0. -1.
       -3    1    3    3    0  502 -0.40640903361E+03 -0.29336162853E+03 -0.30042470443E+03  0.58436663228E+03  0.10100000352E+00 0.  1.
</event>
<event>
 5   0  0.1667342E-03  0.1299834E+04  0.7818609E-02  0.9029697E-01
       -2   -1    0    0    0  501  0.00000000000E+00  0.00000000000E+00  0.38836052302E+03  0.38836052302E+03  0.25500000920E-02 0. -1.
        2   -1    0    0  501    0  0.00000000000E+00  0.00000000000E+00 -0.10876288181E+04  0.10876288181E+04  0.25500000920E-02 0.  1.
    10030    2    1    2    0    0  0.00000000000E+00  0.00000000000E+00 -0.69926829505E+03  0.14759893411E+04  0.12998339842E+04 0.  0.
        5    1    3    3  502    0  0.47020060492E+03  0.92767906272E+02 -0.84806922255E+03  0.97413448227E+03  0.46999998093E+01 0.  1.
       -5    1    3    3    0  502 -0.47020060492E+03 -0.92767906272E+02  0.14880092751E+03  0.50185485882E+03  0.46999998093E+01 0. -1.
</event>
<event>
 5   0  0.9081324E-04  0.1309672E+04  0.7818609E-02  0.9021930E-01
        1   -1    0    0  501    0  0.00000000000E+00  0.00000000000E+00  0.14530021057E+04  0.14530021057E+04  0.50400001928E-02 0. -1.
       -1   -1    0    0    0  501  0.00000000000E+00  0.00000000000E+00 -0.29512030619E+03  0.29512030624E+03  0.50400001928E-02 0.  1.
    10030    2    1    2    0    0  0.00000000000E+00  0.00000000000E+00  0.11578817995E+04  0.17481224119E+04  0.13096723657E+04 0.  0.
        4    1    3    3  502    0  0.58832794883E+02  0.58044882178E+03  0.97585894068E+03  0.11369628039E+04  0.12699999809E+01 0. -1.
       -4    1    3    3    0  502 -0.58832794883E+02 -0.58044882178E+03  0.18202285882E+03  0.61115960804E+03  0.12699999809E+01 0.  1.
</event>
<event>
 5   0  0.9098192E-04  0.1297371E+04  0.7818609E-02  0.9031653E-01
        1   -1    0    0  501    0  0.00000000000E+00  0.00000000000E+00  0.93362962539E+03  0.93362962540E+03  0.50400001928E-02 0. -1.
       -1   -1    0    0    0  501  0.00000000000E+00  0.00000000000E+00 -0.45070643252E+03  0.45070643255E+03  0.50400001928E-02 0.  1.
    10030    2    1    2    0    0  0.00000000000E+00  0.00000000000E+00  0.48292319287E+03  0.13843360579E+04  0.12973709998E+04 0.  0.
        1    1    3    3  502    0  0.59320866442E+03  0.25634812927E+03  0.18127121717E+03  0.67117072130E+03  0.50400001928E-02 0.  1.
       -1    1    3    3    0  502 -0.59320866442E+03 -0.25634812927E+03  0.30165197569E+03  0.71316533665E+03  0.50400001928E-02 0. -1.
</event>
<event>
 5   0  0.1714861E-03  0.1307174E+04  0.7818609E-02  0.9023895E-01
       -2   -1    0    0    0  501  0.00000000000E+00  0.00000000000E+00  0.49441777592E+03  0.49441777593E+03  0.25500000920E-02 0.  1.
        2   -1    0    0  501    0  0.00000000000E+00  0.00000000000E+00 -0.86399826600E+03  0.86399826601E+03  0.25500000920E-02 0. -1.
    10030    2    1    2    0    0  0.00000000000E+00  0.00000000000E+00 -0.36958049008E+03  0.13584160419E+04  0.13071742058E+04 0.  0.
        1    1    3    3  502    0  0.61505347812E+03 -0.19975430816E+03 -0.86293245681E+02  0.65241021516E+03  0.50400001928E-02 0.  1.
       -1    1    3    3    0  502 -0.61505347812E+03  0.19975430816E+03 -0.28328724440E+03  0.70600582677E+03  0.50400001928E-02 0. -1.
</event>
<event>
 5   0  0.9081324E-04  0.1278380E+04  0.7818609E-02  0.9046888E-01
        1   -1    0    0  501    0  0.00000000000E+00  0.00000000000E+00  0.83060288790E+03  0.83060288791E+03  0.50400001928E-02 0.  1.
       -1   -1    0    0    0  501  0.00000000000E+00  0.00000000000E+00 -0.49188867987E+03  0.49188867990E+03  0.50400001928E-02 0. -1.
    10030    2    1    2    0    0  0.00000000000E+00  0.00000000000E+00  0.33871420803E+03  0.13224915678E+04  0.12783804724E+04 0.  0.
        4    1    3    3  502    0 -0.18858886505E+03 -0.57072801249E+03 -0.55552853300E+02  0.60364224228E+03  0.12699999809E+01 0. -1.
       -4    1    3    3    0  502  0.18858886505E+03  0.57072801249E+03  0.39426706133E+03  0.71884932553E+03  0.12699999809E+01 0.  1.
</event>
<event>
 5   0  0.1667342E-03  0.1306674E+04  0.7818609E-02  0.9024289E-01
       -2   -1    0    0    0  501  0.00000000000E+00  0.00000000000E+00  0.45536787873E+03  0.45536787874E+03  0.25500000920E-02 0.  1.
        2   -1    0    0  501    0  0.00000000000E+00  0.00000000000E+00 -0.93737228429E+03  0.93737228430E+03  0.25500000920E-02 0. -1.
    10030    2    1    2    0    0  0.00000000000E+00  0.00000000000E+00 -0.48200440556E+03  0.13927401630E+04  0.13066739895E+04 0.  0.
        5    1    3    3  502    0  0.16303241233E+03  0.40705609747E+03  0.27520405066E+03  0.51771960892E+03  0.46999998093E+01 0.  1.
       -5    1    3    3    0  502 -0.16303241233E+03 -0.40705609747E+03 -0.75720845622E+03  0.87502055412E+03  0.46999998093E+01 0. -1.
</event>
<event>
 5   0  0.9110949E-04  0.1299217E+04  0.7818609E-02  0.9030186E-01
        1   -1    0    0  501    0  0.00000000000E+00  0.00000000000E+00  0.49720990136E+03  0.49720990139E+03  0.50400001928E-02 0.  1.
       -1   -1    0    0    0  501  0.00000000000E+00  0.00000000000E+00 -0.84871894237E+03  0.84871894239E+03  0.50400001928E-02 0. -1.
    10030    2    1    2    0    0  0.00000000000E+00  0.00000000000E+00 -0.35150904101E+03  0.13459288438E+04  0.12992173977E+04 0.  0.
        2    1    3    3  502    0 -0.55752713780E+03 -0.33252291189E+03 -0.20077800576E+03  0.67949967176E+03  0.25500000920E-02 0.  1.
       -2    1    3    3    0  502  0.55752713780E+03  0.33252291189E+03 -0.15073103525E+03  0.66642917201E+03  0.25500000920E-02 0. -1.
</event>
<event>
 5   0  0.9027076E-04  0.1304575E+04  0.7818609E-02  0.9025945E-01
       -1   -1    0    0    0  501  0.00000000000E+00  0.00000000000E+00  0.89112119571E+03  0.89112119573E+03  0.50400001928E-02 0. -1.
        1   -1    0    0  501    0  0.00000000000E+00  0.00000000000E+00 -0.47746500495E+03  0.47746500498E+03  0.50400001928E-02 0.  1.
    10030    2    1    2    0    0  0.00000000000E+00  0.00000000000E+00  0.41365619076E+03  0.13685862007E+04  0.13045753120E+04 0.  0.
        5    1    3    3  502    0 -0.40239872425E+03 -0.36833383584E+03 -0.16829575624E+03  0.57091163893E+03  0.46999998093E+01 0.  1.
       -5    1    3    3    0  502  0.40239872425E+03  0.36833383584E+03  0.58195194700E+03  0.79767456178E+03  0.46999998093E+01 0. -1.
</event>
<event>
 5   0  0.9098192E-04  0.1320682E+04  0.7818609E-02  0.9013323E-01
        1   -1    0    0  501    0  0.00000000000E+00  0.00000000000E+00  0.10060963675E+04  0.10060963675E+04  0.50400001928E-02 0.  1.
       -1   -1    0    0    0  501  0.00000000000E+00  0.00000000000E+00 -0.43340825555E+03  0.43340825558E+03  0.50400001928E-02 0. -1.
    10030    2    1    2    0    0  0.00000000000E+00  0.00000000000E+00  0.57268811195E+03  0.14395046231E+04  0.13206823563E+04 0.  0.
        1    1    3    3  502    0 -0.25867269001E+03 -0.40430036467E+03 -0.20797898403E+03  0.52309234677E+03  0.50400001928E-02 0. -1.
       -1    1    3    3    0  502  0.25867269001E+03  0.40430036467E+03  0.78066709597E+03  0.91641227632E+03  0.50400001928E-02 0.  1.
</event>
<event>
 5   0  0.1667342E-03  0.1297122E+04  0.7818609E-02  0.9031850E-01
        2   -1    0    0  501    0  0.00000000000E+00  0.00000000000E+00  0.18011192415E+04  0.18011192415E+04  0.25500000920E-02 0.  1.
       -2   -1    0    0    0  501  0.00000000000E+00  0.00000000000E+00 -0.23353898033E+03  0.23353898035E+03  0.25500000920E-02 0. -1.
    10030    2    1    2    0    0  0.00000000000E+00  0.00000000000E+00  0.15675802612E+04  0.20346582219E+04  0.12971222782E+04 0.  0.
        5    1    3    3  502    0  0.59368917872E+03 -0.11935755302E+03  0.41963166800E+03  0.73676719062E+03  0.46999998093E+01 0. -1.
       -5    1    3    3    0  502 -0.59368917872E+03  0.11935755302E+03  0.11479485932E+04  0.12978910312E+04  0.46999998093E+01 0.  1.
</event>
<event>
 5   0  0.9110949E-04  0.1300641E+04  0.7818609E-02  0.9029057E-01
       -1   -1    0    0    0  501  0.00000000000E+00  0.00000000000E+00  0.26529989661E+03  0.26529989666E+03  0.50400001928E-02 0.  1.
        1   -1    0    0  501    0  0.00000000000E+00  0.00000000000E+00 -0.15941088651E+04  0.15941088651E+04  0.50400001928E-02 0. -1.
    10030    2    1    2    0    0  0.00000000000E+00  0.00000000000E+00 -0.13288089685E+04  0.18594087618E+04  0.13006412528E+04 0.  0.
        2    1    3    3  502    0  0.47929551594E+03  0.24300772229E+02 -0.36999494854E+02  0.48133531114E+03  0.25500000920E-02 0.  1.
       -2    1    3    3    0  502 -0.47929551594E+03 -0.24300772229E+02 -0.12918094736E+04  0.13780734506E+04  0.25500000920E-02 0. -1.
</event>
<event>
 5   0  0.9215829E-04  0.1308287E+04  0.7818609E-02  0.9023019E-01
       -1   -1    0    0    0  501  0.00000000000E+00  0.00000000000E+00  0.73947475615E+03  0.73947475616E+03  0.50400001928E-02 0. -1.
        1   -1    0    0  501    0  0.00000000000E+00  0.00000000000E+00 -0.57865942933E+03  0.57865942936E+03  0.50400001928E-02 0.  1.
    10030    2    1    2    0    0  0.00000000000E+00  0.00000000000E+00  0.16081532681E+03  0.13181341855E+04  0.13082874920E+04 0.  0.
        3    1    3    3  502    0 -0.40837737139E+03 -0.12166339182E+03  0.58045954159E+03  0.72007454336E+03  0.10100000352E+00 0. -1.
       -3    1    3    3    0  502  0.40837737139E+03  0.12166339182E+03 -0.41964421478E+03  0.59805964216E+03  0.10100000352E+00 0.  1.
</event>
<event>
 5   0  0.1623890E-03  0.1310332E+04  0.7818609E-02  0.9021412E-01
       -2   -1    0    0    0  501  0.00000000000E+00  0.00000000000E+00  0.40081820828E+03  0.40081820829E+03  0.25500000920E-02 0. -1.
        2   -1    0    0  501    0  0.00000000000E+00  0.00000000000E+00 -0.10709150292E+04  0.10709150293E+04  0.25500000920E-02 0.  1.
    10030    2    1    2    0    0  0.00000000000E+00  0.00000000000E+00 -0.67009682097E+03  0.14717332375E+04  0.13103316271E+04 0.  0.
        3    1    3    3  502    0  0.58358729892E+03  0.27368907818E+03 -0.20328502560E+03  0.67587325647E+03  0.10100000352E+00 0.  1.
       -3    1    3    3    0  502 -0.58358729892E+03 -0.27368907818E+03 -0.46681179537E+03  0.79585998107E+03  0.10100000352E+00 0. -1.
</event>
<event>
 5   0  0.1667342E-03  0.1291187E+04  0.7818609E-02  0.9036584E-01
        2   -1    0    0  501    0  0.00000000000E+00  0.00000000000E+00  0.10111571051E+04  0.10111571051E+04  0.25500000920E-02 0.  1.
       -2   -1    0    0    0  501  0.00000000000E+00  0.00000000000E+00 -0.41219188008E+03  0.41219188009E+03  0.25500000920E-02 0. -1.
    10030    2    1    2    0    0  0.00000000000E+00  0.00000000000E+00  0.59896522502E+03  0.14233489852E+04  0.12911866607E+04 0.  0.
        5    1    3    3  502    0 -0.56935285381E+03  0.22524059150E+03  0.52505589075E+03  0.80659889326E+03  0.46999998093E+01 0.  1.
       -5    1    3    3    0  502  0.56935285381E+03 -0.22524059150E+03  0.73909334268E+02  0.61675009193E+03  0.46999998093E+01 0. -1.
</event>
<event>
 5   0  0.1714861E-03  0.1317444E+04  0.7818609E-02  0.9015845E-01
        2   -1    0    0  501    0  0.00000000000E+00  0.00000000000E+00  0.11262189674E+04  0.11262189674E+04  0.25500000920E-02 0.  1.
       -2   -1    0    0    0  501  0.00000000000E+00  0.00000000000E+00 -0.38528448740E+03  0.38528448741E+03  0.25500000920E-02 0. -1.
    10030    2    1    2    0    0  0.00000000000E+00  0.00000000000E+00  0.74093448001E+03  0.15115034548E+04  0.13174440369E+04 0.  0.
        1    1    3    3  502    0  0.40573637468E+03 -0.14397433453E+03 -0.20153292624E+03  0.47535895398E+03  0.50400001928E-02 0. -1.
       -1    1    3    3    0  502 -0.40573637468E+03  0.14397433453E+03  0.94246740626E+03  0.10361445008E+04  0.50400001928E-02 0.  1.
</event>
<event>
 5   0  0.9081324E-04  0.1292633E+04  0.7818609E-02  0.9035428E-01
       -1   -1    0    0    0  501  0.00000000000E+00  0.00000000000E+00  0.26070749821E+03  0.26070749825E+03  0.50400001928E-02 0. -1.
        1   -1    0    0  501    0  0.00000000000E+00  0.00000000000E+00 -0.16022747600E+04  0.16022747600E+04  0.50400001928E-02 0.  1.
    10030    2    1    2    0    0  0.00000000000E+00  0.00000000000E+00 -0.13415672618E+04  0.18629822583E+04  0.12926330402E+04 0.  0.
        4    1    3    3  502    0 -0.39921794595E+03  0.22528041284E+03 -0.13274491474E+04  0.14043678594E+04  0.12699999809E+01 0. -1.
       -4    1    3    3    0  502  0.39921794595E+03 -0.22528041284E+03 -0.14118114409E+02  0.45861439884E+03  0.12699999809E+01 0.  1.
</event>
<event>
 5   0  0.9215829E-04  0.1294504E+04  0.7818609E-02  0.9033935E-01
       -1   -1    0    0    0  501  0.00000000000E+00  0.00000000000E+00  0.28009297594E+03  0.28009297598E+03  0.50400001928E-02 0. -1.
        1   -1    0    0  501    0  0.00000000000E+00  0.00000000000E+00 -0.14956998938E+04  0.14956998938E+04  0.50400001928E-02 0.  1.
    10030    2    1    2    0    0  0.00000000000E+00  0.00000000000E+00 -0.12156069179E+04  0.17757928698E+04  0.12945038191E+04 0.  0.
        3    1    3    3  502    0  0.37571756818E+03 -0.46847443150E+03 -0.27656971566E+03  0.66115263127E+03  0.10100000352E+00 0. -1.
       -3    1    3    3    0  502 -0.37571756818E+03  0.46847443150E+03 -0.93903720221E+03  0.11146402385E+04  0.10100000352E+00 0.  1.
</event>
<event>
 5   0  0.9098192E-04  0.1280495E+04  0.7818609E-02  0.9045178E-01
       -1   -1    0    0    0  501  0.00000000000E+00  0.00000000000E+00  0.11524447019E+04  0.11524447019E+04  0.50400001928E-02 0.  1.
        1   -1    0    0  501    0  0.00000000000E+00  0.00000000000E+00 -0.35569312522E+03  0.35569312526E+03  0.50400001928E-02 0. -1.
    10030    2    1    2    0    0  0.00000000000E+00  0.00000000000E+00  0.79675157669E+03  0.15081378272E+04  0.12804946821E+04 0.  0.
        1    1    3    3  502    0  0.24459019143E+03  0.53383221165E+02 -0.29565655242E+03  0.38741054072E+03  0.50400001928E-02 0. -1.
       -1    1    3    3    0  502 -0.24459019143E+03 -0.53383221165E+02  0.10924081291E+04  0.11207272865E+04  0.50400001928E-02 0.  1.
</event>
<event>
 5   0  0.1700511E-03  0.1302085E+04  0.7818609E-02  0.9027913E-01
        2   -1    0    0  501    0  0.00000000000E+00  0.00000000000E+00  0.21374218096E+04  0.21374218096E+04  0.25500000920E-02 0.  1.
       -2   -1    0    0    0  501  0.00000000000E+00  0.00000000000E+00 -0.19830258755E+03  0.19830258756E+03  0.25500000920E-02 0. -1.
    10030    2    1    2    0    0  0.00000000000E+00  0.00000000000E+00  0.19391192221E+04  0.23357243972E+04  0.13020849059E+04 0.  0.
        2    1    3    3  502    0  0.76240536953E+02 -0.61010538361E+03  0.13535200706E+04  0.14866263081E+04  0.25500000920E-02 0. -1.
       -2    1    3    3    0  502 -0.76240536953E+02  0.61010538361E+03  0.58559915148E+03  0.84909808904E+03  0.25500000920E-02 0.  1.
</event>
<event>
 5   0  0.9098192E-04  0.1301031E+04  0.7818609E-02  0.9028748E-01
        1   -1    0    0  501    0  0.00000000000E+00  0.00000000000E+00  0.11153535862E+04  0.11153535862E+04  0.50400001928E-02 0. -1.
       -1   -1    0    0    0  501  0.00000000000E+00  0.00000000000E+00 -0.37940483113E+03  0.37940483116E+03  0.50400001928E-02 0.  1.
    10030    2    1    2    0    0  0.00000000000E+00  0.00000000000E+00  0.73594875505E+03  0.14947584173E+04  0.13010311895E+04 0.  0.
        1    1    3    3  502    0 -0.61643768433E+03  0.10324452910E+03  0.16080299194E+03  0.64537776046E+03  0.50400001928E-02 0.  1.
       -1    1    3    3    0  502  0.61643768433E+03 -0.10324452910E+03  0.57514576311E+03  0.84938065689E+03  0.50400001928E-02 0. -1.
</event>
<event>
 5   0  0.6284125E-04  0.1306639E+04  0.7818609E-02  0.9024317E-01
       -4   -1    0    0    0  501  0.00000000000E+00  0.00000000000E+00  0.87389183985E+03  0.87389276267E+03  0.12699999809E+01 0. -1.
        4   -1    0    0  501    0  0.00000000000E+00  0.00000000000E+00 -0.48841832078E+03  0.48841997192E+03  0.12699999809E+01 0.  1.
    10030    2    1    2    0    0  0.00000000000E+00  0.00000000000E+00  0.38547351907E+03  0.13623127346E+04  0.13066392589E+04 0.  0.
        5    1    3    3  502    0 -0.52679849295E+03 -0.38604930621E+03  0.20934434039E+03  0.68585556923E+03  0.46999998093E+01 0.  1.
       -5    1    3    3    0  502  0.52679849295E+03  0.38604930621E+03  0.17612917867E+03  0.67645716536E+03  0.46999998093E+01 0. -1.
</event>
<event>
 5   0  0.9081324E-04  0.1312269E+04  0.7818609E-02  0.9019892E-01
        1   -1    0    0  501    0  0.00000000000E+00  0.00000000000E+00  0.91534721823E+03  0.91534721825E+03  0.50400001928E-02 0.  1.
       -1   -1    0    0    0  501  0.00000000000E+00  0.00000000000E+00 -0.47032685863E+03  0.47032685865E+03  0.50400001928E-02 0. -1.
    10030    2    1    2    0    0  0.00000000000E+00  0.00000000000E+00  0.44502035961E+03  0.13856740769E+04  0.13122688470E+04 0.  0.
        4    1    3    3  502    0  0.59230634654E+03 -0.10237678064E+03  0.50028993739E+03  0.78204823874E+03  0.12699999809E+01 0. -1.
       -4    1    3    3    0  502 -0.59230634654E+03  0.10237678064E+03 -0.55269577781E+02  0.60362583816E+03  0.12699999809E+01 0.  1.
</event>
<event>
 5   0  0.1623890E-03  0.1269643E+04  0.7818609E-02  0.9053991E-01
        2   -1    0    0  501    0  0.00000000000E+00  0.00000000000E+00  0.87805596735E+03  0.87805596735E+03  0.25500000920E-02 0.  1.
       -2   -1    0    0    0  501  0.00000000000E+00  0.00000000000E+00 -0.45896636538E+03  0.45896636539E+03  0.25500000920E-02 0. -1.
    10030    2    1    2    0    0  0.00000000000E+00  0.00000000000E+00  0.41908960197E+03  0.13370223327E+04  0.12696427150E+04 0.  0.
        3    1    3    3  502    0 -0.61377998776E+03 -0.12085049742E+03  0.95796548940E+02  0.63285678087E+03  0.10100000352E+00 0.  1.
       -3    1    3    3    0  502  0.61377998776E+03  0.12085049742E+03  0.32329305303E+03  0.70416555187E+03  0.10100000352E+00 0. -1.
</event>
<event>
 5   0  0.1623890E-03  0.1319450E+04  0.7818609E-02  0.9014282E-01
       -2   -1    0    0    0  501  0.00000000000E+00  0.00000000000E+00  0.30135591608E+03  0.30135591609E+03  0.25500000920E-02 0.  1.
        2   -1    0    0  501    0  0.00000000000E+00  0.00000000000E+00 -0.14442619881E+04  0.14442619881E+04  0.25500000920E-02 0. -1.
    10030    2    1    2    0    0  0.00000000000E+00  0.00000000000E+00 -0.11429060720E+04  0.17456179042E+04  0.13194497254E+04 0.  0.
        3    1    3    3  502    0  0.41171215238E+03 -0.41224497538E+03 -0.98090501999E+03  0.11408889011E+04  0.10100000352E+00 0. -1.
       -3    1    3    3    0  502 -0.41171215238E+03  0.41224497538E+03 -0.16200105201E+03  0.60472900311E+03  0.10100000352E+00 0.  1.
</event>
<event>
 5   0  0.9110949E-04  0.1310789E+04  0.7818609E-02  0.9021053E-01
       -1   -1    0    0    0  501  0.00000000000E+00  0.00000000000E+00  0.41705611287E+03  0.41705611290E+03  0.50400001928E-02 0.  1.
        1   -1    0    0  501    0  0.00000000000E+00  0.00000000000E+00 -0.10299376062E+04  0.10299376062E+04  0.50400001928E-02 0. -1.
    10030    2    1    2    0    0  0.00000000000E+00  0.00000000000E+00 -0.61288149333E+03  0.14469937191E+04  0.13107887314E+04 0.  0.
        2    1    3    3  502    0  0.51385832966E+03  0.40679954476E+03 -0.30903481457E+03  0.72459559011E+03  0.25500000920E-02 0. -1.
       -2    1    3    3    0  502 -0.51385832966E+03 -0.40679954476E+03 -0.30384667875E+03  0.72239812899E+03  0.25500000920E-02 0.  1.
</event>
<event>
 5   0  0.6284125E-04  0.1303264E+04  0.7818609E-02  0.9026980E-01
       -3   -1    0    0    0  501  0.00000000000E+00  0.00000000000E+00  0.50026074587E+03  0.50026075607E+03  0.10100000352E+00 0. -1.
        3   -1    0    0  501    0  0.00000000000E+00  0.00000000000E+00 -0.84880640622E+03  0.84880641223E+03  0.10100000352E+00 0.  1.
    10030    2    1    2    0    0  0.00000000000E+00  0.00000000000E+00 -0.34854566035E+03  0.13490671683E+04  0.13032644195E+04 0.  0.
        1    1    3    3  502    0 -0.79170990967E+02  0.44978669758E+02  0.49364289179E+03  0.50197054812E+03  0.50400001928E-02 0. -1.
       -1    1    3    3    0  502  0.79170990967E+02 -0.44978669758E+02 -0.84218855214E+03  0.84709662018E+03  0.50400001928E-02 0.  1.
</event>
<event>
 5   0  0.9027076E-04  0.1290421E+04  0.7818609E-02  0.9037196E-01
        1   -1    0    0  501    0  0.00000000000E+00  0.00000000000E+00  0.15345059646E+04  0.15345059647E+04  0.50400001928E-02 0. -1.
       -1   -1    0    0    0  501  0.00000000000E+00  0.00000000000E+00 -0.27129030399E+03  0.27129030404E+03  0.50400001928E-02 0.  1.
    10030    2    1    2    0    0  0.00000000000E+00  0.00000000000E+00  0.12632156606E+04  0.18057962687E+04  0.12904210006E+04 0.  0.
        5    1    3    3  502    0  0.28231877276E+03 -0.45059168999E+03  0.11429826492E+04  0.12606221428E+04  0.46999998093E+01 0. -1.
       -5    1    3    3    0  502 -0.28231877276E+03  0.45059168999E+03  0.12023301149E+03  0.54517412593E+03  0.46999998093E+01 0.  1.
</event>
<event>
 5   0  0.1667342E-03  0.1284266E+04  0.7818609E-02  0.9042137E-01
        2   -1    0    0  501    0  0.00000000000E+00  0.00000000000E+00  0.99918284873E+03  0.99918284873E+03  0.25500000920E-02 0. -1.
       -2   -1    0    0    0  501  0.00000000000E+00  0.00000000000E+00 -0.41267172132E+03  0.41267172133E+03  0.25500000920E-02 0.  1.
    10030    2    1    2    0    0  0.00000000000E+00  0.00000000000E+00  0.58651112741E+03  0.14118545701E+04  0.12842655584E+04 0.  0.
        5    1    3    3  502    0 -0.20539674362E+03  0.50197074767E+02  0.95979483606E+03  0.98282032230E+03  0.46999998093E+01 0. -1.
       -5    1    3    3    0  502  0.20539674362E+03 -0.50197074767E+02 -0.37328370866E+03  0.42903424776E+03  0.46999998093E+01 0.  1.
</event>
<event>
 5   0  0.1714861E-03  0.1299787E+04  0.7818609E-02  0.9029734E-01
        2   -1    0    0  501    0  0.00000000000E+00  0.00000000000E+00  0.14888699511E+04  0.14888699511E+04  0.25500000920E-02 0. -1.
       -2   -1    0    0    0  501  0.00000000000E+00  0.00000000000E+00 -0.28367911282E+03  0.28367911283E+03  0.25500000920E-02 0.  1.
    10030    2    1    2    0    0  0.00000000000E+00  0.00000000000E+00  0.12051908382E+04  0.17725490639E+04  0.12997866084E+04 0.  0.
        1    1    3    3  502    0  0.37798430005E+03 -0.25562398200E+03  0.12336700759E+04  0.13153545558E+04  0.50400001928E-02 0. -1.
       -1    1    3    3    0  502 -0.37798430005E+03  0.25562398200E+03 -0.28479237620E+02  0.45719450813E+03  0.50400001928E-02 0.  1.
</event>
<event>
 5   0  0.9027076E-04  0.1304257E+04  0.7818609E-02  0.9026196E-01
       -1   -1    0    0    0  501  0.00000000000E+00  0.00000000000E+00  0.46629566618E+03  0.46629566620E+03  0.50400001928E-02 0. -1.
        1   -1    0    0  501    0  0.00000000000E+00  0.00000000000E+00 -0.91202176119E+03  0.91202176121E+03  0.50400001928E-02 0.  1.
    10030    2    1    2    0    0  0.00000000000E+00  0.00000000000E+00 -0.44572609502E+03  0.13783174274E+04  0.13042573285E+04 0.  0.
        5    1    3    3  502    0 -0.12283772634E+03  0.13619832758E+03  0.43845928435E+03  0.47529751260E+03  0.46999998093E+01 0. -1.
       -5    1    3    3    0  502  0.12283772634E+03 -0.13619832758E+03 -0.88418537937E+03  0.90301991481E+03  0.46999998093E+01 0.  1.
</event>
<event>
 5   0  0.9081324E-04  0.1305878E+04  0.7818609E-02  0.9024917E-01
        1   -1    0    0  501    0  0.00000000000E+00  0.00000000000E+00  0.58363251303E+03  0.58363251305E+03  0.50400001928E-02 0.  1.
       -1   -1    0    0    0  501  0.00000000000E+00  0.00000000000E+00 -0.73047532536E+03  0.73047532538E+03  0.50400001928E-02 0. -1.
    10030    2    1    2    0    0  0.00000000000E+00  0.00000000000E+00 -0.14684281234E+03  0.13141078384E+04  0.13058777123E+04 0.  0.
        4    1    3    3  502    0  0.23876436255E+03 -0.19130416517E+03  0.50703438131E+03  0.59219184490E+03  0.12699999809E+01 0.  1.
       -4    1    3    3    0  502 -0.23876436255E+03  0.19130416517E+03 -0.65387719365E+03  0.72191599353E+03  0.12699999809E+01 0. -1.
</event>
<event>
 5   0  0.1694675E-03  0.1157123E+04  0.7818609E-02  0.9151237E-01
        2   -1    0    0  501    0  0.00000000000E+00  0.00000000000E+00  0.10036072870E+04  0.10036072871E+04  0.25500000920E-02 0.  1.
       -2   -1    0    0    0  501  0.00000000000E+00  0.00000000000E+00 -0.33353047297E+03  0.33353047298E+03  0.25500000920E-02 0. -1.
    10030    2    1    2    0    0  0.00000000000E+00  0.00000000000E+00  0.67007681408E+03  0.13371377600E+04  0.11571233523E+04 0.  0.
        4    1    3    3  502    0  0.79500283362E+02 -0.57078407205E+03  0.27592051285E+03  0.63894326373E+03  0.12699999809E+01 0.  1.
       -4    1    3    3    0  502 -0.79500283362E+02  0.57078407205E+03  0.39415630123E+03  0.69819449629E+03  0.12699999809E+01 0. -1.
</event>
<event>
 5   0  0.1623890E-03  0.1305345E+04  0.7818609E-02  0.9025337E-01
        2   -1    0    0  501    0  0.00000000000E+00  0.00000000000E+00  0.25429522383E+04  0.25429522383E+04  0.25500000920E-02 0.  1.
       -2   -1    0    0    0  501  0.00000000000E+00  0.00000000000E+00 -0.16751447403E+03  0.16751447405E+03  0.25500000920E-02 0. -1.
    10030    2    1    2    0    0  0.00000000000E+00  0.00000000000E+00  0.23754377643E+04  0.27104667124E+04  0.13053448689E+04 0.  0.
        3    1    3    3  502    0 -0.14320662273E+03  0.48112728069E+03  0.32159386957E+03  0.59616627225E+03  0.10100000352E+00 0. -1.
       -3    1    3    3    0  502  0.14320662273E+03 -0.48112728069E+03  0.20538438947E+04  0.21143004401E+04  0.10100000352E+00 0.  1.
</event>
<event>
 5   0  0.1667342E-03  0.1318052E+04  0.7818609E-02  0.9015371E-01
        2   -1    0    0  501    0  0.00000000000E+00  0.00000000000E+00  0.10389650849E+04  0.10389650849E+04  0.25500000920E-02 0.  1.
       -2   -1    0    0    0  501  0.00000000000E+00  0.00000000000E+00 -0.41802698688E+03  0.41802698689E+03  0.25500000920E-02 0. -1.
    10030    2    1    2    0    0  0.00000000000E+00  0.00000000000E+00  0.62093809802E+03  0.14569920718E+04  0.13180522659E+04 0.  0.
        5    1    3    3  502    0  0.32777324547E+03  0.39497476533E+03 -0.14644640374E+03  0.53376868104E+03  0.46999998093E+01 0.  1.
       -5    1    3    3    0  502 -0.32777324547E+03 -0.39497476533E+03  0.76738450175E+03  0.92322339075E+03  0.46999998093E+01 0. -1.
</event>
<event>
 5   0  0.1667342E-03  0.1264411E+04  0.7818609E-02  0.9058274E-01
       -2   -1    0    0    0  501  0.00000000000E+00  0.00000000000E+00  0.36335988512E+03  0.36335988513E+03  0.25500000920E-02 0. -1.
        2   -1    0    0  501    0  0.00000000000E+00  0.00000000000E+00 -0.10999665027E+04  0.10999665027E+04  0.25500000920E-02 0.  1.
    10030    2    1    2    0    0  0.00000000000E+00  0.00000000000E+00 -0.73660661762E+03  0.14633263879E+04  0.12644108542E+04 0.  0.
        5    1    3    3  502    0  0.16122652012E+03  0.12515107336E+03 -0.10607676784E+04  0.10802346687E+04  0.46999998093E+01 0.  1.
       -5    1    3    3    0  502 -0.16122652012E+03 -0.12515107336E+03  0.32416106079E+03  0.38309171915E+03  0.46999998093E+01 0. -1.
</event>
<event>
 5   0  0.1667342E-03  0.1299957E+04  0.7818609E-02  0.9029599E-01
        2   -1    0    0  501    0  0.00000000000E+00  0.00000000000E+00  0.21870090799E+04  0.21870090799E+04  0.25500000920E-02 0. -1.
       -2   -1    0    0    0  501  0.00000000000E+00  0.00000000000E+00 -0.19317349605E+03  0.19317349606E+03  0.25500000920E-02 0.  1.
    10030    2    1    2    0    0  0.00000000000E+00  0.00000000000E+00  0.19938355838E+04  0.23801825759E+04  0.12999572145E+04 0.  0.
        5    1    3    3  502    0 -0.47109732601E+03  0.65809226381E+02  0.18079084165E+04  0.18694433603E+04  0.46999998093E+01 0. -1.
       -5    1    3    3    0  502  0.47109732601E+03 -0.65809226381E+02  0.18592716730E+03  0.51073921564E+03  0.46999998093E+01 0.  1.
</event>
<event>
 5   0  0.9027076E-04  0.1297941E+04  0.7818609E-02  0.9031200E-01
        1   -1    0    0  501    0  0.00000000000E+00  0.00000000000E+00  0.42350811849E+03  0.42350811852E+03  0.50400001928E-02 0.  1.
       -1   -1    0    0    0  501  0.00000000000E+00  0.00000000000E+00 -0.99446188180E+03  0.99446188181E+03  0.50400001928E-02 0. -1.
    10030    2    1    2    0    0  0.00000000000E+00  0.00000000000E+00 -0.57095376331E+03  0.14179700003E+04  0.12979409547E+04 0.  0.
        5    1    3    3  502    0 -0.33738217802E+03 -0.49297939077E+03 -0.56246907394E+03  0.82051749702E+03  0.46999998093E+01 0. -1.
       -5    1    3    3    0  502  0.33738217802E+03  0.49297939077E+03 -0.84846893637E+01  0.59745250332E+03  0.46999998093E+01 0.  1.
</event>
<event>
 5   0  0.1714861E-03  0.1300591E+04  0.7818609E-02  0.9029097E-01
        2   -1    0    0  501    0  0.00000000000E+00  0.00000000000E+00  0.80437180215E+03  0.80437180216E+03  0.25500000920E-02 0.  1.
       -2   -1    0    0    0  501  0.00000000000E+00  0.00000000000E+00 -0.52573231871E+03  0.52573231872E+03  0.25500000920E-02 0. -1.
    10030    2    1    2    0    0  0.00000000000E+00  0.00000000000E+00  0.27863948344E+03  0.13301041209E+04  0.13005910236E+04 0.  0.
        1    1    3    3  502    0 -0.22438571104E+03 -0.97298289000E+02  0.75554441245E+03  0.79414310018E+03  0.50400001928E-02 0.  1.
       -1    1    3    3    0  502  0.22438571104E+03  0.97298289000E+02 -0.47690492901E+03  0.53596102069E+03  0.50400001928E-02 0. -1.
</event>
<event>
 5   0  0.9110949E-04  0.1280074E+04  0.7818609E-02  0.9045518E-01
        1   -1    0    0  501    0  0.00000000000E+00  0.00000000000E+00  0.17377614289E+04  0.17377614289E+04  0.50400001928E-02 0. -1.
       -1   -1    0    0    0  501  0.00000000000E+00  0.00000000000E+00 -0.23573274581E+03  0.23573274586E+03  0.50400001928E-02 0.  1.
    10030    2    1    2    0    0  0.00000000000E+00  0.00000000000E+00  0.15020286831E+04  0.19734941748E+04  0.12800738623E+04 0.  0.
        2    1    3    3  502    0 -0.42383194417E+03  0.40411243386E+03  0.11492005273E+04  0.12898070507E+04  0.25500000920E-02 0. -1.
       -2    1    3    3    0  502  0.42383194417E+03 -0.40411243386E+03  0.35282815580E+03  0.68368712408E+03  0.25500000920E-02 0.  1.
</event>
<event>
 5   0  0.9110949E-04  0.1298096E+04  0.7818609E-02  0.9031076E-01
       -1   -1    0    0    0  501  0.00000000000E+00  0.00000000000E+00  0.84318631044E+03  0.84318631045E+03  0.50400001928E-02 0.  1.
        1   -1    0    0  501    0  0.00000000000E+00  0.00000000000E+00 -0.49960879526E+03  0.49960879529E+03  0.50400001928E-02 0. -1.
    10030    2    1    2    0    0  0.00000000000E+00  0.00000000000E+00  0.34357751517E+03  0.13427951057E+04  0.12980959853E+04 0.  0.
        2    1    3    3  502    0  0.36105206919E+02  0.64163609843E+03  0.77758570792E+02  0.64733829186E+03  0.25500000920E-02 0.  1.
       -2    1    3    3    0  502 -0.36105206919E+02 -0.64163609843E+03  0.26581894438E+03  0.69545681388E+03  0.25500000920E-02 0. -1.
</event>
<event>
 5   0  0.9215829E-04  0.1311394E+04  0.7818609E-02  0.9020578E-01
        1   -1    0    0  501    0  0.00000000000E+00  0.00000000000E+00  0.82990725728E+03  0.82990725729E+03  0.50400001928E-02 0.  1.
       -1   -1    0    0    0  501  0.00000000000E+00  0.00000000000E+00 -0.51805653378E+03  0.51805653380E+03  0.50400001928E-02 0. -1.
    10030    2    1    2    0    0  0.00000000000E+00  0.00000000000E+00  0.31185072350E+03  0.13479637911E+04  0.13113944900E+04 0.  0.
        3    1    3    3  502    0 -0.28635914451E+03 -0.23100046699E+03  0.71380899365E+03  0.80304798426E+03  0.10100000352E+00 0.  1.
       -3    1    3    3    0  502  0.28635914451E+03  0.23100046699E+03 -0.40195827015E+03  0.54491580684E+03  0.10100000352E+00 0. -1.
</event>
<event>
 5   0  0.1714861E-03  0.1325733E+04  0.7818609E-02  0.9009404E-01
       -2   -1    0    0    0  501  0.00000000000E+00  0.00000000000E+00  0.38646513004E+03  0.38646513005E+03  0.25500000920E-02 0. -1.
        2   -1    0    0  501    0  0.00000000000E+00  0.00000000000E+00 -0.11369516188E+04  0.11369516188E+04  0.25500000920E-02 0.  1.
    10030    2    1    2    0    0  0.00000000000E+00  0.00000000000E+00 -0.75048648876E+03  0.15234167488E+04  0.13257332389E+04 0.  0.
        1    1    3    3  502    0  0.87980302954E+01  0.14690699986E+03 -0.11179408378E+04  0.11275862667E+04  0.50400001928E-02 0.  1.
       -1    1    3    3    0  502 -0.87980302954E+01 -0.14690699986E+03  0.36745434905E+03  0.39583048216E+03  0.50400001928E-02 0. -1.
</event>
<event>
 5   0  0.9081324E-04  0.1298379E+04  0.7818609E-02  0.9030852E-01
        1   -1    0    0  501    0  0.00000000000E+00  0.00000000000E+00  0.18073834626E+04  0.18073834626E+04  0.50400001928E-02 0.  1.
       -1   -1    0    0    0  501  0.00000000000E+00  0.00000000000E+00 -0.23318071631E+03  0.23318071636E+03  0.50400001928E-02 0. -1.
    10030    2    1    2    0    0  0.00000000000E+00  0.00000000000E+00  0.15742027463E+04  0.20405641789E+04  0.12983789439E+04 0.  0.
        4    1    3    3  502    0  0.34967994387E+03 -0.14976219468E+03  0.16138723406E+04  0.16580984057E+04  0.12699999809E+01 0.  1.
       -4    1    3    3    0  502 -0.34967994387E+03  0.14976219468E+03 -0.39669594383E+02  0.38246577327E+03  0.12699999809E+01 0. -1.
</event>
<event>
 5   0  0.9081324E-04  0.1210238E+04  0.7818609E-02  0.9103942E-01
       -1   -1    0    0    0  501  0.00000000000E+00  0.00000000000E+00  0.37564864927E+03  0.37564864931E+03  0.50400001928E-02 0. -1.
        1   -1    0    0  501    0  0.00000000000E+00  0.00000000000E+00 -0.97476437962E+03  0.97476437963E+03  0.50400001928E-02 0.  1.
    10030    2    1    2    0    0  0.00000000000E+00  0.00000000000E+00 -0.59911573035E+03  0.13504130289E+04  0.12102378652E+04 0.  0.
        4    1    3    3  502    0 -0.15072823154E+03 -0.21574857086E+03  0.30843938272E+03  0.40546628876E+03  0.12699999809E+01 0. -1.
       -4    1    3    3    0  502  0.15072823154E+03  0.21574857086E+03 -0.90755511307E+03  0.94494674017E+03  0.12699999809E+01 0.  1.
</event>
<event>
 5   0  0.9027076E-04  0.1304528E+04  0.7818609E-02  0.9025982E-01
        1   -1    0    0  501    0  0.00000000000E+00  0.00000000000E+00  0.73995779198E+03  0.73995779200E+03  0.50400001928E-02 0. -1.
       -1   -1    0    0    0  501  0.00000000000E+00  0.00000000000E+00 -0.57496263393E+03  0.57496263395E+03  0.50400001928E-02 0.  1.
    10030    2    1    2    0    0  0.00000000000E+00  0.00000000000E+00  0.16499515805E+03  0.13149204260E+04  0.13045276250E+04 0.  0.
        5    1    3    3  502    0  0.31879794537E+03  0.34340189292E+03 -0.37484503539E+03  0.60007322935E+03  0.46999998093E+01 0.  1.
       -5    1    3    3    0  502 -0.31879794537E+03 -0.34340189292E+03  0.53984019344E+03  0.71484719660E+03  0.46999998093E+01 0. -1.
</event>
<event>
 5   0  0.1700511E-03  0.1326909E+04  0.7818609E-02  0.9008494E-01
       -2   -1    0    0    0  501  0.00000000000E+00  0.00000000000E+00  0.19507443643E+03  0.19507443645E+03  0.25500000920E-02 0.  1.
        2   -1    0    0  501    0  0.00000000000E+00  0.00000000000E+00 -0.22564318102E+04  0.22564318102E+04  0.25500000920E-02 0. -1.
    10030    2    1    2    0    0  0.00000000000E+00  0.00000000000E+00 -0.20613573737E+04  0.24515062466E+04  0.13269094374E+04 0.  0.
        2    1    3    3  502    0  0.23341583525E+03 -0.11412727554E+02  0.11651598707E+03  0.26113057605E+03  0.25500000920E-02 0.  1.
       -2    1    3    3    0  502 -0.23341583525E+03  0.11412727554E+02 -0.21778733608E+04  0.21903756706E+04  0.25500000920E-02 0. -1.
</event>
<event>
 5   0  0.1694675E-03  0.1296485E+04  0.7818609E-02  0.9032358E-01
        2   -1    0    0  501    0  0.00000000000E+00  0.00000000000E+00  0.11269142056E+04  0.11269142056E+04  0.25500000920E-02 0.  1.
       -2   -1    0    0    0  501  0.00000000000E+00  0.00000000000E+00 -0.37289272309E+03  0.37289272310E+03  0.25500000920E-02 0. -1.
    10030    2    1    2    0    0  0.00000000000E+00  0.00000000000E+00  0.75402148250E+03  0.14998069287E+04  0.12964846421E+04 0.  0.
        4    1    3    3  502    0 -0.43729489948E+03  0.98308221654E+00 -0.17656239077E+03  0.47159695323E+03  0.12699999809E+01 0. -1.
       -4    1    3    3    0  502  0.43729489948E+03 -0.98308221654E+00  0.93058387327E+03  0.10282099755E+04  0.12699999809E+01 0.  1.
</event>
<event>
 5   0  0.1667342E-03  0.1296245E+04  0.7818609E-02  0.9032548E-01
        2   -1    0    0  501    0  0.00000000000E+00  0.00000000000E+00  0.42741161902E+03  0.42741161903E+03  0.25500000920E-02 0.  1.
       -2   -1    0    0    0  501  0.00000000000E+00  0.00000000000E+00 -0.98280692278E+03  0.98280692279E+03  0.25500000920E-02 0. -1.
    10030    2    1    2    0    0  0.00000000000E+00  0.00000000000E+00 -0.55539530376E+03  0.14102185418E+04  0.12962454984E+04 0.  0.
        5    1    3    3  502    0 -0.25309683621E+03 -0.56743489432E+03 -0.77092211394E+02  0.62610355920E+03  0.46999998093E+01 0.  1.
       -5    1    3    3    0  502  0.25309683621E+03  0.56743489432E+03 -0.47830309237E+03  0.78411498261E+03  0.46999998093E+01 0. -1.
</event>
<event>
 5   0  0.1623890E-03  0.1330151E+04  0.7818609E-02  0.9005991E-01
       -2   -1    0    0    0  501  0.00000000000E+00  0.00000000000E+00  0.72149920079E+03  0.72149920079E+03  0.25500000920E-02 0.  1.
        2   -1    0    0  501    0  0.00000000000E+00  0.00000000000E+00 -0.61306405494E+03  0.61306405495E+03  0.25500000920E-02 0. -1.
    10030    2    1    2    0    0  0.00000000000E+00  0.00000000000E+00  0.10843514585E+03  0.13345632557E+04  0.13301507068E+04 0.  0.
        3    1    3    3  502    0  0.23634040322E+03  0.35412567944E+03  0.56685621029E+03  0.70893423982E+03  0.10100000352E+00 0.  1.
       -3    1    3    3    0  502 -0.23634040322E+03 -0.35412567944E+03 -0.45842106445E+03  0.62562901592E+03  0.10100000352E+00 0. -1.
</event>
<event>
 5   0  0.1667342E-03  0.1291600E+04  0.7818609E-02  0.9036253E-01
        2   -1    0    0  501    0  0.00000000000E+00  0.00000000000E+00  0.22772251882E+04  0.22772251882E+04  0.25500000920E-02 0.  1.
       -2   -1    0    0    0  501  0.00000000000E+00  0.00000000000E+00 -0.18314289282E+03  0.18314289284E+03  0.25500000920E-02 0. -1.
    10030    2    1    2    0    0  0.00000000000E+00  0.00000000000E+00  0.20940822954E+04  0.24603680810E+04  0.12915999514E+04 0.  0.
        5    1    3    3  502    0 -0.22599177493E+03 -0.24955643346E+03 -0.27033527707E+01  0.33671960728E+03  0.46999998093E+01 0. -1.
       -5    1    3    3    0  502  0.22599177493E+03  0.24955643346E+03  0.20967856481E+04  0.21236484737E+04  0.46999998093E+01 0.  1.
</event>
<event>
 5   0  0.1700511E-03  0.1314264E+04  0.7818609E-02  0.9018330E-01
        2   -1    0    0  501    0  0.00000000000E+00  0.00000000000E+00  0.95709894520E+03  0.95709894521E+03  0.25500000920E-02 0. -1.
       -2   -1    0    0    0  501  0.00000000000E+00  0.00000000000E+00 -0.45117842017E+03  0.45117842018E+03  0.25500000920E-02 0.  1.
    10030    2    1    2    0    0  0.00000000000E+00  0.00000000000E+00  0.50592052503E+03  0.14082773654E+04  0.13142638853E+04 0.  0.
        2    1    3    3  502    0  0.84951970704E+02  0.37061066327E+02 -0.44413942623E+03  0.45370716316E+03  0.25500000920E-02 0.  1.
       -2    1    3    3    0  502 -0.84951970704E+02 -0.37061066327E+02  0.95005995127E+03  0.95457020222E+03  0.25500000920E-02 0. -1.
</event>
<event>
 5   0  0.9098192E-04  0.1295946E+04  0.7818609E-02  0.9032786E-01
       -1   -1    0    0    0  501  0.00000000000E+00  0.00000000000E+00  0.11563339487E+04  0.11563339487E+04  0.50400001928E-02 0. -1.
        1   -1    0    0  501    0  0.00000000000E+00  0.00000000000E+00 -0.36310340003E+03  0.36310340007E+03  0.50400001928E-02 0.  1.
    10030    2    1    2    0    0  0.00000000000E+00  0.00000000000E+00  0.79323054871E+03  0.15194373488E+04  0.12959456600E+04 0.  0.
        1    1    3    3  502    0 -0.16114923863E+03 -0.39276868084E+03  0.97055837835E+03  0.10593487998E+04  0.50400001928E-02 0. -1.
       -1    1    3    3    0  502  0.16114923863E+03  0.39276868084E+03 -0.17732782965E+03  0.46008854904E+03  0.50400001928E-02 0.  1.
</event>
<event>
 5   0  0.9081324E-04  0.1299859E+04  0.7818609E-02  0.9029677E-01
        1   -1    0    0  501    0  0.00000000000E+00  0.00000000000E+00  0.66858447782E+03  0.66858447784E+03  0.50400001928E-02 0.  1.
       -1   -1    0    0    0  501  0.00000000000E+00  0.00000000000E+00 -0.63179484038E+03  0.63179484040E+03  0.50400001928E-02 0. -1.
    10030    2    1    2    0    0  0.00000000000E+00  0.00000000000E+00  0.36789637442E+02  0.13003793182E+04  0.12998587977E+04 0.  0.
        4    1    3    3  502    0 -0.53574383215E+03  0.23091485650E+03 -0.26818714641E+03  0.64208183516E+03  0.12699999809E+01 0. -1.
       -4    1    3    3    0  502  0.53574383215E+03 -0.23091485650E+03  0.30497678385E+03  0.65829748308E+03  0.12699999809E+01 0.  1.
</event>
<event>
 5   0  0.1714861E-03  0.1296235E+04  0.7818609E-02  0.9032556E-01
       -2   -1    0    0    0  501  0.00000000000E+00  0.00000000000E+00  0.19483980459E+03  0.19483980461E+03  0.25500000920E-02 0. -1.
        2   -1    0    0  501    0  0.00000000000E+00  0.00000000000E+00 -0.21559064893E+04  0.21559064893E+04  0.25500000920E-02 0.  1.
    10030    2    1    2    0    0  0.00000000000E+00  0.00000000000E+00 -0.19610666847E+04  0.23507462939E+04  0.12962351625E+04 0.  0.
        1    1    3    3  502    0 -0.48754292636E+03  0.39391046442E+03 -0.12795870878E+04  0.14248532115E+04  0.50400001928E-02 0.  1.
       -1    1    3    3    0  502  0.48754292636E+03 -0.39391046442E+03 -0.68147959687E+03  0.92589308238E+03  0.50400001928E-02 0. -1.
</event>
<event>
 5   0  0.1694675E-03  0.1303558E+04  0.7818609E-02  0.9026749E-01
       -2   -1    0    0    0  501  0.00000000000E+00  0.00000000000E+00  0.31244885355E+03  0.31244885356E+03  0.25500000920E-02 0.  1.
        2   -1    0    0  501    0  0.00000000000E+00  0.00000000000E+00 -0.13596327469E+04  0.13596327469E+04  0.25500000920E-02 0. -1.
    10030    2    1    2    0    0  0.00000000000E+00  0.00000000000E+00 -0.10471838933E+04  0.16720816004E+04  0.13035577364E+04 0.  0.
        4    1    3    3  502    0  0.70928205275E+02  0.63712055429E+03 -0.67460667108E+03  0.93061763607E+03  0.12699999809E+01 0. -1.
       -4    1    3    3    0  502 -0.70928205275E+02 -0.63712055429E+03 -0.37257722223E+03  0.74146396434E+03  0.12699999809E+01 0.  1.
</event>
<event>
 5   0  0.9110949E-04  0.1295548E+04  0.7818609E-02  0.9033103E-01
        1   -1    0    0  501    0  0.00000000000E+00  0.00000000000E+00  0.40128013477E+03  0.40128013480E+03  0.50400001928E-02 0. -1.
       -1   -1    0    0    0  501  0.00000000000E+00  0.00000000000E+00 -0.10456811211E+04  0.10456811211E+04  0.50400001928E-02 0.  1.
    10030    2    1    2    0    0  0.00000000000E+00  0.00000000000E+00 -0.64440098633E+03  0.14469612559E+04  0.12955478551E+04 0.  0.
        2    1    3    3  502    0  0.63530664459E+02 -0.64206131723E+03 -0.25772900080E+03  0.69476839182E+03  0.25500000920E-02 0. -1.
       -2    1    3    3    0  502 -0.63530664459E+02  0.64206131723E+03 -0.38667198553E+03  0.75219286410E+03  0.25500000920E-02 0.  1.
</event>
<event>
 5   0  0.9110949E-04  0.1302485E+04  0.7818609E-02  0.9027597E-01
        1   -1    0    0  501    0  0.00000000000E+00  0.00000000000E+00  0.94321729848E+03  0.94321729850E+03  0.50400001928E-02 0.  1.
       -1   -1    0    0    0  501  0.00000000000E+00  0.00000000000E+00 -0.44964923837E+03  0.44964923839E+03  0.50400001928E-02 0. -1.
    10030    2    1    2    0    0  0.00000000000E+00  0.00000000000E+00  0.49356806012E+03  0.13928665369E+04  0.13024852243E+04 0.  0.
        2    1    3    3  502    0  0.34524254943E+03  0.27560230129E+03  0.75849413564E+03  0.87775987617E+03  0.25500000920E-02 0.  1.
       -2    1    3    3    0  502 -0.34524254943E+03 -0.27560230129E+03 -0.26492607552E+03  0.51510666072E+03  0.25500000920E-02 0. -1.
</event>
<event>
 5   0  0.1700511E-03  0.1317012E+04  0.7818609E-02  0.9016182E-01
        2   -1    0    0  501    0  0.00000000000E+00  0.00000000000E+00  0.85295602193E+03  0.85295602194E+03  0.25500000920E-02 0.  1.
       -2   -1    0    0    0  501  0.00000000000E+00  0.00000000000E+00 -0.50838534501E+03  0.50838534502E+03  0.25500000920E-02 0. -1.
    10030    2    1    2    0    0  0.00000000000E+00  0.00000000000E+00  0.34457067692E+03  0.13613413670E+04  0.13170122877E+04 0.  0.
        2    1    3    3  502    0  0.51144855562E+03 -0.18679608531E+03 -0.21052855379E+03  0.58377621954E+03  0.25500000920E-02 0. -1.
       -2    1    3    3    0  502 -0.51144855562E+03  0.18679608531E+03  0.55509923071E+03  0.77756514742E+03  0.25500000920E-02 0.  1.
</event>
<event>
 5   0  0.1623890E-03  0.1294876E+04  0.7818609E-02  0.9033638E-01
       -2   -1    0    0    0  501  0.00000000000E+00  0.00000000000E+00  0.21459625286E+03  0.21459625287E+03  0.25500000920E-02 0. -1.
        2   -1    0    0  501    0  0.00000000000E+00  0.00000000000E+00 -0.19533242657E+04  0.19533242657E+04  0.25500000920E-02 0.  1.
    10030    2    1    2    0    0  0.00000000000E+00  0.00000000000E+00 -0.17387280128E+04  0.21679205186E+04  0.12948761610E+04 0.  0.
        3    1    3    3  502    0 -0.54609942568E+03 -0.30409448767E+03 -0.58683047481E+03  0.85736110043E+03  0.10100000352E+00 0. -1.
       -3    1    3    3    0  502  0.54609942568E+03  0.30409448767E+03 -0.11518975380E+04  0.13105594181E+04  0.10100000352E+00 0.  1.
</event>
<event>
 5   0  0.1700511E-03  0.1302322E+04  0.7818609E-02  0.9027726E-01
       -2   -1    0    0    0  501  0.00000000000E+00  0.00000000000E+00  0.14464308749E+03  0.14464308752E+03  0.25500000920E-02 0. -1.
        2   -1    0    0  501    0  0.00000000000E+00  0.00000000000E+00 -0.29314282054E+04  0.29314282054E+04  0.25500000920E-02 0.  1.
    10030    2    1    2    0    0  0.00000000000E+00  0.00000000000E+00 -0.27867851179E+04  0.30760712929E+04  0.13023222741E+04 0.  0.
        2    1    3    3  502    0 -0.25058442299E+03  0.26929478586E+03 -0.12427965222E+03  0.38827524606E+03  0.25500000920E-02 0. -1.
       -2    1    3    3    0  502  0.25058442299E+03 -0.26929478586E+03 -0.26625054657E+04  0.26877960469E+04  0.25500000920E-02 0.  1.
</event>
<event>
 5   0  0.1714861E-03  0.1296377E+04  0.7818609E-02  0.9032443E-01
       -2   -1    0    0    0  501  0.00000000000E+00  0.00000000000E+00  0.32772232456E+03  0.32772232457E+03  0.25500000920E-02 0. -1.
        2   -1    0    0  501    0  0.00000000000E+00  0.00000000000E+00 -0.12820261858E+04  0.12820261859E+04  0.25500000920E-02 0.  1.
    10030    2    1    2    0    0  0.00000000000E+00  0.00000000000E+00 -0.95430386129E+03  0.16097485104E+04  0.12963774169E+04 0.  0.
        1    1    3    3  502    0  0.23603380957E+03  0.31898813671E+03 -0.11135703392E+04  0.11821608567E+04  0.50400001928E-02 0.  1.
       -1    1    3    3    0  502 -0.23603380957E+03 -0.31898813671E+03  0.15926647794E+03  0.42758765375E+03  0.50400001928E-02 0. -1.
</event>
<event>
 5   0  0.9027076E-04  0.1268464E+04  0.7818609E-02  0.9054954E-01
       -1   -1    0    0    0  501  0.00000000000E+00  0.00000000000E+00  0.73414366480E+03  0.73414366482E+03  0.50400001928E-02 0. -1.
        1   -1    0    0  501    0  0.00000000000E+00  0.00000000000E+00 -0.54791785712E+03  0.54791785714E+03  0.50400001928E-02 0.  1.
    10030    2    1    2    0    0  0.00000000000E+00  0.00000000000E+00  0.18622580768E+03  0.12820615220E+04  0.12684643056E+04 0.  0.
        5    1    3    3  502    0 -0.55790294669E+03 -0.29834368357E+03  0.13790137299E+03  0.64753650871E+03  0.46999998093E+01 0.  1.
       -5    1    3    3    0  502  0.55790294669E+03  0.29834368357E+03  0.48324434688E+02  0.63452501325E+03  0.46999998093E+01 0. -1.
</event>
<event>
 5   0  0.1667342E-03  0.1301020E+04  0.7818609E-02  0.9028756E-01
        2   -1    0    0  501    0  0.00000000000E+00  0.00000000000E+00  0.96650380309E+03  0.96650380309E+03  0.25500000920E-02 0.  1.
       -2   -1    0    0    0  501  0.00000000000E+00  0.00000000000E+00 -0.43782903005E+03  0.43782903006E+03  0.25500000920E-02 0. -1.
    10030    2    1    2    0    0  0.00000000000E+00  0.00000000000E+00  0.52867477304E+03  0.14043328331E+04  0.13010202499E+04 0.  0.
        5    1    3    3  502    0  0.51510914868E+03  0.34789807550E+03  0.57352950535E+02  0.62424510965E+03  0.46999998093E+01 0. -1.
       -5    1    3    3    0  502 -0.51510914868E+03 -0.34789807550E+03  0.47132182250E+03  0.78008772350E+03  0.46999998093E+01 0.  1.
</event>
<event>
 5   0  0.1694675E-03  0.1246113E+04  0.7818609E-02  0.9073425E-01
       -2   -1    0    0    0  501  0.00000000000E+00  0.00000000000E+00  0.79982565005E+03  0.79982565005E+03  0.25500000920E-02 0. -1.
        2   -1    0    0  501    0  0.00000000000E+00  0.00000000000E+00 -0.48535503771E+03  0.48535503771E+03  0.25500000920E-02 0.  1.
    10030    2    1    2    0    0  0.00000000000E+00  0.00000000000E+00  0.31447061234E+03  0.12851806878E+04  0.12461130102E+04 0.  0.
        4    1    3    3  502    0  0.55433262137E+03 -0.25791232476E+03  0.33497292337E+02  0.61231291336E+03  0.12699999809E+01 0. -1.
       -4    1    3    3    0  502 -0.55433262137E+03  0.25791232476E+03  0.28097332000E+03  0.67286777440E+03  0.12699999809E+01 0.  1.
</event>
<event>
 5   0  0.1700511E-03  0.1373122E+04  0.7818609E-02  0.8973507E-01
        2   -1    0    0  501    0  0.00000000000E+00  0.00000000000E+00  0.14214300706E+04  0.14214300706E+04  0.25500000920E-02 0.  1.
       -2   -1    0    0    0  501  0.00000000000E+00  0.00000000000E+00 -0.33161390131E+03  0.33161390131E+03  0.25500000920E-02 0. -1.
    10030    2    1    2    0    0  0.00000000000E+00  0.00000000000E+00  0.10898161693E+04  0.17530439719E+04  0.13731219482E+04 0.  0.
        2    1    3    3  502    0 -0.47441324613E+03 -0.33146855219E+03  0.10164641067E+04  0.11696745741E+04  0.25500000920E-02 0.  1.
       -2    1    3    3    0  502  0.47441324613E+03  0.33146855219E+03  0.73352062634E+02  0.58336939780E+03  0.25500000920E-02 0. -1.
</event>
<event>
 5   0  0.9215829E-04  0.1303444E+04  0.7818609E-02  0.9026838E-01
        1   -1    0    0  501    0  0.00000000000E+00  0.00000000000E+00  0.50611426971E+03  0.50611426973E+03  0.50400001928E-02 0.  1.
       -1   -1    0    0    0  501  0.00000000000E+00  0.00000000000E+00 -0.83922117534E+03  0.83922117535E+03  0.50400001928E-02 0. -1.
    10030    2    1    2    0    0  0.00000000000E+00  0.00000000000E+00 -0.33310690563E+03  0.13453354451E+04  0.13034443790E+04 0.  0.
        3    1    3    3  502    0  0.33991002210E+03  0.33765961553E+03  0.28944745724E+03  0.55976127035E+03  0.10100000352E+00 0.  1.
       -3    1    3    3    0  502 -0.33991002210E+03 -0.33765961553E+03 -0.62255436287E+03  0.78557417474E+03  0.10100000352E+00 0. -1.
</event>
<event>
 5   0  0.9027076E-04  0.1305524E+04  0.7818609E-02  0.9025196E-01
        1   -1    0    0  501    0  0.00000000000E+00  0.00000000000E+00  0.59876245936E+03  0.59876245938E+03  0.50400001928E-02 0. -1.
       -1   -1    0    0    0  501  0.00000000000E+00  0.00000000000E+00 -0.71163161881E+03  0.71163161883E+03  0.50400001928E-02 0.  1.
    10030    2    1    2    0    0  0.00000000000E+00  0.00000000000E+00 -0.11286915945E+03  0.13103940782E+04  0.13055241067E+04 0.  0.
        5    1    3    3  502    0  0.59056315648E+03 -0.18257316878E+03  0.15405798565E+03  0.63706652454E+03  0.46999998093E+01 0. -1.
       -5    1    3    3    0  502 -0.59056315648E+03  0.18257316878E+03 -0.26692714511E+03  0.67332755368E+03  0.46999998093E+01 0.  1.
</event>
<event>
 5   0  0.1714861E-03  0.1304311E+04  0.7818609E-02  0.9026153E-01
       -2   -1    0    0    0  501  0.00000000000E+00  0.00000000000E+00  0.89595012094E+03  0.89595012095E+03  0.25500000920E-02 0. -1.
        2   -1    0    0  501    0  0.00000000000E+00  0.00000000000E+00 -0.47469935012E+03  0.47469935013E+03  0.25500000920E-02 0.  1.
    10030    2    1    2    0    0  0.00000000000E+00  0.00000000000E+00  0.42125077082E+03  0.13706494711E+04  0.13043112208E+04 0.  0.
        1    1    3    3  502    0  0.44718523718E+03 -0.38744469763E+03  0.49883514982E+03  0.77390214937E+03  0.50400001928E-02 0. -1.
       -1    1    3    3    0  502 -0.44718523718E+03  0.38744469763E+03 -0.77584378997E+02  0.59674732171E+03  0.50400001928E-02 0.  1.
</event>
<event>
 5   0  0.1667342E-03  0.1316913E+04  0.7818609E-02  0.9016259E-01
        2   -1    0    0  501    0  0.00000000000E+00  0.00000000000E+00  0.72939700351E+03  0.72939700351E+03  0.25500000920E-02 0.  1.
       -2   -1    0    0    0  501  0.00000000000E+00  0.00000000000E+00 -0.59441570146E+03  0.59441570147E+03  0.25500000920E-02 0. -1.
    10030    2    1    2    0    0  0.00000000000E+00  0.00000000000E+00  0.13498130204E+03  0.13238127050E+04  0.13169131049E+04 0.  0.
        5    1    3    3  502    0 -0.36249376640E+03 -0.52722768426E+03 -0.88797960547E+02  0.64597053301E+03  0.46999998093E+01 0. -1.
       -5    1    3    3    0  502  0.36249376640E+03  0.52722768426E+03  0.22377926259E+03  0.67784217196E+03  0.46999998093E+01 0.  1.
</event>
<event>
 5   0  0.1667342E-03  0.1297674E+04  0.7818609E-02  0.9031412E-01
        2   -1    0    0  501    0  0.00000000000E+00  0.00000000000E+00  0.21820133720E+04  0.21820133720E+04  0.25500000920E-02 0.  1.
       -2   -1    0    0    0  501  0.00000000000E+00  0.00000000000E+00 -0.19293609412E+03  0.19293609413E+03  0.25500000920E-02 0. -1.
    10030    2    1    2    0    0  0.00000000000E+00  0.00000000000E+00  0.19890772779E+04  0.23749494662E+04  0.12976735142E+04 0.  0.
        5    1    3    3  502    0  0.15007171299E+03  0.62533970352E+03  0.83714722854E+03  0.10556556428E+04  0.46999998093E+01 0. -1.
       -5    1    3    3    0  502 -0.15007171299E+03 -0.62533970352E+03  0.11519300494E+04  0.13192938234E+04  0.46999998093E+01 0.  1.
</event>
<event>
 5   0  0.9081324E-04  0.1313802E+04  0.7818609E-02  0.9018691E-01
        1   -1    0    0  501    0  0.00000000000E+00  0.00000000000E+00  0.94854387897E+03  0.94854387899E+03  0.50400001928E-02 0. -1.
       -1   -1    0    0    0  501  0.00000000000E+00  0.00000000000E+00 -0.45492752586E+03  0.45492752589E+03  0.50400001928E-02 0.  1.
    10030    2    1    2    0    0  0.00000000000E+00  0.00000000000E+00  0.49361635311E+03  0.14034714049E+04  0.13138016899E+04 0.  0.
        4    1    3    3  502    0 -0.43140485592E+03  0.89286342804E+02  0.76733850181E+03  0.88481195176E+03  0.12699999809E+01 0. -1.
       -4    1    3    3    0  502  0.43140485592E+03 -0.89286342804E+02 -0.27372214869E+03  0.51865945312E+03  0.12699999809E+01 0.  1.
</event>
<event>
 5   0  0.9081324E-04  0.1475909E+04  0.7818609E-02  0.8900633E-01
        1   -1    0    0  501    0  0.00000000000E+00  0.00000000000E+00  0.90482301034E+03  0.90482301035E+03  0.50400001928E-02 0.  1.
       -1   -1    0    0    0  501  0.00000000000E+00  0.00000000000E+00 -0.60185995838E+03  0.60185995840E+03  0.50400001928E-02 0. -1.
    10030    2    1    2    0    0  0.00000000000E+00  0.00000000000E+00  0.30296305196E+03  0.15066829688E+04  0.14759088581E+04 0.  0.
        4    1    3    3  502    0  0.41450739215E+03  0.13245860830E+02  0.77460488172E+03  0.87863881468E+03  0.12699999809E+01 0.  1.
       -4    1    3    3    0  502 -0.41450739215E+03 -0.13245860830E+02 -0.47164182976E+03  0.62804415407E+03  0.12699999809E+01 0. -1.
</event>
<event>
 5   0  0.9110949E-04  0.1296957E+04  0.7818609E-02  0.9031982E-01
        1   -1    0    0  501    0  0.00000000000E+00  0.00000000000E+00  0.94249524110E+03  0.94249524111E+03  0.50400001928E-02 0.  1.
       -1   -1    0    0    0  501  0.00000000000E+00  0.00000000000E+00 -0.44618199327E+03  0.44618199330E+03  0.50400001928E-02 0. -1.
    10030    2    1    2    0    0  0.00000000000E+00  0.00000000000E+00  0.49631324782E+03  0.13886772344E+04  0.12969570623E+04 0.  0.
        2    1    3    3  502    0 -0.40818019411E+03  0.30980260107E+03 -0.17735933095E+03  0.54225921364E+03  0.25500000920E-02 0. -1.
       -2    1    3    3    0  502  0.40818019411E+03 -0.30980260107E+03  0.67367257877E+03  0.84641802077E+03  0.25500000920E-02 0.  1.
</event>
<event>
 5   0  0.1714861E-03  0.1300158E+04  0.7818609E-02  0.9029440E-01
        2   -1    0    0  501    0  0.00000000000E+00  0.00000000000E+00  0.92897961493E+03  0.92897961494E+03  0.25500000920E-02 0. -1.
       -2   -1    0    0    0  501  0.00000000000E+00  0.00000000000E+00 -0.45491073463E+03  0.45491073464E+03  0.25500000920E-02 0.  1.
    10030    2    1    2    0    0  0.00000000000E+00  0.00000000000E+00  0.47406888030E+03  0.13838903496E+04  0.13001581428E+04 0.  0.
        1    1    3    3  502    0 -0.73090453970E+02 -0.62455505214E+03  0.41255284128E+03  0.75207118977E+03  0.50400001928E-02 0. -1.
       -1    1    3    3    0  502  0.73090453970E+02  0.62455505214E+03  0.61516039024E+02  0.63181915981E+03  0.50400001928E-02 0.  1.
</event>
<event>
 5   0  0.1667342E-03  0.1310101E+04  0.7818609E-02  0.9021593E-01
        2   -1    0    0  501    0  0.00000000000E+00  0.00000000000E+00  0.61646677610E+03  0.61646677611E+03  0.25500000920E-02 0. -1.
       -2   -1    0    0    0  501  0.00000000000E+00  0.00000000000E+00 -0.69604897100E+03  0.69604897100E+03  0.25500000920E-02 0.  1.
    10030    2    1    2    0    0  0.00000000000E+00  0.00000000000E+00 -0.79582194899E+02  0.13125157471E+04  0.13101008590E+04 0.  0.
        5    1    3    3  502    0  0.31691579409E+03 -0.57239426008E+03 -0.81391013824E+01  0.65433870777E+03  0.46999998093E+01 0.  1.
       -5    1    3    3    0  502 -0.31691579409E+03  0.57239426008E+03 -0.71443093517E+02  0.65817703934E+03  0.46999998093E+01 0. -1.
</event>
<event>
 5   0  0.1623890E-03  0.1309423E+04  0.7818609E-02  0.9022126E-01
        2   -1    0    0  501    0  0.00000000000E+00  0.00000000000E+00  0.12450950666E+04  0.12450950666E+04  0.25500000920E-02 0. -1.
       -2   -1    0    0    0  501  0.00000000000E+00  0.00000000000E+00 -0.34426863122E+03  0.34426863123E+03  0.25500000920E-02 0.  1.
    10030    2    1    2    0    0  0.00000000000E+00  0.00000000000E+00  0.90082643542E+03  0.15893636979E+04  0.13094230399E+04 0.  0.
        3    1    3    3  502    0 -0.13442288925E+03 -0.22688867049E+03  0.11777750683E+04  0.12069391466E+04  0.10100000352E+00 0. -1.
       -3    1    3    3    0  502  0.13442288925E+03  0.22688867049E+03 -0.27694863287E+03  0.38242455125E+03  0.10100000352E+00 0.  1.
</event>
<event>
 5   0  0.9081324E-04  0.1314116E+04  0.7818609E-02  0.9018445E-01
        1   -1    0    0  501    0  0.00000000000E+00  0.00000000000E+00  0.58200712286E+03  0.58200712288E+03  0.50400001928E-02 0. -1.
       -1   -1    0    0    0  501  0.00000000000E+00  0.00000000000E+00 -0.74178733706E+03  0.74178733708E+03  0.50400001928E-02 0.  1.
    10030    2    1    2    0    0  0.00000000000E+00  0.00000000000E+00 -0.15978021420E+03  0.13237944600E+04  0.13141164543E+04 0.  0.
        4    1    3    3  502    0  0.40139760940E+02  0.59807623273E+03 -0.35097700704E+03  0.69461705488E+03  0.12699999809E+01 0.  1.
       -4    1    3    3    0  502 -0.40139760940E+02 -0.59807623273E+03  0.19119679284E+03  0.62917740507E+03  0.12699999809E+01 0. -1.
</event>
<event>
 5   0  0.1714861E-03  0.1196202E+04  0.7818609E-02  0.9116188E-01
        2   -1    0    0  501    0  0.00000000000E+00  0.00000000000E+00  0.30321862284E+03  0.30321862285E+03  0.25500000920E-02 0. -1.
       -2   -1    0    0    0  501  0.00000000000E+00  0.00000000000E+00 -0.11797584372E+04  0.11797584372E+04  0.25500000920E-02 0.  1.
    10030    2    1    2    0    0  0.00000000000E+00  0.00000000000E+00 -0.87653981435E+03  0.14829770600E+04  0.11962018703E+04 0.  0.
        1    1    3    3  502    0  0.13583761540E+03 -0.16411749884E+03 -0.11311252801E+04  0.11510129497E+04  0.50400001928E-02 0.  1.
       -1    1    3    3    0  502 -0.13583761540E+03  0.16411749884E+03  0.25458546570E+03  0.33196411034E+03  0.50400001928E-02 0. -1.
</event>
<event>
 5   0  0.9081324E-04  0.1184872E+04  0.7818609E-02  0.9126202E-01
       -1   -1    0    0    0  501  0.00000000000E+00  0.00000000000E+00  0.17855475798E+03  0.17855475805E+03  0.50400001928E-02 0. -1.
        1   -1    0    0  501    0  0.00000000000E+00  0.00000000000E+00 -0.19656742001E+04  0.19656742001E+04  0.50400001928E-02 0.  1.
    10030    2    1    2    0    0  0.00000000000E+00  0.00000000000E+00 -0.17871194421E+04  0.21442289581E+04  0.11848721132E+04 0.  0.
        4    1    3    3  502    0  0.56626959368E+03 -0.94187787168E+02 -0.11585778764E+04  0.12929953212E+04  0.12699999809E+01 0. -1.
       -4    1    3    3    0  502 -0.56626959368E+03  0.94187787168E+02 -0.62854156563E+03  0.85123363691E+03  0.12699999809E+01 0.  1.
</event>
<event>
 5   0  0.1623890E-03  0.1288614E+04  0.7818609E-02  0.9038643E-01
        2   -1    0    0  501    0  0.00000000000E+00  0.00000000000E+00  0.11158748889E+04  0.11158748889E+04  0.25500000920E-02 0.  1.
       -2   -1    0    0    0  501  0.00000000000E+00  0.00000000000E+00 -0.37202343110E+03  0.37202343111E+03  0.25500000920E-02 0. -1.
    10030    2    1    2    0    0  0.00000000000E+00  0.00000000000E+00  0.74385145783E+03  0.14878983200E+04  0.12886141469E+04 0.  0.
        3    1    3    3  502    0  0.36905655103E+03  0.27348928902E+03  0.89360838594E+03  0.10047562325E+04  0.10100000352E+00 0.  1.
       -3    1    3    3    0  502 -0.36905655103E+03 -0.27348928902E+03 -0.14975692811E+03  0.48314208757E+03  0.10100000352E+00 0. -1.
</event>
<event>
 5   0  0.1694675E-03  0.1299594E+04  0.7818609E-02  0.9029887E-01
       -2   -1    0    0    0  501  0.00000000000E+00  0.00000000000E+00  0.76596308366E+03  0.76596308367E+03  0.25500000920E-02 0.  1.
        2   -1    0    0  501    0  0.00000000000E+00  0.00000000000E+00 -0.55124888355E+03  0.55124888355E+03  0.25500000920E-02 0. -1.
    10030    2    1    2    0    0  0.00000000000E+00  0.00000000000E+00  0.21471420012E+03  0.13172119672E+04  0.12995942362E+04 0.  0.
        4    1    3    3  502    0 -0.19930626286E+01  0.59770943666E+03 -0.15099866513E+03  0.61649229739E+03  0.12699999809E+01 0. -1.
       -4    1    3    3    0  502  0.19930626286E+01 -0.59770943666E+03  0.36571286525E+03  0.70071966983E+03  0.12699999809E+01 0.  1.
</event>
<event>
 5   0  0.9098192E-04  0.1290124E+04  0.7818609E-02  0.9037434E-01
       -1   -1    0    0    0  501  0.00000000000E+00  0.00000000000E+00  0.64847501267E+03  0.64847501269E+03  0.50400001928E-02 0. -1.
        1   -1    0    0  501    0  0.00000000000E+00  0.00000000000E+00 -0.64166678610E+03  0.64166678612E+03  0.50400001928E-02 0.  1.
    10030    2    1    2    0    0  0.00000000000E+00  0.00000000000E+00  0.68082265718E+01  0.12901417988E+04  0.12901238348E+04 0.  0.
        1    1    3    3  502    0 -0.36021494379E+03  0.31955000033E+03 -0.42583125291E+03  0.64280577504E+03  0.50400001928E-02 0.  1.
       -1    1    3    3    0  502  0.36021494379E+03 -0.31955000033E+03  0.43263947948E+03  0.64733602377E+03  0.50400001928E-02 0. -1.
</event>
<event>
 5   0  0.1623890E-03  0.1345282E+04  0.7818609E-02  0.8994407E-01
        2   -1    0    0  501    0  0.00000000000E+00  0.00000000000E+00  0.94758163686E+03  0.94758163686E+03  0.25500000920E-02 0.  1.
       -2   -1    0    0    0  501  0.00000000000E+00  0.00000000000E+00 -0.47747454744E+03  0.47747454745E+03  0.25500000920E-02 0. -1.
    10030    2    1    2    0    0  0.00000000000E+00  0.00000000000E+00  0.47010708942E+03  0.14250561843E+04  0.13452822949E+04 0.  0.
        3    1    3    3  502    0  0.52566290524E+03  0.37057372201E+03  0.26396568073E+02  0.64369492961E+03  0.10100000352E+00 0. -1.
       -3    1    3    3    0  502 -0.52566290524E+03 -0.37057372201E+03  0.44371052134E+03  0.78136125470E+03  0.10100000352E+00 0.  1.
</event>
<event>
 5   0  0.9027076E-04  0.1295815E+04  0.7818609E-02  0.9032890E-01
       -1   -1    0    0    0  501  0.00000000000E+00  0.00000000000E+00  0.59773590563E+03  0.59773590565E+03  0.50400001928E-02 0. -1.
        1   -1    0    0  501    0  0.00000000000E+00  0.00000000000E+00 -0.70229079256E+03  0.70229079258E+03  0.50400001928E-02 0.  1.
    10030    2    1    2    0    0  0.00000000000E+00  0.00000000000E+00 -0.10455488692E+03  0.13000266982E+04  0.12958154544E+04 0.  0.
        5    1    3    3  502    0  0.47703291397E+03  0.43078150987E+03 -0.13396208732E+03  0.65658285166E+03  0.46999998093E+01 0. -1.
       -5    1    3    3    0  502 -0.47703291397E+03 -0.43078150987E+03  0.29407200391E+02  0.64344384657E+03  0.46999998093E+01 0.  1.
</event>
<event>
 5   0  0.9027076E-04  0.1309774E+04  0.7818609E-02  0.9021850E-01
       -1   -1    0    0    0  501  0.00000000000E+00  0.00000000000E+00  0.35260516122E+03  0.35260516126E+03  0.50400001928E-02 0.  1.
        1   -1    0    0  501    0  0.00000000000E+00  0.00000000000E+00 -0.12163100894E+04  0.12163100894E+04  0.50400001928E-02 0. -1.
    10030    2    1    2    0    0  0.00000000000E+00  0.00000000000E+00 -0.86370492820E+03  0.15689152507E+04  0.13097743549E+04 0.  0.
        5    1    3    3  502    0 -0.43452148430E+03  0.25827190916E+03 -0.93057005285E+03  0.10590070881E+04  0.46999998093E+01 0. -1.
       -5    1    3    3    0  502  0.43452148430E+03 -0.25827190916E+03  0.66865124646E+02  0.50990816259E+03  0.46999998093E+01 0.  1.
</event>
<event>
 5   0  0.9081324E-04  0.1295580E+04  0.7818609E-02  0.9033078E-01
        1   -1    0    0  501    0  0.00000000000E+00  0.00000000000E+00  0.14086611054E+04  0.14086611054E+04  0.50400001928E-02 0.  1.
       -1   -1    0    0    0  501  0.00000000000E+00  0.00000000000E+00 -0.29789394026E+03  0.29789394030E+03  0.50400001928E-02 0. -1.
    10030    2    1    2    0    0  0.00000000000E+00  0.00000000000E+00  0.11107671651E+04  0.17065550457E+04  0.12955795726E+04 0.  0.
        4    1    3    3  502    0  0.22628255310E+03 -0.59712285428E+03  0.41187077281E+03  0.75986751697E+03  0.12699999809E+01 0.  1.
       -4    1    3    3    0  502 -0.22628255310E+03  0.59712285428E+03  0.69889639232E+03  0.94668752873E+03  0.12699999809E+01 0. -1.
</event>
<event>
 5   0  0.9215829E-04  0.1294146E+04  0.7818609E-02  0.9034220E-01
       -1   -1    0    0    0  501  0.00000000000E+00  0.00000000000E+00  0.60172926307E+03  0.60172926309E+03  0.50400001928E-02 0.  1.
        1   -1    0    0  501    0  0.00000000000E+00  0.00000000000E+00 -0.69583406481E+03  0.69583406483E+03  0.50400001928E-02 0. -1.
    10030    2    1    2    0    0  0.00000000000E+00  0.00000000000E+00 -0.94104801742E+02  0.12975633279E+04  0.12941463890E+04 0.  0.
        3    1    3    3  502    0  0.40196042424E+03 -0.13995806224E+03  0.44161854721E+03  0.61334117200E+03  0.10100000352E+00 0.  1.
       -3    1    3    3    0  502 -0.40196042424E+03  0.13995806224E+03 -0.53572334895E+03  0.68422215592E+03  0.10100000352E+00 0. -1.
</event>
<event>
 5   0  0.9215829E-04  0.1296251E+04  0.7818609E-02  0.9032544E-01
       -1   -1    0    0    0  501  0.00000000000E+00  0.00000000000E+00  0.41838895164E+03  0.41838895167E+03  0.50400001928E-02 0. -1.
        1   -1    0    0  501    0  0.00000000000E+00  0.00000000000E+00 -0.10040092478E+04  0.10040092478E+04  0.50400001928E-02 0.  1.
    10030    2    1    2    0    0  0.00000000000E+00  0.00000000000E+00 -0.58562029612E+03  0.14223981994E+04  0.12962505570E+04 0.  0.
        3    1    3    3  502    0  0.39780719650E+03  0.19477216747E+03 -0.81201590889E+03  0.92496303131E+03  0.10100000352E+00 0.  1.
       -3    1    3    3    0  502 -0.39780719650E+03 -0.19477216747E+03  0.22639561277E+03  0.49743516813E+03  0.10100000352E+00 0. -1.
</event>
<event>
 5   0  0.9081324E-04  0.1295613E+04  0.7818609E-02  0.9033051E-01
        1   -1    0    0  501    0  0.00000000000E+00  0.00000000000E+00  0.11382749877E+04  0.11382749878E+04  0.50400001928E-02 0. -1.
       -1   -1    0    0    0  501  0.00000000000E+00  0.00000000000E+00 -0.36867489042E+03  0.36867489046E+03  0.50400001928E-02 0.  1.
    10030    2    1    2    0    0  0.00000000000E+00  0.00000000000E+00  0.76960009733E+03  0.15069498782E+04  0.12956132238E+04 0.  0.
        4    1    3    3  502    0  0.40064478872E+03 -0.50905033426E+03  0.38268587087E+03  0.75239522739E+03  0.12699999809E+01 0. -1.
       -4    1    3    3    0  502 -0.40064478872E+03  0.50905033426E+03  0.38691422646E+03  0.75455465082E+03  0.12699999809E+01 0.  1.
</event>
<event>
 5   0  0.9215829E-04  0.1299492E+04  0.7818609E-02  0.9029968E-01
       -1   -1    0    0    0  501  0.00000000000E+00  0.00000000000E+00  0.25978116420E+03  0.25978116425E+03  0.50400001928E-02 0. -1.
        1   -1    0    0  501    0  0.00000000000E+00  0.00000000000E+00 -0.16250982611E+04  0.16250982611E+04  0.50400001928E-02 0.  1.
    10030    2    1    2    0    0  0.00000000000E+00  0.00000000000E+00 -0.13653170969E+04  0.18848794254E+04  0.12994920827E+04 0.  0.
        3    1    3    3  502    0 -0.14058111993E+03 -0.61688289819E+03 -0.46819261129E+03  0.78709077801E+03  0.10100000352E+00 0.  1.
       -3    1    3    3    0  502  0.14058111993E+03  0.61688289819E+03 -0.89712448564E+03  0.10977886474E+04  0.10100000352E+00 0. -1.
</event>
<event>
 5   0  0.9098192E-04  0.1323954E+04  0.7818609E-02  0.9010782E-01
        1   -1    0    0  501    0  0.00000000000E+00  0.00000000000E+00  0.12391053128E+04  0.12391053128E+04  0.50400001928E-02 0. -1.
       -1   -1    0    0    0  501  0.00000000000E+00  0.00000000000E+00 -0.35365297341E+03  0.35365297345E+03  0.50400001928E-02 0.  1.
    10030    2    1    2    0    0  0.00000000000E+00  0.00000000000E+00  0.88545233939E+03  0.15927582863E+04  0.13239535918E+04 0.  0.
        1    1    3    3  502    0 -0.44170356792E+03  0.28849528848E+03 -0.38308630522E+02  0.52896041873E+03  0.50400001928E-02 0.  1.
       -1    1    3    3    0  502  0.44170356792E+03 -0.28849528848E+03  0.92376096991E+03  0.10637978675E+04  0.50400001928E-02 0. -1.
</event>
<event>
 5   0  0.9027076E-04  0.1271108E+04  0.7818609E-02  0.9052796E-01
       -1   -1    0    0    0  501  0.00000000000E+00  0.00000000000E+00  0.33507959312E+03  0.33507959316E+03  0.50400001928E-02 0.  1.
        1   -1    0    0  501    0  0.00000000000E+00  0.00000000000E+00 -0.12054714118E+04  0.12054714118E+04  0.50400001928E-02 0. -1.
    10030    2    1    2    0    0  0.00000000000E+00  0.00000000000E+00 -0.87039181870E+03  0.15405510050E+04  0.12711079737E+04 0.  0.
        5    1    3    3  502    0  0.10471491861E+03  0.48720090627E+03 -0.91323797654E+03  0.10403632198E+04  0.46999998093E+01 0.  1.
       -5    1    3    3    0  502 -0.10471491861E+03 -0.48720090627E+03  0.42846157838E+02  0.50018778522E+03  0.46999998093E+01 0. -1.
</event>
<event>
 5   0  0.1623890E-03  0.1295161E+04  0.7818609E-02  0.9033411E-01
       -2   -1    0    0    0  501  0.00000000000E+00  0.00000000000E+00  0.42884531588E+03  0.42884531589E+03  0.25500000920E-02 0. -1.
        2   -1    0    0  501    0  0.00000000000E+00  0.00000000000E+00 -0.97788315627E+03  0.97788315627E+03  0.25500000920E-02 0.  1.
    10030    2    1    2    0    0  0.00000000000E+00  0.00000000000E+00 -0.54903784038E+03  0.14067284722E+04  0.12951611653E+04 0.  0.
        3    1    3    3  502    0 -0.27464298033E+03  0.12947950595E+03 -0.89577569505E+03  0.94583709758E+03  0.10100000352E+00 0.  1.
       -3    1    3    3    0  502  0.27464298033E+03 -0.12947950595E+03  0.34673785467E+03  0.46089137458E+03  0.10100000352E+00 0. -1.
</event>
<event>
 5   0  0.1700511E-03  0.1303144E+04  0.7818609E-02  0.9027076E-01
        2   -1    0    0  501    0  0.00000000000E+00  0.00000000000E+00  0.21395556139E+04  0.21395556139E+04  0.25500000920E-02 0. -1.
       -2   -1    0    0    0  501  0.00000000000E+00  0.00000000000E+00 -0.19842711231E+03  0.19842711233E+03  0.25500000920E-02 0.  1.
    10030    2    1    2    0    0  0.00000000000E+00  0.00000000000E+00  0.19411285016E+04  0.23379827262E+04  0.13031436484E+04 0.  0.
        2    1    3    3  502    0 -0.26416430389E+02  0.10603563725E+03  0.21229979902E+04  0.21258085170E+04  0.25500000920E-02 0. -1.
       -2    1    3    3    0  502  0.26416430389E+02 -0.10603563725E+03 -0.18186948867E+03  0.21217420926E+03  0.25500000920E-02 0.  1.
</event>
<event>
 5   0  0.9027076E-04  0.1319465E+04  0.7818609E-02  0.9014270E-01
       -1   -1    0    0    0  501  0.00000000000E+00  0.00000000000E+00  0.26569366511E+03  0.26569366516E+03  0.50400001928E-02 0.  1.
        1   -1    0    0  501    0  0.00000000000E+00  0.00000000000E+00 -0.16381541111E+04  0.16381541111E+04  0.50400001928E-02 0. -1.
    10030    2    1    2    0    0  0.00000000000E+00  0.00000000000E+00 -0.13724604460E+04  0.19038477763E+04  0.13194653006E+04 0.  0.
        5    1    3    3  502    0 -0.11358472538E+03 -0.40560359086E+03  0.46397842714E+02  0.42378132635E+03  0.46999998093E+01 0.  1.
       -5    1    3    3    0  502  0.11358472538E+03  0.40560359086E+03 -0.14188582887E+04  0.14800664499E+04  0.46999998093E+01 0. -1.
</event>
<event>
 5   0  0.1623890E-03  0.1220421E+04  0.7818609E-02  0.9095168E-01
       -2   -1    0    0    0  501  0.00000000000E+00  0.00000000000E+00  0.40626688697E+03  0.40626688698E+03  0.25500000920E-02 0. -1.
        2   -1    0    0  501    0  0.00000000000E+00  0.00000000000E+00 -0.91653221979E+03  0.91653221979E+03  0.25500000920E-02 0.  1.
    10030    2    1    2    0    0  0.00000000000E+00  0.00000000000E+00 -0.51026533282E+03  0.13227991068E+04  0.12204207336E+04 0.  0.
        3    1    3    3  502    0  0.29246253672E+03 -0.45620703007E+03 -0.55919649633E+03  0.77869115918E+03  0.10100000352E+00 0.  1.
       -3    1    3    3    0  502 -0.29246253672E+03  0.45620703007E+03  0.48931163512E+02  0.54410794759E+03  0.10100000352E+00 0. -1.
</event>
<event>
 5   0  0.1714861E-03  0.1298795E+04  0.7818609E-02  0.9030522E-01
        2   -1    0    0  501    0  0.00000000000E+00  0.00000000000E+00  0.76617256355E+03  0.76617256355E+03  0.25500000920E-02 0.  1.
       -2   -1    0    0    0  501  0.00000000000E+00  0.00000000000E+00 -0.55042028385E+03  0.55042028385E+03  0.25500000920E-02 0. -1.
    10030    2    1    2    0    0  0.00000000000E+00  0.00000000000E+00  0.21575227970E+03  0.13165928474E+04  0.12987947027E+04 0.  0.
        1    1    3    3  502    0  0.51058234021E+03 -0.40126093622E+03  0.10432748125E+03  0.65771489906E+03  0.50400001928E-02 0. -1.
       -1    1    3    3    0  502 -0.51058234021E+03  0.40126093622E+03  0.11142479845E+03  0.65887794834E+03  0.50400001928E-02 0.  1.
</event>
<event>
 5   0  0.1694675E-03  0.1307736E+04  0.7818609E-02  0.9023453E-01
       -2   -1    0    0    0  501  0.00000000000E+00  0.00000000000E+00  0.14716398141E+04  0.14716398141E+04  0.25500000920E-02 0. -1.
        2   -1    0    0  501    0  0.00000000000E+00  0.00000000000E+00 -0.29052189120E+03  0.29052189121E+03  0.25500000920E-02 0.  1.
    10030    2    1    2    0    0  0.00000000000E+00  0.00000000000E+00  0.11811179229E+04  0.17621617053E+04  0.13077363373E+04 0.  0.
        4    1    3    3  502    0  0.25208664614E+03  0.30013905379E+03  0.12957879858E+04  0.13537722282E+04  0.12699999809E+01 0. -1.
       -4    1    3    3    0  502 -0.25208664614E+03 -0.30013905379E+03 -0.11467006292E+03  0.40838947710E+03  0.12699999809E+01 0.  1.
</event>
<event>
 5   0  0.1700511E-03  0.1299985E+04  0.7818609E-02  0.9029577E-01
        2   -1    0    0  501    0  0.00000000000E+00  0.00000000000E+00  0.53992695102E+03  0.53992695103E+03  0.25500000920E-02 0.  1.
       -2   -1    0    0    0  501  0.00000000000E+00  0.00000000000E+00 -0.78249501063E+03  0.78249501063E+03  0.25500000920E-02 0. -1.
    10030    2    1    2    0    0  0.00000000000E+00  0.00000000000E+00 -0.24256805960E+03  0.13224219617E+04  0.12999848388E+04 0.  0.
        2    1    3    3  502    0  0.37224198324E+03  0.14283882094E+03 -0.64348915456E+03  0.75699756597E+03  0.25500000920E-02 0. -1.
       -2    1    3    3    0  502 -0.37224198324E+03 -0.14283882094E+03  0.40092109495E+03  0.56542439569E+03  0.25500000920E-02 0.  1.
</event>
<event>
 5   0  0.9027076E-04  0.1240650E+04  0.7818609E-02  0.9078001E-01
        1   -1    0    0  501    0  0.00000000000E+00  0.00000000000E+00  0.11064274188E+04  0.11064274188E+04  0.50400001928E-02 0.  1.
       -1   -1    0    0    0  501  0.00000000000E+00  0.00000000000E+00 -0.34778883456E+03  0.34778883459E+03  0.50400001928E-02 0. -1.
    10030    2    1    2    0    0  0.00000000000E+00  0.00000000000E+00  0.75863858425E+03  0.14542162534E+04  0.12406499950E+04 0.  0.
        5    1    3    3  502    0 -0.52740484843E+03 -0.26783432156E+03  0.16037699549E+03  0.61288985033E+03  0.46999998093E+01 0. -1.
       -5    1    3    3    0  502  0.52740484843E+03  0.26783432156E+03  0.59826158876E+03  0.84132640309E+03  0.46999998093E+01 0.  1.
</event>
<event>
 5   0  0.1700511E-03  0.1301077E+04  0.7818609E-02  0.9028711E-01
        2   -1    0    0  501    0  0.00000000000E+00  0.00000000000E+00  0.17298251938E+04  0.17298251938E+04  0.25500000920E-02 0. -1.
       -2   -1    0    0    0  501  0.00000000000E+00  0.00000000000E+00 -0.24464924389E+03  0.24464924391E+03  0.25500000920E-02 0.  1.
    10030    2    1    2    0    0  0.00000000000E+00  0.00000000000E+00  0.14851759499E+04  0.19744744377E+04  0.13010771318E+04 0.  0.
        2    1    3    3  502    0  0.57758326331E+02  0.39952797298E+02 -0.23887943422E+03  0.24898922542E+03  0.25500000920E-02 0.  1.
       -2    1    3    3    0  502 -0.57758326331E+02 -0.39952797298E+02  0.17240553841E+04  0.17254852123E+04  0.25500000920E-02 0. -1.
</event>
<event>
 5   0  0.9027076E-04  0.1307010E+04  0.7818609E-02  0.9024024E-01
       -1   -1    0    0    0  501  0.00000000000E+00  0.00000000000E+00  0.18536640551E+03  0.18536640558E+03  0.50400001928E-02 0. -1.
        1   -1    0    0  501    0  0.00000000000E+00  0.00000000000E+00 -0.23039179843E+04  0.23039179843E+04  0.50400001928E-02 0.  1.
    10030    2    1    2    0    0  0.00000000000E+00  0.00000000000E+00 -0.21185515788E+04  0.24892843898E+04  0.13070103219E+04 0.  0.
        5    1    3    3  502    0  0.63932641600E+03  0.10727548314E+03 -0.90221440125E+03  0.11109721920E+04  0.46999998093E+01 0. -1.
       -5    1    3    3    0  502 -0.63932641600E+03 -0.10727548314E+03 -0.12163371775E+04  0.13783121979E+04  0.46999998093E+01 0.  1.
</event>
<event>
 5   0  0.9110949E-04  0.1299509E+04  0.7818609E-02  0.9029954E-01
       -1   -1    0    0    0  501  0.00000000000E+00  0.00000000000E+00  0.80222095977E+03  0.80222095979E+03  0.50400001928E-02 0. -1.
        1   -1    0    0  501    0  0.00000000000E+00  0.00000000000E+00 -0.52626535370E+03  0.52626535372E+03  0.50400001928E-02 0.  1.
    10030    2    1    2    0    0  0.00000000000E+00  0.00000000000E+00  0.27595560607E+03  0.13284863135E+04  0.12995092876E+04 0.  0.
        2    1    3    3  502    0  0.56820388858E+03  0.31515438584E+03  0.13979256187E+03  0.66462012178E+03  0.25500000920E-02 0. -1.
       -2    1    3    3    0  502 -0.56820388858E+03 -0.31515438584E+03  0.13616304420E+03  0.66386619173E+03  0.25500000920E-02 0.  1.
</event>
<event>
 5   0  0.9110949E-04  0.1291096E+04  0.7818609E-02  0.9036656E-01
        1   -1    0    0  501    0  0.00000000000E+00  0.00000000000E+00  0.56744673199E+03  0.56744673201E+03  0.50400001928E-02 0.  1.
       -1   -1    0    0    0  501  0.00000000000E+00  0.00000000000E+00 -0.73439902872E+03  0.73439902873E+03  0.50400001928E-02 0. -1.
    10030    2    1    2    0    0  0.00000000000E+00  0.00000000000E+00 -0.16695229673E+03  0.13018457607E+04  0.12910961681E+04 0.  0.
        2    1    3    3  502    0 -0.28283274229E+03 -0.31957303800E+03 -0.57187559738E+03  0.71355657492E+03  0.25500000920E-02 0. -1.
       -2    1    3    3    0  502  0.28283274229E+03  0.31957303800E+03  0.40492330065E+03  0.58828918582E+03  0.25500000920E-02 0.  1.
</event>
<event>
 5   0  0.9081324E-04  0.1309484E+04  0.7818609E-02  0.9022078E-01
       -1   -1    0    0    0  501  0.00000000000E+00  0.00000000000E+00  0.31773946315E+03  0.31773946319E+03  0.50400001928E-02 0. -1.
        1   -1    0    0  501    0  0.00000000000E+00  0.00000000000E+00 -0.13491785333E+04  0.13491785333E+04  0.50400001928E-02 0.  1.
    10030    2    1    2    0    0  0.00000000000E+00  0.00000000000E+00 -0.10314390701E+04  0.16669179965E+04  0.13094842693E+04 0.  0.
        4    1    3    3  502    0  0.11216734259E+03 -0.53909668363E+03 -0.64799734535E+02  0.55444329335E+03  0.12699999809E+01 0. -1.
       -4    1    3    3    0  502 -0.11216734259E+03  0.53909668363E+03 -0.96663933558E+03  0.11124747031E+04  0.12699999809E+01 0.  1.
</event>
<event>
 5   0  0.1714861E-03  0.1304325E+04  0.7818609E-02  0.9026143E-01
       -2   -1    0    0    0  501  0.00000000000E+00  0.00000000000E+00  0.21472616796E+03  0.21472616798E+03  0.25500000920E-02 0.  1.
        2   -1    0    0  501    0  0.00000000000E+00  0.00000000000E+00 -0.19807354876E+04  0.19807354876E+04  0.25500000920E-02 0. -1.
    10030    2    1    2    0    0  0.00000000000E+00  0.00000000000E+00 -0.17660093196E+04  0.21954616556E+04  0.13043247157E+04 0.  0.
        1    1    3    3  502    0  0.25020326459E+03 -0.16513103127E+03 -0.18578850134E+04  0.18819156873E+04  0.50400001928E-02 0. -1.
       -1    1    3    3    0  502 -0.25020326459E+03  0.16513103127E+03  0.91875693745E+02  0.31354596829E+03  0.50400001928E-02 0.  1.
</event>
<event>
 5   0  0.1694675E-03  0.1302385E+04  0.7818609E-02  0.9027676E-01
       -2   -1    0    0    0  501  0.00000000000E+00  0.00000000000E+00  0.54579150756E+03  0.54579150757E+03  0.25500000920E-02 0.  1.
        2   -1    0    0  501    0  0.00000000000E+00  0.00000000000E+00 -0.77694835612E+03  0.77694835612E+03  0.25500000920E-02 0. -1.
    10030    2    1    2    0    0  0.00000000000E+00  0.00000000000E+00 -0.23115684855E+03  0.13227398637E+04  0.13023852189E+04 0.  0.
        4    1    3    3  502    0  0.30531146012E+03 -0.27774030569E+03 -0.62713221966E+03  0.75076707368E+03  0.12699999809E+01 0. -1.
       -4    1    3    3    0  502 -0.30531146012E+03  0.27774030569E+03  0.39597537111E+03  0.57197279001E+03  0.12699999809E+01 0.  1.
</event>
<event>
 5   0  0.9215829E-04  0.1296723E+04  0.7818609E-02  0.9032168E-01
        1   -1    0    0  501    0  0.00000000000E+00  0.00000000000E+00  0.57461728452E+03  0.57461728454E+03  0.50400001928E-02 0. -1.
       -1   -1    0    0    0  501  0.00000000000E+00  0.00000000000E+00 -0.73156963872E+03  0.73156963874E+03  0.50400001928E-02 0.  1.
    10030    2    1    2    0    0  0.00000000000E+00  0.00000000000E+00 -0.15695235420E+03  0.13061869233E+04  0.12967228837E+04 0.  0.
        3    1    3    3  502    0  0.38197133330E+03  0.48970042563E+03  0.10906521520E+03  0.63055835391E+03  0.10100000352E+00 0.  1.
       -3    1    3    3    0  502 -0.38197133330E+03 -0.48970042563E+03 -0.26601756940E+03  0.67562856937E+03  0.10100000352E+00 0. -1.
</event>
<event>
 5   0  0.1623890E-03  0.1243466E+04  0.7818609E-02  0.9075639E-01
       -2   -1    0    0    0  501  0.00000000000E+00  0.00000000000E+00  0.29577157872E+03  0.29577157873E+03  0.25500000920E-02 0. -1.
        2   -1    0    0  501    0  0.00000000000E+00  0.00000000000E+00 -0.13069278580E+04  0.13069278580E+04  0.25500000920E-02 0.  1.
    10030    2    1    2    0    0  0.00000000000E+00  0.00000000000E+00 -0.10111562793E+04  0.16026994368E+04  0.12434663097E+04 0.  0.
        3    1    3    3  502    0  0.24248905127E+03  0.54620498576E+03 -0.72662024998E+03  0.94080700695E+03  0.10100000352E+00 0.  1.
       -3    1    3    3    0  502 -0.24248905127E+03 -0.54620498576E+03 -0.28453602932E+03  0.66189242980E+03  0.10100000352E+00 0. -1.
</event>
<event>
 5   0  0.9215829E-04  0.1302572E+04  0.7818609E-02  0.9027528E-01
        1   -1    0    0  501    0  0.00000000000E+00  0.00000000000E+00  0.49185796585E+03  0.49185796588E+03  0.50400001928E-02 0.  1.
       -1   -1    0    0    0  501  0.00000000000E+00  0.00000000000E+00 -0.86239057147E+03  0.86239057148E+03  0.50400001928E-02 0. -1.
    10030    2    1    2    0    0  0.00000000000E+00  0.00000000000E+00 -0.37053260562E+03  0.13542485374E+04  0.13025723355E+04 0.  0.
        3    1    3    3  502    0  0.26520675163E+02  0.39576883520E+03 -0.72232262119E+03  0.82406692472E+03  0.10100000352E+00 0. -1.
       -3    1    3    3    0  502 -0.26520675163E+02 -0.39576883520E+03  0.35179001558E+03  0.53018161264E+03  0.10100000352E+00 0.  1.
</event>
<event>
 5   0  0.9110949E-04  0.1299037E+04  0.7818609E-02  0.9030329E-01
        1   -1    0    0  501    0  0.00000000000E+00  0.00000000000E+00  0.86676351550E+03  0.86676351552E+03  0.50400001928E-02 0. -1.
       -1   -1    0    0    0  501  0.00000000000E+00  0.00000000000E+00 -0.48672373256E+03  0.48672373258E+03  0.50400001928E-02 0.  1.
    10030    2    1    2    0    0  0.00000000000E+00  0.00000000000E+00  0.38003978295E+03  0.13534872481E+04  0.12990371412E+04 0.  0.
        2    1    3    3  502    0  0.46850180610E+03 -0.41858469904E+03  0.18286128115E+02  0.62852324943E+03  0.25500000920E-02 0.  1.
       -2    1    3    3    0  502 -0.46850180610E+03  0.41858469904E+03  0.36175365483E+03  0.72496399868E+03  0.25500000920E-02 0. -1.
</event>
<event>
 5   0  0.1700511E-03  0.1322006E+04  0.7818609E-02  0.9012294E-01
       -2   -1    0    0    0  501  0.00000000000E+00  0.00000000000E+00  0.51638701810E+03  0.51638701810E+03  0.25500000920E-02 0.  1.
        2   -1    0    0  501    0  0.00000000000E+00  0.00000000000E+00 -0.84611863964E+03  0.84611863964E+03  0.25500000920E-02 0. -1.
    10030    2    1    2    0    0  0.00000000000E+00  0.00000000000E+00 -0.32973162154E+03  0.13625056577E+04  0.13220055693E+04 0.  0.
        2    1    3    3  502    0 -0.25308237468E+02 -0.21734831460E+03 -0.80770793288E+03  0.83682310054E+03  0.25500000920E-02 0. -1.
       -2    1    3    3    0  502  0.25308237468E+02  0.21734831460E+03  0.47797631134E+03  0.52568255721E+03  0.25500000920E-02 0.  1.
</event>
<event>
 5   0  0.9027076E-04  0.1294471E+04  0.7818609E-02  0.9033961E-01
        1   -1    0    0  501    0  0.00000000000E+00  0.00000000000E+00  0.60356268720E+03  0.60356268723E+03  0.50400001928E-02 0.  1.
       -1   -1    0    0    0  501  0.00000000000E+00  0.00000000000E+00 -0.69406838680E+03  0.69406838682E+03  0.50400001928E-02 0. -1.
    10030    2    1    2    0    0  0.00000000000E+00  0.00000000000E+00 -0.90505699598E+02  0.12976310740E+04  0.12944709818E+04 0.  0.
        5    1    3    3  502    0 -0.42177157630E+03  0.41043310467E+03  0.22474664006E+03  0.62998391900E+03  0.46999998093E+01 0. -1.
       -5    1    3    3    0  502  0.42177157630E+03 -0.41043310467E+03 -0.31525233965E+03  0.66764715505E+03  0.46999998093E+01 0.  1.
</event>
<event>
 5   0  0.9098192E-04  0.1307029E+04  0.7818609E-02  0.9024010E-01
       -1   -1    0    0    0  501  0.00000000000E+00  0.00000000000E+00  0.19963161087E+03  0.19963161094E+03  0.50400001928E-02 0. -1.
        1   -1    0    0  501    0  0.00000000000E+00  0.00000000000E+00 -0.21393455301E+04  0.21393455301E+04  0.50400001928E-02 0.  1.
    10030    2    1    2    0    0  0.00000000000E+00  0.00000000000E+00 -0.19397139193E+04  0.23389771411E+04  0.13070286829E+04 0.  0.
        1    1    3    3  502    0 -0.25701358738E+02  0.41241398413E+03 -0.18758918713E+04  0.19208633910E+04  0.50400001928E-02 0.  1.
       -1    1    3    3    0  502  0.25701358738E+02 -0.41241398413E+03 -0.63822047946E+02  0.41811375004E+03  0.50400001928E-02 0. -1.
</event>
<event>
 5   0  0.1694675E-03  0.1300456E+04  0.7818609E-02  0.9029204E-01
        2   -1    0    0  501    0  0.00000000000E+00  0.00000000000E+00  0.18545014426E+04  0.18545014426E+04  0.25500000920E-02 0.  1.
       -2   -1    0    0    0  501  0.00000000000E+00  0.00000000000E+00 -0.22798387255E+03  0.22798387256E+03  0.25500000920E-02 0. -1.
    10030    2    1    2    0    0  0.00000000000E+00  0.00000000000E+00  0.16265175701E+04  0.20824853152E+04  0.13004559517E+04 0.  0.
        4    1    3    3  502    0  0.26256227813E+03 -0.11682307422E+03  0.17472842286E+04  0.17707598282E+04  0.12699999809E+01 0.  1.
       -4    1    3    3    0  502 -0.26256227813E+03  0.11682307422E+03 -0.12076665852E+03  0.31172548705E+03  0.12699999809E+01 0. -1.
</event>
<event>
 5   0  0.9098192E-04  0.1302826E+04  0.7818609E-02  0.9027327E-01
       -1   -1    0    0    0  501  0.00000000000E+00  0.00000000000E+00  0.60312967927E+03  0.60312967929E+03  0.50400001928E-02 0.  1.
        1   -1    0    0  501    0  0.00000000000E+00  0.00000000000E+00 -0.70356123451E+03  0.70356123453E+03  0.50400001928E-02 0. -1.
    10030    2    1    2    0    0  0.00000000000E+00  0.00000000000E+00 -0.10043155524E+03  0.13066909138E+04  0.13028256395E+04 0.  0.
        1    1    3    3  502    0  0.57190148154E+03 -0.44401758974E+02  0.25940033086E+03  0.62954853066E+03  0.50400001928E-02 0.  1.
       -1    1    3    3    0  502 -0.57190148154E+03  0.44401758974E+02 -0.35983188611E+03  0.67714238316E+03  0.50400001928E-02 0. -1.
</event>
<event>
 5   0  0.1694675E-03  0.1282802E+04  0.7818609E-02  0.9043316E-01
       -2   -1    0    0    0  501  0.00000000000E+00  0.00000000000E+00  0.43660160620E+03  0.43660160621E+03  0.25500000920E-02 0. -1.
        2   -1    0    0  501    0  0.00000000000E+00  0.00000000000E+00 -0.94226654093E+03  0.94226654093E+03  0.25500000920E-02 0.  1.
    10030    2    1    2    0    0  0.00000000000E+00  0.00000000000E+00 -0.50566493472E+03  0.13788681471E+04  0.12828017544E+04 0.  0.
        4    1    3    3  502    0 -0.39886054226E+02  0.53587801785E+03  0.12358912583E+03  0.55139099763E+03  0.12699999809E+01 0. -1.
       -4    1    3    3    0  502  0.39886054226E+02 -0.53587801785E+03 -0.62925406056E+03  0.82747714951E+03  0.12699999809E+01 0.  1.
</event>
<event>
 5   0  0.1667342E-03  0.1530450E+04  0.7818609E-02  0.8864453E-01
        2   -1    0    0  501    0  0.00000000000E+00  0.00000000000E+00  0.98387992195E+03  0.98387992195E+03  0.25500000920E-02 0. -1.
       -2   -1    0    0    0  501  0.00000000000E+00  0.00000000000E+00 -0.59516307611E+03  0.59516307612E+03  0.25500000920E-02 0.  1.
    10030    2    1    2    0    0  0.00000000000E+00  0.00000000000E+00  0.38871684584E+03  0.15790429981E+04  0.15304496083E+04 0.  0.
        5    1    3    3  502    0  0.12493458991E+03 -0.43629327130E+02  0.97196937847E+03  0.98094787457E+03  0.46999998093E+01 0. -1.
       -5    1    3    3    0  502 -0.12493458991E+03  0.43629327130E+02 -0.58325253263E+03  0.59809512350E+03  0.46999998093E+01 0.  1.
</event>
<event>
 5   0  0.9081324E-04  0.1287681E+04  0.7818609E-02  0.9039391E-01
        1   -1    0    0  501    0  0.00000000000E+00  0.00000000000E+00  0.12854225130E+04  0.12854225130E+04  0.50400001928E-02 0.  1.
       -1   -1    0    0    0  501  0.00000000000E+00  0.00000000000E+00 -0.32248601053E+03  0.32248601057E+03  0.50400001928E-02 0. -1.
    10030    2    1    2    0    0  0.00000000000E+00  0.00000000000E+00  0.96293650243E+03  0.16079085235E+04  0.12876812930E+04 0.  0.
        4    1    3    3  502    0  0.37684385263E+03 -0.49689748401E+03  0.28163661806E+03  0.68428005700E+03  0.12699999809E+01 0. -1.
       -4    1    3    3    0  502 -0.37684385263E+03  0.49689748401E+03  0.68129988437E+03  0.92362846655E+03  0.12699999809E+01 0.  1.
</event>
<event>
 5   0  0.1667342E-03  0.1275508E+04  0.7818609E-02  0.9049216E-01
        2   -1    0    0  501    0  0.00000000000E+00  0.00000000000E+00  0.69724795801E+03  0.69724795801E+03  0.25500000920E-02 0.  1.
       -2   -1    0    0    0  501  0.00000000000E+00  0.00000000000E+00 -0.58333637321E+03  0.58333637322E+03  0.25500000920E-02 0. -1.
    10030    2    1    2    0    0  0.00000000000E+00  0.00000000000E+00  0.11391158480E+03  0.12805843312E+04  0.12755078911E+04 0.  0.
        5    1    3    3  502    0  0.48201765812E+02 -0.12227242982E+03  0.68348596863E+03  0.69602379028E+03  0.46999998093E+01 0.  1.
       -5    1    3    3    0  502 -0.48201765812E+02  0.12227242982E+03 -0.56957438383E+03  0.58456054095E+03  0.46999998093E+01 0. -1.
</event>
<event>
 5   0  0.9110949E-04  0.1288180E+04  0.7818609E-02  0.9038991E-01
       -1   -1    0    0    0  501  0.00000000000E+00  0.00000000000E+00  0.59611728529E+03  0.59611728531E+03  0.50400001928E-02 0. -1.
        1   -1    0    0  501    0  0.00000000000E+00  0.00000000000E+00 -0.69592340087E+03  0.69592340089E+03  0.50400001928E-02 0.  1.
    10030    2    1    2    0    0  0.00000000000E+00  0.00000000000E+00 -0.99806115578E+02  0.12920406862E+04  0.12881800628E+04 0.  0.
        2    1    3    3  502    0  0.63280308514E+03  0.93116648853E+02 -0.12590292225E+03  0.65189109573E+03  0.25500000920E-02 0. -1.
       -2    1    3    3    0  502 -0.63280308514E+03 -0.93116648853E+02  0.26096806673E+02  0.64014959047E+03  0.25500000920E-02 0.  1.
</event>
<event>
 5   0  0.1700511E-03  0.1439878E+04  0.7818609E-02  0.8925448E-01
       -2   -1    0    0    0  501  0.00000000000E+00  0.00000000000E+00  0.49019006913E+03  0.49019006914E+03  0.25500000920E-02 0. -1.
        2   -1    0    0  501    0  0.00000000000E+00  0.00000000000E+00 -0.10573692233E+04  0.10573692233E+04  0.25500000920E-02 0.  1.
    10030    2    1    2    0    0  0.00000000000E+00  0.00000000000E+00 -0.56717915415E+03  0.15475592924E+04  0.14398776235E+04 0.  0.
        2    1    3    3  502    0  0.16504660276E+03  0.69795409886E+03 -0.21619798973E+03  0.74908068722E+03  0.25500000920E-02 0. -1.
       -2    1    3    3    0  502 -0.16504660276E+03 -0.69795409886E+03 -0.35098116442E+03  0.79847860521E+03  0.25500000920E-02 0.  1.
</event>
<event>
 5   0  0.9027076E-04  0.1309594E+04  0.7818609E-02  0.9021991E-01
       -1   -1    0    0    0  501  0.00000000000E+00  0.00000000000E+00  0.50206974980E+03  0.50206974983E+03  0.50400001928E-02 0.  1.
        1   -1    0    0  501    0  0.00000000000E+00  0.00000000000E+00 -0.85398353567E+03  0.85398353568E+03  0.50400001928E-02 0. -1.
    10030    2    1    2    0    0  0.00000000000E+00  0.00000000000E+00 -0.35191378587E+03  0.13560532855E+04  0.13095942885E+04 0.  0.
        5    1    3    3  502    0 -0.39264713938E+03  0.51146528294E+03 -0.29387708507E+03  0.70862849424E+03  0.46999998093E+01 0. -1.
       -5    1    3    3    0  502  0.39264713938E+03 -0.51146528294E+03 -0.58036700801E+02  0.64742479128E+03  0.46999998093E+01 0.  1.
</event>
</LesHouchesEvents>
