<LesHouchesEvents version="3.0">
<header>
<!--
#*********************************************************************
#                                                                    *
#                        MadGraph5_aMC@NLO                           *
#                                                                    *
#                           Going Beyond                             *
#                                                                    *
#                   http://madgraph.hep.uiuc.edu                     *
#                   http://madgraph.phys.ucl.ac.be                   *
#                   http://amcatnlo.cern.ch                          *
#                                                                    *
#                     The MadGraph5_aMC@NLO team                     *
#                                                                    *
#....................................................................*
#                                                                    *
# This file contains all the information necessary to reproduce      *
# the events generated:                                              *
#                                                                    *
# 1. software version                                                *
# 2. proc_card          : code generation info including model       *
# 3. param_card         : model primary parameters in the LH format  *
# 4. run_card           : running parameters (collider and cuts)     *
# 5. pythia_card        : present only if pythia has been run        *
# 6. pgs_card           : present only if pgs has been run           *
# 7. delphes_cards      : present only if delphes has been run       *
#                                                                    *
#                                                                    *
#*********************************************************************
-->
<MGVersion>
#5.2.2.3
</MGVersion>
<MG5ProcCard>
#************************************************************
#*                     MadGraph5_aMC@NLO                    *
#*                                                          *
#*                *                       *                 *
#*                  *        * *        *                   *
#*                    * * * * 5 * * * *                     *
#*                  *        * *        *                   *
#*                *                       *                 *
#*                                                          *
#*                                                          *
#*         VERSION 2.2.3                 2015-02-10         *
#*                                                          *
#*    The MadGraph5_aMC@NLO Development Team - Find us at   *
#*    https://server06.fynu.ucl.ac.be/projects/madgraph     *
#*                                                          *
#************************************************************
#*                                                          *
#*               Command File for MadGraph5_aMC@NLO         *
#*                                                          *
#*     run as ./bin/mg5_aMC  filename                       *
#*                                                          *
#************************************************************
set group_subprocesses Auto
set ignore_six_quark_processes False
set loop_optimized_output True
set gauge unitary
set complex_mass_scheme False
import model sm
define p = g u c d s u~ c~ d~ s~
define j = g u c d s u~ c~ d~ s~
define l+ = e+ mu+
define l- = e- mu-
define vl = ve vm vt
define vl~ = ve~ vm~ vt~
import model Zprime_UFO
generate p p > zph, zph > j j
add process p p > zph, zph > b b~
output Dijet_signal
</MG5ProcCard>
<MGProcCard>
#*********************************************************************
#                        MadGraph/MadEvent                           *
#                   http://madgraph.hep.uiuc.edu                     *
#                                                                    *
#                          proc_card.dat                             *
#*********************************************************************
#                                                                    *
#            This Files is generated by MADGRAPH 5                   *
#                                                                    *
# WARNING: This Files is generated for MADEVENT (compatibility issue)*
#          This files is NOT a valid MG4 proc_card.dat               *
#          Running this in MG4 will NEVER reproduce the result of MG5*
#                                                                    *
#*********************************************************************
#*********************************************************************
# Process(es) requested : mg2 input                                  *
#*********************************************************************
# Begin PROCESS # This is TAG. Do not modify this line
p p > zph , zph > j j           #Process
# Be carefull the coupling are here in MG5 convention
          
end_coup           # End the couplings input

done               # this tells MG there are no more procs
# End PROCESS  # This is TAG. Do not modify this line
#*********************************************************************
# Model information                                                  *
#*********************************************************************
# Begin MODEL  # This is TAG. Do not modify this line
Zprime_UFO
# End   MODEL  # This is TAG. Do not modify this line
#*********************************************************************
# Start multiparticle definitions                                    *
#*********************************************************************
# Begin MULTIPARTICLES # This is TAG. Do not modify this line

# End  MULTIPARTICLES # This is TAG. Do not modify this line
</MGProcCard>
<MGRunCard>
#*********************************************************************
#                       MadGraph5_aMC@NLO                            *
#                                                                    *
#                     run_card.dat MadEvent                          *
#                                                                    *
#  This file is used to set the parameters of the run.               *
#                                                                    *
#  Some notation/conventions:                                        *
#                                                                    *
#   Lines starting with a '# ' are info or comments                  *
#                                                                    *
#   mind the format:   value    = variable     ! comment             *
#*********************************************************************
#
#*******************                                                 
# Running parameters
#*******************                                                 
#                                                                    
#*********************************************************************
# Tag name for the run (one word)                                    *
#*********************************************************************
  tag_1     = run_tag ! name of the run 
#*********************************************************************
# Run to generate the grid pack                                      *
#*********************************************************************
  .false.     = gridpack  !True = setting up the grid pack
#*********************************************************************
# Number of events and rnd seed                                      *
# Warning: Do not generate more than 1M events in a single run       *
# If you want to run Pythia, avoid more than 50k events in a run.    *
#*********************************************************************
  2000 = nevents ! Number of unweighted events requested 
 2604 = iseed   ! rnd seed (0=assigned automatically=default))
#*********************************************************************
# Collider type and energy                                           *
# lpp: 0=No PDF, 1=proton, -1=antiproton, 2=photon from proton,      *
#                                         3=photon from electron     *
#*********************************************************************
        1     = lpp1    ! beam 1 type 
        1     = lpp2    ! beam 2 type
     4000     = ebeam1  ! beam 1 total energy in GeV
     4000     = ebeam2  ! beam 2 total energy in GeV
#*********************************************************************
# Beam polarization from -100 (left-handed) to 100 (right-handed)    *
#*********************************************************************
        0     = polbeam1 ! beam polarization for beam 1
        0     = polbeam2 ! beam polarization for beam 2
#*********************************************************************
# PDF CHOICE: this automatically fixes also alpha_s and its evol.    *
#*********************************************************************
 'nn23lo1'    = pdlabel     ! PDF set                                     
 230000    = lhaid     ! if pdlabel=lhapdf, this is the lhapdf number
#*********************************************************************
# Renormalization and factorization scales                           *
#*********************************************************************
 F        = fixed_ren_scale  ! if .true. use fixed ren scale
 F        = fixed_fac_scale  ! if .true. use fixed fac scale
 91.1880  = scale            ! fixed ren scale
 91.1880  = dsqrt_q2fact1    ! fixed fact scale for pdf1
 91.1880  = dsqrt_q2fact2    ! fixed fact scale for pdf2
 1        = scalefact        ! scale factor for event-by-event scales
#*********************************************************************
# Matching - Warning! ickkw > 1 is still beta
#*********************************************************************
 0        = ickkw            ! 0 no matching, 1 MLM, 2 CKKW matching
 1        = highestmult      ! for ickkw=2, highest mult group
 1        = ktscheme         ! for ickkw=1, 1 Durham kT, 2 Pythia pTE
 1        = alpsfact         ! scale factor for QCD emission vx
 F        = chcluster        ! cluster only according to channel diag
 T        = pdfwgt           ! for ickkw=1, perform pdf reweighting
 5        = asrwgtflavor     ! highest quark flavor for a_s reweight
 T        = clusinfo         ! include clustering tag in output
 3.0      = lhe_version       ! Change the way clustering information pass to shower.        
#*********************************************************************
#**********************************************************
#
#**********************************************************
# Automatic ptj and mjj cuts if xqcut > 0
# (turn off for VBF and single top processes)
#**********************************************************
   T  = auto_ptj_mjj  ! Automatic setting of ptj and mjj
#**********************************************************
#                                                                    
#**********************************
# BW cutoff (M+/-bwcutoff*Gamma)
#**********************************
  15  = bwcutoff      ! (M+/-bwcutoff*Gamma)
#**********************************************************
# Apply pt/E/eta/dr/mij cuts on decay products or not
# (note that etmiss/ptll/ptheavy/ht/sorted cuts always apply)
#**********************************************************
   T  = cut_decays    ! Cut decay products 
#*************************************************************
# Number of helicities to sum per event (0 = all helicities)
# 0 gives more stable result, but longer run time (needed for
# long decay chains e.g.).
# Use >=2 if most helicities contribute, e.g. pure QCD.
#*************************************************************
   0  = nhel          ! Number of helicities used per event
#*******************                                                 
# Standard Cuts
#*******************                                                 
#                                                                    
#*********************************************************************
# Minimum and maximum pt's (for max, -1 means no cut)                *
#*********************************************************************
 20  = ptj       ! minimum pt for the jets 
  0  = ptb       ! minimum pt for the b 
 10  = pta       ! minimum pt for the photons 
 10  = ptl       ! minimum pt for the charged leptons 
  0  = misset    ! minimum missing Et (sum of neutrino's momenta)
  0  = ptheavy   ! minimum pt for one heavy final state
 1.0 = ptonium   ! minimum pt for the quarkonium states
 -1  = ptjmax    ! maximum pt for the jets
 -1  = ptbmax    ! maximum pt for the b
 -1  = ptamax    ! maximum pt for the photons
 -1  = ptlmax    ! maximum pt for the charged leptons
 -1  = missetmax ! maximum missing Et (sum of neutrino's momenta)
#*********************************************************************
# Minimum and maximum E's (in the center of mass frame)              *
#*********************************************************************
  0  = ej     ! minimum E for the jets 
  0  = eb     ! minimum E for the b 
  0  = ea     ! minimum E for the photons 
  0  = el     ! minimum E for the charged leptons 
 -1   = ejmax ! maximum E for the jets
 -1   = ebmax ! maximum E for the b
 -1   = eamax ! maximum E for the photons
 -1   = elmax ! maximum E for the charged leptons
#*********************************************************************
# Maximum and minimum absolute rapidity (for max, -1 means no cut)   *
#*********************************************************************
   5  = etaj    ! max rap for the jets 
  -1  = etab    ! max rap for the b
 2.5  = etaa    ! max rap for the photons 
 2.5  = etal    ! max rap for the charged leptons 
 0.6  = etaonium ! max rap for the quarkonium states
   0  = etajmin ! min rap for the jets
   0  = etabmin ! min rap for the b
   0  = etaamin ! min rap for the photons
   0  = etalmin ! main rap for the charged leptons
#*********************************************************************
# Minimum and maximum DeltaR distance                                *
#*********************************************************************
 0.4 = drjj    ! min distance between jets 
 0   = drbb    ! min distance between b's 
 0.4 = drll    ! min distance between leptons 
 0.4 = draa    ! min distance between gammas 
 0   = drbj    ! min distance between b and jet 
 0.4 = draj    ! min distance between gamma and jet 
 0.4 = drjl    ! min distance between jet and lepton 
 0   = drab    ! min distance between gamma and b 
 0   = drbl    ! min distance between b and lepton 
 0.4 = dral    ! min distance between gamma and lepton 
 -1  = drjjmax ! max distance between jets
 -1  = drbbmax ! max distance between b's
 -1  = drllmax ! max distance between leptons
 -1  = draamax ! max distance between gammas
 -1  = drbjmax ! max distance between b and jet
 -1  = drajmax ! max distance between gamma and jet
 -1  = drjlmax ! max distance between jet and lepton
 -1  = drabmax ! max distance between gamma and b
 -1  = drblmax ! max distance between b and lepton
 -1  = dralmax ! maxdistance between gamma and lepton
#*********************************************************************
# Minimum and maximum invariant mass for pairs                       *
# WARNING: for four lepton final state mmll cut require to have      *
#          different lepton masses for each flavor!                  *           
#*********************************************************************
 0   = mmjj    ! min invariant mass of a jet pair 
 0   = mmbb    ! min invariant mass of a b pair 
 0   = mmaa    ! min invariant mass of gamma gamma pair
 0   = mmll    ! min invariant mass of l+l- (same flavour) lepton pair
 -1  = mmjjmax ! max invariant mass of a jet pair
 -1  = mmbbmax ! max invariant mass of a b pair
 -1  = mmaamax ! max invariant mass of gamma gamma pair
 -1  = mmllmax ! max invariant mass of l+l- (same flavour) lepton pair
#*********************************************************************
# Minimum and maximum invariant mass for all letpons                 *
#*********************************************************************
 0   = mmnl    ! min invariant mass for all letpons (l+- and vl) 
 -1  = mmnlmax ! max invariant mass for all letpons (l+- and vl) 
#*********************************************************************
# Minimum and maximum pt for 4-momenta sum of leptons                *
#*********************************************************************
 0   = ptllmin  ! Minimum pt for 4-momenta sum of leptons(l and vl)
 -1  = ptllmax  ! Maximum pt for 4-momenta sum of leptons(l and vl)
#*********************************************************************
# Inclusive cuts                                                     *
#*********************************************************************
 0  = xptj ! minimum pt for at least one jet  
 0  = xptb ! minimum pt for at least one b 
 0  = xpta ! minimum pt for at least one photon 
 0  = xptl ! minimum pt for at least one charged lepton 
#*********************************************************************
# Control the pt's of the jets sorted by pt                          *
#*********************************************************************
 0   = ptj1min ! minimum pt for the leading jet in pt
 0   = ptj2min ! minimum pt for the second jet in pt
 0   = ptj3min ! minimum pt for the third jet in pt
 0   = ptj4min ! minimum pt for the fourth jet in pt
 -1  = ptj1max ! maximum pt for the leading jet in pt 
 -1  = ptj2max ! maximum pt for the second jet in pt
 -1  = ptj3max ! maximum pt for the third jet in pt
 -1  = ptj4max ! maximum pt for the fourth jet in pt
 0   = cutuse  ! reject event if fails any (0) / all (1) jet pt cuts
#*********************************************************************
# Control the pt's of leptons sorted by pt                           *
#*********************************************************************
 0   = ptl1min ! minimum pt for the leading lepton in pt
 0   = ptl2min ! minimum pt for the second lepton in pt
 0   = ptl3min ! minimum pt for the third lepton in pt
 0   = ptl4min ! minimum pt for the fourth lepton in pt
 -1  = ptl1max ! maximum pt for the leading lepton in pt 
 -1  = ptl2max ! maximum pt for the second lepton in pt
 -1  = ptl3max ! maximum pt for the third lepton in pt
 -1  = ptl4max ! maximum pt for the fourth lepton in pt
#*********************************************************************
# Control the Ht(k)=Sum of k leading jets                            *
#*********************************************************************
 0   = htjmin ! minimum jet HT=Sum(jet pt)
 -1  = htjmax ! maximum jet HT=Sum(jet pt)
 0   = ihtmin  !inclusive Ht for all partons (including b)
 -1  = ihtmax  !inclusive Ht for all partons (including b)
 0   = ht2min ! minimum Ht for the two leading jets
 0   = ht3min ! minimum Ht for the three leading jets
 0   = ht4min ! minimum Ht for the four leading jets
 -1  = ht2max ! maximum Ht for the two leading jets
 -1  = ht3max ! maximum Ht for the three leading jets
 -1  = ht4max ! maximum Ht for the four leading jets
#***********************************************************************
# Photon-isolation cuts, according to hep-ph/9801442                   *
# When ptgmin=0, all the other parameters are ignored                  *
# When ptgmin>0, pta and draj are not going to be used                 *
#***********************************************************************
   0 = ptgmin ! Min photon transverse momentum
 0.4 = R0gamma ! Radius of isolation code
 1.0 = xn ! n parameter of eq.(3.4) in hep-ph/9801442
 1.0 = epsgamma ! epsilon_gamma parameter of eq.(3.4) in hep-ph/9801442
 .true. = isoEM ! isolate photons from EM energy (photons and leptons)
#*********************************************************************
# WBF cuts                                                           *
#*********************************************************************
 0   = xetamin ! minimum rapidity for two jets in the WBF case  
 0   = deltaeta ! minimum rapidity for two jets in the WBF case 
#*********************************************************************
# KT DURHAM CUT                                                      *
#*********************************************************************
 -1    =  ktdurham        
 0.4  =  dparameter 
#*********************************************************************
# maximal pdg code for quark to be considered as a light jet         *
# (otherwise b cuts are applied)                                     *
#*********************************************************************
 4 = maxjetflavor    ! Maximum jet pdg code
#*********************************************************************
# Jet measure cuts                                                   *
#*********************************************************************
 0   = xqcut   ! minimum kt jet measure between partons
#*********************************************************************
#
#*********************************************************************
# Store info for systematics studies                                 *
# WARNING: If use_syst is T, matched Pythia output is                *
#          meaningful ONLY if plotted taking matchscale              *
#          reweighting into account!                                 *
#*********************************************************************
   F  = use_syst      ! Enable systematics studies
#
#**************************************
# Parameter of the systematics study
#  will be used by SysCalc (if installed)
#**************************************                                  
#
0.5 1 2 = sys_scalefact  # factorization/renormalization scale factor
0.5 1 2 = sys_alpsfact  # \alpha_s emission scale factors
30 50 = sys_matchscale # variation of merging scale
# PDF sets and number of members (0 or none for all members).
CT10nlo.LHgrid = sys_pdf # matching scales
# MSTW2008nlo68cl.LHgrid 1  = sys_pdf
</MGRunCard>
<slha>
######################################################################
## PARAM_CARD AUTOMATICALY GENERATED BY MG5 FOLLOWING UFO MODEL   ####
######################################################################
##                                                                  ##
##  Width set on Auto will be computed following the information    ##
##        present in the decay.py files of the model.               ##
##        See  arXiv:1402.1178 for more details.                    ##
##                                                                  ##
######################################################################

###################################
## INFORMATION FOR CKMBLOCK
###################################
Block ckmblock 
    1 2.277360e-01 # cabi 

###################################
## INFORMATION FOR FRBLOCK
###################################
Block frblock 
    1 1.400000e+00 # gz 

###################################
## INFORMATION FOR MASS
###################################
Block mass 
    1 5.040000e-03 # MD 
    2 2.550000e-03 # MU 
    3 1.010000e-01 # MS 
    4 1.270000e+00 # MC 
    5 4.700000e+00 # MB 
    6 1.720000e+02 # MT 
   11 5.110000e-04 # Me 
   13 1.056600e-01 # MM 
   15 1.777000e+00 # MTA 
   23 9.118760e+01 # MZ 
   25 1.200000e+02 # MH 
  10030 2.300000e+03 # MZph 
  10031 3.000000e+02 # MZpl 
## Dependent parameters, given by model restrictions.
## Those values should be edited following the 
## analytical expression. MG5 ignores those values 
## but they are important for interfacing the output of MG5
## to external program such as Pythia.
  12 0.000000 # ve : 0.0 
  14 0.000000 # vm : 0.0 
  16 0.000000 # vt : 0.0 
  21 0.000000 # g : 0.0 
  22 0.000000 # a : 0.0 
  24 79.824360 # w+ : cmath.sqrt(MZ__exp__2/2. + cmath.sqrt(MZ__exp__4/4. - (aEW*cmath.pi*MZ__exp__2)/(Gf*sqrt__2))) 

###################################
## INFORMATION FOR SMINPUTS
###################################
Block sminputs 
    1 1.279000e+02 # aEWM1 
    2 1.166370e-05 # Gf 
    3 1.184000e-01 # aS 

###################################
## INFORMATION FOR YUKAWA
###################################
Block yukawa 
    1 5.040000e-03 # ymdo 
    2 2.550000e-03 # ymup 
    3 1.010000e-01 # yms 
    4 1.270000e+00 # ymc 
    5 4.700000e+00 # ymb 
    6 1.720000e+02 # ymt 
   11 5.110000e-04 # yme 
   13 1.056600e-01 # ymm 
   15 1.777000e+00 # ymtau 

###################################
## INFORMATION FOR DECAY
###################################
DECAY   6 1.508336e+00 # WT 
DECAY  23 2.495200e+00 # WZ 
DECAY  24 2.085000e+00 # WW 
DECAY  25 5.753088e-03 # WH 
## Dependent parameters, given by model restrictions.
## Those values should be edited following the 
## analytical expression. MG5 ignores those values 
## but they are important for interfacing the output of MG5
## to external program such as Pythia.
DECAY  1 0.000000 # d : 0.0 
DECAY  2 0.000000 # u : 0.0 
DECAY  3 0.000000 # s : 0.0 
DECAY  4 0.000000 # c : 0.0 
DECAY  5 0.000000 # b : 0.0 
DECAY  11 0.000000 # e- : 0.0 
DECAY  12 0.000000 # ve : 0.0 
DECAY  13 0.000000 # mu- : 0.0 
DECAY  14 0.000000 # vm : 0.0 
DECAY  15 0.000000 # ta- : 0.0 
DECAY  16 0.000000 # vt : 0.0 
DECAY  21 0.000000 # g : 0.0 
DECAY  22 0.000000 # a : 0.0 
DECAY  10030 0.308725 # zph : (gz__exp__2*MZph*(5 + cmath.sqrt(1 - (4*MT__exp__2)/MZph__exp__2)))/(144.*cmath.pi) 
DECAY  10031 0.132629 # zpl : (5*gz__exp__2*MZpl)/(144.*cmath.pi) 
#===========================================================
# QUANTUM NUMBERS OF NEW STATE(S) (NON SM PDG CODE)
#===========================================================

Block QNUMBERS 10030  # zph 
        1 0  # 3 times electric charge
        2 3  # number of spin states (2S+1)
        3 1  # colour rep (1: singlet, 3: triplet, 8: octet)
        4 0  # Particle/Antiparticle distinction (0=own anti)
Block QNUMBERS 10031  # zpl 
        1 0  # 3 times electric charge
        2 3  # number of spin states (2S+1)
        3 1  # colour rep (1: singlet, 3: triplet, 8: octet)
        4 0  # Particle/Antiparticle distinction (0=own anti)
</slha>
## END BANNER##
<MGGenerationInfo>
#  Number of Events        :         3946
#  Integrated weight (pb)  :  0.26092E-01
#  Max wgt                 :  0.96412E-05
#  Average wgt             :  0.66123E-05
</MGGenerationInfo>
</header>
<init>
     2212     2212  0.40000000000E+04  0.40000000000E+04 0 0  247000  247000 2   1
  0.26108991322E-01  0.71389459140E-04  0.96411570000E-05   0
</init>
<event>
 5   0  0.9313463E-05  0.2317120E+04  0.7818609E-02  0.8471201E-01
       -2   -1    0    0    0  501  0.00000000000E+00  0.00000000000E+00  0.78754698284E+03  0.78754698285E+03  0.25500000920E-02 0. -1.
        2   -1    0    0  501    0  0.00000000000E+00  0.00000000000E+00 -0.17043570354E+04  0.17043570354E+04  0.25500000920E-02 0.  1.
    10030    2    1    2    0    0  0.00000000000E+00  0.00000000000E+00 -0.91681005252E+03  0.24919040182E+04  0.23171199718E+04 0.  0.
        1    1    3    3  502    0 -0.21324746120E+03 -0.80124672459E+03  0.41182478632E+03  0.92578099355E+03  0.50400001928E-02 0. -1.
       -1    1    3    3    0  502  0.21324746120E+03  0.80124672459E+03 -0.13286348388E+04  0.15661230247E+04  0.50400001928E-02 0.  1.
</event>
<event>
 5   0  0.9313463E-05  0.2292836E+04  0.7818609E-02  0.8480751E-01
       -2   -1    0    0    0  501  0.00000000000E+00  0.00000000000E+00  0.85913689764E+03  0.85913689765E+03  0.25500000920E-02 0.  1.
        2   -1    0    0  501    0  0.00000000000E+00  0.00000000000E+00 -0.15297609352E+04  0.15297609352E+04  0.25500000920E-02 0. -1.
    10030    2    1    2    0    0  0.00000000000E+00  0.00000000000E+00 -0.67062403758E+03  0.23888978329E+04  0.22928358546E+04 0.  0.
        1    1    3    3  502    0 -0.38074213120E+03  0.82398467035E+03 -0.10649065660E+04  0.13992645575E+04  0.50400001928E-02 0.  1.
       -1    1    3    3    0  502  0.38074213120E+03 -0.82398467035E+03  0.39428252847E+03  0.98963327537E+03  0.50400001928E-02 0. -1.
</event>
<event>
 5   0  0.9641157E-05  0.2306141E+04  0.7818609E-02  0.8475504E-01
       -2   -1    0    0    0  501  0.00000000000E+00  0.00000000000E+00  0.86502225811E+03  0.86502225811E+03  0.25500000920E-02 0. -1.
        2   -1    0    0  501    0  0.00000000000E+00  0.00000000000E+00 -0.15370378583E+04  0.15370378583E+04  0.25500000920E-02 0.  1.
    10030    2    1    2    0    0  0.00000000000E+00  0.00000000000E+00 -0.67201560018E+03  0.24020601164E+04  0.23061413304E+04 0.  0.
        3    1    3    3  502    0 -0.29785218216E+03  0.35870632270E+03 -0.14344738178E+04  0.15083438907E+04  0.10100000352E+00 0.  1.
       -3    1    3    3    0  502  0.29785218216E+03 -0.35870632270E+03  0.76245821761E+03  0.89371622574E+03  0.10100000352E+00 0. -1.
</event>
<event>
 5   0  0.9313463E-05  0.2329792E+04  0.7818609E-02  0.8466266E-01
       -2   -1    0    0    0  501  0.00000000000E+00  0.00000000000E+00  0.45807812154E+03  0.45807812155E+03  0.25500000920E-02 0.  1.
        2   -1    0    0  501    0  0.00000000000E+00  0.00000000000E+00 -0.29623393265E+04  0.29623393265E+04  0.25500000920E-02 0. -1.
    10030    2    1    2    0    0  0.00000000000E+00  0.00000000000E+00 -0.25042612049E+04  0.34204174480E+04  0.23297921230E+04 0.  0.
        1    1    3    3  502    0 -0.16056450551E+03  0.66231955245E+02  0.43896110510E+03  0.47207465950E+03  0.50400001928E-02 0.  1.
       -1    1    3    3    0  502  0.16056450551E+03 -0.66231955245E+02 -0.29432223100E+04  0.29483427885E+04  0.50400001928E-02 0. -1.
</event>
<event>
 5   0  0.9641157E-05  0.2295897E+04  0.7818609E-02  0.8479541E-01
        2   -1    0    0  501    0  0.00000000000E+00  0.00000000000E+00  0.15338692057E+04  0.15338692057E+04  0.25500000920E-02 0.  1.
       -2   -1    0    0    0  501  0.00000000000E+00  0.00000000000E+00 -0.85912519077E+03  0.85912519077E+03  0.25500000920E-02 0. -1.
    10030    2    1    2    0    0  0.00000000000E+00  0.00000000000E+00  0.67474401490E+03  0.23929943964E+04  0.22958969262E+04 0.  0.
        3    1    3    3  502    0  0.34173870889E+03  0.72841862146E+03  0.11907834184E+04  0.14371305414E+04  0.10100000352E+00 0.  1.
       -3    1    3    3    0  502 -0.34173870889E+03 -0.72841862146E+03 -0.51603940350E+03  0.95586385506E+03  0.10100000352E+00 0. -1.
</event>
<event>
 5   0  0.4139830E-05  0.2321970E+04  0.7818609E-02  0.8469309E-01
       -1   -1    0    0    0  501  0.00000000000E+00  0.00000000000E+00  0.91914410689E+03  0.91914410690E+03  0.50400001928E-02 0.  1.
        1   -1    0    0  501    0  0.00000000000E+00  0.00000000000E+00 -0.14664584656E+04  0.14664584656E+04  0.50400001928E-02 0. -1.
    10030    2    1    2    0    0  0.00000000000E+00  0.00000000000E+00 -0.54731435867E+03  0.23856025725E+04  0.23219704190E+04 0.  0.
        1    1    3    3  502    0 -0.77952146617E+03 -0.81669243588E+03  0.44002929108E+01  0.11290082434E+04  0.50400001928E-02 0.  1.
       -1    1    3    3    0  502  0.77952146617E+03  0.81669243588E+03 -0.55171465158E+03  0.12565943291E+04  0.50400001928E-02 0. -1.
</event>
<event>
 5   0  0.4095451E-05  0.2304234E+04  0.7818609E-02  0.8476254E-01
        1   -1    0    0  501    0  0.00000000000E+00  0.00000000000E+00  0.15132592779E+04  0.15132592779E+04  0.50400001928E-02 0. -1.
       -1   -1    0    0    0  501  0.00000000000E+00  0.00000000000E+00 -0.87716184128E+03  0.87716184130E+03  0.50400001928E-02 0.  1.
    10030    2    1    2    0    0  0.00000000000E+00  0.00000000000E+00  0.63609743660E+03  0.23904211192E+04  0.23042337508E+04 0.  0.
        3    1    3    3  502    0 -0.37931084785E+03 -0.60331654537E+03 -0.62107730657E+03  0.94530661912E+03  0.10100000352E+00 0.  1.
       -3    1    3    3    0  502  0.37931084785E+03  0.60331654537E+03  0.12571747432E+04  0.14451145001E+04  0.10100000352E+00 0. -1.
</event>
<event>
 5   0  0.9313463E-05  0.2303357E+04  0.7818609E-02  0.8476599E-01
       -2   -1    0    0    0  501  0.00000000000E+00  0.00000000000E+00  0.10503098587E+04  0.10503098587E+04  0.25500000920E-02 0. -1.
        2   -1    0    0  501    0  0.00000000000E+00  0.00000000000E+00 -0.12628303354E+04  0.12628303354E+04  0.25500000920E-02 0.  1.
    10030    2    1    2    0    0  0.00000000000E+00  0.00000000000E+00 -0.21252047670E+03  0.23131401941E+04  0.23033568123E+04 0.  0.
        1    1    3    3  502    0  0.64931211041E+03 -0.18666682480E+03  0.83039227760E+03  0.10705148551E+04  0.50400001928E-02 0. -1.
       -1    1    3    3    0  502 -0.64931211041E+03  0.18666682480E+03 -0.10429127543E+04  0.12426253391E+04  0.50400001928E-02 0.  1.
</event>
<event>
 5   0  0.3885219E-05  0.2353474E+04  0.7818609E-02  0.8457130E-01
        1   -1    0    0  501    0  0.00000000000E+00  0.00000000000E+00  0.14160194240E+04  0.14160194240E+04  0.50400001928E-02 0. -1.
       -1   -1    0    0    0  501  0.00000000000E+00  0.00000000000E+00 -0.97788915544E+03  0.97788915545E+03  0.50400001928E-02 0.  1.
    10030    2    1    2    0    0  0.00000000000E+00  0.00000000000E+00  0.43813026854E+03  0.23939085794E+04  0.23534740607E+04 0.  0.
        2    1    3    3  502    0 -0.22872408305E+03  0.54860481593E+03  0.12521062861E+04  0.13860202387E+04  0.25500000920E-02 0. -1.
       -2    1    3    3    0  502  0.22872408305E+03 -0.54860481593E+03 -0.81397601760E+03  0.10078883408E+04  0.25500000920E-02 0.  1.
</event>
<event>
 5   0  0.9313463E-05  0.1889368E+04  0.7818609E-02  0.8660167E-01
       -2   -1    0    0    0  501  0.00000000000E+00  0.00000000000E+00  0.30664395230E+03  0.30664395231E+03  0.25500000920E-02 0. -1.
        2   -1    0    0  501    0  0.00000000000E+00  0.00000000000E+00 -0.29103057034E+04  0.29103057034E+04  0.25500000920E-02 0.  1.
    10030    2    1    2    0    0  0.00000000000E+00  0.00000000000E+00 -0.26036617511E+04  0.32169496557E+04  0.18893677707E+04 0.  0.
        1    1    3    3  502    0 -0.84691249189E+03 -0.28038977396E+03 -0.18308853750E+04  0.20366689595E+04  0.50400001928E-02 0.  1.
       -1    1    3    3    0  502  0.84691249189E+03  0.28038977396E+03 -0.77277637607E+03  0.11802806961E+04  0.50400001928E-02 0. -1.
</event>
<event>
 5   0  0.3885219E-05  0.2295328E+04  0.7818609E-02  0.8479766E-01
        1   -1    0    0  501    0  0.00000000000E+00  0.00000000000E+00  0.13950818898E+04  0.13950818898E+04  0.50400001928E-02 0.  1.
       -1   -1    0    0    0  501  0.00000000000E+00  0.00000000000E+00 -0.94412538076E+03  0.94412538078E+03  0.50400001928E-02 0. -1.
    10030    2    1    2    0    0  0.00000000000E+00  0.00000000000E+00  0.45095650904E+03  0.23392072706E+04  0.22953276197E+04 0.  0.
        2    1    3    3  502    0  0.23828646064E+03  0.36242648804E+03  0.13083344042E+04  0.13783585563E+04  0.25500000920E-02 0.  1.
       -2    1    3    3    0  502 -0.23828646064E+03 -0.36242648804E+03 -0.85737789517E+03  0.96084871426E+03  0.25500000920E-02 0. -1.
</event>
<event>
 5   0  0.9483073E-05  0.2274567E+04  0.7818609E-02  0.8488017E-01
       -2   -1    0    0    0  501  0.00000000000E+00  0.00000000000E+00  0.73959775606E+03  0.73959775607E+03  0.25500000920E-02 0. -1.
        2   -1    0    0  501    0  0.00000000000E+00  0.00000000000E+00 -0.17488068492E+04  0.17488068492E+04  0.25500000920E-02 0.  1.
    10030    2    1    2    0    0  0.00000000000E+00  0.00000000000E+00 -0.10092090931E+04  0.24884046053E+04  0.22745668787E+04 0.  0.
        5    1    3    3  502    0 -0.28934550637E+03  0.58195911381E+03  0.51640532682E+03  0.83011672900E+03  0.46999998093E+01 0.  1.
       -5    1    3    3    0  502  0.28934550637E+03 -0.58195911381E+03 -0.15256144199E+04  0.16582878763E+04  0.46999998093E+01 0. -1.
</event>
<event>
 5   0  0.4295775E-05  0.2288287E+04  0.7818609E-02  0.8482554E-01
        1   -1    0    0  501    0  0.00000000000E+00  0.00000000000E+00  0.15420346712E+04  0.15420346712E+04  0.50400001928E-02 0. -1.
       -1   -1    0    0    0  501  0.00000000000E+00  0.00000000000E+00 -0.84892012332E+03  0.84892012334E+03  0.50400001928E-02 0.  1.
    10030    2    1    2    0    0  0.00000000000E+00  0.00000000000E+00  0.69311454791E+03  0.23909547946E+04  0.22882869255E+04 0.  0.
        5    1    3    3  502    0 -0.53161066660E+03 -0.24539454455E+03  0.13736212616E+04  0.14932132612E+04  0.46999998093E+01 0. -1.
       -5    1    3    3    0  502  0.53161066660E+03  0.24539454455E+03 -0.68050671366E+03  0.89774153333E+03  0.46999998093E+01 0.  1.
</event>
<event>
 5   0  0.4139830E-05  0.2274105E+04  0.7818609E-02  0.8488202E-01
       -1   -1    0    0    0  501  0.00000000000E+00  0.00000000000E+00  0.68326599080E+03  0.68326599081E+03  0.50400001928E-02 0.  1.
        1   -1    0    0  501    0  0.00000000000E+00  0.00000000000E+00 -0.18922183429E+04  0.18922183429E+04  0.50400001928E-02 0. -1.
    10030    2    1    2    0    0  0.00000000000E+00  0.00000000000E+00 -0.12089523521E+04  0.25754843337E+04  0.22741050467E+04 0.  0.
        1    1    3    3  502    0  0.54380256477E+02  0.88076296369E+03  0.20762340666E+03  0.90653631451E+03  0.50400001928E-02 0.  1.
       -1    1    3    3    0  502 -0.54380256477E+02 -0.88076296369E+03 -0.14165757588E+04  0.16689480192E+04  0.50400001928E-02 0. -1.
</event>
<event>
 5   0  0.4095451E-05  0.2252646E+04  0.7818609E-02  0.8496830E-01
       -1   -1    0    0    0  501  0.00000000000E+00  0.00000000000E+00  0.16548547548E+04  0.16548547548E+04  0.50400001928E-02 0.  1.
        1   -1    0    0  501    0  0.00000000000E+00  0.00000000000E+00 -0.76659524381E+03  0.76659524383E+03  0.50400001928E-02 0. -1.
    10030    2    1    2    0    0  0.00000000000E+00  0.00000000000E+00  0.88825951101E+03  0.24214499987E+04  0.22526462521E+04 0.  0.
        3    1    3    3  502    0  0.21641320962E+03 -0.87019464188E+02 -0.74034834191E+03  0.77622338410E+03  0.10100000352E+00 0. -1.
       -3    1    3    3    0  502 -0.21641320962E+03  0.87019464188E+02  0.16286078529E+04  0.16452266146E+04  0.10100000352E+00 0.  1.
</event>
<event>
 5   0  0.4095451E-05  0.2373145E+04  0.7818609E-02  0.8449627E-01
       -1   -1    0    0    0  501  0.00000000000E+00  0.00000000000E+00  0.97935779542E+03  0.97935779543E+03  0.50400001928E-02 0.  1.
        1   -1    0    0  501    0  0.00000000000E+00  0.00000000000E+00 -0.14376301045E+04  0.14376301045E+04  0.50400001928E-02 0. -1.
    10030    2    1    2    0    0  0.00000000000E+00  0.00000000000E+00 -0.45827230905E+03  0.24169878999E+04  0.23731449596E+04 0.  0.
        3    1    3    3  502    0  0.47656892966E+03  0.15111477949E+03 -0.13251211403E+04  0.14162978741E+04  0.10100000352E+00 0. -1.
       -3    1    3    3    0  502 -0.47656892966E+03 -0.15111477949E+03  0.86684883130E+03  0.10006900258E+04  0.10100000352E+00 0.  1.
</event>
<event>
 5   0  0.9313463E-05  0.2313861E+04  0.7818609E-02  0.8472476E-01
        2   -1    0    0  501    0  0.00000000000E+00  0.00000000000E+00  0.14817082016E+04  0.14817082016E+04  0.25500000920E-02 0.  1.
       -2   -1    0    0    0  501  0.00000000000E+00  0.00000000000E+00 -0.90334121767E+03  0.90334121767E+03  0.25500000920E-02 0. -1.
    10030    2    1    2    0    0  0.00000000000E+00  0.00000000000E+00  0.57836698393E+03  0.23850494193E+04  0.23138609215E+04 0.  0.
        1    1    3    3  502    0 -0.36081095436E+03 -0.83251639785E+03  0.10290553092E+04  0.13719412986E+04  0.50400001928E-02 0.  1.
       -1    1    3    3    0  502  0.36081095436E+03  0.83251639785E+03 -0.45068832530E+03  0.10131081206E+04  0.50400001928E-02 0. -1.
</event>
<event>
 5   0  0.4005462E-05  0.2234530E+04  0.7818609E-02  0.8504192E-01
        1   -1    0    0  501    0  0.00000000000E+00  0.00000000000E+00  0.12831493190E+04  0.12831493190E+04  0.50400001928E-02 0. -1.
       -1   -1    0    0    0  501  0.00000000000E+00  0.00000000000E+00 -0.97282602241E+03  0.97282602242E+03  0.50400001928E-02 0.  1.
    10030    2    1    2    0    0  0.00000000000E+00  0.00000000000E+00  0.31032329654E+03  0.22559753414E+04  0.22345299713E+04 0.  0.
        4    1    3    3  502    0 -0.12928690891E+03 -0.54560147103E+03  0.11308126258E+04  0.12621944690E+04  0.12699999809E+01 0. -1.
       -4    1    3    3    0  502  0.12928690891E+03  0.54560147103E+03 -0.82048932925E+03  0.99378087239E+03  0.12699999809E+01 0.  1.
</event>
<event>
 5   0  0.4139830E-05  0.2361888E+04  0.7818609E-02  0.8453912E-01
       -1   -1    0    0    0  501  0.00000000000E+00  0.00000000000E+00  0.10384520574E+04  0.10384520574E+04  0.50400001928E-02 0.  1.
        1   -1    0    0  501    0  0.00000000000E+00  0.00000000000E+00 -0.13429879498E+04  0.13429879498E+04  0.50400001928E-02 0. -1.
    10030    2    1    2    0    0  0.00000000000E+00  0.00000000000E+00 -0.30453589243E+03  0.23814400073E+04  0.23618878886E+04 0.  0.
        1    1    3    3  502    0  0.82781928190E+03  0.43309133060E+03 -0.88058806287E+03  0.12838567680E+04  0.50400001928E-02 0. -1.
       -1    1    3    3    0  502 -0.82781928190E+03 -0.43309133060E+03  0.57605217043E+03  0.10975832393E+04  0.50400001928E-02 0.  1.
</event>
<event>
 5   0  0.9535394E-05  0.2308885E+04  0.7818609E-02  0.8474426E-01
        2   -1    0    0  501    0  0.00000000000E+00  0.00000000000E+00  0.84468092550E+03  0.84468092550E+03  0.25500000920E-02 0. -1.
       -2   -1    0    0    0  501  0.00000000000E+00  0.00000000000E+00 -0.15777996329E+04  0.15777996329E+04  0.25500000920E-02 0.  1.
    10030    2    1    2    0    0  0.00000000000E+00  0.00000000000E+00 -0.73311870737E+03  0.24224805584E+04  0.23088847993E+04 0.  0.
        2    1    3    3  502    0  0.30821264380E+03  0.10820431272E+04 -0.63798562001E+03  0.12933823929E+04  0.25500000920E-02 0.  1.
       -2    1    3    3    0  502 -0.30821264380E+03 -0.10820431272E+04 -0.95133087358E+02  0.11290981655E+04  0.25500000920E-02 0. -1.
</event>
<event>
 5   0  0.4095451E-05  0.2287049E+04  0.7818609E-02  0.8483045E-01
       -1   -1    0    0    0  501  0.00000000000E+00  0.00000000000E+00  0.88952467616E+03  0.88952467618E+03  0.50400001928E-02 0. -1.
        1   -1    0    0  501    0  0.00000000000E+00  0.00000000000E+00 -0.14700531734E+04  0.14700531734E+04  0.50400001928E-02 0.  1.
    10030    2    1    2    0    0  0.00000000000E+00  0.00000000000E+00 -0.58052849722E+03  0.23595778496E+04  0.22870492544E+04 0.  0.
        3    1    3    3  502    0  0.11421280929E+03  0.11370319747E+04 -0.24695337762E+03  0.11691331226E+04  0.10100000352E+00 0.  1.
       -3    1    3    3    0  502 -0.11421280929E+03 -0.11370319747E+04 -0.33357511961E+03  0.11904447270E+04  0.10100000352E+00 0. -1.
</event>
<event>
 5   0  0.9641157E-05  0.2462383E+04  0.7818609E-02  0.8416511E-01
       -2   -1    0    0    0  501  0.00000000000E+00  0.00000000000E+00  0.72588802925E+03  0.72588802925E+03  0.25500000920E-02 0. -1.
        2   -1    0    0  501    0  0.00000000000E+00  0.00000000000E+00 -0.20882454482E+04  0.20882454482E+04  0.25500000920E-02 0.  1.
    10030    2    1    2    0    0  0.00000000000E+00  0.00000000000E+00 -0.13623574189E+04  0.28141334774E+04  0.24623828890E+04 0.  0.
        3    1    3    3  502    0 -0.11895828088E+04 -0.30729958776E+03 -0.59052495846E+03  0.13631801174E+04  0.10100000352E+00 0.  1.
       -3    1    3    3    0  502  0.11895828088E+04  0.30729958776E+03 -0.77183246048E+03  0.14509533600E+04  0.10100000352E+00 0. -1.
</event>
<event>
 5   0  0.4139830E-05  0.2314282E+04  0.7818609E-02  0.8472311E-01
       -1   -1    0    0    0  501  0.00000000000E+00  0.00000000000E+00  0.15768918593E+04  0.15768918593E+04  0.50400001928E-02 0. -1.
        1   -1    0    0  501    0  0.00000000000E+00  0.00000000000E+00 -0.84912282888E+03  0.84912282889E+03  0.50400001928E-02 0.  1.
    10030    2    1    2    0    0  0.00000000000E+00  0.00000000000E+00  0.72776903038E+03  0.24260146882E+04  0.23142816392E+04 0.  0.
        1    1    3    3  502    0 -0.19681879071E+02  0.66220608486E+03 -0.63064002622E+03  0.91466448378E+03  0.50400001928E-02 0.  1.
       -1    1    3    3    0  502  0.19681879071E+02 -0.66220608486E+03  0.13584090566E+04  0.15113502044E+04  0.50400001928E-02 0. -1.
</event>
<event>
 5   0  0.9535394E-05  0.2190578E+04  0.7818609E-02  0.8522360E-01
        2   -1    0    0  501    0  0.00000000000E+00  0.00000000000E+00  0.10208325066E+04  0.10208325066E+04  0.25500000920E-02 0.  1.
       -2   -1    0    0    0  501  0.00000000000E+00  0.00000000000E+00 -0.11751763553E+04  0.11751763553E+04  0.25500000920E-02 0. -1.
    10030    2    1    2    0    0  0.00000000000E+00  0.00000000000E+00 -0.15434384876E+03  0.21960088619E+04  0.21905782108E+04 0.  0.
        2    1    3    3  502    0  0.36085590514E+03  0.52116764312E+03 -0.97259707565E+03  0.11609383136E+04  0.25500000920E-02 0. -1.
       -2    1    3    3    0  502 -0.36085590514E+03 -0.52116764312E+03  0.81825322689E+03  0.10350705482E+04  0.25500000920E-02 0.  1.
</event>
<event>
 5   0  0.3885219E-05  0.2226225E+04  0.7818609E-02  0.8507591E-01
       -1   -1    0    0    0  501  0.00000000000E+00  0.00000000000E+00  0.10727591821E+04  0.10727591821E+04  0.50400001928E-02 0.  1.
        1   -1    0    0  501    0  0.00000000000E+00  0.00000000000E+00 -0.11549836689E+04  0.11549836689E+04  0.50400001928E-02 0. -1.
    10030    2    1    2    0    0  0.00000000000E+00  0.00000000000E+00 -0.82224486780E+02  0.22277428510E+04  0.22262249087E+04 0.  0.
        2    1    3    3  502    0 -0.77531366672E+03 -0.56086716894E+03  0.52790195157E+03  0.10928694952E+04  0.25500000920E-02 0.  1.
       -2    1    3    3    0  502  0.77531366672E+03  0.56086716894E+03 -0.61012643835E+03  0.11348733558E+04  0.25500000920E-02 0. -1.
</event>
<event>
 5   0  0.9641157E-05  0.2274012E+04  0.7818609E-02  0.8488239E-01
       -2   -1    0    0    0  501  0.00000000000E+00  0.00000000000E+00  0.11398953546E+04  0.11398953546E+04  0.25500000920E-02 0. -1.
        2   -1    0    0  501    0  0.00000000000E+00  0.00000000000E+00 -0.11341236795E+04  0.11341236795E+04  0.25500000920E-02 0.  1.
    10030    2    1    2    0    0  0.00000000000E+00  0.00000000000E+00  0.57716750316E+01  0.22740190341E+04  0.22740117096E+04 0.  0.
        3    1    3    3  502    0 -0.10720149390E+04  0.97992707602E+02  0.36889754017E+03  0.11379384893E+04  0.10100000352E+00 0. -1.
       -3    1    3    3    0  502  0.10720149390E+04 -0.97992707602E+02 -0.36312586514E+03  0.11360805448E+04  0.10100000352E+00 0.  1.
</event>
<event>
 5   0  0.9483073E-05  0.2285387E+04  0.7818609E-02  0.8483705E-01
       -2   -1    0    0    0  501  0.00000000000E+00  0.00000000000E+00  0.54747695622E+03  0.54747695623E+03  0.25500000920E-02 0.  1.
        2   -1    0    0  501    0  0.00000000000E+00  0.00000000000E+00 -0.23850292462E+04  0.23850292462E+04  0.25500000920E-02 0. -1.
    10030    2    1    2    0    0  0.00000000000E+00  0.00000000000E+00 -0.18375522900E+04  0.29325062024E+04  0.22853871026E+04 0.  0.
        5    1    3    3  502    0 -0.11420815330E+03  0.58084564983E+03  0.33537347105E+03  0.68038417551E+03  0.46999998093E+01 0.  1.
       -5    1    3    3    0  502  0.11420815330E+03 -0.58084564983E+03 -0.21729257610E+04  0.22521220269E+04  0.46999998093E+01 0. -1.
</event>
<event>
 5   0  0.3885219E-05  0.2047691E+04  0.7818609E-02  0.8584643E-01
        1   -1    0    0  501    0  0.00000000000E+00  0.00000000000E+00  0.10005094291E+04  0.10005094291E+04  0.50400001928E-02 0. -1.
       -1   -1    0    0    0  501  0.00000000000E+00  0.00000000000E+00 -0.10477253948E+04  0.10477253948E+04  0.50400001928E-02 0.  1.
    10030    2    1    2    0    0  0.00000000000E+00  0.00000000000E+00 -0.47215965722E+02  0.20482348239E+04  0.20476905398E+04 0.  0.
        2    1    3    3  502    0 -0.99000591748E+03 -0.11799143414E+03 -0.25653344727E+03  0.10294868162E+04  0.25500000920E-02 0.  1.
       -2    1    3    3    0  502  0.99000591748E+03  0.11799143414E+03  0.20931748154E+03  0.10187480077E+04  0.25500000920E-02 0. -1.
</event>
<event>
 5   0  0.9641157E-05  0.2403853E+04  0.7818609E-02  0.8438062E-01
        2   -1    0    0  501    0  0.00000000000E+00  0.00000000000E+00  0.14158213439E+04  0.14158213439E+04  0.25500000920E-02 0. -1.
       -2   -1    0    0    0  501  0.00000000000E+00  0.00000000000E+00 -0.10203460527E+04  0.10203460527E+04  0.25500000920E-02 0.  1.
    10030    2    1    2    0    0  0.00000000000E+00  0.00000000000E+00  0.39547529116E+03  0.24361673966E+04  0.24038533397E+04 0.  0.
        3    1    3    3  502    0 -0.37125944229E+03 -0.96527855706E+03 -0.42289269029E+03  0.11173336583E+04  0.10100000352E+00 0.  1.
       -3    1    3    3    0  502  0.37125944229E+03  0.96527855706E+03  0.81836798145E+03  0.13188337384E+04  0.10100000352E+00 0. -1.
</event>
<event>
 5   0  0.9313463E-05  0.1880682E+04  0.7818609E-02  0.8664533E-01
        2   -1    0    0  501    0  0.00000000000E+00  0.00000000000E+00  0.74485882347E+03  0.74485882347E+03  0.25500000920E-02 0.  1.
       -2   -1    0    0    0  501  0.00000000000E+00  0.00000000000E+00 -0.11871254932E+04  0.11871254932E+04  0.25500000920E-02 0. -1.
    10030    2    1    2    0    0  0.00000000000E+00  0.00000000000E+00 -0.44226666971E+03  0.19319843167E+04  0.18806816830E+04 0.  0.
        1    1    3    3  502    0 -0.36506244005E+03  0.69705973301E+03  0.30776862775E+03  0.84491679162E+03  0.50400001928E-02 0.  1.
       -1    1    3    3    0  502  0.36506244005E+03 -0.69705973301E+03 -0.75003529746E+03  0.10870675250E+04  0.50400001928E-02 0. -1.
</event>
<event>
 5   0  0.4295775E-05  0.2336681E+04  0.7818609E-02  0.8463597E-01
        1   -1    0    0  501    0  0.00000000000E+00  0.00000000000E+00  0.22884072136E+04  0.22884072136E+04  0.50400001928E-02 0. -1.
       -1   -1    0    0    0  501  0.00000000000E+00  0.00000000000E+00 -0.59649348211E+03  0.59649348213E+03  0.50400001928E-02 0.  1.
    10030    2    1    2    0    0  0.00000000000E+00  0.00000000000E+00  0.16919137315E+04  0.28849006958E+04  0.23366813967E+04 0.  0.
        5    1    3    3  502    0 -0.96985154643E+03  0.14565953981E+03  0.16298827901E+04  0.19022010207E+04  0.46999998093E+01 0. -1.
       -5    1    3    3    0  502  0.96985154643E+03 -0.14565953981E+03  0.62030941383E+02  0.98269967505E+03  0.46999998093E+01 0.  1.
</event>
<event>
 5   0  0.9641157E-05  0.2281016E+04  0.7818609E-02  0.8485444E-01
        2   -1    0    0  501    0  0.00000000000E+00  0.00000000000E+00  0.21356255505E+04  0.21356255505E+04  0.25500000920E-02 0. -1.
       -2   -1    0    0    0  501  0.00000000000E+00  0.00000000000E+00 -0.60907594073E+03  0.60907594074E+03  0.25500000920E-02 0.  1.
    10030    2    1    2    0    0  0.00000000000E+00  0.00000000000E+00  0.15265496098E+04  0.27447014913E+04  0.22810156872E+04 0.  0.
        3    1    3    3  502    0  0.62089736924E+03  0.94960646803E+03  0.90304266855E+03  0.14500869142E+04  0.10100000352E+00 0. -1.
       -3    1    3    3    0  502 -0.62089736924E+03 -0.94960646803E+03  0.62350694126E+03  0.12946145771E+04  0.10100000352E+00 0.  1.
</event>
<event>
 5   0  0.4005462E-05  0.1881602E+04  0.7818609E-02  0.8664069E-01
        1   -1    0    0  501    0  0.00000000000E+00  0.00000000000E+00  0.62395651387E+03  0.62395651389E+03  0.50400001928E-02 0.  1.
       -1   -1    0    0    0  501  0.00000000000E+00  0.00000000000E+00 -0.14185393264E+04  0.14185393264E+04  0.50400001928E-02 0. -1.
    10030    2    1    2    0    0  0.00000000000E+00  0.00000000000E+00 -0.79458281254E+03  0.20424958403E+04  0.18816023522E+04 0.  0.
        4    1    3    3  502    0 -0.43041861330E+03 -0.16666267532E+03  0.49260640615E+03  0.67505504538E+03  0.12699999809E+01 0.  1.
       -4    1    3    3    0  502  0.43041861330E+03  0.16666267532E+03 -0.12871892187E+04  0.13674407949E+04  0.12699999809E+01 0. -1.
</event>
<event>
 5   0  0.4139830E-05  0.2314291E+04  0.7818609E-02  0.8472308E-01
       -1   -1    0    0    0  501  0.00000000000E+00  0.00000000000E+00  0.81602379692E+03  0.81602379694E+03  0.50400001928E-02 0. -1.
        1   -1    0    0  501    0  0.00000000000E+00  0.00000000000E+00 -0.16408655351E+04  0.16408655351E+04  0.50400001928E-02 0.  1.
    10030    2    1    2    0    0  0.00000000000E+00  0.00000000000E+00 -0.82484173818E+03  0.24568893320E+04  0.23142906682E+04 0.  0.
        1    1    3    3  502    0  0.31784546523E+03  0.22431409118E+03 -0.15693602536E+04  0.16168593498E+04  0.50400001928E-02 0.  1.
       -1    1    3    3    0  502 -0.31784546523E+03 -0.22431409118E+03  0.74451851544E+03  0.84002998228E+03  0.50400001928E-02 0. -1.
</event>
<event>
 5   0  0.4095451E-05  0.2266254E+04  0.7818609E-02  0.8491347E-01
        1   -1    0    0  501    0  0.00000000000E+00  0.00000000000E+00  0.13156300016E+04  0.13156300016E+04  0.50400001928E-02 0.  1.
       -1   -1    0    0    0  501  0.00000000000E+00  0.00000000000E+00 -0.97594031638E+03  0.97594031640E+03  0.50400001928E-02 0. -1.
    10030    2    1    2    0    0  0.00000000000E+00  0.00000000000E+00  0.33968968522E+03  0.22915703180E+04  0.22662536134E+04 0.  0.
        3    1    3    3  502    0 -0.35399027451E+03  0.10661114795E+03  0.12529320376E+04  0.13063360029E+04  0.10100000352E+00 0.  1.
       -3    1    3    3    0  502  0.35399027451E+03 -0.10661114795E+03 -0.91324235240E+03  0.98523431514E+03  0.10100000352E+00 0. -1.
</event>
<event>
 5   0  0.9312074E-05  0.2254073E+04  0.7818609E-02  0.8496253E-01
       -2   -1    0    0    0  501  0.00000000000E+00  0.00000000000E+00  0.72317394822E+03  0.72317394822E+03  0.25500000920E-02 0. -1.
        2   -1    0    0  501    0  0.00000000000E+00  0.00000000000E+00 -0.17564396636E+04  0.17564396636E+04  0.25500000920E-02 0.  1.
    10030    2    1    2    0    0  0.00000000000E+00  0.00000000000E+00 -0.10332657154E+04  0.24796136118E+04  0.22540731189E+04 0.  0.
        4    1    3    3  502    0  0.74984706266E+03  0.16844390212E+03  0.39020945952E+03  0.86192169060E+03  0.12699999809E+01 0. -1.
       -4    1    3    3    0  502 -0.74984706266E+03 -0.16844390212E+03 -0.14234751749E+04  0.16176919212E+04  0.12699999809E+01 0.  1.
</event>
<event>
 5   0  0.9312074E-05  0.2347546E+04  0.7818609E-02  0.8459407E-01
       -2   -1    0    0    0  501  0.00000000000E+00  0.00000000000E+00  0.58412519871E+03  0.58412519871E+03  0.25500000920E-02 0.  1.
        2   -1    0    0  501    0  0.00000000000E+00  0.00000000000E+00 -0.23586429872E+04  0.23586429872E+04  0.25500000920E-02 0. -1.
    10030    2    1    2    0    0  0.00000000000E+00  0.00000000000E+00 -0.17745177885E+04  0.29427681860E+04  0.23475457854E+04 0.  0.
        4    1    3    3  502    0  0.31613209869E+03 -0.89660386618E+02  0.52528926639E+03  0.61960383716E+03  0.12699999809E+01 0.  1.
       -4    1    3    3    0  502 -0.31613209869E+03  0.89660386618E+02 -0.22998070549E+04  0.23231643488E+04  0.12699999809E+01 0. -1.
</event>
<event>
 5   0  0.3885219E-05  0.2478334E+04  0.7818609E-02  0.8410745E-01
       -1   -1    0    0    0  501  0.00000000000E+00  0.00000000000E+00  0.16800830941E+04  0.16800830941E+04  0.50400001928E-02 0.  1.
        1   -1    0    0  501    0  0.00000000000E+00  0.00000000000E+00 -0.91396370593E+03  0.91396370594E+03  0.50400001928E-02 0. -1.
    10030    2    1    2    0    0  0.00000000000E+00  0.00000000000E+00  0.76611938816E+03  0.25940468000E+04  0.24783340945E+04 0.  0.
        2    1    3    3  502    0  0.10905376323E+04 -0.66346113389E+02 -0.22892791794E+03  0.11162804871E+04  0.25500000920E-02 0. -1.
       -2    1    3    3    0  502 -0.10905376323E+04  0.66346113389E+02  0.99504730611E+03  0.14777663129E+04  0.25500000920E-02 0.  1.
</event>
<event>
 5   0  0.4095451E-05  0.2299144E+04  0.7818609E-02  0.8478259E-01
       -1   -1    0    0    0  501  0.00000000000E+00  0.00000000000E+00  0.47832022073E+03  0.47832022075E+03  0.50400001928E-02 0. -1.
        1   -1    0    0  501    0  0.00000000000E+00  0.00000000000E+00 -0.27628272258E+04  0.27628272258E+04  0.50400001928E-02 0.  1.
    10030    2    1    2    0    0  0.00000000000E+00  0.00000000000E+00 -0.22845070051E+04  0.32411474465E+04  0.22991443004E+04 0.  0.
        3    1    3    3  502    0 -0.70141940185E+03  0.53423079226E+03 -0.21821297544E+04  0.23535254390E+04  0.10100000352E+00 0.  1.
       -3    1    3    3    0  502  0.70141940185E+03 -0.53423079226E+03 -0.10237725068E+03  0.88762200758E+03  0.10100000352E+00 0. -1.
</event>
<event>
 5   0  0.4295775E-05  0.2272257E+04  0.7818609E-02  0.8488941E-01
        1   -1    0    0  501    0  0.00000000000E+00  0.00000000000E+00  0.99673737021E+03  0.99673737022E+03  0.50400001928E-02 0. -1.
       -1   -1    0    0    0  501  0.00000000000E+00  0.00000000000E+00 -0.12950129446E+04  0.12950129446E+04  0.50400001928E-02 0.  1.
    10030    2    1    2    0    0  0.00000000000E+00  0.00000000000E+00 -0.29827557442E+03  0.22917503149E+04  0.22722568489E+04 0.  0.
        5    1    3    3  502    0 -0.23581934127E+03  0.18340132776E+03  0.95640404812E+03  0.10019868273E+04  0.46999998093E+01 0. -1.
       -5    1    3    3    0  502  0.23581934127E+03 -0.18340132776E+03 -0.12546796225E+04  0.12897634876E+04  0.46999998093E+01 0.  1.
</event>
<event>
 5   0  0.9535394E-05  0.1474000E+04  0.7818609E-02  0.8901929E-01
        2   -1    0    0  501    0  0.00000000000E+00  0.00000000000E+00  0.62696085850E+03  0.62696085850E+03  0.25500000920E-02 0. -1.
       -2   -1    0    0    0  501  0.00000000000E+00  0.00000000000E+00 -0.86635183514E+03  0.86635183514E+03  0.25500000920E-02 0.  1.
    10030    2    1    2    0    0  0.00000000000E+00  0.00000000000E+00 -0.23939097664E+03  0.14933126936E+04  0.14739995798E+04 0.  0.
        2    1    3    3  502    0 -0.53827212980E+03  0.42875512885E+03  0.14758093459E+03  0.70380961808E+03  0.25500000920E-02 0. -1.
       -2    1    3    3    0  502  0.53827212980E+03 -0.42875512885E+03 -0.38697191123E+03  0.78950307556E+03  0.25500000920E-02 0.  1.
</event>
<event>
 5   0  0.9641157E-05  0.2285356E+04  0.7818609E-02  0.8483718E-01
        2   -1    0    0  501    0  0.00000000000E+00  0.00000000000E+00  0.22204171846E+04  0.22204171846E+04  0.25500000920E-02 0.  1.
       -2   -1    0    0    0  501  0.00000000000E+00  0.00000000000E+00 -0.58804836136E+03  0.58804836136E+03  0.25500000920E-02 0. -1.
    10030    2    1    2    0    0  0.00000000000E+00  0.00000000000E+00  0.16323688232E+04  0.28084655460E+04  0.22853557158E+04 0.  0.
        3    1    3    3  502    0  0.74932735618E+03  0.80032307968E+03  0.12119275357E+04  0.16342511681E+04  0.10100000352E+00 0.  1.
       -3    1    3    3    0  502 -0.74932735618E+03 -0.80032307968E+03  0.42044128754E+03  0.11742143778E+04  0.10100000352E+00 0. -1.
</event>
<event>
 5   0  0.9313463E-05  0.2234837E+04  0.7818609E-02  0.8504066E-01
        2   -1    0    0  501    0  0.00000000000E+00  0.00000000000E+00  0.20808665963E+04  0.20808665963E+04  0.25500000920E-02 0.  1.
       -2   -1    0    0    0  501  0.00000000000E+00  0.00000000000E+00 -0.60005022018E+03  0.60005022018E+03  0.25500000920E-02 0. -1.
    10030    2    1    2    0    0  0.00000000000E+00  0.00000000000E+00  0.14808163761E+04  0.26809168165E+04  0.22348373178E+04 0.  0.
        1    1    3    3  502    0 -0.16533887551E+02  0.86725118423E+03  0.15854484261E+04  0.18072201575E+04  0.50400001928E-02 0.  1.
       -1    1    3    3    0  502  0.16533887551E+02 -0.86725118423E+03 -0.10463204994E+03  0.87369665897E+03  0.50400001928E-02 0. -1.
</event>
<event>
 5   0  0.9535394E-05  0.2295115E+04  0.7818609E-02  0.8479850E-01
       -2   -1    0    0    0  501  0.00000000000E+00  0.00000000000E+00  0.14281175382E+04  0.14281175382E+04  0.25500000920E-02 0. -1.
        2   -1    0    0  501    0  0.00000000000E+00  0.00000000000E+00 -0.92211472537E+03  0.92211472537E+03  0.25500000920E-02 0.  1.
    10030    2    1    2    0    0  0.00000000000E+00  0.00000000000E+00  0.50600281287E+03  0.23502322636E+04  0.22951149963E+04 0.  0.
        2    1    3    3  502    0  0.27565057673E+03 -0.10495192142E+04 -0.12934774857E+03  0.10927967156E+04  0.25500000920E-02 0.  1.
       -2    1    3    3    0  502 -0.27565057673E+03  0.10495192142E+04  0.63535056144E+03  0.12574355480E+04  0.25500000920E-02 0. -1.
</event>
<event>
 5   0  0.9641157E-05  0.2295347E+04  0.7818609E-02  0.8479758E-01
        2   -1    0    0  501    0  0.00000000000E+00  0.00000000000E+00  0.21566351495E+04  0.21566351495E+04  0.25500000920E-02 0.  1.
       -2   -1    0    0    0  501  0.00000000000E+00  0.00000000000E+00 -0.61074489449E+03  0.61074489449E+03  0.25500000920E-02 0. -1.
    10030    2    1    2    0    0  0.00000000000E+00  0.00000000000E+00  0.15458902551E+04  0.27673800440E+04  0.22953465158E+04 0.  0.
        3    1    3    3  502    0 -0.56410878216E+02  0.10505871782E+04  0.13257558462E+04  0.16924964343E+04  0.10100000352E+00 0.  1.
       -3    1    3    3    0  502  0.56410878216E+02 -0.10505871782E+04  0.22013440884E+03  0.10748836097E+04  0.10100000352E+00 0. -1.
</event>
<event>
 5   0  0.4095451E-05  0.2282438E+04  0.7818609E-02  0.8484878E-01
        1   -1    0    0  501    0  0.00000000000E+00  0.00000000000E+00  0.12127029449E+04  0.12127029449E+04  0.50400001928E-02 0.  1.
       -1   -1    0    0    0  501  0.00000000000E+00  0.00000000000E+00 -0.10739490175E+04  0.10739490176E+04  0.50400001928E-02 0. -1.
    10030    2    1    2    0    0  0.00000000000E+00  0.00000000000E+00  0.13875392735E+03  0.22866519625E+04  0.22824382894E+04 0.  0.
        3    1    3    3  502    0  0.73766242620E+03 -0.77540277057E+03  0.46632278020E+03  0.11674126336E+04  0.10100000352E+00 0.  1.
       -3    1    3    3    0  502 -0.73766242620E+03  0.77540277057E+03 -0.32756885285E+03  0.11192393288E+04  0.10100000352E+00 0. -1.
</event>
<event>
 5   0  0.9483073E-05  0.2307685E+04  0.7818609E-02  0.8474897E-01
       -2   -1    0    0    0  501  0.00000000000E+00  0.00000000000E+00  0.78011192976E+03  0.78011192976E+03  0.25500000920E-02 0.  1.
        2   -1    0    0  501    0  0.00000000000E+00  0.00000000000E+00 -0.17066169238E+04  0.17066169238E+04  0.25500000920E-02 0. -1.
    10030    2    1    2    0    0  0.00000000000E+00  0.00000000000E+00 -0.92650499402E+03  0.24867288535E+04  0.23076847460E+04 0.  0.
        5    1    3    3  502    0 -0.53479500526E+03 -0.79805841813E+03 -0.11519195090E+04  0.14999478596E+04  0.46999998093E+01 0. -1.
       -5    1    3    3    0  502  0.53479500526E+03  0.79805841813E+03  0.22541451498E+03  0.98678099392E+03  0.46999998093E+01 0.  1.
</event>
<event>
 5   0  0.4295775E-05  0.2295476E+04  0.7818609E-02  0.8479707E-01
       -1   -1    0    0    0  501  0.00000000000E+00  0.00000000000E+00  0.11519017588E+04  0.11519017588E+04  0.50400001928E-02 0. -1.
        1   -1    0    0  501    0  0.00000000000E+00  0.00000000000E+00 -0.11435890762E+04  0.11435890762E+04  0.50400001928E-02 0.  1.
    10030    2    1    2    0    0  0.00000000000E+00  0.00000000000E+00  0.83126825601E+01  0.22954908350E+04  0.22954757836E+04 0.  0.
        5    1    3    3  502    0 -0.19948424127E+03 -0.11070815367E+04 -0.22356578493E+03  0.11469207652E+04  0.46999998093E+01 0.  1.
       -5    1    3    3    0  502  0.19948424127E+03  0.11070815367E+04  0.23187846749E+03  0.11485700698E+04  0.46999998093E+01 0. -1.
</event>
<event>
 5   0  0.4095451E-05  0.2026627E+04  0.7818609E-02  0.8594272E-01
       -1   -1    0    0    0  501  0.00000000000E+00  0.00000000000E+00  0.74206123465E+03  0.74206123467E+03  0.50400001928E-02 0.  1.
        1   -1    0    0  501    0  0.00000000000E+00  0.00000000000E+00 -0.13837189732E+04  0.13837189732E+04  0.50400001928E-02 0. -1.
    10030    2    1    2    0    0  0.00000000000E+00  0.00000000000E+00 -0.64165773856E+03  0.21257802079E+04  0.20266269609E+04 0.  0.
        3    1    3    3  502    0  0.59288262561E+03 -0.41266767696E+03 -0.10662301555E+04  0.12878863203E+04  0.10100000352E+00 0. -1.
       -3    1    3    3    0  502 -0.59288262561E+03  0.41266767696E+03  0.42457241696E+03  0.83789388755E+03  0.10100000352E+00 0.  1.
</event>
<event>
 5   0  0.9641157E-05  0.2323383E+04  0.7818609E-02  0.8468758E-01
       -2   -1    0    0    0  501  0.00000000000E+00  0.00000000000E+00  0.52399533857E+03  0.52399533858E+03  0.25500000920E-02 0.  1.
        2   -1    0    0  501    0  0.00000000000E+00  0.00000000000E+00 -0.25754562806E+04  0.25754562806E+04  0.25500000920E-02 0. -1.
    10030    2    1    2    0    0  0.00000000000E+00  0.00000000000E+00 -0.20514609421E+04  0.30994516192E+04  0.23233829523E+04 0.  0.
        3    1    3    3  502    0 -0.21508951557E+03  0.71634478157E+03 -0.22115234307E+04  0.23345768868E+04  0.10100000352E+00 0. -1.
       -3    1    3    3    0  502  0.21508951557E+03 -0.71634478157E+03  0.16006248862E+03  0.76487473240E+03  0.10100000352E+00 0.  1.
</event>
<event>
 5   0  0.4139830E-05  0.2131693E+04  0.7818609E-02  0.8547409E-01
       -1   -1    0    0    0  501  0.00000000000E+00  0.00000000000E+00  0.72094786328E+03  0.72094786330E+03  0.50400001928E-02 0. -1.
        1   -1    0    0  501    0  0.00000000000E+00  0.00000000000E+00 -0.15757440133E+04  0.15757440133E+04  0.50400001928E-02 0.  1.
    10030    2    1    2    0    0  0.00000000000E+00  0.00000000000E+00 -0.85479615004E+03  0.22966918766E+04  0.21316934859E+04 0.  0.
        1    1    3    3  502    0 -0.48342157381E+02 -0.97355196908E+03 -0.89191835614E+03  0.13212338002E+04  0.50400001928E-02 0.  1.
       -1    1    3    3    0  502  0.48342157381E+02  0.97355196908E+03  0.37122206105E+02  0.97545807644E+03  0.50400001928E-02 0. -1.
</event>
<event>
 5   0  0.4095451E-05  0.2347682E+04  0.7818609E-02  0.8459354E-01
       -1   -1    0    0    0  501  0.00000000000E+00  0.00000000000E+00  0.12049782426E+04  0.12049782426E+04  0.50400001928E-02 0.  1.
        1   -1    0    0  501    0  0.00000000000E+00  0.00000000000E+00 -0.11435086642E+04  0.11435086642E+04  0.50400001928E-02 0. -1.
    10030    2    1    2    0    0  0.00000000000E+00  0.00000000000E+00  0.61469578422E+02  0.23484869068E+04  0.23476823129E+04 0.  0.
        3    1    3    3  502    0  0.54934732823E+03 -0.24334537999E+03  0.10394967691E+04  0.12006469107E+04  0.10100000352E+00 0.  1.
       -3    1    3    3    0  502 -0.54934732823E+03  0.24334537999E+03 -0.97802719064E+03  0.11478399962E+04  0.10100000352E+00 0. -1.
</event>
<event>
 5   0  0.3885219E-05  0.2272792E+04  0.7818609E-02  0.8488727E-01
        1   -1    0    0  501    0  0.00000000000E+00  0.00000000000E+00  0.15822589997E+04  0.15822589997E+04  0.50400001928E-02 0. -1.
       -1   -1    0    0    0  501  0.00000000000E+00  0.00000000000E+00 -0.81617205816E+03  0.81617205817E+03  0.50400001928E-02 0.  1.
    10030    2    1    2    0    0  0.00000000000E+00  0.00000000000E+00  0.76608694150E+03  0.23984310578E+04  0.22727917496E+04 0.  0.
        2    1    3    3  502    0 -0.21635322327E+02 -0.69847431682E+03 -0.56263150457E+03  0.89715587741E+03  0.25500000920E-02 0.  1.
       -2    1    3    3    0  502  0.21635322327E+02  0.69847431682E+03  0.13287184461E+04  0.15012751804E+04  0.25500000920E-02 0. -1.
</event>
<event>
 5   0  0.4295775E-05  0.2313469E+04  0.7818609E-02  0.8472629E-01
       -1   -1    0    0    0  501  0.00000000000E+00  0.00000000000E+00  0.10899492553E+04  0.10899492553E+04  0.50400001928E-02 0.  1.
        1   -1    0    0  501    0  0.00000000000E+00  0.00000000000E+00 -0.12276116089E+04  0.12276116089E+04  0.50400001928E-02 0. -1.
    10030    2    1    2    0    0  0.00000000000E+00  0.00000000000E+00 -0.13766235365E+03  0.23175608642E+04  0.23134687022E+04 0.  0.
        5    1    3    3  502    0  0.44369323110E+03 -0.82746193890E+03 -0.74564100887E+03  0.11989827137E+04  0.46999998093E+01 0. -1.
       -5    1    3    3    0  502 -0.44369323110E+03  0.82746193890E+03  0.60797865522E+03  0.11185781505E+04  0.46999998093E+01 0.  1.
</event>
<event>
 5   0  0.9312074E-05  0.2300241E+04  0.7818609E-02  0.8477826E-01
        2   -1    0    0  501    0  0.00000000000E+00  0.00000000000E+00  0.13792813968E+04  0.13792813968E+04  0.25500000920E-02 0. -1.
       -2   -1    0    0    0  501  0.00000000000E+00  0.00000000000E+00 -0.95903382839E+03  0.95903382839E+03  0.25500000920E-02 0.  1.
    10030    2    1    2    0    0  0.00000000000E+00  0.00000000000E+00  0.42024756842E+03  0.23383152252E+04  0.23002413077E+04 0.  0.
        4    1    3    3  502    0 -0.93574905104E+03  0.48774476158E+02 -0.46782631577E+03  0.10473148097E+04  0.12699999809E+01 0.  1.
       -4    1    3    3    0  502  0.93574905104E+03 -0.48774476158E+02  0.88807388419E+03  0.12910004155E+04  0.12699999809E+01 0. -1.
</event>
<event>
 5   0  0.9313463E-05  0.2310771E+04  0.7818609E-02  0.8473687E-01
       -2   -1    0    0    0  501  0.00000000000E+00  0.00000000000E+00  0.69335451118E+03  0.69335451118E+03  0.25500000920E-02 0. -1.
        2   -1    0    0  501    0  0.00000000000E+00  0.00000000000E+00 -0.19252996367E+04  0.19252996367E+04  0.25500000920E-02 0.  1.
    10030    2    1    2    0    0  0.00000000000E+00  0.00000000000E+00 -0.12319451255E+04  0.26186541479E+04  0.23107705974E+04 0.  0.
        1    1    3    3  502    0 -0.57867780111E+03 -0.55303942922E+03 -0.15601680502E+04  0.17535235820E+04  0.50400001928E-02 0.  1.
       -1    1    3    3    0  502  0.57867780111E+03  0.55303942922E+03  0.32822292465E+03  0.86513056590E+03  0.50400001928E-02 0. -1.
</event>
<event>
 5   0  0.4005462E-05  0.2306571E+04  0.7818609E-02  0.8475335E-01
       -1   -1    0    0    0  501  0.00000000000E+00  0.00000000000E+00  0.49754991663E+03  0.49754991665E+03  0.50400001928E-02 0.  1.
        1   -1    0    0  501    0  0.00000000000E+00  0.00000000000E+00 -0.26732334385E+04  0.26732334385E+04  0.50400001928E-02 0. -1.
    10030    2    1    2    0    0  0.00000000000E+00  0.00000000000E+00 -0.21756835219E+04  0.31707833552E+04  0.23065706792E+04 0.  0.
        4    1    3    3  502    0 -0.35208149917E+03 -0.65012968628E+03 -0.23045919377E+04  0.24202841989E+04  0.12699999809E+01 0. -1.
       -4    1    3    3    0  502  0.35208149917E+03  0.65012968628E+03  0.12890841582E+03  0.75049915631E+03  0.12699999809E+01 0.  1.
</event>
<event>
 5   0  0.9535394E-05  0.2251592E+04  0.7818609E-02  0.8497256E-01
       -2   -1    0    0    0  501  0.00000000000E+00  0.00000000000E+00  0.96598322892E+03  0.96598322892E+03  0.25500000920E-02 0. -1.
        2   -1    0    0  501    0  0.00000000000E+00  0.00000000000E+00 -0.13120487345E+04  0.13120487345E+04  0.25500000920E-02 0.  1.
    10030    2    1    2    0    0  0.00000000000E+00  0.00000000000E+00 -0.34606550556E+03  0.22780319634E+04  0.22515923903E+04 0.  0.
        2    1    3    3  502    0 -0.51424552893E+03  0.34796599550E+03 -0.11231491768E+04  0.12833522008E+04  0.25500000920E-02 0.  1.
       -2    1    3    3    0  502  0.51424552893E+03 -0.34796599550E+03  0.77708367121E+03  0.99467976259E+03  0.25500000920E-02 0. -1.
</event>
<event>
 5   0  0.4295775E-05  0.2261965E+04  0.7818609E-02  0.8493070E-01
       -1   -1    0    0    0  501  0.00000000000E+00  0.00000000000E+00  0.93937343337E+03  0.93937343339E+03  0.50400001928E-02 0.  1.
        1   -1    0    0  501    0  0.00000000000E+00  0.00000000000E+00 -0.13616752814E+04  0.13616752814E+04  0.50400001928E-02 0. -1.
    10030    2    1    2    0    0  0.00000000000E+00  0.00000000000E+00 -0.42230184805E+03  0.23010487148E+04  0.22619651494E+04 0.  0.
        5    1    3    3  502    0 -0.85537791045E+03 -0.43518675929E+03 -0.81985477225E+03  0.12622372292E+04  0.46999998093E+01 0. -1.
       -5    1    3    3    0  502  0.85537791045E+03  0.43518675929E+03  0.39755292420E+03  0.10388114856E+04  0.46999998093E+01 0.  1.
</event>
<event>
 5   0  0.9535394E-05  0.2261754E+04  0.7818609E-02  0.8493155E-01
       -2   -1    0    0    0  501  0.00000000000E+00  0.00000000000E+00  0.10367327480E+04  0.10367327480E+04  0.25500000920E-02 0.  1.
        2   -1    0    0  501    0  0.00000000000E+00  0.00000000000E+00 -0.12335707837E+04  0.12335707837E+04  0.25500000920E-02 0. -1.
    10030    2    1    2    0    0  0.00000000000E+00  0.00000000000E+00 -0.19683803574E+03  0.22703035318E+04  0.22617543885E+04 0.  0.
        2    1    3    3  502    0  0.19783202149E+03 -0.89935788473E+03 -0.75733082833E+03  0.11922802091E+04  0.25500000920E-02 0. -1.
       -2    1    3    3    0  502 -0.19783202149E+03  0.89935788473E+03  0.56049279259E+03  0.10780233226E+04  0.25500000920E-02 0.  1.
</event>
<event>
 5   0  0.4005462E-05  0.2141988E+04  0.7818609E-02  0.8542970E-01
        1   -1    0    0  501    0  0.00000000000E+00  0.00000000000E+00  0.13103254271E+04  0.13103254271E+04  0.50400001928E-02 0.  1.
       -1   -1    0    0    0  501  0.00000000000E+00  0.00000000000E+00 -0.87537621280E+03  0.87537621282E+03  0.50400001928E-02 0. -1.
    10030    2    1    2    0    0  0.00000000000E+00  0.00000000000E+00  0.43494921431E+03  0.21857016399E+04  0.21419875910E+04 0.  0.
        4    1    3    3  502    0 -0.10638097120E+04 -0.58339278644E+02  0.32893533054E+03  0.11150312279E+04  0.12699999809E+01 0.  1.
       -4    1    3    3    0  502  0.10638097120E+04  0.58339278644E+02  0.10601388377E+03  0.10706704120E+04  0.12699999809E+01 0. -1.
</event>
<event>
 5   0  0.4005462E-05  0.2297761E+04  0.7818609E-02  0.8478804E-01
        1   -1    0    0  501    0  0.00000000000E+00  0.00000000000E+00  0.10763833738E+04  0.10763833738E+04  0.50400001928E-02 0.  1.
       -1   -1    0    0    0  501  0.00000000000E+00  0.00000000000E+00 -0.12262605507E+04  0.12262605507E+04  0.50400001928E-02 0. -1.
    10030    2    1    2    0    0  0.00000000000E+00  0.00000000000E+00 -0.14987717691E+03  0.23026439245E+04  0.22977610569E+04 0.  0.
        4    1    3    3  502    0 -0.20573659042E+03  0.17614702214E+03  0.10439328177E+04  0.10784955535E+04  0.12699999809E+01 0.  1.
       -4    1    3    3    0  502  0.20573659042E+03 -0.17614702214E+03 -0.11938099946E+04  0.12241483710E+04  0.12699999809E+01 0. -1.
</event>
<event>
 5   0  0.3885219E-05  0.2305007E+04  0.7818609E-02  0.8475949E-01
       -1   -1    0    0    0  501  0.00000000000E+00  0.00000000000E+00  0.10859930725E+04  0.10859930725E+04  0.50400001928E-02 0.  1.
        1   -1    0    0  501    0  0.00000000000E+00  0.00000000000E+00 -0.12230878075E+04  0.12230878075E+04  0.50400001928E-02 0. -1.
    10030    2    1    2    0    0  0.00000000000E+00  0.00000000000E+00 -0.13709473501E+03  0.23090808801E+04  0.23050074933E+04 0.  0.
        2    1    3    3  502    0  0.10529447022E+04  0.46784230000E+03 -0.42120405192E+02  0.11529714186E+04  0.25500000920E-02 0. -1.
       -2    1    3    3    0  502 -0.10529447022E+04 -0.46784230000E+03 -0.94974329816E+02  0.11561094615E+04  0.25500000920E-02 0.  1.
</event>
<event>
 5   0  0.9312074E-05  0.2264484E+04  0.7818609E-02  0.8492058E-01
        2   -1    0    0  501    0  0.00000000000E+00  0.00000000000E+00  0.23547222806E+04  0.23547222806E+04  0.25500000920E-02 0.  1.
       -2   -1    0    0    0  501  0.00000000000E+00  0.00000000000E+00 -0.54442591191E+03  0.54442591191E+03  0.25500000920E-02 0. -1.
    10030    2    1    2    0    0  0.00000000000E+00  0.00000000000E+00  0.18102963687E+04  0.28991481925E+04  0.22644838925E+04 0.  0.
        4    1    3    3  502    0 -0.59161445477E+03 -0.35122696492E+03 -0.24609913013E+03  0.73070817618E+03  0.12699999809E+01 0. -1.
       -4    1    3    3    0  502  0.59161445477E+03  0.35122696492E+03  0.20563954988E+04  0.21684400163E+04  0.12699999809E+01 0.  1.
</event>
<event>
 5   0  0.3261500E-05  0.2271434E+04  0.7818609E-02  0.8489270E-01
        3   -1    0    0  501    0  0.00000000000E+00  0.00000000000E+00  0.14594559667E+04  0.14594559702E+04  0.10100000352E+00 0.  1.
       -3   -1    0    0    0  501  0.00000000000E+00  0.00000000000E+00 -0.88379045504E+03  0.88379046081E+03  0.10100000352E+00 0. -1.
    10030    2    1    2    0    0  0.00000000000E+00  0.00000000000E+00  0.57566551163E+03  0.23432464310E+04  0.22714341406E+04 0.  0.
        2    1    3    3  502    0 -0.38302520811E+03 -0.68589308524E+03 -0.55827780950E+03  0.96375917480E+03  0.25500000920E-02 0. -1.
       -2    1    3    3    0  502  0.38302520811E+03  0.68589308524E+03  0.11339433211E+04  0.13794872562E+04  0.25500000920E-02 0.  1.
</event>
<event>
 5   0  0.9483073E-05  0.2369660E+04  0.7818609E-02  0.8450951E-01
        2   -1    0    0  501    0  0.00000000000E+00  0.00000000000E+00  0.11709811997E+04  0.11709811997E+04  0.25500000920E-02 0.  1.
       -2   -1    0    0    0  501  0.00000000000E+00  0.00000000000E+00 -0.11988423951E+04  0.11988423951E+04  0.25500000920E-02 0. -1.
    10030    2    1    2    0    0  0.00000000000E+00  0.00000000000E+00 -0.27861195393E+02  0.23698235947E+04  0.23696598119E+04 0.  0.
        5    1    3    3  502    0  0.93394510755E+03 -0.20940075069E+03 -0.71233241330E+03  0.11931226657E+04  0.46999998093E+01 0. -1.
       -5    1    3    3    0  502 -0.93394510755E+03  0.20940075069E+03  0.68447121791E+03  0.11767009291E+04  0.46999998093E+01 0.  1.
</event>
<event>
 5   0  0.9483073E-05  0.2336582E+04  0.7818609E-02  0.8463635E-01
       -2   -1    0    0    0  501  0.00000000000E+00  0.00000000000E+00  0.88103497577E+03  0.88103497578E+03  0.25500000920E-02 0.  1.
        2   -1    0    0  501    0  0.00000000000E+00  0.00000000000E+00 -0.15492049711E+04  0.15492049711E+04  0.25500000920E-02 0. -1.
    10030    2    1    2    0    0  0.00000000000E+00  0.00000000000E+00 -0.66816999529E+03  0.24302399468E+04  0.23365819174E+04 0.  0.
        5    1    3    3  502    0  0.15128982132E+03  0.11580176078E+04 -0.30138791127E+03  0.12061302389E+04  0.46999998093E+01 0. -1.
       -5    1    3    3    0  502 -0.15128982132E+03 -0.11580176078E+04 -0.36678208402E+03  0.12241097080E+04  0.46999998093E+01 0.  1.
</event>
<event>
 5   0  0.9312074E-05  0.2265207E+04  0.7818609E-02  0.8491767E-01
       -2   -1    0    0    0  501  0.00000000000E+00  0.00000000000E+00  0.63695309613E+03  0.63695309614E+03  0.25500000920E-02 0. -1.
        2   -1    0    0  501    0  0.00000000000E+00  0.00000000000E+00 -0.20139481703E+04  0.20139481703E+04  0.25500000920E-02 0.  1.
    10030    2    1    2    0    0  0.00000000000E+00  0.00000000000E+00 -0.13769950742E+04  0.26509012665E+04  0.22652068537E+04 0.  0.
        4    1    3    3  502    0 -0.60259687625E+01 -0.80382182526E+03 -0.16222394902E+04  0.18104773999E+04  0.12699999809E+01 0.  1.
       -4    1    3    3    0  502  0.60259687625E+01  0.80382182526E+03  0.24524441599E+03  0.84042386659E+03  0.12699999809E+01 0. -1.
</event>
<event>
 5   0  0.4005462E-05  0.2320510E+04  0.7818609E-02  0.8469878E-01
        1   -1    0    0  501    0  0.00000000000E+00  0.00000000000E+00  0.13186290948E+04  0.13186290948E+04  0.50400001928E-02 0. -1.
       -1   -1    0    0    0  501  0.00000000000E+00  0.00000000000E+00 -0.10209026850E+04  0.10209026850E+04  0.50400001928E-02 0.  1.
    10030    2    1    2    0    0  0.00000000000E+00  0.00000000000E+00  0.29772640979E+03  0.23395317798E+04  0.23205102744E+04 0.  0.
        4    1    3    3  502    0  0.75510105297E+03  0.51924093640E+03 -0.56858903628E+03  0.10784636551E+04  0.12699999809E+01 0.  1.
       -4    1    3    3    0  502 -0.75510105297E+03 -0.51924093640E+03  0.86631544608E+03  0.12610681247E+04  0.12699999809E+01 0. -1.
</event>
<event>
 5   0  0.3885219E-05  0.2285389E+04  0.7818609E-02  0.8483704E-01
        1   -1    0    0  501    0  0.00000000000E+00  0.00000000000E+00  0.14184563768E+04  0.14184563768E+04  0.50400001928E-02 0.  1.
       -1   -1    0    0    0  501  0.00000000000E+00  0.00000000000E+00 -0.92054376052E+03  0.92054376054E+03  0.50400001928E-02 0. -1.
    10030    2    1    2    0    0  0.00000000000E+00  0.00000000000E+00  0.49791261624E+03  0.23390001373E+04  0.22853893911E+04 0.  0.
        2    1    3    3  502    0  0.51717564614E+03  0.66164157026E+03  0.10420609761E+04  0.13383315338E+04  0.25500000920E-02 0. -1.
       -2    1    3    3    0  502 -0.51717564614E+03 -0.66164157026E+03 -0.54414835987E+03  0.10006686035E+04  0.25500000920E-02 0.  1.
</event>
<event>
 5   0  0.9535394E-05  0.2305599E+04  0.7818609E-02  0.8475717E-01
       -2   -1    0    0    0  501  0.00000000000E+00  0.00000000000E+00  0.77128022434E+03  0.77128022434E+03  0.25500000920E-02 0. -1.
        2   -1    0    0  501    0  0.00000000000E+00  0.00000000000E+00 -0.17230399048E+04  0.17230399048E+04  0.25500000920E-02 0.  1.
    10030    2    1    2    0    0  0.00000000000E+00  0.00000000000E+00 -0.95175968042E+03  0.24943201291E+04  0.23055989281E+04 0.  0.
        2    1    3    3  502    0  0.26513327797E+02 -0.91039654956E+03  0.28866359715E+03  0.95543262784E+03  0.25500000920E-02 0. -1.
       -2    1    3    3    0  502 -0.26513327797E+02  0.91039654956E+03 -0.12404232776E+04  0.15388875013E+04  0.25500000920E-02 0.  1.
</event>
<event>
 5   0  0.3885219E-05  0.2242098E+04  0.7818609E-02  0.8501108E-01
       -1   -1    0    0    0  501  0.00000000000E+00  0.00000000000E+00  0.18664837440E+04  0.18664837440E+04  0.50400001928E-02 0. -1.
        1   -1    0    0  501    0  0.00000000000E+00  0.00000000000E+00 -0.67332537375E+03  0.67332537377E+03  0.50400001928E-02 0.  1.
    10030    2    1    2    0    0  0.00000000000E+00  0.00000000000E+00  0.11931583702E+04  0.25398091178E+04  0.22420980037E+04 0.  0.
        2    1    3    3  502    0 -0.44696014112E+03 -0.74860099647E+03  0.13948283887E+04  0.16449082204E+04  0.25500000920E-02 0. -1.
       -2    1    3    3    0  502  0.44696014112E+03  0.74860099647E+03 -0.20167001849E+03  0.89490089733E+03  0.25500000920E-02 0.  1.
</event>
<event>
 5   0  0.9641157E-05  0.1898212E+04  0.7818609E-02  0.8655747E-01
       -2   -1    0    0    0  501  0.00000000000E+00  0.00000000000E+00  0.54324044966E+03  0.54324044966E+03  0.25500000920E-02 0. -1.
        2   -1    0    0  501    0  0.00000000000E+00  0.00000000000E+00 -0.16582014302E+04  0.16582014302E+04  0.25500000920E-02 0.  1.
    10030    2    1    2    0    0  0.00000000000E+00  0.00000000000E+00 -0.11149609805E+04  0.22014418798E+04  0.18982118855E+04 0.  0.
        3    1    3    3  502    0 -0.34370990917E+03 -0.45828067455E+03 -0.14350975274E+04  0.15452063298E+04  0.10100000352E+00 0.  1.
       -3    1    3    3    0  502  0.34370990917E+03  0.45828067455E+03  0.32013654685E+03  0.65623555006E+03  0.10100000352E+00 0. -1.
</event>
<event>
 5   0  0.9483073E-05  0.2383274E+04  0.7818609E-02  0.8445792E-01
       -2   -1    0    0    0  501  0.00000000000E+00  0.00000000000E+00  0.73458749603E+03  0.73458749603E+03  0.25500000920E-02 0. -1.
        2   -1    0    0  501    0  0.00000000000E+00  0.00000000000E+00 -0.19330560204E+04  0.19330560204E+04  0.25500000920E-02 0.  1.
    10030    2    1    2    0    0  0.00000000000E+00  0.00000000000E+00 -0.11984685243E+04  0.26676435164E+04  0.23832740352E+04 0.  0.
        5    1    3    3  502    0 -0.60817212750E+03 -0.43062420966E+03 -0.16400600389E+04  0.18014243165E+04  0.46999998093E+01 0.  1.
       -5    1    3    3    0  502  0.60817212750E+03  0.43062420966E+03  0.44159151458E+03  0.86621919995E+03  0.46999998093E+01 0. -1.
</event>
<event>
 5   0  0.4295775E-05  0.1685675E+04  0.7818609E-02  0.8769577E-01
        1   -1    0    0  501    0  0.00000000000E+00  0.00000000000E+00  0.61557937743E+03  0.61557937745E+03  0.50400001928E-02 0. -1.
       -1   -1    0    0    0  501  0.00000000000E+00  0.00000000000E+00 -0.11539943762E+04  0.11539943763E+04  0.50400001928E-02 0.  1.
    10030    2    1    2    0    0  0.00000000000E+00  0.00000000000E+00 -0.53841499881E+03  0.17695737537E+04  0.16856751048E+04 0.  0.
        5    1    3    3  502    0 -0.49885214392E+03  0.41282609092E+03 -0.83557282484E+03  0.10571106273E+04  0.46999998093E+01 0.  1.
       -5    1    3    3    0  502  0.49885214392E+03 -0.41282609092E+03  0.29715782603E+03  0.71246312635E+03  0.46999998093E+01 0. -1.
</event>
<event>
 5   0  0.4095451E-05  0.1693691E+04  0.7818609E-02  0.8764971E-01
       -1   -1    0    0    0  501  0.00000000000E+00  0.00000000000E+00  0.10261169093E+04  0.10261169094E+04  0.50400001928E-02 0.  1.
        1   -1    0    0  501    0  0.00000000000E+00  0.00000000000E+00 -0.69889425010E+03  0.69889425011E+03  0.50400001928E-02 0. -1.
    10030    2    1    2    0    0  0.00000000000E+00  0.00000000000E+00  0.32722265925E+03  0.17250111595E+04  0.16936908902E+04 0.  0.
        3    1    3    3  502    0 -0.74184092425E+03 -0.24832217947E+03  0.49388459099E+03  0.92515612798E+03  0.10100000352E+00 0.  1.
       -3    1    3    3    0  502  0.74184092425E+03  0.24832217947E+03 -0.16666193175E+03  0.79985503149E+03  0.10100000352E+00 0. -1.
</event>
<event>
 5   0  0.9641157E-05  0.2318304E+04  0.7818609E-02  0.8470739E-01
        2   -1    0    0  501    0  0.00000000000E+00  0.00000000000E+00  0.16930521228E+04  0.16930521228E+04  0.25500000920E-02 0.  1.
       -2   -1    0    0    0  501  0.00000000000E+00  0.00000000000E+00 -0.79361626030E+03  0.79361626031E+03  0.25500000920E-02 0. -1.
    10030    2    1    2    0    0  0.00000000000E+00  0.00000000000E+00  0.89943586246E+03  0.24866683831E+04  0.23183042891E+04 0.  0.
        3    1    3    3  502    0 -0.63254804438E+03 -0.76366222750E+03 -0.19415720809E+03  0.10104425059E+04  0.10100000352E+00 0. -1.
       -3    1    3    3    0  502  0.63254804438E+03  0.76366222750E+03  0.10935930706E+04  0.14762258771E+04  0.10100000352E+00 0.  1.
</event>
<event>
 5   0  0.9313463E-05  0.2294448E+04  0.7818609E-02  0.8480113E-01
       -2   -1    0    0    0  501  0.00000000000E+00  0.00000000000E+00  0.88912410655E+03  0.88912410656E+03  0.25500000920E-02 0. -1.
        2   -1    0    0  501    0  0.00000000000E+00  0.00000000000E+00 -0.14802463585E+04  0.14802463585E+04  0.25500000920E-02 0.  1.
    10030    2    1    2    0    0  0.00000000000E+00  0.00000000000E+00 -0.59112225198E+03  0.23693704651E+04  0.22944478386E+04 0.  0.
        1    1    3    3  502    0 -0.43097160864E+03  0.69377350478E+03 -0.11275139795E+04  0.13922449416E+04  0.50400001928E-02 0.  1.
       -1    1    3    3    0  502  0.43097160864E+03 -0.69377350478E+03  0.53639172748E+03  0.97712552353E+03  0.50400001928E-02 0. -1.
</event>
<event>
 5   0  0.9313463E-05  0.2295490E+04  0.7818609E-02  0.8479701E-01
       -2   -1    0    0    0  501  0.00000000000E+00  0.00000000000E+00  0.65261189343E+03  0.65261189344E+03  0.25500000920E-02 0. -1.
        2   -1    0    0  501    0  0.00000000000E+00  0.00000000000E+00 -0.20185337249E+04  0.20185337249E+04  0.25500000920E-02 0.  1.
    10030    2    1    2    0    0  0.00000000000E+00  0.00000000000E+00 -0.13659218315E+04  0.26711456184E+04  0.22954904628E+04 0.  0.
        1    1    3    3  502    0 -0.79162911706E+03 -0.18354390788E+03  0.26020822416E+03  0.85327214008E+03  0.50400001928E-02 0. -1.
       -1    1    3    3    0  502  0.79162911706E+03  0.18354390788E+03 -0.16261300557E+04  0.18178734783E+04  0.50400001928E-02 0.  1.
</event>
<event>
 5   0  0.9535394E-05  0.2313705E+04  0.7818609E-02  0.8472537E-01
        2   -1    0    0  501    0  0.00000000000E+00  0.00000000000E+00  0.81081593536E+03  0.81081593537E+03  0.25500000920E-02 0.  1.
       -2   -1    0    0    0  501  0.00000000000E+00  0.00000000000E+00 -0.16505695173E+04  0.16505695173E+04  0.25500000920E-02 0. -1.
    10030    2    1    2    0    0  0.00000000000E+00  0.00000000000E+00 -0.83975358197E+03  0.24613854527E+04  0.23137053115E+04 0.  0.
        2    1    3    3  502    0  0.69812351945E+02  0.65274498651E+03 -0.14332303346E+04  0.15764196693E+04  0.25500000920E-02 0. -1.
       -2    1    3    3    0  502 -0.69812351945E+02 -0.65274498651E+03  0.59347675259E+03  0.88496578339E+03  0.25500000920E-02 0.  1.
</event>
<event>
 5   0  0.4139830E-05  0.2288143E+04  0.7818609E-02  0.8482611E-01
       -1   -1    0    0    0  501  0.00000000000E+00  0.00000000000E+00  0.10847156806E+04  0.10847156806E+04  0.50400001928E-02 0. -1.
        1   -1    0    0  501    0  0.00000000000E+00  0.00000000000E+00 -0.12066747849E+04  0.12066747849E+04  0.50400001928E-02 0.  1.
    10030    2    1    2    0    0  0.00000000000E+00  0.00000000000E+00 -0.12195910430E+03  0.22913904655E+04  0.22881425311E+04 0.  0.
        1    1    3    3  502    0  0.33391979254E+03 -0.99980332064E+03 -0.50634666192E+03  0.11693998674E+04  0.50400001928E-02 0.  1.
       -1    1    3    3    0  502 -0.33391979254E+03  0.99980332064E+03  0.38438755762E+03  0.11219905981E+04  0.50400001928E-02 0. -1.
</event>
<event>
 5   0  0.9313463E-05  0.2249387E+04  0.7818609E-02  0.8498149E-01
        2   -1    0    0  501    0  0.00000000000E+00  0.00000000000E+00  0.17187988797E+04  0.17187988797E+04  0.25500000920E-02 0.  1.
       -2   -1    0    0    0  501  0.00000000000E+00  0.00000000000E+00 -0.73594138243E+03  0.73594138243E+03  0.25500000920E-02 0. -1.
    10030    2    1    2    0    0  0.00000000000E+00  0.00000000000E+00  0.98285749726E+03  0.24547402621E+04  0.22493867819E+04 0.  0.
        1    1    3    3  502    0 -0.79994618942E+03 -0.60578853530E+03 -0.62924048675E+02  0.10054119014E+04  0.50400001928E-02 0. -1.
       -1    1    3    3    0  502  0.79994618942E+03  0.60578853530E+03  0.10457815459E+04  0.14493283608E+04  0.50400001928E-02 0.  1.
</event>
<event>
 5   0  0.9312074E-05  0.2273824E+04  0.7818609E-02  0.8488314E-01
        2   -1    0    0  501    0  0.00000000000E+00  0.00000000000E+00  0.15141412985E+04  0.15141412985E+04  0.25500000920E-02 0.  1.
       -2   -1    0    0    0  501  0.00000000000E+00  0.00000000000E+00 -0.85366480806E+03  0.85366480806E+03  0.25500000920E-02 0. -1.
    10030    2    1    2    0    0  0.00000000000E+00  0.00000000000E+00  0.66047649045E+03  0.23678061066E+04  0.22738242157E+04 0.  0.
        4    1    3    3  502    0  0.65356758311E+03 -0.67835304547E+03  0.99314577376E+03  0.13688146627E+04  0.12699999809E+01 0.  1.
       -4    1    3    3    0  502 -0.65356758311E+03  0.67835304547E+03 -0.33266928331E+03  0.99899144388E+03  0.12699999809E+01 0. -1.
</event>
<event>
 5   0  0.9641157E-05  0.2291311E+04  0.7818609E-02  0.8481355E-01
       -2   -1    0    0    0  501  0.00000000000E+00  0.00000000000E+00  0.64092477348E+03  0.64092477348E+03  0.25500000920E-02 0. -1.
        2   -1    0    0  501    0  0.00000000000E+00  0.00000000000E+00 -0.20478635980E+04  0.20478635980E+04  0.25500000920E-02 0.  1.
    10030    2    1    2    0    0  0.00000000000E+00  0.00000000000E+00 -0.14069388245E+04  0.26887883715E+04  0.22913109895E+04 0.  0.
        3    1    3    3  502    0 -0.22247638065E+03 -0.74888899643E+03  0.27986620313E+03  0.82985274042E+03  0.10100000352E+00 0. -1.
       -3    1    3    3    0  502  0.22247638065E+03  0.74888899643E+03 -0.16868050276E+04  0.18589356311E+04  0.10100000352E+00 0.  1.
</event>
<event>
 5   0  0.4295775E-05  0.2144705E+04  0.7818609E-02  0.8541802E-01
        1   -1    0    0  501    0  0.00000000000E+00  0.00000000000E+00  0.14463349635E+04  0.14463349635E+04  0.50400001928E-02 0. -1.
       -1   -1    0    0    0  501  0.00000000000E+00  0.00000000000E+00 -0.79507155218E+03  0.79507155220E+03  0.50400001928E-02 0.  1.
    10030    2    1    2    0    0  0.00000000000E+00  0.00000000000E+00  0.65126341135E+03  0.22414065157E+04  0.21447049069E+04 0.  0.
        5    1    3    3  502    0  0.41012759785E+03 -0.48539349574E+03  0.12283524234E+04  0.13829979242E+04  0.46999998093E+01 0. -1.
       -5    1    3    3    0  502 -0.41012759785E+03  0.48539349574E+03 -0.57708901205E+03  0.85840859155E+03  0.46999998093E+01 0.  1.
</event>
<event>
 5   0  0.3885219E-05  0.1482595E+04  0.7818609E-02  0.8896110E-01
        1   -1    0    0  501    0  0.00000000000E+00  0.00000000000E+00  0.68382930143E+03  0.68382930145E+03  0.50400001928E-02 0. -1.
       -1   -1    0    0    0  501  0.00000000000E+00  0.00000000000E+00 -0.80359564344E+03  0.80359564345E+03  0.50400001928E-02 0.  1.
    10030    2    1    2    0    0  0.00000000000E+00  0.00000000000E+00 -0.11976634201E+03  0.14874249449E+04  0.14825953561E+04 0.  0.
        2    1    3    3  502    0 -0.34206755978E+03 -0.32291464978E+03  0.51490385993E+03  0.69743105142E+03  0.25500000920E-02 0. -1.
       -2    1    3    3    0  502  0.34206755978E+03  0.32291464978E+03 -0.63467020194E+03  0.78999389348E+03  0.25500000920E-02 0.  1.
</event>
<event>
 5   0  0.9313463E-05  0.1701707E+04  0.7818609E-02  0.8760392E-01
       -2   -1    0    0    0  501  0.00000000000E+00  0.00000000000E+00  0.10967781190E+04  0.10967781190E+04  0.25500000920E-02 0.  1.
        2   -1    0    0  501    0  0.00000000000E+00  0.00000000000E+00 -0.66007091517E+03  0.66007091518E+03  0.25500000920E-02 0. -1.
    10030    2    1    2    0    0  0.00000000000E+00  0.00000000000E+00  0.43670720384E+03  0.17568490342E+04  0.17017065984E+04 0.  0.
        1    1    3    3  502    0 -0.27810168206E+03  0.57983395930E+02 -0.60966334533E+03  0.67260093253E+03  0.50400001928E-02 0. -1.
       -1    1    3    3    0  502  0.27810168206E+03 -0.57983395930E+02  0.10463705492E+04  0.10842481017E+04  0.50400001928E-02 0.  1.
</event>
<event>
 5   0  0.9312074E-05  0.1790411E+04  0.7818609E-02  0.8711416E-01
        2   -1    0    0  501    0  0.00000000000E+00  0.00000000000E+00  0.96238982385E+03  0.96238982386E+03  0.25500000920E-02 0. -1.
       -2   -1    0    0    0  501  0.00000000000E+00  0.00000000000E+00 -0.83271108845E+03  0.83271108845E+03  0.25500000920E-02 0.  1.
    10030    2    1    2    0    0  0.00000000000E+00  0.00000000000E+00  0.12967873541E+03  0.17951009123E+04  0.17904107660E+04 0.  0.
        4    1    3    3  502    0 -0.10172402019E+03  0.72698895232E+03 -0.44888000930E+03  0.86043918363E+03  0.12699999809E+01 0.  1.
       -4    1    3    3    0  502  0.10172402019E+03 -0.72698895232E+03  0.57855874471E+03  0.93466172868E+03  0.12699999809E+01 0. -1.
</event>
<event>
 5   0  0.9641157E-05  0.2285821E+04  0.7818609E-02  0.8483533E-01
        2   -1    0    0  501    0  0.00000000000E+00  0.00000000000E+00  0.18061756703E+04  0.18061756703E+04  0.25500000920E-02 0.  1.
       -2   -1    0    0    0  501  0.00000000000E+00  0.00000000000E+00 -0.72321010965E+03  0.72321010965E+03  0.25500000920E-02 0. -1.
    10030    2    1    2    0    0  0.00000000000E+00  0.00000000000E+00  0.10829655607E+04  0.25293857800E+04  0.22858210819E+04 0.  0.
        3    1    3    3  502    0  0.73410485803E+03  0.35842278651E+03 -0.34297741048E+03  0.88600809860E+03  0.10100000352E+00 0. -1.
       -3    1    3    3    0  502 -0.73410485803E+03 -0.35842278651E+03  0.14259429712E+04  0.16433776814E+04  0.10100000352E+00 0.  1.
</event>
<event>
 5   0  0.4139830E-05  0.2185892E+04  0.7818609E-02  0.8524323E-01
       -1   -1    0    0    0  501  0.00000000000E+00  0.00000000000E+00  0.67204548166E+03  0.67204548168E+03  0.50400001928E-02 0. -1.
        1   -1    0    0  501    0  0.00000000000E+00  0.00000000000E+00 -0.17774549823E+04  0.17774549823E+04  0.50400001928E-02 0.  1.
    10030    2    1    2    0    0  0.00000000000E+00  0.00000000000E+00 -0.11054095007E+04  0.24495004640E+04  0.21858916622E+04 0.  0.
        1    1    3    3  502    0 -0.65367666318E+02 -0.69608469108E+03  0.38867805700E+03  0.79992340944E+03  0.50400001928E-02 0. -1.
       -1    1    3    3    0  502  0.65367666318E+02  0.69608469108E+03 -0.14940875577E+04  0.16495770546E+04  0.50400001928E-02 0.  1.
</event>
<event>
 5   0  0.9535394E-05  0.1691432E+04  0.7818609E-02  0.8766266E-01
       -2   -1    0    0    0  501  0.00000000000E+00  0.00000000000E+00  0.68861359029E+03  0.68861359029E+03  0.25500000920E-02 0.  1.
        2   -1    0    0  501    0  0.00000000000E+00  0.00000000000E+00 -0.10386604010E+04  0.10386604010E+04  0.25500000920E-02 0. -1.
    10030    2    1    2    0    0  0.00000000000E+00  0.00000000000E+00 -0.35004681073E+03  0.17272739913E+04  0.16914321362E+04 0.  0.
        2    1    3    3  502    0  0.47883761730E+03  0.20921467461E+03  0.50403311041E+03  0.72602039931E+03  0.25500000920E-02 0.  1.
       -2    1    3    3    0  502 -0.47883761730E+03 -0.20921467461E+03 -0.85407992114E+03  0.10012535920E+04  0.25500000920E-02 0. -1.
</event>
<event>
 5   0  0.4139830E-05  0.2412824E+04  0.7818609E-02  0.8434718E-01
        1   -1    0    0  501    0  0.00000000000E+00  0.00000000000E+00  0.10797859285E+04  0.10797859285E+04  0.50400001928E-02 0.  1.
       -1   -1    0    0    0  501  0.00000000000E+00  0.00000000000E+00 -0.13478879611E+04  0.13478879611E+04  0.50400001928E-02 0. -1.
    10030    2    1    2    0    0  0.00000000000E+00  0.00000000000E+00 -0.26810203269E+03  0.24276738896E+04  0.24128244475E+04 0.  0.
        1    1    3    3  502    0  0.10370424883E+04 -0.58457801604E+03  0.62707802332E+02  0.11921077334E+04  0.50400001928E-02 0. -1.
       -1    1    3    3    0  502 -0.10370424883E+04  0.58457801604E+03 -0.33080983502E+03  0.12355661562E+04  0.50400001928E-02 0.  1.
</event>
<event>
 5   0  0.3885219E-05  0.2294947E+04  0.7818609E-02  0.8479916E-01
        1   -1    0    0  501    0  0.00000000000E+00  0.00000000000E+00  0.10326605169E+04  0.10326605169E+04  0.50400001928E-02 0.  1.
       -1   -1    0    0    0  501  0.00000000000E+00  0.00000000000E+00 -0.12750512007E+04  0.12750512007E+04  0.50400001928E-02 0. -1.
    10030    2    1    2    0    0  0.00000000000E+00  0.00000000000E+00 -0.24239068378E+03  0.23077117176E+04  0.22949466504E+04 0.  0.
        2    1    3    3  502    0 -0.62124119937E+03 -0.73596029085E+03  0.50606666381E+03  0.10879713442E+04  0.25500000920E-02 0.  1.
       -2    1    3    3    0  502  0.62124119937E+03  0.73596029085E+03 -0.74845734759E+03  0.12197403735E+04  0.25500000920E-02 0. -1.
</event>
<event>
 5   0  0.9483073E-05  0.2160972E+04  0.7818609E-02  0.8534850E-01
        2   -1    0    0  501    0  0.00000000000E+00  0.00000000000E+00  0.18081688349E+04  0.18081688349E+04  0.25500000920E-02 0. -1.
       -2   -1    0    0    0  501  0.00000000000E+00  0.00000000000E+00 -0.64565348279E+03  0.64565348280E+03  0.25500000920E-02 0.  1.
    10030    2    1    2    0    0  0.00000000000E+00  0.00000000000E+00  0.11625153521E+04  0.24538223177E+04  0.21609724716E+04 0.  0.
        5    1    3    3  502    0  0.32946449769E+03  0.37366199562E+03  0.16699687772E+04  0.17426955985E+04  0.46999998093E+01 0. -1.
       -5    1    3    3    0  502 -0.32946449769E+03 -0.37366199562E+03 -0.50745342506E+03  0.71112671924E+03  0.46999998093E+01 0.  1.
</event>
<event>
 5   0  0.4139830E-05  0.2316471E+04  0.7818609E-02  0.8471455E-01
       -1   -1    0    0    0  501  0.00000000000E+00  0.00000000000E+00  0.15043385570E+04  0.15043385570E+04  0.50400001928E-02 0.  1.
        1   -1    0    0  501    0  0.00000000000E+00  0.00000000000E+00 -0.89176071682E+03  0.89176071684E+03  0.50400001928E-02 0. -1.
    10030    2    1    2    0    0  0.00000000000E+00  0.00000000000E+00  0.61257784013E+03  0.23960992738E+04  0.23164714804E+04 0.  0.
        1    1    3    3  502    0 -0.90941002969E+03  0.66859070061E+03  0.57496740595E+03  0.12667389806E+04  0.50400001928E-02 0.  1.
       -1    1    3    3    0  502  0.90941002969E+03 -0.66859070061E+03  0.37610434183E+02  0.11293602932E+04  0.50400001928E-02 0. -1.
</event>
<event>
 5   0  0.9312074E-05  0.2292687E+04  0.7818609E-02  0.8480810E-01
       -2   -1    0    0    0  501  0.00000000000E+00  0.00000000000E+00  0.79062961397E+03  0.79062961398E+03  0.25500000920E-02 0. -1.
        2   -1    0    0  501    0  0.00000000000E+00  0.00000000000E+00 -0.16620973155E+04  0.16620973155E+04  0.25500000920E-02 0.  1.
    10030    2    1    2    0    0  0.00000000000E+00  0.00000000000E+00 -0.87146770149E+03  0.24527269294E+04  0.22926869467E+04 0.  0.
        4    1    3    3  502    0 -0.63867310181E+03 -0.91333336959E+03 -0.14863416224E+03  0.11243553273E+04  0.12699999809E+01 0. -1.
       -4    1    3    3    0  502  0.63867310181E+03  0.91333336959E+03 -0.72283353925E+03  0.13283716021E+04  0.12699999809E+01 0.  1.
</event>
<event>
 5   0  0.3261500E-05  0.2298169E+04  0.7818609E-02  0.8478643E-01
        3   -1    0    0  501    0  0.00000000000E+00  0.00000000000E+00  0.10332293522E+04  0.10332293571E+04  0.10100000352E+00 0. -1.
       -3   -1    0    0    0  501  0.00000000000E+00  0.00000000000E+00 -0.12779308747E+04  0.12779308786E+04  0.10100000352E+00 0.  1.
    10030    2    1    2    0    0  0.00000000000E+00  0.00000000000E+00 -0.24470152247E+03  0.23111602358E+04  0.22981694455E+04 0.  0.
        2    1    3    3  502    0 -0.75198558274E+03  0.46740364187E+02 -0.99485441480E+03  0.12479592481E+04  0.25500000920E-02 0.  1.
       -2    1    3    3    0  502  0.75198558274E+03 -0.46740364187E+02  0.75015289232E+03  0.10632009877E+04  0.25500000920E-02 0. -1.
</event>
<event>
 5   0  0.9641157E-05  0.2302375E+04  0.7818609E-02  0.8476985E-01
        2   -1    0    0  501    0  0.00000000000E+00  0.00000000000E+00  0.12446393387E+04  0.12446393387E+04  0.25500000920E-02 0.  1.
       -2   -1    0    0    0  501  0.00000000000E+00  0.00000000000E+00 -0.10647522590E+04  0.10647522590E+04  0.25500000920E-02 0. -1.
    10030    2    1    2    0    0  0.00000000000E+00  0.00000000000E+00  0.17988707969E+03  0.23093915977E+04  0.23023749022E+04 0.  0.
        3    1    3    3  502    0  0.35777642281E+03  0.10879767475E+04  0.20663882915E+03  0.11637856279E+04  0.10100000352E+00 0.  1.
       -3    1    3    3    0  502 -0.35777642281E+03 -0.10879767475E+04 -0.26751749461E+02  0.11456059698E+04  0.10100000352E+00 0. -1.
</event>
<event>
 5   0  0.9641157E-05  0.2316067E+04  0.7818609E-02  0.8471613E-01
       -2   -1    0    0    0  501  0.00000000000E+00  0.00000000000E+00  0.63886234994E+03  0.63886234994E+03  0.25500000920E-02 0. -1.
        2   -1    0    0  501    0  0.00000000000E+00  0.00000000000E+00 -0.20991089826E+04  0.20991089826E+04  0.25500000920E-02 0.  1.
    10030    2    1    2    0    0  0.00000000000E+00  0.00000000000E+00 -0.14602466327E+04  0.27379713325E+04  0.23160670952E+04 0.  0.
        3    1    3    3  502    0 -0.32314348520E+03  0.10842645017E+04 -0.10220734877E+04  0.15246919184E+04  0.10100000352E+00 0.  1.
       -3    1    3    3    0  502  0.32314348520E+03 -0.10842645017E+04 -0.43817314500E+03  0.12132794142E+04  0.10100000352E+00 0. -1.
</event>
<event>
 5   0  0.4095451E-05  0.2300288E+04  0.7818609E-02  0.8477808E-01
       -1   -1    0    0    0  501  0.00000000000E+00  0.00000000000E+00  0.69107886442E+03  0.69107886444E+03  0.50400001928E-02 0.  1.
        1   -1    0    0  501    0  0.00000000000E+00  0.00000000000E+00 -0.19141533584E+04  0.19141533585E+04  0.50400001928E-02 0. -1.
    10030    2    1    2    0    0  0.00000000000E+00  0.00000000000E+00 -0.12230744940E+04  0.26052322229E+04  0.23002877466E+04 0.  0.
        3    1    3    3  502    0  0.81052729691E+03  0.30433798169E+03  0.24597065337E+03  0.90004315377E+03  0.10100000352E+00 0.  1.
       -3    1    3    3    0  502 -0.81052729691E+03 -0.30433798169E+03 -0.14690451474E+04  0.17051890691E+04  0.10100000352E+00 0. -1.
</event>
<event>
 5   0  0.9535394E-05  0.2342901E+04  0.7818609E-02  0.8461195E-01
        2   -1    0    0  501    0  0.00000000000E+00  0.00000000000E+00  0.85531447621E+03  0.85531447621E+03  0.25500000920E-02 0.  1.
       -2   -1    0    0    0  501  0.00000000000E+00  0.00000000000E+00 -0.16044345163E+04  0.16044345163E+04  0.25500000920E-02 0. -1.
    10030    2    1    2    0    0  0.00000000000E+00  0.00000000000E+00 -0.74912004007E+03  0.24597489925E+04  0.23429008241E+04 0.  0.
        2    1    3    3  502    0  0.30163020082E+02  0.37928208526E+03  0.78863674093E+03  0.87562127495E+03  0.25500000920E-02 0.  1.
       -2    1    3    3    0  502 -0.30163020082E+02 -0.37928208526E+03 -0.15377567810E+04  0.15841277175E+04  0.25500000920E-02 0. -1.
</event>
<event>
 5   0  0.9312074E-05  0.2291241E+04  0.7818609E-02  0.8481383E-01
       -2   -1    0    0    0  501  0.00000000000E+00  0.00000000000E+00  0.71410412860E+03  0.71410412861E+03  0.25500000920E-02 0.  1.
        2   -1    0    0  501    0  0.00000000000E+00  0.00000000000E+00 -0.18378927806E+04  0.18378927806E+04  0.25500000920E-02 0. -1.
    10030    2    1    2    0    0  0.00000000000E+00  0.00000000000E+00 -0.11237886520E+04  0.25519969093E+04  0.22912414300E+04 0.  0.
        4    1    3    3  502    0  0.10142114430E+04 -0.11515623580E+03 -0.11412437826E+04  0.15311188047E+04  0.12699999809E+01 0. -1.
       -4    1    3    3    0  502 -0.10142114430E+04  0.11515623580E+03  0.17455130583E+02  0.10208781045E+04  0.12699999809E+01 0.  1.
</event>
<event>
 5   0  0.9312074E-05  0.2326012E+04  0.7818609E-02  0.8467735E-01
        2   -1    0    0  501    0  0.00000000000E+00  0.00000000000E+00  0.14162290910E+04  0.14162290910E+04  0.25500000920E-02 0.  1.
       -2   -1    0    0    0  501  0.00000000000E+00  0.00000000000E+00 -0.95505931831E+03  0.95505931831E+03  0.25500000920E-02 0. -1.
    10030    2    1    2    0    0  0.00000000000E+00  0.00000000000E+00  0.46116977269E+03  0.23712884093E+04  0.23260118574E+04 0.  0.
        4    1    3    3  502    0  0.16013231987E+03 -0.95083996822E+03  0.89350561924E+03  0.13145694769E+04  0.12699999809E+01 0.  1.
       -4    1    3    3    0  502 -0.16013231987E+03  0.95083996822E+03 -0.43233584655E+03  0.10567189324E+04  0.12699999809E+01 0. -1.
</event>
<event>
 5   0  0.4005462E-05  0.2288694E+04  0.7818609E-02  0.8482392E-01
        1   -1    0    0  501    0  0.00000000000E+00  0.00000000000E+00  0.10333637116E+04  0.10333637116E+04  0.50400001928E-02 0. -1.
       -1   -1    0    0    0  501  0.00000000000E+00  0.00000000000E+00 -0.12672498768E+04  0.12672498768E+04  0.50400001928E-02 0.  1.
    10030    2    1    2    0    0  0.00000000000E+00  0.00000000000E+00 -0.23388616526E+03  0.23006135884E+04  0.22886939824E+04 0.  0.
        4    1    3    3  502    0  0.14354876605E+03 -0.10210156745E+04  0.38207884625E+03  0.10995749695E+04  0.12699999809E+01 0. -1.
       -4    1    3    3    0  502 -0.14354876605E+03  0.10210156745E+04 -0.61596501151E+03  0.12010386189E+04  0.12699999809E+01 0.  1.
</event>
<event>
 5   0  0.4095451E-05  0.2322276E+04  0.7818609E-02  0.8469190E-01
       -1   -1    0    0    0  501  0.00000000000E+00  0.00000000000E+00  0.64659579720E+03  0.64659579722E+03  0.50400001928E-02 0. -1.
        1   -1    0    0  501    0  0.00000000000E+00  0.00000000000E+00 -0.20851377588E+04  0.20851377588E+04  0.50400001928E-02 0.  1.
    10030    2    1    2    0    0  0.00000000000E+00  0.00000000000E+00 -0.14385419616E+04  0.27317335560E+04  0.23222758763E+04 0.  0.
        3    1    3    3  502    0 -0.43080249782E+02 -0.11460935285E+04 -0.93248972235E+03  0.14781486314E+04  0.10100000352E+00 0.  1.
       -3    1    3    3    0  502  0.43080249782E+02  0.11460935285E+04 -0.50605223924E+03  0.12535849246E+04  0.10100000352E+00 0. -1.
</event>
<event>
 5   0  0.4139830E-05  0.2332246E+04  0.7818609E-02  0.8465315E-01
        1   -1    0    0  501    0  0.00000000000E+00  0.00000000000E+00  0.11224520598E+04  0.11224520598E+04  0.50400001928E-02 0.  1.
       -1   -1    0    0    0  501  0.00000000000E+00  0.00000000000E+00 -0.12114925413E+04  0.12114925414E+04  0.50400001928E-02 0. -1.
    10030    2    1    2    0    0  0.00000000000E+00  0.00000000000E+00 -0.89040481533E+02  0.23339446012E+04  0.23322455261E+04 0.  0.
        1    1    3    3  502    0 -0.79727507953E+03  0.84801899949E+03  0.26654864745E+02  0.11642569552E+04  0.50400001928E-02 0.  1.
       -1    1    3    3    0  502  0.79727507953E+03 -0.84801899949E+03 -0.11569534628E+03  0.11696876460E+04  0.50400001928E-02 0. -1.
</event>
<event>
 5   0  0.4005462E-05  0.2366771E+04  0.7818609E-02  0.8452050E-01
       -1   -1    0    0    0  501  0.00000000000E+00  0.00000000000E+00  0.11760650300E+04  0.11760650300E+04  0.50400001928E-02 0. -1.
        1   -1    0    0  501    0  0.00000000000E+00  0.00000000000E+00 -0.11907515552E+04  0.11907515552E+04  0.50400001928E-02 0.  1.
    10030    2    1    2    0    0  0.00000000000E+00  0.00000000000E+00 -0.14686525177E+02  0.23668165852E+04  0.23667710185E+04 0.  0.
        4    1    3    3  502    0 -0.46085625092E+03 -0.54654606585E+03 -0.95038769823E+03  0.11892600540E+04  0.12699999809E+01 0.  1.
       -4    1    3    3    0  502  0.46085625092E+03  0.54654606585E+03  0.93570117306E+03  0.11775565312E+04  0.12699999809E+01 0. -1.
</event>
<event>
 5   0  0.4139830E-05  0.2310050E+04  0.7818609E-02  0.8473969E-01
        1   -1    0    0  501    0  0.00000000000E+00  0.00000000000E+00  0.95592057084E+03  0.95592057086E+03  0.50400001928E-02 0. -1.
       -1   -1    0    0    0  501  0.00000000000E+00  0.00000000000E+00 -0.13956003521E+04  0.13956003521E+04  0.50400001928E-02 0.  1.
    10030    2    1    2    0    0  0.00000000000E+00  0.00000000000E+00 -0.43967978121E+03  0.23515209229E+04  0.23100502897E+04 0.  0.
        1    1    3    3  502    0 -0.32449306706E+03 -0.83734728511E+03 -0.95926633062E+03  0.13140160271E+04  0.50400001928E-02 0.  1.
       -1    1    3    3    0  502  0.32449306706E+03  0.83734728511E+03  0.51958654941E+03  0.10375048958E+04  0.50400001928E-02 0. -1.
</event>
<event>
 5   0  0.9535394E-05  0.1559805E+04  0.7818609E-02  0.8845629E-01
       -2   -1    0    0    0  501  0.00000000000E+00  0.00000000000E+00  0.51693901656E+03  0.51693901657E+03  0.25500000920E-02 0.  1.
        2   -1    0    0  501    0  0.00000000000E+00  0.00000000000E+00 -0.11766331146E+04  0.11766331146E+04  0.25500000920E-02 0. -1.
    10030    2    1    2    0    0  0.00000000000E+00  0.00000000000E+00 -0.65969409800E+03  0.16935721311E+04  0.15598045584E+04 0.  0.
        2    1    3    3  502    0  0.36076159479E+03 -0.91799794206E+02 -0.10739458194E+04  0.11366335177E+04  0.25500000920E-02 0. -1.
       -2    1    3    3    0  502 -0.36076159479E+03  0.91799794206E+02  0.41425172139E+03  0.55693861346E+03  0.25500000920E-02 0.  1.
</event>
<event>
 5   0  0.4005462E-05  0.2379235E+04  0.7818609E-02  0.8447319E-01
       -1   -1    0    0    0  501  0.00000000000E+00  0.00000000000E+00  0.68085049144E+03  0.68085049146E+03  0.50400001928E-02 0. -1.
        1   -1    0    0  501    0  0.00000000000E+00  0.00000000000E+00 -0.20785615840E+04  0.20785615840E+04  0.50400001928E-02 0.  1.
    10030    2    1    2    0    0  0.00000000000E+00  0.00000000000E+00 -0.13977110925E+04  0.27594120755E+04  0.23792348989E+04 0.  0.
        4    1    3    3  502    0  0.35723760049E+03  0.93767496254E+02  0.61266968503E+03  0.71538577174E+03  0.12699999809E+01 0. -1.
       -4    1    3    3    0  502 -0.35723760049E+03 -0.93767496254E+02 -0.20103807776E+04  0.20440263037E+04  0.12699999809E+01 0.  1.
</event>
<event>
 5   0  0.9312074E-05  0.2198119E+04  0.7818609E-02  0.8519212E-01
       -2   -1    0    0    0  501  0.00000000000E+00  0.00000000000E+00  0.15487564435E+04  0.15487564435E+04  0.25500000920E-02 0.  1.
        2   -1    0    0  501    0  0.00000000000E+00  0.00000000000E+00 -0.77993635280E+03  0.77993635280E+03  0.25500000920E-02 0. -1.
    10030    2    1    2    0    0  0.00000000000E+00  0.00000000000E+00  0.76882009068E+03  0.23286927963E+04  0.21981186973E+04 0.  0.
        4    1    3    3  502    0  0.93550022591E+03  0.57085859716E+03  0.29647561439E+03  0.11353147640E+04  0.12699999809E+01 0.  1.
       -4    1    3    3    0  502 -0.93550022591E+03 -0.57085859716E+03  0.47234447629E+03  0.11933780322E+04  0.12699999809E+01 0. -1.
</event>
<event>
 5   0  0.4139830E-05  0.2292967E+04  0.7818609E-02  0.8480699E-01
        1   -1    0    0  501    0  0.00000000000E+00  0.00000000000E+00  0.90333790442E+03  0.90333790444E+03  0.50400001928E-02 0.  1.
       -1   -1    0    0    0  501  0.00000000000E+00  0.00000000000E+00 -0.14550753071E+04  0.14550753071E+04  0.50400001928E-02 0. -1.
    10030    2    1    2    0    0  0.00000000000E+00  0.00000000000E+00 -0.55173740266E+03  0.23584132115E+04  0.22929672293E+04 0.  0.
        1    1    3    3  502    0 -0.10111252792E+04  0.31126119693E+03  0.17851740044E+03  0.10729055528E+04  0.50400001928E-02 0.  1.
       -1    1    3    3    0  502  0.10111252792E+04 -0.31126119693E+03 -0.73025480310E+03  0.12855076587E+04  0.50400001928E-02 0. -1.
</event>
<event>
 5   0  0.4095451E-05  0.2301596E+04  0.7818609E-02  0.8477292E-01
        1   -1    0    0  501    0  0.00000000000E+00  0.00000000000E+00  0.20309842881E+04  0.20309842881E+04  0.50400001928E-02 0. -1.
       -1   -1    0    0    0  501  0.00000000000E+00  0.00000000000E+00 -0.65206602078E+03  0.65206602080E+03  0.50400001928E-02 0.  1.
    10030    2    1    2    0    0  0.00000000000E+00  0.00000000000E+00  0.13789182673E+04  0.26830503089E+04  0.23015958316E+04 0.  0.
        3    1    3    3  502    0  0.28131610929E+03 -0.19264855629E+03 -0.59183326728E+03  0.68302184888E+03  0.10100000352E+00 0.  1.
       -3    1    3    3    0  502 -0.28131610929E+03  0.19264855629E+03  0.19707515346E+04  0.20000284600E+04  0.10100000352E+00 0. -1.
</event>
<event>
 5   0  0.9535394E-05  0.2291115E+04  0.7818609E-02  0.8481433E-01
       -2   -1    0    0    0  501  0.00000000000E+00  0.00000000000E+00  0.47701326524E+03  0.47701326524E+03  0.25500000920E-02 0.  1.
        2   -1    0    0  501    0  0.00000000000E+00  0.00000000000E+00 -0.27510803026E+04  0.27510803026E+04  0.25500000920E-02 0. -1.
    10030    2    1    2    0    0  0.00000000000E+00  0.00000000000E+00 -0.22740670374E+04  0.32280935679E+04  0.22911148361E+04 0.  0.
        2    1    3    3  502    0  0.61440314991E+03 -0.93069293853E+03 -0.76794674749E+03  0.13540394320E+04  0.25500000920E-02 0. -1.
       -2    1    3    3    0  502 -0.61440314991E+03  0.93069293853E+03 -0.15061202899E+04  0.18740541358E+04  0.25500000920E-02 0.  1.
</event>
<event>
 5   0  0.9641157E-05  0.2249931E+04  0.7818609E-02  0.8497928E-01
       -2   -1    0    0    0  501  0.00000000000E+00  0.00000000000E+00  0.12359108652E+04  0.12359108652E+04  0.25500000920E-02 0.  1.
        2   -1    0    0  501    0  0.00000000000E+00  0.00000000000E+00 -0.10239796013E+04  0.10239796013E+04  0.25500000920E-02 0. -1.
    10030    2    1    2    0    0  0.00000000000E+00  0.00000000000E+00  0.21193126393E+03  0.22598904665E+04  0.22499311234E+04 0.  0.
        3    1    3    3  502    0 -0.14481589567E+03 -0.32648055182E+03 -0.96552082351E+03  0.10294618328E+04  0.10100000352E+00 0. -1.
       -3    1    3    3    0  502  0.14481589567E+03  0.32648055182E+03  0.11774520874E+04  0.12304286338E+04  0.10100000352E+00 0.  1.
</event>
<event>
 5   0  0.9483073E-05  0.2189983E+04  0.7818609E-02  0.8522609E-01
        2   -1    0    0  501    0  0.00000000000E+00  0.00000000000E+00  0.11602221942E+04  0.11602221942E+04  0.25500000920E-02 0. -1.
       -2   -1    0    0    0  501  0.00000000000E+00  0.00000000000E+00 -0.10334284061E+04  0.10334284061E+04  0.25500000920E-02 0.  1.
    10030    2    1    2    0    0  0.00000000000E+00  0.00000000000E+00  0.12679378816E+03  0.21936506003E+04  0.21899831715E+04 0.  0.
        5    1    3    3  502    0 -0.10190893892E+04 -0.31956366116E+03 -0.17850362406E+03  0.10828433638E+04  0.46999998093E+01 0.  1.
       -5    1    3    3    0  502  0.10190893892E+04  0.31956366116E+03  0.30529741223E+03  0.11108072365E+04  0.46999998093E+01 0. -1.
</event>
<event>
 5   0  0.4005462E-05  0.1838285E+04  0.7818609E-02  0.8686201E-01
       -1   -1    0    0    0  501  0.00000000000E+00  0.00000000000E+00  0.79180205791E+03  0.79180205792E+03  0.50400001928E-02 0. -1.
        1   -1    0    0  501    0  0.00000000000E+00  0.00000000000E+00 -0.10669622876E+04  0.10669622876E+04  0.50400001928E-02 0.  1.
    10030    2    1    2    0    0  0.00000000000E+00  0.00000000000E+00 -0.27516022965E+03  0.18587643455E+04  0.18382849997E+04 0.  0.
        4    1    3    3  502    0 -0.74045715044E+03 -0.42406125169E+03 -0.48302421242E+03  0.98051962729E+03  0.12699999809E+01 0. -1.
       -4    1    3    3    0  502  0.74045715044E+03  0.42406125169E+03  0.20786398276E+03  0.87824471820E+03  0.12699999809E+01 0.  1.
</event>
<event>
 5   0  0.4139830E-05  0.2207946E+04  0.7818609E-02  0.8515128E-01
       -1   -1    0    0    0  501  0.00000000000E+00  0.00000000000E+00  0.65196732094E+03  0.65196732096E+03  0.50400001928E-02 0. -1.
        1   -1    0    0  501    0  0.00000000000E+00  0.00000000000E+00 -0.18693521119E+04  0.18693521119E+04  0.50400001928E-02 0.  1.
    10030    2    1    2    0    0  0.00000000000E+00  0.00000000000E+00 -0.12173847909E+04  0.25213194328E+04  0.22079460938E+04 0.  0.
        1    1    3    3  502    0 -0.50985094396E+03 -0.94184141034E+03 -0.30282727017E+03  0.11129769013E+04  0.50400001928E-02 0.  1.
       -1    1    3    3    0  502  0.50985094396E+03  0.94184141034E+03 -0.91455752076E+03  0.14083425315E+04  0.50400001928E-02 0. -1.
</event>
<event>
 5   0  0.4095451E-05  0.2333308E+04  0.7818609E-02  0.8464903E-01
        1   -1    0    0  501    0  0.00000000000E+00  0.00000000000E+00  0.90988104284E+03  0.90988104286E+03  0.50400001928E-02 0. -1.
       -1   -1    0    0    0  501  0.00000000000E+00  0.00000000000E+00 -0.14958891276E+04  0.14958891276E+04  0.50400001928E-02 0.  1.
    10030    2    1    2    0    0  0.00000000000E+00  0.00000000000E+00 -0.58600808472E+03  0.24057701704E+04  0.23333076603E+04 0.  0.
        3    1    3    3  502    0  0.13517096157E+03  0.46698045439E+03 -0.13864770015E+04  0.14692380404E+04  0.10100000352E+00 0.  1.
       -3    1    3    3    0  502 -0.13517096157E+03 -0.46698045439E+03  0.80046891675E+03  0.93653213000E+03  0.10100000352E+00 0. -1.
</event>
<event>
 5   0  0.9641157E-05  0.2278496E+04  0.7818609E-02  0.8486449E-01
       -2   -1    0    0    0  501  0.00000000000E+00  0.00000000000E+00  0.98190919487E+03  0.98190919488E+03  0.25500000920E-02 0.  1.
        2   -1    0    0  501    0  0.00000000000E+00  0.00000000000E+00 -0.13217979797E+04  0.13217979797E+04  0.25500000920E-02 0. -1.
    10030    2    1    2    0    0  0.00000000000E+00  0.00000000000E+00 -0.33988878480E+03  0.23037071745E+04  0.22784956353E+04 0.  0.
        3    1    3    3  502    0 -0.89712051003E+03 -0.50215601762E+03  0.32630182258E+03  0.10786374577E+04  0.10100000352E+00 0.  1.
       -3    1    3    3    0  502  0.89712051003E+03  0.50215601762E+03 -0.66619060738E+03  0.12250697168E+04  0.10100000352E+00 0. -1.
</event>
<event>
 5   0  0.9535394E-05  0.2108180E+04  0.7818609E-02  0.8557648E-01
       -2   -1    0    0    0  501  0.00000000000E+00  0.00000000000E+00  0.89875710481E+03  0.89875710481E+03  0.25500000920E-02 0. -1.
        2   -1    0    0  501    0  0.00000000000E+00  0.00000000000E+00 -0.12362695568E+04  0.12362695568E+04  0.25500000920E-02 0.  1.
    10030    2    1    2    0    0  0.00000000000E+00  0.00000000000E+00 -0.33751245203E+03  0.21350266617E+04  0.21081803032E+04 0.  0.
        2    1    3    3  502    0 -0.61308875487E+03  0.17518636071E+02  0.69943616576E+03  0.93026645319E+03  0.25500000920E-02 0. -1.
       -2    1    3    3    0  502  0.61308875487E+03 -0.17518636071E+02 -0.10369486178E+04  0.12047602085E+04  0.25500000920E-02 0.  1.
</event>
<event>
 5   0  0.3885219E-05  0.2317392E+04  0.7818609E-02  0.8471095E-01
       -1   -1    0    0    0  501  0.00000000000E+00  0.00000000000E+00  0.77671786103E+03  0.77671786105E+03  0.50400001928E-02 0.  1.
        1   -1    0    0  501    0  0.00000000000E+00  0.00000000000E+00 -0.17285256912E+04  0.17285256912E+04  0.50400001928E-02 0. -1.
    10030    2    1    2    0    0  0.00000000000E+00  0.00000000000E+00 -0.95180783014E+03  0.25052435522E+04  0.23173923083E+04 0.  0.
        2    1    3    3  502    0  0.13725906021E+03 -0.97548195627E+03 -0.11354149308E+04  0.15031873342E+04  0.25500000920E-02 0. -1.
       -2    1    3    3    0  502 -0.13725906021E+03  0.97548195627E+03  0.18360710068E+03  0.10020562180E+04  0.25500000920E-02 0.  1.
</event>
<event>
 5   0  0.3885219E-05  0.2276611E+04  0.7818609E-02  0.8487201E-01
        1   -1    0    0  501    0  0.00000000000E+00  0.00000000000E+00  0.14079293223E+04  0.14079293223E+04  0.50400001928E-02 0.  1.
       -1   -1    0    0    0  501  0.00000000000E+00  0.00000000000E+00 -0.92031554599E+03  0.92031554600E+03  0.50400001928E-02 0. -1.
    10030    2    1    2    0    0  0.00000000000E+00  0.00000000000E+00  0.48761377632E+03  0.23282448683E+04  0.22766108521E+04 0.  0.
        2    1    3    3  502    0  0.30536753442E+03 -0.28301832226E+03 -0.83965054072E+03  0.93720954559E+03  0.25500000920E-02 0. -1.
       -2    1    3    3    0  502 -0.30536753442E+03  0.28301832226E+03  0.13272643170E+04  0.13910353227E+04  0.25500000920E-02 0.  1.
</event>
<event>
 5   0  0.9313463E-05  0.2278636E+04  0.7818609E-02  0.8486393E-01
        2   -1    0    0  501    0  0.00000000000E+00  0.00000000000E+00  0.19718022297E+04  0.19718022297E+04  0.25500000920E-02 0.  1.
       -2   -1    0    0    0  501  0.00000000000E+00  0.00000000000E+00 -0.65830388247E+03  0.65830388247E+03  0.25500000920E-02 0. -1.
    10030    2    1    2    0    0  0.00000000000E+00  0.00000000000E+00  0.13134983473E+04  0.26301061122E+04  0.22786356122E+04 0.  0.
        1    1    3    3  502    0  0.96179029104E+03  0.61060215251E+03  0.67177702673E+03  0.13225580994E+04  0.50400001928E-02 0.  1.
       -1    1    3    3    0  502 -0.96179029104E+03 -0.61060215251E+03  0.64172132054E+03  0.13075480128E+04  0.50400001928E-02 0. -1.
</event>
<event>
 5   0  0.4095451E-05  0.2261144E+04  0.7818609E-02  0.8493401E-01
        1   -1    0    0  501    0  0.00000000000E+00  0.00000000000E+00  0.16551253440E+04  0.16551253440E+04  0.50400001928E-02 0. -1.
       -1   -1    0    0    0  501  0.00000000000E+00  0.00000000000E+00 -0.77226387704E+03  0.77226387705E+03  0.50400001928E-02 0.  1.
    10030    2    1    2    0    0  0.00000000000E+00  0.00000000000E+00  0.88286146699E+03  0.24273892211E+04  0.22611444140E+04 0.  0.
        3    1    3    3  502    0  0.50750687393E+03 -0.18869543692E+03  0.15068844605E+04  0.16012089129E+04  0.10100000352E+00 0. -1.
       -3    1    3    3    0  502 -0.50750687393E+03  0.18869543692E+03 -0.62402299356E+03  0.82618030822E+03  0.10100000352E+00 0.  1.
</event>
<event>
 5   0  0.9313463E-05  0.2284532E+04  0.7818609E-02  0.8484045E-01
        2   -1    0    0  501    0  0.00000000000E+00  0.00000000000E+00  0.11613020003E+04  0.11613020003E+04  0.25500000920E-02 0. -1.
       -2   -1    0    0    0  501  0.00000000000E+00  0.00000000000E+00 -0.11235417156E+04  0.11235417156E+04  0.25500000920E-02 0.  1.
    10030    2    1    2    0    0  0.00000000000E+00  0.00000000000E+00  0.37760284755E+02  0.22848437159E+04  0.22845316735E+04 0.  0.
        1    1    3    3  502    0  0.10961537196E+04 -0.18978181389E+03 -0.24038706944E+03  0.11381370994E+04  0.50400001928E-02 0.  1.
       -1    1    3    3    0  502 -0.10961537196E+04  0.18978181389E+03  0.27814735420E+03  0.11467066166E+04  0.50400001928E-02 0. -1.
</event>
<event>
 5   0  0.3885219E-05  0.2218168E+04  0.7818609E-02  0.8510904E-01
       -1   -1    0    0    0  501  0.00000000000E+00  0.00000000000E+00  0.76765794478E+03  0.76765794480E+03  0.50400001928E-02 0.  1.
        1   -1    0    0  501    0  0.00000000000E+00  0.00000000000E+00 -0.16023632442E+04  0.16023632442E+04  0.50400001928E-02 0. -1.
    10030    2    1    2    0    0  0.00000000000E+00  0.00000000000E+00 -0.83470529940E+03  0.23700211890E+04  0.22181675995E+04 0.  0.
        2    1    3    3  502    0 -0.90499913303E+03  0.16554678185E+03  0.24443478167E+03  0.95193357450E+03  0.25500000920E-02 0.  1.
       -2    1    3    3    0  502  0.90499913303E+03 -0.16554678185E+03 -0.10791400811E+04  0.14180876145E+04  0.25500000920E-02 0. -1.
</event>
<event>
 5   0  0.4005462E-05  0.2241888E+04  0.7818609E-02  0.8501193E-01
        1   -1    0    0  501    0  0.00000000000E+00  0.00000000000E+00  0.18217723438E+04  0.18217723438E+04  0.50400001928E-02 0.  1.
       -1   -1    0    0    0  501  0.00000000000E+00  0.00000000000E+00 -0.68972170193E+03  0.68972170195E+03  0.50400001928E-02 0. -1.
    10030    2    1    2    0    0  0.00000000000E+00  0.00000000000E+00  0.11320506418E+04  0.25114940457E+04  0.22418884196E+04 0.  0.
        4    1    3    3  502    0 -0.48266275234E+03 -0.76874063491E+03  0.13028358120E+04  0.15878627971E+04  0.12699999809E+01 0. -1.
       -4    1    3    3    0  502  0.48266275234E+03  0.76874063491E+03 -0.17078517020E+03  0.92363124867E+03  0.12699999809E+01 0.  1.
</event>
<event>
 5   0  0.9312074E-05  0.2288371E+04  0.7818609E-02  0.8482520E-01
        2   -1    0    0  501    0  0.00000000000E+00  0.00000000000E+00  0.17635525986E+04  0.17635525986E+04  0.25500000920E-02 0.  1.
       -2   -1    0    0    0  501  0.00000000000E+00  0.00000000000E+00 -0.74234276361E+03  0.74234276362E+03  0.25500000920E-02 0. -1.
    10030    2    1    2    0    0  0.00000000000E+00  0.00000000000E+00  0.10212098350E+04  0.25058953622E+04  0.22883710450E+04 0.  0.
        4    1    3    3  502    0 -0.20729790417E+03 -0.90451486490E+03  0.12435890284E+04  0.15516555179E+04  0.12699999809E+01 0.  1.
       -4    1    3    3    0  502  0.20729790417E+03  0.90451486490E+03 -0.22237919338E+03  0.95423984430E+03  0.12699999809E+01 0. -1.
</event>
<event>
 5   0  0.9535394E-05  0.1540793E+04  0.7818609E-02  0.8857770E-01
        2   -1    0    0  501    0  0.00000000000E+00  0.00000000000E+00  0.51116161537E+03  0.51116161538E+03  0.25500000920E-02 0.  1.
       -2   -1    0    0    0  501  0.00000000000E+00  0.00000000000E+00 -0.11611024110E+04  0.11611024110E+04  0.25500000920E-02 0. -1.
    10030    2    1    2    0    0  0.00000000000E+00  0.00000000000E+00 -0.64994079558E+03  0.16722640263E+04  0.15407932814E+04 0.  0.
        2    1    3    3  502    0  0.15578424239E+03 -0.29916040241E+03 -0.10767072464E+04  0.11283014540E+04  0.25500000920E-02 0. -1.
       -2    1    3    3    0  502 -0.15578424239E+03  0.29916040241E+03  0.42676645084E+03  0.54396257235E+03  0.25500000920E-02 0.  1.
</event>
<event>
 5   0  0.4295775E-05  0.2311160E+04  0.7818609E-02  0.8473534E-01
        1   -1    0    0  501    0  0.00000000000E+00  0.00000000000E+00  0.15344263513E+04  0.15344263513E+04  0.50400001928E-02 0. -1.
       -1   -1    0    0    0  501  0.00000000000E+00  0.00000000000E+00 -0.87027001676E+03  0.87027001677E+03  0.50400001928E-02 0.  1.
    10030    2    1    2    0    0  0.00000000000E+00  0.00000000000E+00  0.66415633456E+03  0.24046963681E+04  0.23111600953E+04 0.  0.
        5    1    3    3  502    0 -0.93715383040E+03 -0.20319241527E+03  0.10029997753E+04  0.13876509282E+04  0.46999998093E+01 0. -1.
       -5    1    3    3    0  502  0.93715383040E+03  0.20319241527E+03 -0.33884344070E+03  0.10170454399E+04  0.46999998093E+01 0.  1.
</event>
<event>
 5   0  0.9483073E-05  0.2286912E+04  0.7818609E-02  0.8483099E-01
        2   -1    0    0  501    0  0.00000000000E+00  0.00000000000E+00  0.85306494842E+03  0.85306494842E+03  0.25500000920E-02 0.  1.
       -2   -1    0    0    0  501  0.00000000000E+00  0.00000000000E+00 -0.15326989723E+04  0.15326989723E+04  0.25500000920E-02 0. -1.
    10030    2    1    2    0    0  0.00000000000E+00  0.00000000000E+00 -0.67963402386E+03  0.23857639207E+04  0.22869121275E+04 0.  0.
        5    1    3    3  502    0 -0.16565573675E+02  0.11194087598E+04 -0.58250821485E+03  0.12620175514E+04  0.46999998093E+01 0.  1.
       -5    1    3    3    0  502  0.16565573675E+02 -0.11194087598E+04 -0.97125809012E+02  0.11237463693E+04  0.46999998093E+01 0. -1.
</event>
<event>
 5   0  0.9535394E-05  0.2308860E+04  0.7818609E-02  0.8474436E-01
        2   -1    0    0  501    0  0.00000000000E+00  0.00000000000E+00  0.16429869259E+04  0.16429869259E+04  0.25500000920E-02 0. -1.
       -2   -1    0    0    0  501  0.00000000000E+00  0.00000000000E+00 -0.81115004841E+03  0.81115004841E+03  0.25500000920E-02 0.  1.
    10030    2    1    2    0    0  0.00000000000E+00  0.00000000000E+00  0.83183687748E+03  0.24541369743E+04  0.23088602595E+04 0.  0.
        2    1    3    3  502    0  0.76365393280E+03 -0.84645241499E+03  0.22265400104E+03  0.11615609429E+04  0.25500000920E-02 0.  1.
       -2    1    3    3    0  502 -0.76365393280E+03  0.84645241499E+03  0.60918287644E+03  0.12925760314E+04  0.25500000920E-02 0. -1.
</event>
<event>
 5   0  0.3261500E-05  0.2191127E+04  0.7818609E-02  0.8522130E-01
        4   -1    0    0  501    0  0.00000000000E+00  0.00000000000E+00  0.12219010508E+04  0.12219017108E+04  0.12699999809E+01 0.  1.
       -4   -1    0    0    0  501  0.00000000000E+00  0.00000000000E+00 -0.98228729895E+03  0.98228811994E+03  0.12699999809E+01 0. -1.
    10030    2    1    2    0    0  0.00000000000E+00  0.00000000000E+00  0.23961375185E+03  0.22041898307E+04  0.21911271209E+04 0.  0.
        5    1    3    3  502    0 -0.10859612389E+04 -0.29680699501E+02  0.26223011547E+03  0.11175775051E+04  0.46999998093E+01 0.  1.
       -5    1    3    3    0  502  0.10859612389E+04  0.29680699501E+02 -0.22616363620E+02  0.10866123257E+04  0.46999998093E+01 0. -1.
</event>
<event>
 5   0  0.4095451E-05  0.2307014E+04  0.7818609E-02  0.8475161E-01
        1   -1    0    0  501    0  0.00000000000E+00  0.00000000000E+00  0.14882571472E+04  0.14882571472E+04  0.50400001928E-02 0. -1.
       -1   -1    0    0    0  501  0.00000000000E+00  0.00000000000E+00 -0.89405131811E+03  0.89405131812E+03  0.50400001928E-02 0.  1.
    10030    2    1    2    0    0  0.00000000000E+00  0.00000000000E+00  0.59420582908E+03  0.23823084653E+04  0.23070138831E+04 0.  0.
        3    1    3    3  502    0  0.53625426495E+03 -0.32304435567E+03  0.12975637265E+04  0.14406935576E+04  0.10100000352E+00 0. -1.
       -3    1    3    3    0  502 -0.53625426495E+03  0.32304435567E+03 -0.70335789740E+03  0.94161490772E+03  0.10100000352E+00 0.  1.
</event>
<event>
 5   0  0.9313463E-05  0.2342799E+04  0.7818609E-02  0.8461235E-01
        2   -1    0    0  501    0  0.00000000000E+00  0.00000000000E+00  0.13397372954E+04  0.13397372954E+04  0.25500000920E-02 0. -1.
       -2   -1    0    0    0  501  0.00000000000E+00  0.00000000000E+00 -0.10242136249E+04  0.10242136249E+04  0.25500000920E-02 0.  1.
    10030    2    1    2    0    0  0.00000000000E+00  0.00000000000E+00  0.31552367053E+03  0.23639509203E+04  0.23427993441E+04 0.  0.
        1    1    3    3  502    0 -0.20690445880E+03 -0.97645805679E+03  0.77640187160E+03  0.12645472146E+04  0.50400001928E-02 0. -1.
       -1    1    3    3    0  502  0.20690445880E+03  0.97645805679E+03 -0.46087820107E+03  0.10994037056E+04  0.50400001928E-02 0.  1.
</event>
<event>
 5   0  0.4095451E-05  0.2355763E+04  0.7818609E-02  0.8456253E-01
        1   -1    0    0  501    0  0.00000000000E+00  0.00000000000E+00  0.10969201690E+04  0.10969201690E+04  0.50400001928E-02 0. -1.
       -1   -1    0    0    0  501  0.00000000000E+00  0.00000000000E+00 -0.12648183301E+04  0.12648183301E+04  0.50400001928E-02 0.  1.
    10030    2    1    2    0    0  0.00000000000E+00  0.00000000000E+00 -0.16789816116E+03  0.23617384991E+04  0.23557629222E+04 0.  0.
        3    1    3    3  502    0  0.74813752670E+03  0.69531432266E+03  0.50425285975E+03  0.11390534329E+04  0.10100000352E+00 0. -1.
       -3    1    3    3    0  502 -0.74813752670E+03 -0.69531432266E+03 -0.67215102091E+03  0.12226850663E+04  0.10100000352E+00 0.  1.
</event>
<event>
 5   0  0.9535394E-05  0.2251948E+04  0.7818609E-02  0.8497112E-01
        2   -1    0    0  501    0  0.00000000000E+00  0.00000000000E+00  0.92694062171E+03  0.92694062171E+03  0.25500000920E-02 0. -1.
       -2   -1    0    0    0  501  0.00000000000E+00  0.00000000000E+00 -0.13677444467E+04  0.13677444467E+04  0.25500000920E-02 0.  1.
    10030    2    1    2    0    0  0.00000000000E+00  0.00000000000E+00 -0.44080382499E+03  0.22946850684E+04  0.22519483900E+04 0.  0.
        2    1    3    3  502    0  0.11632423366E+03  0.95989667854E+03  0.36750927140E+03  0.10344061221E+04  0.25500000920E-02 0. -1.
       -2    1    3    3    0  502 -0.11632423366E+03 -0.95989667854E+03 -0.80831309639E+03  0.12602789463E+04  0.25500000920E-02 0.  1.
</event>
<event>
 5   0  0.9641157E-05  0.2293388E+04  0.7818609E-02  0.8480533E-01
       -2   -1    0    0    0  501  0.00000000000E+00  0.00000000000E+00  0.12645904486E+04  0.12645904486E+04  0.25500000920E-02 0. -1.
        2   -1    0    0  501    0  0.00000000000E+00  0.00000000000E+00 -0.10397887312E+04  0.10397887312E+04  0.25500000920E-02 0.  1.
    10030    2    1    2    0    0  0.00000000000E+00  0.00000000000E+00  0.22480171743E+03  0.23043791799E+04  0.22933877981E+04 0.  0.
        3    1    3    3  502    0  0.11097361242E+04 -0.23938003187E+03 -0.49896708492E+02  0.11363567912E+04  0.10100000352E+00 0. -1.
       -3    1    3    3    0  502 -0.11097361242E+04  0.23938003187E+03  0.27469842592E+03  0.11680223887E+04  0.10100000352E+00 0.  1.
</event>
<event>
 5   0  0.9313463E-05  0.2310451E+04  0.7818609E-02  0.8473812E-01
        2   -1    0    0  501    0  0.00000000000E+00  0.00000000000E+00  0.18295557978E+04  0.18295557978E+04  0.25500000920E-02 0.  1.
       -2   -1    0    0    0  501  0.00000000000E+00  0.00000000000E+00 -0.72943740708E+03  0.72943740708E+03  0.25500000920E-02 0. -1.
    10030    2    1    2    0    0  0.00000000000E+00  0.00000000000E+00  0.11001183907E+04  0.25589932049E+04  0.23104514167E+04 0.  0.
        1    1    3    3  502    0  0.88598303377E+02  0.51828611033E+03 -0.58922161489E+03  0.78971657131E+03  0.50400001928E-02 0. -1.
       -1    1    3    3    0  502 -0.88598303377E+02 -0.51828611033E+03  0.16893400056E+04  0.17692766336E+04  0.50400001928E-02 0.  1.
</event>
<event>
 5   0  0.9483073E-05  0.2254875E+04  0.7818609E-02  0.8495929E-01
        2   -1    0    0  501    0  0.00000000000E+00  0.00000000000E+00  0.20683013703E+04  0.20683013703E+04  0.25500000920E-02 0.  1.
       -2   -1    0    0    0  501  0.00000000000E+00  0.00000000000E+00 -0.61456992498E+03  0.61456992498E+03  0.25500000920E-02 0. -1.
    10030    2    1    2    0    0  0.00000000000E+00  0.00000000000E+00  0.14537314453E+04  0.26828712953E+04  0.22548754449E+04 0.  0.
        5    1    3    3  502    0  0.30318187080E+03  0.59761249761E+03  0.18056189670E+04  0.19259651836E+04  0.46999998093E+01 0.  1.
       -5    1    3    3    0  502 -0.30318187080E+03 -0.59761249761E+03 -0.35188752171E+03  0.75690611175E+03  0.46999998093E+01 0. -1.
</event>
<event>
 5   0  0.4005462E-05  0.2318133E+04  0.7818609E-02  0.8470806E-01
        1   -1    0    0  501    0  0.00000000000E+00  0.00000000000E+00  0.16077105132E+04  0.16077105132E+04  0.50400001928E-02 0. -1.
       -1   -1    0    0    0  501  0.00000000000E+00  0.00000000000E+00 -0.83561974564E+03  0.83561974565E+03  0.50400001928E-02 0.  1.
    10030    2    1    2    0    0  0.00000000000E+00  0.00000000000E+00  0.77209076757E+03  0.24433302589E+04  0.23181325675E+04 0.  0.
        4    1    3    3  502    0  0.57835903753E+02  0.73275894958E+03  0.13306343688E+04  0.15201546324E+04  0.12699999809E+01 0. -1.
       -4    1    3    3    0  502 -0.57835903753E+02 -0.73275894958E+03 -0.55854360125E+03  0.92317562649E+03  0.12699999809E+01 0.  1.
</event>
<event>
 5   0  0.4295775E-05  0.2322516E+04  0.7818609E-02  0.8469096E-01
       -1   -1    0    0    0  501  0.00000000000E+00  0.00000000000E+00  0.14422762065E+04  0.14422762065E+04  0.50400001928E-02 0. -1.
        1   -1    0    0  501    0  0.00000000000E+00  0.00000000000E+00 -0.93499464018E+03  0.93499464019E+03  0.50400001928E-02 0.  1.
    10030    2    1    2    0    0  0.00000000000E+00  0.00000000000E+00  0.50728156630E+03  0.23772708467E+04  0.23225163274E+04 0.  0.
        5    1    3    3  502    0  0.70671410898E+03 -0.32628959601E+02 -0.68893219621E+03  0.98750146420E+03  0.46999998093E+01 0.  1.
       -5    1    3    3    0  502 -0.70671410898E+03  0.32628959601E+02  0.11962137625E+04  0.13897693825E+04  0.46999998093E+01 0. -1.
</event>
<event>
 5   0  0.9312074E-05  0.2008445E+04  0.7818609E-02  0.8602683E-01
       -2   -1    0    0    0  501  0.00000000000E+00  0.00000000000E+00  0.48584611798E+03  0.48584611799E+03  0.25500000920E-02 0.  1.
        2   -1    0    0  501    0  0.00000000000E+00  0.00000000000E+00 -0.20756829673E+04  0.20756829673E+04  0.25500000920E-02 0. -1.
    10030    2    1    2    0    0  0.00000000000E+00  0.00000000000E+00 -0.15898368493E+04  0.25615290853E+04  0.20084446837E+04 0.  0.
        4    1    3    3  502    0  0.52914877714E+03 -0.81048956874E+03 -0.11361131308E+04  0.14925302102E+04  0.12699999809E+01 0. -1.
       -4    1    3    3    0  502 -0.52914877714E+03  0.81048956874E+03 -0.45372371852E+03  0.10689988751E+04  0.12699999809E+01 0.  1.
</event>
<event>
 5   0  0.4005462E-05  0.2302126E+04  0.7818609E-02  0.8477083E-01
       -1   -1    0    0    0  501  0.00000000000E+00  0.00000000000E+00  0.75959522884E+03  0.75959522886E+03  0.50400001928E-02 0.  1.
        1   -1    0    0  501    0  0.00000000000E+00  0.00000000000E+00 -0.17442786241E+04  0.17442786241E+04  0.50400001928E-02 0. -1.
    10030    2    1    2    0    0  0.00000000000E+00  0.00000000000E+00 -0.98468339528E+03  0.25038738530E+04  0.23021257313E+04 0.  0.
        4    1    3    3  502    0 -0.29477594202E+03  0.19193591733E+02  0.71766589063E+03  0.77608452725E+03  0.12699999809E+01 0.  1.
       -4    1    3    3    0  502  0.29477594202E+03 -0.19193591733E+02 -0.17023492859E+04  0.17277893257E+04  0.12699999809E+01 0. -1.
</event>
<event>
 5   0  0.4139830E-05  0.2232748E+04  0.7818609E-02  0.8504920E-01
       -1   -1    0    0    0  501  0.00000000000E+00  0.00000000000E+00  0.62428409687E+03  0.62428409689E+03  0.50400001928E-02 0. -1.
        1   -1    0    0  501    0  0.00000000000E+00  0.00000000000E+00 -0.19963529397E+04  0.19963529397E+04  0.50400001928E-02 0.  1.
    10030    2    1    2    0    0  0.00000000000E+00  0.00000000000E+00 -0.13720688428E+04  0.26206370366E+04  0.22327484337E+04 0.  0.
        1    1    3    3  502    0  0.74604887909E+02  0.10757076089E+04 -0.34671029609E+03  0.11326609284E+04  0.50400001928E-02 0. -1.
       -1    1    3    3    0  502 -0.74604887909E+02 -0.10757076089E+04 -0.10253585467E+04  0.14879761082E+04  0.50400001928E-02 0.  1.
</event>
<event>
 5   0  0.9313463E-05  0.2292894E+04  0.7818609E-02  0.8480728E-01
       -2   -1    0    0    0  501  0.00000000000E+00  0.00000000000E+00  0.80977727266E+03  0.80977727267E+03  0.25500000920E-02 0. -1.
        2   -1    0    0  501    0  0.00000000000E+00  0.00000000000E+00 -0.16230888483E+04  0.16230888483E+04  0.25500000920E-02 0.  1.
    10030    2    1    2    0    0  0.00000000000E+00  0.00000000000E+00 -0.81331157559E+03  0.24328661209E+04  0.22928937706E+04 0.  0.
        1    1    3    3  502    0 -0.86616921688E+03 -0.11935569687E+03 -0.11934381942E+04  0.14794558520E+04  0.50400001928E-02 0.  1.
       -1    1    3    3    0  502  0.86616921688E+03  0.11935569687E+03  0.38012661863E+03  0.95341026890E+03  0.50400001928E-02 0. -1.
</event>
<event>
 5   0  0.4295775E-05  0.1861610E+04  0.7818609E-02  0.8674205E-01
        1   -1    0    0  501    0  0.00000000000E+00  0.00000000000E+00  0.72787761574E+03  0.72787761576E+03  0.50400001928E-02 0.  1.
       -1   -1    0    0    0  501  0.00000000000E+00  0.00000000000E+00 -0.11903073156E+04  0.11903073156E+04  0.50400001928E-02 0. -1.
    10030    2    1    2    0    0  0.00000000000E+00  0.00000000000E+00 -0.46242969986E+03  0.19181849314E+04  0.18616101105E+04 0.  0.
        5    1    3    3  502    0  0.41267255426E+03  0.20550931360E+03 -0.10643943330E+04  0.11599526288E+04  0.46999998093E+01 0. -1.
       -5    1    3    3    0  502 -0.41267255426E+03 -0.20550931360E+03  0.60196463316E+03  0.75823230252E+03  0.46999998093E+01 0.  1.
</event>
<event>
 5   0  0.9312074E-05  0.2202762E+04  0.7818609E-02  0.8517279E-01
        2   -1    0    0  501    0  0.00000000000E+00  0.00000000000E+00  0.83686282907E+03  0.83686282908E+03  0.25500000920E-02 0.  1.
       -2   -1    0    0    0  501  0.00000000000E+00  0.00000000000E+00 -0.14495089766E+04  0.14495089766E+04  0.25500000920E-02 0. -1.
    10030    2    1    2    0    0  0.00000000000E+00  0.00000000000E+00 -0.61264614756E+03  0.22863718057E+04  0.22027620688E+04 0.  0.
        4    1    3    3  502    0  0.40418983794E+03  0.17048222984E+03 -0.13549188468E+04  0.14241630209E+04  0.12699999809E+01 0. -1.
       -4    1    3    3    0  502 -0.40418983794E+03 -0.17048222984E+03  0.74227269920E+03  0.86220878485E+03  0.12699999809E+01 0.  1.
</event>
<event>
 5   0  0.9313463E-05  0.1851920E+04  0.7818609E-02  0.8679166E-01
       -2   -1    0    0    0  501  0.00000000000E+00  0.00000000000E+00  0.18999174275E+04  0.18999174275E+04  0.25500000920E-02 0.  1.
        2   -1    0    0  501    0  0.00000000000E+00  0.00000000000E+00 -0.45128390007E+03  0.45128390007E+03  0.25500000920E-02 0. -1.
    10030    2    1    2    0    0  0.00000000000E+00  0.00000000000E+00  0.14486335274E+04  0.23512013276E+04  0.18519202429E+04 0.  0.
        1    1    3    3  502    0 -0.20674460113E+02  0.74094576681E+03  0.14288875392E+04  0.16097042158E+04  0.50400001928E-02 0.  1.
       -1    1    3    3    0  502  0.20674460113E+02 -0.74094576681E+03  0.19745988195E+02  0.74149711174E+03  0.50400001928E-02 0. -1.
</event>
<event>
 5   0  0.9641157E-05  0.2345571E+04  0.7818609E-02  0.8460167E-01
        2   -1    0    0  501    0  0.00000000000E+00  0.00000000000E+00  0.14723148986E+04  0.14723148986E+04  0.25500000920E-02 0. -1.
       -2   -1    0    0    0  501  0.00000000000E+00  0.00000000000E+00 -0.93419295447E+03  0.93419295447E+03  0.25500000920E-02 0.  1.
    10030    2    1    2    0    0  0.00000000000E+00  0.00000000000E+00  0.53812194410E+03  0.24065078530E+04  0.23455713206E+04 0.  0.
        3    1    3    3  502    0  0.87400109618E+03  0.35234117571E+03 -0.44721960292E+03  0.10430856166E+04  0.10100000352E+00 0.  1.
       -3    1    3    3    0  502 -0.87400109618E+03 -0.35234117571E+03  0.98534154702E+03  0.13634222364E+04  0.10100000352E+00 0. -1.
</event>
<event>
 5   0  0.9535394E-05  0.2333997E+04  0.7818609E-02  0.8464636E-01
       -2   -1    0    0    0  501  0.00000000000E+00  0.00000000000E+00  0.12437503929E+04  0.12437503929E+04  0.25500000920E-02 0. -1.
        2   -1    0    0  501    0  0.00000000000E+00  0.00000000000E+00 -0.10949831862E+04  0.10949831863E+04  0.25500000920E-02 0.  1.
    10030    2    1    2    0    0  0.00000000000E+00  0.00000000000E+00  0.14876720662E+03  0.23387335791E+04  0.23339972306E+04 0.  0.
        2    1    3    3  502    0 -0.61523848005E+03 -0.90906004214E+03 -0.32262391601E+03  0.11441130795E+04  0.25500000920E-02 0.  1.
       -2    1    3    3    0  502  0.61523848005E+03  0.90906004214E+03  0.47139112263E+03  0.11946204996E+04  0.25500000920E-02 0. -1.
</event>
<event>
 5   0  0.9313463E-05  0.2322029E+04  0.7818609E-02  0.8469286E-01
       -2   -1    0    0    0  501  0.00000000000E+00  0.00000000000E+00  0.78560264628E+03  0.78560264628E+03  0.25500000920E-02 0. -1.
        2   -1    0    0  501    0  0.00000000000E+00  0.00000000000E+00 -0.17158219218E+04  0.17158219218E+04  0.25500000920E-02 0.  1.
    10030    2    1    2    0    0  0.00000000000E+00  0.00000000000E+00 -0.93021927550E+03  0.25014245681E+04  0.23220286323E+04 0.  0.
        1    1    3    3  502    0 -0.76489494175E+03  0.57749292094E+02 -0.14039666426E+04  0.15998504887E+04  0.50400001928E-02 0.  1.
       -1    1    3    3    0  502  0.76489494175E+03 -0.57749292094E+02  0.47374736712E+03  0.90157407934E+03  0.50400001928E-02 0. -1.
</event>
<event>
 5   0  0.9483073E-05  0.2267557E+04  0.7818609E-02  0.8490824E-01
        2   -1    0    0  501    0  0.00000000000E+00  0.00000000000E+00  0.14456797811E+04  0.14456797811E+04  0.25500000920E-02 0.  1.
       -2   -1    0    0    0  501  0.00000000000E+00  0.00000000000E+00 -0.88916911409E+03  0.88916911409E+03  0.25500000920E-02 0. -1.
    10030    2    1    2    0    0  0.00000000000E+00  0.00000000000E+00  0.55651066704E+03  0.23348488952E+04  0.22675571086E+04 0.  0.
        5    1    3    3  502    0 -0.58317985301E+03  0.22158029523E+02  0.12791310243E+04  0.14059829254E+04  0.46999998093E+01 0.  1.
       -5    1    3    3    0  502  0.58317985301E+03 -0.22158029523E+02 -0.72262035723E+03  0.92886596983E+03  0.46999998093E+01 0. -1.
</event>
<event>
 5   0  0.9535394E-05  0.2291698E+04  0.7818609E-02  0.8481202E-01
       -2   -1    0    0    0  501  0.00000000000E+00  0.00000000000E+00  0.16838936349E+04  0.16838936349E+04  0.25500000920E-02 0.  1.
        2   -1    0    0  501    0  0.00000000000E+00  0.00000000000E+00 -0.77972280433E+03  0.77972280433E+03  0.25500000920E-02 0. -1.
    10030    2    1    2    0    0  0.00000000000E+00  0.00000000000E+00  0.90417083060E+03  0.24636164393E+04  0.22916982936E+04 0.  0.
        2    1    3    3  502    0 -0.19553168300E+03 -0.89760794591E+03 -0.28415471041E+03  0.96160104153E+03  0.25500000920E-02 0. -1.
       -2    1    3    3    0  502  0.19553168300E+03  0.89760794591E+03  0.11883255410E+04  0.15020153977E+04  0.25500000920E-02 0.  1.
</event>
<event>
 5   0  0.4095451E-05  0.2261030E+04  0.7818609E-02  0.8493447E-01
        1   -1    0    0  501    0  0.00000000000E+00  0.00000000000E+00  0.27211627008E+04  0.27211627009E+04  0.50400001928E-02 0. -1.
       -1   -1    0    0    0  501  0.00000000000E+00  0.00000000000E+00 -0.46967574189E+03  0.46967574191E+03  0.50400001928E-02 0.  1.
    10030    2    1    2    0    0  0.00000000000E+00  0.00000000000E+00  0.22514869590E+04  0.31908384428E+04  0.22610299515E+04 0.  0.
        3    1    3    3  502    0 -0.10776167269E+04 -0.33566826128E+03  0.10350164073E+04  0.15314013077E+04  0.10100000352E+00 0.  1.
       -3    1    3    3    0  502  0.10776167269E+04  0.33566826128E+03  0.12164705517E+04  0.16594371350E+04  0.10100000352E+00 0. -1.
</event>
<event>
 5   0  0.4139830E-05  0.2277919E+04  0.7818609E-02  0.8486679E-01
       -1   -1    0    0    0  501  0.00000000000E+00  0.00000000000E+00  0.80102905770E+03  0.80102905772E+03  0.50400001928E-02 0.  1.
        1   -1    0    0  501    0  0.00000000000E+00  0.00000000000E+00 -0.16194528664E+04  0.16194528664E+04  0.50400001928E-02 0. -1.
    10030    2    1    2    0    0  0.00000000000E+00  0.00000000000E+00 -0.81842380865E+03  0.24204819241E+04  0.22779190535E+04 0.  0.
        1    1    3    3  502    0  0.95268440680E+03  0.78689968219E+02 -0.10671819145E+04  0.14327166254E+04  0.50400001928E-02 0. -1.
       -1    1    3    3    0  502 -0.95268440680E+03 -0.78689968219E+02  0.24875810582E+03  0.98776529869E+03  0.50400001928E-02 0.  1.
</event>
<event>
 5   0  0.9312074E-05  0.2233287E+04  0.7818609E-02  0.8504700E-01
        2   -1    0    0  501    0  0.00000000000E+00  0.00000000000E+00  0.12001072348E+04  0.12001072348E+04  0.25500000920E-02 0. -1.
       -2   -1    0    0    0  501  0.00000000000E+00  0.00000000000E+00 -0.10389845217E+04  0.10389845217E+04  0.25500000920E-02 0.  1.
    10030    2    1    2    0    0  0.00000000000E+00  0.00000000000E+00  0.16112271303E+03  0.22390917565E+04  0.22332871211E+04 0.  0.
        4    1    3    3  502    0 -0.79193144807E+03 -0.77135174144E+03 -0.77176203285E+02  0.11081952476E+04  0.12699999809E+01 0. -1.
       -4    1    3    3    0  502  0.79193144807E+03  0.77135174144E+03  0.23829891631E+03  0.11308965089E+04  0.12699999809E+01 0.  1.
</event>
<event>
 5   0  0.9483073E-05  0.2263819E+04  0.7818609E-02  0.8492325E-01
       -2   -1    0    0    0  501  0.00000000000E+00  0.00000000000E+00  0.50003036858E+03  0.50003036858E+03  0.25500000920E-02 0. -1.
        2   -1    0    0  501    0  0.00000000000E+00  0.00000000000E+00 -0.25622825836E+04  0.25622825836E+04  0.25500000920E-02 0.  1.
    10030    2    1    2    0    0  0.00000000000E+00  0.00000000000E+00 -0.20622522150E+04  0.30623129522E+04  0.22638189898E+04 0.  0.
        5    1    3    3  502    0 -0.76457076835E+03 -0.67881214974E+03 -0.16880559911E+04  0.19735525109E+04  0.46999998093E+01 0.  1.
       -5    1    3    3    0  502  0.76457076835E+03  0.67881214974E+03 -0.37419622398E+03  0.10887604413E+04  0.46999998093E+01 0. -1.
</event>
<event>
 5   0  0.9483073E-05  0.2259313E+04  0.7818609E-02  0.8494138E-01
       -2   -1    0    0    0  501  0.00000000000E+00  0.00000000000E+00  0.14519746024E+04  0.14519746024E+04  0.25500000920E-02 0. -1.
        2   -1    0    0  501    0  0.00000000000E+00  0.00000000000E+00 -0.87888842313E+03  0.87888842313E+03  0.25500000920E-02 0.  1.
    10030    2    1    2    0    0  0.00000000000E+00  0.00000000000E+00  0.57308617923E+03  0.23308630255E+04  0.22593128767E+04 0.  0.
        5    1    3    3  502    0  0.77760060682E+02 -0.27185219408E+03  0.14148660872E+04  0.14428507813E+04  0.46999998093E+01 0. -1.
       -5    1    3    3    0  502 -0.77760060682E+02  0.27185219408E+03 -0.84177990793E+03  0.88801224421E+03  0.46999998093E+01 0.  1.
</event>
<event>
 5   0  0.4005462E-05  0.2321188E+04  0.7818609E-02  0.8469614E-01
       -1   -1    0    0    0  501  0.00000000000E+00  0.00000000000E+00  0.11256353304E+04  0.11256353304E+04  0.50400001928E-02 0. -1.
        1   -1    0    0  501    0  0.00000000000E+00  0.00000000000E+00 -0.11966383573E+04  0.11966383573E+04  0.50400001928E-02 0.  1.
    10030    2    1    2    0    0  0.00000000000E+00  0.00000000000E+00 -0.71003026864E+02  0.23222736877E+04  0.23211879826E+04 0.  0.
        4    1    3    3  502    0  0.54810093276E+03 -0.22145133774E+03 -0.10347286375E+04  0.11916880018E+04  0.12699999809E+01 0.  1.
       -4    1    3    3    0  502 -0.54810093276E+03  0.22145133774E+03  0.96372561068E+03  0.11305856859E+04  0.12699999809E+01 0. -1.
</event>
<event>
 5   0  0.4295775E-05  0.2243347E+04  0.7818609E-02  0.8500600E-01
       -1   -1    0    0    0  501  0.00000000000E+00  0.00000000000E+00  0.47940981204E+03  0.47940981207E+03  0.50400001928E-02 0. -1.
        1   -1    0    0  501    0  0.00000000000E+00  0.00000000000E+00 -0.26243761328E+04  0.26243761328E+04  0.50400001928E-02 0.  1.
    10030    2    1    2    0    0  0.00000000000E+00  0.00000000000E+00 -0.21449663208E+04  0.31037859449E+04  0.22433472033E+04 0.  0.
        5    1    3    3  502    0  0.81409537228E+03  0.37934914941E+03 -0.20021148744E+04  0.21943434354E+04  0.46999998093E+01 0.  1.
       -5    1    3    3    0  502 -0.81409537228E+03 -0.37934914941E+03 -0.14285144640E+03  0.90944250949E+03  0.46999998093E+01 0. -1.
</event>
<event>
 5   0  0.9313463E-05  0.2301029E+04  0.7818609E-02  0.8477515E-01
        2   -1    0    0  501    0  0.00000000000E+00  0.00000000000E+00  0.14139576183E+04  0.14139576183E+04  0.25500000920E-02 0. -1.
       -2   -1    0    0    0  501  0.00000000000E+00  0.00000000000E+00 -0.93615510081E+03  0.93615510081E+03  0.25500000920E-02 0.  1.
    10030    2    1    2    0    0  0.00000000000E+00  0.00000000000E+00  0.47780251745E+03  0.23501127191E+04  0.23010290191E+04 0.  0.
        1    1    3    3  502    0 -0.66228314358E+03  0.34414262042E+03 -0.65535019075E+03  0.99324567857E+03  0.50400001928E-02 0.  1.
       -1    1    3    3    0  502  0.66228314358E+03 -0.34414262042E+03  0.11331527082E+04  0.13568670405E+04  0.50400001928E-02 0. -1.
</event>
<event>
 5   0  0.9312074E-05  0.2325019E+04  0.7818609E-02  0.8468121E-01
        2   -1    0    0  501    0  0.00000000000E+00  0.00000000000E+00  0.10917165855E+04  0.10917165855E+04  0.25500000920E-02 0. -1.
       -2   -1    0    0    0  501  0.00000000000E+00  0.00000000000E+00 -0.12378929394E+04  0.12378929394E+04  0.25500000920E-02 0.  1.
    10030    2    1    2    0    0  0.00000000000E+00  0.00000000000E+00 -0.14617635389E+03  0.23296095248E+04  0.23250189272E+04 0.  0.
        4    1    3    3  502    0  0.10915113644E+04 -0.35299755878E+01  0.32772303930E+03  0.11396550017E+04  0.12699999809E+01 0.  1.
       -4    1    3    3    0  502 -0.10915113644E+04  0.35299755878E+01 -0.47389939319E+03  0.11899545232E+04  0.12699999809E+01 0. -1.
</event>
<event>
 5   0  0.9535394E-05  0.1966090E+04  0.7818609E-02  0.8622641E-01
       -2   -1    0    0    0  501  0.00000000000E+00  0.00000000000E+00  0.49377938632E+03  0.49377938633E+03  0.25500000920E-02 0. -1.
        2   -1    0    0  501    0  0.00000000000E+00  0.00000000000E+00 -0.19571042063E+04  0.19571042063E+04  0.25500000920E-02 0.  1.
    10030    2    1    2    0    0  0.00000000000E+00  0.00000000000E+00 -0.14633248200E+04  0.24508835926E+04  0.19660902461E+04 0.  0.
        2    1    3    3  502    0  0.82935573368E+03  0.27418645659E+03 -0.16950084300E+03  0.88979755099E+03  0.25500000920E-02 0. -1.
       -2    1    3    3    0  502 -0.82935573368E+03 -0.27418645659E+03 -0.12938239770E+04  0.15610860416E+04  0.25500000920E-02 0.  1.
</event>
<event>
 5   0  0.9535394E-05  0.2342529E+04  0.7818609E-02  0.8461339E-01
        2   -1    0    0  501    0  0.00000000000E+00  0.00000000000E+00  0.93887702578E+03  0.93887702578E+03  0.25500000920E-02 0.  1.
       -2   -1    0    0    0  501  0.00000000000E+00  0.00000000000E+00 -0.14611712697E+04  0.14611712697E+04  0.25500000920E-02 0. -1.
    10030    2    1    2    0    0  0.00000000000E+00  0.00000000000E+00 -0.52229424396E+03  0.24000482955E+04  0.23425286644E+04 0.  0.
        2    1    3    3  502    0  0.67376534488E+03  0.35554980567E+03  0.65035217460E+03  0.10016652910E+04  0.25500000920E-02 0. -1.
       -2    1    3    3    0  502 -0.67376534488E+03 -0.35554980567E+03 -0.11726464186E+04  0.13983830045E+04  0.25500000920E-02 0.  1.
</event>
<event>
 5   0  0.3885219E-05  0.2428786E+04  0.7818609E-02  0.8428805E-01
       -1   -1    0    0    0  501  0.00000000000E+00  0.00000000000E+00  0.98634189051E+03  0.98634189052E+03  0.50400001928E-02 0. -1.
        1   -1    0    0  501    0  0.00000000000E+00  0.00000000000E+00 -0.14951714246E+04  0.14951714246E+04  0.50400001928E-02 0.  1.
    10030    2    1    2    0    0  0.00000000000E+00  0.00000000000E+00 -0.50882953412E+03  0.24815133152E+04  0.24287858775E+04 0.  0.
        2    1    3    3  502    0  0.32334592225E+03 -0.46547850217E+03 -0.13517550850E+04  0.14657641799E+04  0.25500000920E-02 0.  1.
       -2    1    3    3    0  502 -0.32334592225E+03  0.46547850217E+03  0.84292555085E+03  0.10157491352E+04  0.25500000920E-02 0. -1.
</event>
<event>
 5   0  0.4095451E-05  0.1627170E+04  0.7818609E-02  0.8804028E-01
       -1   -1    0    0    0  501  0.00000000000E+00  0.00000000000E+00  0.76932408897E+03  0.76932408898E+03  0.50400001928E-02 0. -1.
        1   -1    0    0  501    0  0.00000000000E+00  0.00000000000E+00 -0.86039226976E+03  0.86039226977E+03  0.50400001928E-02 0.  1.
    10030    2    1    2    0    0  0.00000000000E+00  0.00000000000E+00 -0.91068180789E+02  0.16297163588E+04  0.16271699347E+04 0.  0.
        3    1    3    3  502    0  0.51580010298E+03 -0.17773436053E+02 -0.67544984344E+03  0.85005772890E+03  0.10100000352E+00 0.  1.
       -3    1    3    3    0  502 -0.51580010298E+03  0.17773436053E+02  0.58438166265E+03  0.77965862985E+03  0.10100000352E+00 0. -1.
</event>
<event>
 5   0  0.9483073E-05  0.2286655E+04  0.7818609E-02  0.8483201E-01
        2   -1    0    0  501    0  0.00000000000E+00  0.00000000000E+00  0.13516611653E+04  0.13516611653E+04  0.25500000920E-02 0.  1.
       -2   -1    0    0    0  501  0.00000000000E+00  0.00000000000E+00 -0.96710493976E+03  0.96710493977E+03  0.25500000920E-02 0. -1.
    10030    2    1    2    0    0  0.00000000000E+00  0.00000000000E+00  0.38455622554E+03  0.23187661051E+04  0.22866553653E+04 0.  0.
        5    1    3    3  502    0  0.57983007642E+03  0.98490822917E+03  0.16137122265E+03  0.11542572932E+04  0.46999998093E+01 0.  1.
       -5    1    3    3    0  502 -0.57983007642E+03 -0.98490822917E+03  0.22318500290E+03  0.11645088119E+04  0.46999998093E+01 0. -1.
</event>
<event>
 5   0  0.9313463E-05  0.2272775E+04  0.7818609E-02  0.8488734E-01
       -2   -1    0    0    0  501  0.00000000000E+00  0.00000000000E+00  0.10825970697E+04  0.10825970697E+04  0.25500000920E-02 0. -1.
        2   -1    0    0  501    0  0.00000000000E+00  0.00000000000E+00 -0.11928504833E+04  0.11928504833E+04  0.25500000920E-02 0.  1.
    10030    2    1    2    0    0  0.00000000000E+00  0.00000000000E+00 -0.11025341358E+03  0.22754475530E+04  0.22727749012E+04 0.  0.
        1    1    3    3  502    0  0.88824022824E+03  0.69851016051E+03 -0.17563972526E+03  0.11435630549E+04  0.50400001928E-02 0.  1.
       -1    1    3    3    0  502 -0.88824022824E+03 -0.69851016051E+03  0.65386311685E+02  0.11318844982E+04  0.50400001928E-02 0. -1.
</event>
<event>
 5   0  0.4005462E-05  0.1639583E+04  0.7818609E-02  0.8796593E-01
        1   -1    0    0  501    0  0.00000000000E+00  0.00000000000E+00  0.12004513596E+04  0.12004513596E+04  0.50400001928E-02 0.  1.
       -1   -1    0    0    0  501  0.00000000000E+00  0.00000000000E+00 -0.55983783562E+03  0.55983783564E+03  0.50400001928E-02 0. -1.
    10030    2    1    2    0    0  0.00000000000E+00  0.00000000000E+00  0.64061352401E+03  0.17602891953E+04  0.16395829848E+04 0.  0.
        4    1    3    3  502    0  0.62144087537E+03 -0.12374867625E+03 -0.23813461001E+03  0.67691373294E+03  0.12699999809E+01 0. -1.
       -4    1    3    3    0  502 -0.62144087537E+03  0.12374867625E+03  0.87874813402E+03  0.10833754623E+04  0.12699999809E+01 0.  1.
</event>
<event>
 5   0  0.4095451E-05  0.2608540E+04  0.7818609E-02  0.8365306E-01
       -1   -1    0    0    0  501  0.00000000000E+00  0.00000000000E+00  0.83842444920E+03  0.83842444921E+03  0.50400001928E-02 0.  1.
        1   -1    0    0  501    0  0.00000000000E+00  0.00000000000E+00 -0.20289489353E+04  0.20289489353E+04  0.50400001928E-02 0. -1.
    10030    2    1    2    0    0  0.00000000000E+00  0.00000000000E+00 -0.11905244861E+04  0.28673733845E+04  0.26085401232E+04 0.  0.
        3    1    3    3  502    0 -0.81667871024E+03 -0.10130997525E+04 -0.49827369118E+03  0.13934173480E+04  0.10100000352E+00 0.  1.
       -3    1    3    3    0  502  0.81667871024E+03  0.10130997525E+04 -0.69225079489E+03  0.14739560365E+04  0.10100000352E+00 0. -1.
</event>
<event>
 5   0  0.9483073E-05  0.2358468E+04  0.7818609E-02  0.8455218E-01
        2   -1    0    0  501    0  0.00000000000E+00  0.00000000000E+00  0.17745499185E+04  0.17745499185E+04  0.25500000920E-02 0.  1.
       -2   -1    0    0    0  501  0.00000000000E+00  0.00000000000E+00 -0.78363145959E+03  0.78363145959E+03  0.25500000920E-02 0. -1.
    10030    2    1    2    0    0  0.00000000000E+00  0.00000000000E+00  0.99091845891E+03  0.25581813781E+04  0.23584682680E+04 0.  0.
        5    1    3    3  502    0  0.51819200658E+03 -0.60316891274E+03  0.14399621662E+04  0.16449464499E+04  0.46999998093E+01 0.  1.
       -5    1    3    3    0  502 -0.51819200658E+03  0.60316891274E+03 -0.44904370730E+03  0.91323492818E+03  0.46999998093E+01 0. -1.
</event>
<event>
 5   0  0.3261500E-05  0.2278324E+04  0.7818609E-02  0.8486517E-01
       -4   -1    0    0    0  501  0.00000000000E+00  0.00000000000E+00  0.14388852715E+04  0.14388858320E+04  0.12699999809E+01 0. -1.
        4   -1    0    0  501    0  0.00000000000E+00  0.00000000000E+00 -0.90187092615E+03  0.90187182034E+03  0.12699999809E+01 0.  1.
    10030    2    1    2    0    0  0.00000000000E+00  0.00000000000E+00  0.53701434534E+03  0.23407576523E+04  0.22783243798E+04 0.  0.
        4    1    3    3  502    0 -0.65160999574E+03 -0.45077992008E+03  0.11094043367E+04  0.13632966362E+04  0.12699999809E+01 0. -1.
       -4    1    3    3    0  502  0.65160999574E+03  0.45077992008E+03 -0.57238999140E+03  0.97746101613E+03  0.12699999809E+01 0.  1.
</event>
<event>
 5   0  0.9535394E-05  0.2357223E+04  0.7818609E-02  0.8455694E-01
        2   -1    0    0  501    0  0.00000000000E+00  0.00000000000E+00  0.13228184971E+04  0.13228184971E+04  0.25500000920E-02 0.  1.
       -2   -1    0    0    0  501  0.00000000000E+00  0.00000000000E+00 -0.10501252237E+04  0.10501252237E+04  0.25500000920E-02 0. -1.
    10030    2    1    2    0    0  0.00000000000E+00  0.00000000000E+00  0.27269327341E+03  0.23729437209E+04  0.23572230020E+04 0.  0.
        2    1    3    3  502    0 -0.36494483942E+02  0.75093625521E+02 -0.10471445062E+04  0.10504677610E+04  0.25500000920E-02 0. -1.
       -2    1    3    3    0  502  0.36494483942E+02 -0.75093625521E+02  0.13198377796E+04  0.13224759599E+04  0.25500000920E-02 0.  1.
</event>
<event>
 5   0  0.9312074E-05  0.2270152E+04  0.7818609E-02  0.8489784E-01
       -2   -1    0    0    0  501  0.00000000000E+00  0.00000000000E+00  0.50955656465E+03  0.50955656466E+03  0.25500000920E-02 0.  1.
        2   -1    0    0  501    0  0.00000000000E+00  0.00000000000E+00 -0.25284676645E+04  0.25284676645E+04  0.25500000920E-02 0. -1.
    10030    2    1    2    0    0  0.00000000000E+00  0.00000000000E+00 -0.20189110998E+04  0.30380242291E+04  0.22701517984E+04 0.  0.
        4    1    3    3  502    0 -0.10579116313E+04 -0.26515836292E+03 -0.14303331309E+04  0.17987052164E+04  0.12699999809E+01 0.  1.
       -4    1    3    3    0  502  0.10579116313E+04  0.26515836292E+03 -0.58857796890E+03  0.12393190128E+04  0.12699999809E+01 0. -1.
</event>
<event>
 5   0  0.4139830E-05  0.2287324E+04  0.7818609E-02  0.8482936E-01
       -1   -1    0    0    0  501  0.00000000000E+00  0.00000000000E+00  0.46464892247E+03  0.46464892249E+03  0.50400001928E-02 0. -1.
        1   -1    0    0  501    0  0.00000000000E+00  0.00000000000E+00 -0.28149474931E+04  0.28149474931E+04  0.50400001928E-02 0.  1.
    10030    2    1    2    0    0  0.00000000000E+00  0.00000000000E+00 -0.23502985706E+04  0.32795964156E+04  0.22873236059E+04 0.  0.
        1    1    3    3  502    0 -0.33159404089E+03 -0.38888147626E+03  0.29181747328E+03  0.58850730520E+03  0.50400001928E-02 0. -1.
       -1    1    3    3    0  502  0.33159404089E+03  0.38888147626E+03 -0.26421160439E+04  0.26910891104E+04  0.50400001928E-02 0.  1.
</event>
<event>
 5   0  0.4139830E-05  0.2301039E+04  0.7818609E-02  0.8477512E-01
        1   -1    0    0  501    0  0.00000000000E+00  0.00000000000E+00  0.17236059313E+04  0.17236059313E+04  0.50400001928E-02 0. -1.
       -1   -1    0    0    0  501  0.00000000000E+00  0.00000000000E+00 -0.76797997590E+03  0.76797997592E+03  0.50400001928E-02 0.  1.
    10030    2    1    2    0    0  0.00000000000E+00  0.00000000000E+00  0.95562595544E+03  0.24915859073E+04  0.23010387582E+04 0.  0.
        1    1    3    3  502    0  0.11120058016E+04  0.29433033279E+03  0.50220850173E+03  0.12551496432E+04  0.50400001928E-02 0.  1.
       -1    1    3    3    0  502 -0.11120058016E+04 -0.29433033279E+03  0.45341745371E+03  0.12364362640E+04  0.50400001928E-02 0. -1.
</event>
<event>
 5   0  0.4095451E-05  0.2325158E+04  0.7818609E-02  0.8468067E-01
       -1   -1    0    0    0  501  0.00000000000E+00  0.00000000000E+00  0.92594508732E+03  0.92594508733E+03  0.50400001928E-02 0. -1.
        1   -1    0    0  501    0  0.00000000000E+00  0.00000000000E+00 -0.14596863137E+04  0.14596863137E+04  0.50400001928E-02 0.  1.
    10030    2    1    2    0    0  0.00000000000E+00  0.00000000000E+00 -0.53374122641E+03  0.23856314011E+04  0.23251575183E+04 0.  0.
        3    1    3    3  502    0 -0.10716971835E+04 -0.35341522356E+03  0.19957378783E+02  0.11286432034E+04  0.10100000352E+00 0. -1.
       -3    1    3    3    0  502  0.10716971835E+04  0.35341522356E+03 -0.55369860520E+03  0.12569881977E+04  0.10100000352E+00 0.  1.
</event>
<event>
 5   0  0.9313463E-05  0.2300744E+04  0.7818609E-02  0.8477628E-01
        2   -1    0    0  501    0  0.00000000000E+00  0.00000000000E+00  0.76127046412E+03  0.76127046413E+03  0.25500000920E-02 0.  1.
       -2   -1    0    0    0  501  0.00000000000E+00  0.00000000000E+00 -0.17383511833E+04  0.17383511833E+04  0.25500000920E-02 0. -1.
    10030    2    1    2    0    0  0.00000000000E+00  0.00000000000E+00 -0.97708071922E+03  0.24996216475E+04  0.23007437164E+04 0.  0.
        1    1    3    3  502    0 -0.10889107769E+03  0.99475435812E+03  0.12792443777E+03  0.10088400079E+04  0.50400001928E-02 0.  1.
       -1    1    3    3    0  502  0.10889107769E+03 -0.99475435812E+03 -0.11050051570E+04  0.14907816395E+04  0.50400001928E-02 0. -1.
</event>
<event>
 5   0  0.3261500E-05  0.2264420E+04  0.7818609E-02  0.8492083E-01
       -3   -1    0    0    0  501  0.00000000000E+00  0.00000000000E+00  0.82914917070E+03  0.82914917685E+03  0.10100000352E+00 0. -1.
        3   -1    0    0  501    0  0.00000000000E+00  0.00000000000E+00 -0.15460423823E+04  0.15460423856E+04  0.10100000352E+00 0.  1.
    10030    2    1    2    0    0  0.00000000000E+00  0.00000000000E+00 -0.71689321156E+03  0.23751915624E+04  0.22644202528E+04 0.  0.
        5    1    3    3  502    0  0.19884022292E+03  0.11443885422E+03  0.80450236569E+03  0.83658820934E+03  0.46999998093E+01 0. -1.
       -5    1    3    3    0  502 -0.19884022292E+03 -0.11443885422E+03 -0.15213955773E+04  0.15386033531E+04  0.46999998093E+01 0.  1.
</event>
<event>
 5   0  0.9312074E-05  0.2335345E+04  0.7818609E-02  0.8464114E-01
        2   -1    0    0  501    0  0.00000000000E+00  0.00000000000E+00  0.12197932998E+04  0.12197932998E+04  0.25500000920E-02 0. -1.
       -2   -1    0    0    0  501  0.00000000000E+00  0.00000000000E+00 -0.11177784669E+04  0.11177784669E+04  0.25500000920E-02 0.  1.
    10030    2    1    2    0    0  0.00000000000E+00  0.00000000000E+00  0.10201483290E+03  0.23375717667E+04  0.23353446723E+04 0.  0.
        4    1    3    3  502    0 -0.61889455065E+03 -0.78440772447E+03  0.65584447972E+03  0.11951818010E+04  0.12699999809E+01 0.  1.
       -4    1    3    3    0  502  0.61889455065E+03  0.78440772447E+03 -0.55382964682E+03  0.11423899657E+04  0.12699999809E+01 0. -1.
</event>
<event>
 5   0  0.4005462E-05  0.2348014E+04  0.7818609E-02  0.8459227E-01
        1   -1    0    0  501    0  0.00000000000E+00  0.00000000000E+00  0.65419349802E+03  0.65419349804E+03  0.50400001928E-02 0.  1.
       -1   -1    0    0    0  501  0.00000000000E+00  0.00000000000E+00 -0.21068573325E+04  0.21068573325E+04  0.50400001928E-02 0. -1.
    10030    2    1    2    0    0  0.00000000000E+00  0.00000000000E+00 -0.14526638345E+04  0.27610508305E+04  0.23480139422E+04 0.  0.
        4    1    3    3  502    0  0.62461035602E+03  0.50406625513E+03 -0.17338258273E+04  0.19105953258E+04  0.12699999809E+01 0. -1.
       -4    1    3    3    0  502 -0.62461035602E+03 -0.50406625513E+03  0.28116199289E+03  0.85045550475E+03  0.12699999809E+01 0.  1.
</event>
<event>
 5   0  0.4295775E-05  0.2306175E+04  0.7818609E-02  0.8475490E-01
        1   -1    0    0  501    0  0.00000000000E+00  0.00000000000E+00  0.50331744806E+03  0.50331744808E+03  0.50400001928E-02 0. -1.
       -1   -1    0    0    0  501  0.00000000000E+00  0.00000000000E+00 -0.26416938239E+04  0.26416938239E+04  0.50400001928E-02 0.  1.
    10030    2    1    2    0    0  0.00000000000E+00  0.00000000000E+00 -0.21383763759E+04  0.31450112720E+04  0.23061748364E+04 0.  0.
        5    1    3    3  502    0  0.11480217879E+04  0.55084715502E+02 -0.94271948680E+03  0.14865162199E+04  0.46999998093E+01 0.  1.
       -5    1    3    3    0  502 -0.11480217879E+04 -0.55084715502E+02 -0.11956568891E+04  0.16584950521E+04  0.46999998093E+01 0. -1.
</event>
<event>
 5   0  0.9313463E-05  0.2307737E+04  0.7818609E-02  0.8474877E-01
        2   -1    0    0  501    0  0.00000000000E+00  0.00000000000E+00  0.14159372544E+04  0.14159372544E+04  0.25500000920E-02 0. -1.
       -2   -1    0    0    0  501  0.00000000000E+00  0.00000000000E+00 -0.94030453538E+03  0.94030453538E+03  0.25500000920E-02 0.  1.
    10030    2    1    2    0    0  0.00000000000E+00  0.00000000000E+00  0.47563271898E+03  0.23562417897E+04  0.23077367459E+04 0.  0.
        1    1    3    3  502    0 -0.30119386785E+03  0.11063040872E+04  0.10553341015E+03  0.11514181604E+04  0.50400001928E-02 0. -1.
       -1    1    3    3    0  502  0.30119386785E+03 -0.11063040872E+04  0.37009930884E+03  0.12048236293E+04  0.50400001928E-02 0.  1.
</event>
<event>
 5   0  0.4095451E-05  0.2308395E+04  0.7818609E-02  0.8474619E-01
        1   -1    0    0  501    0  0.00000000000E+00  0.00000000000E+00  0.96978746458E+03  0.96978746459E+03  0.50400001928E-02 0.  1.
       -1   -1    0    0    0  501  0.00000000000E+00  0.00000000000E+00 -0.13736737410E+04  0.13736737410E+04  0.50400001928E-02 0. -1.
    10030    2    1    2    0    0  0.00000000000E+00  0.00000000000E+00 -0.40388627644E+03  0.23434612056E+04  0.23083947448E+04 0.  0.
        3    1    3    3  502    0  0.75116978664E+03 -0.26300387247E+03 -0.10505506782E+04  0.13179847583E+04  0.10100000352E+00 0. -1.
       -3    1    3    3    0  502 -0.75116978664E+03  0.26300387247E+03  0.64666440181E+03  0.10254764473E+04  0.10100000352E+00 0.  1.
</event>
<event>
 5   0  0.9535394E-05  0.2439393E+04  0.7818609E-02  0.8424901E-01
        2   -1    0    0  501    0  0.00000000000E+00  0.00000000000E+00  0.15138731933E+04  0.15138731933E+04  0.25500000920E-02 0. -1.
       -2   -1    0    0    0  501  0.00000000000E+00  0.00000000000E+00 -0.98268466289E+03  0.98268466289E+03  0.25500000920E-02 0.  1.
    10030    2    1    2    0    0  0.00000000000E+00  0.00000000000E+00  0.53118853039E+03  0.24965578562E+04  0.24393933415E+04 0.  0.
        2    1    3    3  502    0 -0.44356097800E+03 -0.82028992756E+03 -0.53898236161E+03  0.10770904756E+04  0.25500000920E-02 0.  1.
       -2    1    3    3    0  502  0.44356097800E+03  0.82028992756E+03  0.10701708920E+04  0.14194673806E+04  0.25500000920E-02 0. -1.
</event>
<event>
 5   0  0.9535394E-05  0.2268236E+04  0.7818609E-02  0.8490551E-01
        2   -1    0    0  501    0  0.00000000000E+00  0.00000000000E+00  0.12427391745E+04  0.12427391745E+04  0.25500000920E-02 0.  1.
       -2   -1    0    0    0  501  0.00000000000E+00  0.00000000000E+00 -0.10349910967E+04  0.10349910967E+04  0.25500000920E-02 0. -1.
    10030    2    1    2    0    0  0.00000000000E+00  0.00000000000E+00  0.20774807781E+03  0.22777302712E+04  0.22682363026E+04 0.  0.
        2    1    3    3  502    0  0.11765127997E+03 -0.10976377380E+04 -0.15716314492E+03  0.11150563581E+04  0.25500000920E-02 0. -1.
       -2    1    3    3    0  502 -0.11765127997E+03  0.10976377380E+04  0.36491122273E+03  0.11626739131E+04  0.25500000920E-02 0.  1.
</event>
<event>
 5   0  0.9312074E-05  0.2339379E+04  0.7818609E-02  0.8462554E-01
        2   -1    0    0  501    0  0.00000000000E+00  0.00000000000E+00  0.11568375031E+04  0.11568375031E+04  0.25500000920E-02 0.  1.
       -2   -1    0    0    0  501  0.00000000000E+00  0.00000000000E+00 -0.11826847253E+04  0.11826847253E+04  0.25500000920E-02 0. -1.
    10030    2    1    2    0    0  0.00000000000E+00  0.00000000000E+00 -0.25847222136E+02  0.23395222284E+04  0.23393794430E+04 0.  0.
        4    1    3    3  502    0 -0.41074418383E+03  0.65053740921E+03 -0.89403511852E+03  0.11794957021E+04  0.12699999809E+01 0. -1.
       -4    1    3    3    0  502  0.41074418383E+03 -0.65053740921E+03  0.86818789639E+03  0.11600265263E+04  0.12699999809E+01 0.  1.
</event>
<event>
 5   0  0.9483073E-05  0.2287259E+04  0.7818609E-02  0.8482962E-01
        2   -1    0    0  501    0  0.00000000000E+00  0.00000000000E+00  0.13780208305E+04  0.13780208305E+04  0.25500000920E-02 0.  1.
       -2   -1    0    0    0  501  0.00000000000E+00  0.00000000000E+00 -0.94910618813E+03  0.94910618813E+03  0.25500000920E-02 0. -1.
    10030    2    1    2    0    0  0.00000000000E+00  0.00000000000E+00  0.42891464239E+03  0.23271270186E+04  0.22872587065E+04 0.  0.
        5    1    3    3  502    0 -0.29394599474E+03 -0.11045906749E+04  0.25171808012E+03  0.11704310696E+04  0.46999998093E+01 0.  1.
       -5    1    3    3    0  502  0.29394599474E+03  0.11045906749E+04  0.17719656227E+03  0.11566959490E+04  0.46999998093E+01 0. -1.
</event>
<event>
 5   0  0.9313463E-05  0.2267003E+04  0.7818609E-02  0.8491046E-01
       -2   -1    0    0    0  501  0.00000000000E+00  0.00000000000E+00  0.97427965411E+03  0.97427965411E+03  0.25500000920E-02 0. -1.
        2   -1    0    0  501    0  0.00000000000E+00  0.00000000000E+00 -0.13187441460E+04  0.13187441460E+04  0.25500000920E-02 0.  1.
    10030    2    1    2    0    0  0.00000000000E+00  0.00000000000E+00 -0.34446449185E+03  0.22930238001E+04  0.22670029470E+04 0.  0.
        1    1    3    3  502    0  0.14945544457E+03 -0.90397135805E+03  0.50275372286E+03  0.10451136072E+04  0.50400001928E-02 0. -1.
       -1    1    3    3    0  502 -0.14945544457E+03  0.90397135805E+03 -0.84721821471E+03  0.12479101929E+04  0.50400001928E-02 0.  1.
</event>
<event>
 5   0  0.9483073E-05  0.2284203E+04  0.7818609E-02  0.8484176E-01
       -2   -1    0    0    0  501  0.00000000000E+00  0.00000000000E+00  0.88898614052E+03  0.88898614053E+03  0.25500000920E-02 0. -1.
        2   -1    0    0  501    0  0.00000000000E+00  0.00000000000E+00 -0.14672850911E+04  0.14672850911E+04  0.25500000920E-02 0.  1.
    10030    2    1    2    0    0  0.00000000000E+00  0.00000000000E+00 -0.57829895058E+03  0.23562712316E+04  0.22842032398E+04 0.  0.
        5    1    3    3  502    0  0.85472831178E+03  0.48571054828E+03  0.31048122518E+03  0.10309684306E+04  0.46999998093E+01 0.  1.
       -5    1    3    3    0  502 -0.85472831178E+03 -0.48571054828E+03 -0.88878017576E+03  0.13253028011E+04  0.46999998093E+01 0. -1.
</event>
<event>
 5   0  0.4005462E-05  0.2316088E+04  0.7818609E-02  0.8471605E-01
       -1   -1    0    0    0  501  0.00000000000E+00  0.00000000000E+00  0.15855293893E+04  0.15855293893E+04  0.50400001928E-02 0. -1.
        1   -1    0    0  501    0  0.00000000000E+00  0.00000000000E+00 -0.84581585797E+03  0.84581585799E+03  0.50400001928E-02 0.  1.
    10030    2    1    2    0    0  0.00000000000E+00  0.00000000000E+00  0.73971353128E+03  0.24313452473E+04  0.23160879955E+04 0.  0.
        4    1    3    3  502    0 -0.10318924830E+03 -0.78402661493E+03  0.12579584804E+04  0.14858690741E+04  0.12699999809E+01 0. -1.
       -4    1    3    3    0  502  0.10318924830E+03  0.78402661493E+03 -0.51824494913E+03  0.94547617320E+03  0.12699999809E+01 0.  1.
</event>
<event>
 5   0  0.4295775E-05  0.2275539E+04  0.7818609E-02  0.8487629E-01
        1   -1    0    0  501    0  0.00000000000E+00  0.00000000000E+00  0.20215044777E+04  0.20215044777E+04  0.50400001928E-02 0.  1.
       -1   -1    0    0    0  501  0.00000000000E+00  0.00000000000E+00 -0.64037425479E+03  0.64037425481E+03  0.50400001928E-02 0. -1.
    10030    2    1    2    0    0  0.00000000000E+00  0.00000000000E+00  0.13811302229E+04  0.26618787325E+04  0.22755389898E+04 0.  0.
        5    1    3    3  502    0  0.89163159581E+03  0.59798935908E+03  0.11312152321E+04  0.15595730722E+04  0.46999998093E+01 0.  1.
       -5    1    3    3    0  502 -0.89163159581E+03 -0.59798935908E+03  0.24991499088E+03  0.11023056604E+04  0.46999998093E+01 0. -1.
</event>
<event>
 5   0  0.9312074E-05  0.2301449E+04  0.7818609E-02  0.8477350E-01
       -2   -1    0    0    0  501  0.00000000000E+00  0.00000000000E+00  0.14043771399E+04  0.14043771399E+04  0.25500000920E-02 0. -1.
        2   -1    0    0  501    0  0.00000000000E+00  0.00000000000E+00 -0.94288539342E+03  0.94288539342E+03  0.25500000920E-02 0.  1.
    10030    2    1    2    0    0  0.00000000000E+00  0.00000000000E+00  0.46149174644E+03  0.23472625333E+04  0.23014488411E+04 0.  0.
        4    1    3    3  502    0  0.79597327928E+02 -0.11079189692E+04  0.53730352961E+03  0.12339031051E+04  0.12699999809E+01 0.  1.
       -4    1    3    3    0  502 -0.79597327928E+02  0.11079189692E+04 -0.75811783161E+02  0.11133594282E+04  0.12699999809E+01 0. -1.
</event>
<event>
 5   0  0.9535394E-05  0.2295994E+04  0.7818609E-02  0.8479502E-01
        2   -1    0    0  501    0  0.00000000000E+00  0.00000000000E+00  0.55313210680E+03  0.55313210681E+03  0.25500000920E-02 0.  1.
       -2   -1    0    0    0  501  0.00000000000E+00  0.00000000000E+00 -0.23826079195E+04  0.23826079195E+04  0.25500000920E-02 0. -1.
    10030    2    1    2    0    0  0.00000000000E+00  0.00000000000E+00 -0.18294758127E+04  0.29357400263E+04  0.22959938486E+04 0.  0.
        2    1    3    3  502    0 -0.28572624991E+03 -0.83667646168E+03  0.21578010270E+02  0.88438261061E+03  0.25500000920E-02 0.  1.
       -2    1    3    3    0  502  0.28572624991E+03  0.83667646168E+03 -0.18510538229E+04  0.20513574157E+04  0.25500000920E-02 0. -1.
</event>
<event>
 5   0  0.4295775E-05  0.2264039E+04  0.7818609E-02  0.8492237E-01
        1   -1    0    0  501    0  0.00000000000E+00  0.00000000000E+00  0.18768132607E+04  0.18768132607E+04  0.50400001928E-02 0. -1.
       -1   -1    0    0    0  501  0.00000000000E+00  0.00000000000E+00 -0.68278914018E+03  0.68278914020E+03  0.50400001928E-02 0.  1.
    10030    2    1    2    0    0  0.00000000000E+00  0.00000000000E+00  0.11940241205E+04  0.25596024009E+04  0.22640386150E+04 0.  0.
        5    1    3    3  502    0  0.12470732752E+03 -0.88932356637E+02 -0.67100870503E+03  0.68828457328E+03  0.46999998093E+01 0.  1.
       -5    1    3    3    0  502 -0.12470732752E+03  0.88932356637E+02  0.18650328255E+04  0.18713178276E+04  0.46999998093E+01 0. -1.
</event>
<event>
 5   0  0.4005462E-05  0.2277446E+04  0.7818609E-02  0.8486867E-01
       -1   -1    0    0    0  501  0.00000000000E+00  0.00000000000E+00  0.68491733819E+03  0.68491733820E+03  0.50400001928E-02 0. -1.
        1   -1    0    0  501    0  0.00000000000E+00  0.00000000000E+00 -0.18932058883E+04  0.18932058883E+04  0.50400001928E-02 0.  1.
    10030    2    1    2    0    0  0.00000000000E+00  0.00000000000E+00 -0.12082885501E+04  0.25781232265E+04  0.22774455319E+04 0.  0.
        4    1    3    3  502    0  0.57300540697E+03  0.94481890463E+03 -0.91554343828E+03  0.14350050032E+04  0.12699999809E+01 0.  1.
       -4    1    3    3    0  502 -0.57300540697E+03 -0.94481890463E+03 -0.29274511180E+03  0.11431182233E+04  0.12699999809E+01 0. -1.
</event>
<event>
 5   0  0.9483073E-05  0.2280331E+04  0.7818609E-02  0.8485717E-01
        2   -1    0    0  501    0  0.00000000000E+00  0.00000000000E+00  0.14976323010E+04  0.14976323010E+04  0.25500000920E-02 0.  1.
       -2   -1    0    0    0  501  0.00000000000E+00  0.00000000000E+00 -0.86802205843E+03  0.86802205843E+03  0.25500000920E-02 0. -1.
    10030    2    1    2    0    0  0.00000000000E+00  0.00000000000E+00  0.62961024256E+03  0.23656543594E+04  0.22803314432E+04 0.  0.
        5    1    3    3  502    0 -0.76309575813E+03  0.55701619740E+03  0.97694501865E+03  0.13590532880E+04  0.46999998093E+01 0.  1.
       -5    1    3    3    0  502  0.76309575813E+03 -0.55701619740E+03 -0.34733477610E+03  0.10066010714E+04  0.46999998093E+01 0. -1.
</event>
<event>
 5   0  0.3885219E-05  0.2343271E+04  0.7818609E-02  0.8461053E-01
       -1   -1    0    0    0  501  0.00000000000E+00  0.00000000000E+00  0.94605145469E+03  0.94605145471E+03  0.50400001928E-02 0. -1.
        1   -1    0    0  501    0  0.00000000000E+00  0.00000000000E+00 -0.14510092346E+04  0.14510092346E+04  0.50400001928E-02 0.  1.
    10030    2    1    2    0    0  0.00000000000E+00  0.00000000000E+00 -0.50495777991E+03  0.23970606893E+04  0.23432707033E+04 0.  0.
        2    1    3    3  502    0 -0.14752192218E+02  0.64621878329E+03  0.74714927059E+03  0.98795160590E+03  0.25500000920E-02 0. -1.
       -2    1    3    3    0  502  0.14752192218E+02 -0.64621878329E+03 -0.12521070505E+04  0.14091090834E+04  0.25500000920E-02 0.  1.
</event>
<event>
 5   0  0.4095451E-05  0.2294229E+04  0.7818609E-02  0.8480200E-01
       -1   -1    0    0    0  501  0.00000000000E+00  0.00000000000E+00  0.72587744466E+03  0.72587744468E+03  0.50400001928E-02 0.  1.
        1   -1    0    0  501    0  0.00000000000E+00  0.00000000000E+00 -0.18128014256E+04  0.18128014256E+04  0.50400001928E-02 0. -1.
    10030    2    1    2    0    0  0.00000000000E+00  0.00000000000E+00 -0.10869239809E+04  0.25386788702E+04  0.22942289916E+04 0.  0.
        3    1    3    3  502    0 -0.20889046709E+02 -0.14954949374E+03  0.71483183430E+03  0.73060657325E+03  0.10100000352E+00 0.  1.
       -3    1    3    3    0  502  0.20889046709E+02  0.14954949374E+03 -0.18017558152E+04  0.18080722970E+04  0.10100000352E+00 0. -1.
</event>
<event>
 5   0  0.4139830E-05  0.2304535E+04  0.7818609E-02  0.8476135E-01
        1   -1    0    0  501    0  0.00000000000E+00  0.00000000000E+00  0.15489755843E+04  0.15489755843E+04  0.50400001928E-02 0.  1.
       -1   -1    0    0    0  501  0.00000000000E+00  0.00000000000E+00 -0.85716041991E+03  0.85716041993E+03  0.50400001928E-02 0. -1.
    10030    2    1    2    0    0  0.00000000000E+00  0.00000000000E+00  0.69181516437E+03  0.24061360042E+04  0.23045351482E+04 0.  0.
        1    1    3    3  502    0  0.27664408251E+03  0.10026104867E+04 -0.17190167073E+03  0.10541868529E+04  0.50400001928E-02 0. -1.
       -1    1    3    3    0  502 -0.27664408251E+03 -0.10026104867E+04  0.86371683510E+03  0.13519491513E+04  0.50400001928E-02 0.  1.
</event>
<event>
 5   0  0.9313463E-05  0.2299609E+04  0.7818609E-02  0.8478075E-01
        2   -1    0    0  501    0  0.00000000000E+00  0.00000000000E+00  0.18805208026E+04  0.18805208026E+04  0.25500000920E-02 0. -1.
       -2   -1    0    0    0  501  0.00000000000E+00  0.00000000000E+00 -0.70302343990E+03  0.70302343990E+03  0.25500000920E-02 0.  1.
    10030    2    1    2    0    0  0.00000000000E+00  0.00000000000E+00  0.11774973627E+04  0.25835442425E+04  0.22996088393E+04 0.  0.
        1    1    3    3  502    0  0.32355332167E+02 -0.10731043866E+04  0.10512182060E+04  0.15025510337E+04  0.50400001928E-02 0. -1.
       -1    1    3    3    0  502 -0.32355332167E+02  0.10731043866E+04  0.12627915669E+03  0.10809932088E+04  0.50400001928E-02 0.  1.
</event>
<event>
 5   0  0.9641157E-05  0.2288776E+04  0.7818609E-02  0.8482360E-01
       -2   -1    0    0    0  501  0.00000000000E+00  0.00000000000E+00  0.98317685793E+03  0.98317685793E+03  0.25500000920E-02 0.  1.
        2   -1    0    0  501    0  0.00000000000E+00  0.00000000000E+00 -0.13320328139E+04  0.13320328139E+04  0.25500000920E-02 0. -1.
    10030    2    1    2    0    0  0.00000000000E+00  0.00000000000E+00 -0.34885595592E+03  0.23152096718E+04  0.22887759494E+04 0.  0.
        3    1    3    3  502    0 -0.98415064289E+03 -0.57994862275E+03 -0.24400413968E+03  0.11680885768E+04  0.10100000352E+00 0. -1.
       -3    1    3    3    0  502  0.98415064289E+03  0.57994862275E+03 -0.10485181625E+03  0.11471210950E+04  0.10100000352E+00 0.  1.
</event>
<event>
 5   0  0.9483073E-05  0.2197175E+04  0.7818609E-02  0.8519605E-01
       -2   -1    0    0    0  501  0.00000000000E+00  0.00000000000E+00  0.97532731817E+03  0.97532731818E+03  0.25500000920E-02 0. -1.
        2   -1    0    0  501    0  0.00000000000E+00  0.00000000000E+00 -0.12374254600E+04  0.12374254600E+04  0.25500000920E-02 0.  1.
    10030    2    1    2    0    0  0.00000000000E+00  0.00000000000E+00 -0.26209814183E+03  0.22127527782E+04  0.21971753279E+04 0.  0.
        5    1    3    3  502    0  0.20703516822E+03 -0.10715306317E+04 -0.43344861618E+01  0.10913671854E+04  0.46999998093E+01 0. -1.
       -5    1    3    3    0  502 -0.20703516822E+03  0.10715306317E+04 -0.25776365567E+03  0.11213855928E+04  0.46999998093E+01 0.  1.
</event>
<event>
 5   0  0.9312074E-05  0.2232081E+04  0.7818609E-02  0.8505193E-01
       -2   -1    0    0    0  501  0.00000000000E+00  0.00000000000E+00  0.67018473187E+03  0.67018473188E+03  0.25500000920E-02 0.  1.
        2   -1    0    0  501    0  0.00000000000E+00  0.00000000000E+00 -0.18585121493E+04  0.18585121493E+04  0.25500000920E-02 0. -1.
    10030    2    1    2    0    0  0.00000000000E+00  0.00000000000E+00 -0.11883274174E+04  0.25286968812E+04  0.22320810617E+04 0.  0.
        4    1    3    3  502    0 -0.49567395502E+03 -0.76726490693E+03 -0.13205882714E+04  0.16057219880E+04  0.12699999809E+01 0. -1.
       -4    1    3    3    0  502  0.49567395502E+03  0.76726490693E+03  0.13226085401E+03  0.92297489321E+03  0.12699999809E+01 0.  1.
</event>
<event>
 5   0  0.9313463E-05  0.2375208E+04  0.7818609E-02  0.8448844E-01
       -2   -1    0    0    0  501  0.00000000000E+00  0.00000000000E+00  0.11096328061E+04  0.11096328061E+04  0.25500000920E-02 0. -1.
        2   -1    0    0  501    0  0.00000000000E+00  0.00000000000E+00 -0.12710539577E+04  0.12710539577E+04  0.25500000920E-02 0.  1.
    10030    2    1    2    0    0  0.00000000000E+00  0.00000000000E+00 -0.16142115156E+03  0.23806867638E+04  0.23752079234E+04 0.  0.
        1    1    3    3  502    0 -0.96609602668E+03 -0.69069491801E+03 -0.82186128898E+02  0.11904434310E+04  0.50400001928E-02 0. -1.
       -1    1    3    3    0  502  0.96609602668E+03  0.69069491801E+03 -0.79235022665E+02  0.11902433328E+04  0.50400001928E-02 0.  1.
</event>
<event>
 5   0  0.3885219E-05  0.2257707E+04  0.7818609E-02  0.8494786E-01
        1   -1    0    0  501    0  0.00000000000E+00  0.00000000000E+00  0.11907504376E+04  0.11907504376E+04  0.50400001928E-02 0. -1.
       -1   -1    0    0    0  501  0.00000000000E+00  0.00000000000E+00 -0.10701741403E+04  0.10701741403E+04  0.50400001928E-02 0.  1.
    10030    2    1    2    0    0  0.00000000000E+00  0.00000000000E+00  0.12057629724E+03  0.22609245779E+04  0.22577070898E+04 0.  0.
        2    1    3    3  502    0  0.50794774919E+03  0.94709086486E+03 -0.28562893704E+03  0.11120143488E+04  0.25500000920E-02 0.  1.
       -2    1    3    3    0  502 -0.50794774919E+03 -0.94709086486E+03  0.40620523428E+03  0.11489102291E+04  0.25500000920E-02 0. -1.
</event>
<event>
 5   0  0.4095451E-05  0.2331621E+04  0.7818609E-02  0.8465557E-01
        1   -1    0    0  501    0  0.00000000000E+00  0.00000000000E+00  0.69413243449E+03  0.69413243451E+03  0.50400001928E-02 0.  1.
       -1   -1    0    0    0  501  0.00000000000E+00  0.00000000000E+00 -0.19580033810E+04  0.19580033810E+04  0.50400001928E-02 0. -1.
    10030    2    1    2    0    0  0.00000000000E+00  0.00000000000E+00 -0.12638709465E+04  0.26521358155E+04  0.23316205983E+04 0.  0.
        3    1    3    3  502    0  0.38724614104E+03  0.60441773673E+03  0.41294400382E+03  0.82813231715E+03  0.10100000352E+00 0.  1.
       -3    1    3    3    0  502 -0.38724614104E+03 -0.60441773673E+03 -0.16768149503E+04  0.18240034983E+04  0.10100000352E+00 0. -1.
</event>
<event>
 5   0  0.9641157E-05  0.2338876E+04  0.7818609E-02  0.8462749E-01
       -2   -1    0    0    0  501  0.00000000000E+00  0.00000000000E+00  0.12993329151E+04  0.12993329151E+04  0.25500000920E-02 0.  1.
        2   -1    0    0  501    0  0.00000000000E+00  0.00000000000E+00 -0.10525289046E+04  0.10525289046E+04  0.25500000920E-02 0. -1.
    10030    2    1    2    0    0  0.00000000000E+00  0.00000000000E+00  0.24680401048E+03  0.23518618197E+04  0.23388761830E+04 0.  0.
        3    1    3    3  502    0  0.86647681314E+03 -0.16736065924E+03  0.89499127195E+03  0.12569013665E+04  0.10100000352E+00 0.  1.
       -3    1    3    3    0  502 -0.86647681314E+03  0.16736065924E+03 -0.64818726147E+03  0.10949604532E+04  0.10100000352E+00 0. -1.
</event>
<event>
 5   0  0.9641157E-05  0.2285646E+04  0.7818609E-02  0.8483602E-01
        2   -1    0    0  501    0  0.00000000000E+00  0.00000000000E+00  0.14572505891E+04  0.14572505891E+04  0.25500000920E-02 0. -1.
       -2   -1    0    0    0  501  0.00000000000E+00  0.00000000000E+00 -0.89623848407E+03  0.89623848407E+03  0.25500000920E-02 0.  1.
    10030    2    1    2    0    0  0.00000000000E+00  0.00000000000E+00  0.56101210499E+03  0.23534890731E+04  0.22856456933E+04 0.  0.
        3    1    3    3  502    0 -0.59316068925E+02  0.45838639767E+03 -0.79570048475E+03  0.92020419323E+03  0.10100000352E+00 0.  1.
       -3    1    3    3    0  502  0.59316068925E+02 -0.45838639767E+03  0.13567125897E+04  0.14332848799E+04  0.10100000352E+00 0. -1.
</event>
<event>
 5   0  0.3885219E-05  0.2298661E+04  0.7818609E-02  0.8478449E-01
        1   -1    0    0  501    0  0.00000000000E+00  0.00000000000E+00  0.88908195072E+03  0.88908195073E+03  0.50400001928E-02 0.  1.
       -1   -1    0    0    0  501  0.00000000000E+00  0.00000000000E+00 -0.14857582310E+04  0.14857582310E+04  0.50400001928E-02 0. -1.
    10030    2    1    2    0    0  0.00000000000E+00  0.00000000000E+00 -0.59667628024E+03  0.23748401817E+04  0.22986611984E+04 0.  0.
        2    1    3    3  502    0 -0.28591981792E+03  0.81505618100E+03  0.48500735733E+03  0.99060529836E+03  0.25500000920E-02 0.  1.
       -2    1    3    3    0  502  0.28591981792E+03 -0.81505618100E+03 -0.10816836376E+04  0.13842348833E+04  0.25500000920E-02 0. -1.
</event>
<event>
 5   0  0.4139830E-05  0.2129931E+04  0.7818609E-02  0.8548172E-01
        1   -1    0    0  501    0  0.00000000000E+00  0.00000000000E+00  0.21695528594E+04  0.21695528595E+04  0.50400001928E-02 0. -1.
       -1   -1    0    0    0  501  0.00000000000E+00  0.00000000000E+00 -0.52275801347E+03  0.52275801349E+03  0.50400001928E-02 0.  1.
    10030    2    1    2    0    0  0.00000000000E+00  0.00000000000E+00  0.16467948460E+04  0.26923108729E+04  0.21299306495E+04 0.  0.
        1    1    3    3  502    0 -0.62908988701E+03 -0.64901421901E+02 -0.25968736205E+03  0.68366936932E+03  0.50400001928E-02 0.  1.
       -1    1    3    3    0  502  0.62908988701E+03  0.64901421901E+02  0.19064822080E+04  0.20086415036E+04  0.50400001928E-02 0. -1.
</event>
<event>
 5   0  0.9483073E-05  0.2301997E+04  0.7818609E-02  0.8477134E-01
       -2   -1    0    0    0  501  0.00000000000E+00  0.00000000000E+00  0.15391058914E+04  0.15391058914E+04  0.25500000920E-02 0.  1.
        2   -1    0    0  501    0  0.00000000000E+00  0.00000000000E+00 -0.86075824445E+03  0.86075824445E+03  0.25500000920E-02 0. -1.
    10030    2    1    2    0    0  0.00000000000E+00  0.00000000000E+00  0.67834764690E+03  0.23998641358E+04  0.23019974675E+04 0.  0.
        5    1    3    3  502    0  0.33949996630E+03 -0.57337809073E+02 -0.80580259622E+03  0.87629205493E+03  0.46999998093E+01 0. -1.
       -5    1    3    3    0  502 -0.33949996630E+03  0.57337809073E+02  0.14841502431E+04  0.15235720809E+04  0.46999998093E+01 0.  1.
</event>
<event>
 5   0  0.4005462E-05  0.2222571E+04  0.7818609E-02  0.8509092E-01
       -1   -1    0    0    0  501  0.00000000000E+00  0.00000000000E+00  0.19930123241E+04  0.19930123241E+04  0.50400001928E-02 0.  1.
        1   -1    0    0  501    0  0.00000000000E+00  0.00000000000E+00 -0.61964252360E+03  0.61964252362E+03  0.50400001928E-02 0. -1.
    10030    2    1    2    0    0  0.00000000000E+00  0.00000000000E+00  0.13733698005E+04  0.26126548477E+04  0.22225707513E+04 0.  0.
        4    1    3    3  502    0 -0.90088910271E+03 -0.32115029434E+03  0.13518771857E+04  0.16559928215E+04  0.12699999809E+01 0.  1.
       -4    1    3    3    0  502  0.90088910271E+03  0.32115029434E+03  0.21492614812E+02  0.95666202617E+03  0.12699999809E+01 0. -1.
</event>
<event>
 5   0  0.4139830E-05  0.2283382E+04  0.7818609E-02  0.8484502E-01
       -1   -1    0    0    0  501  0.00000000000E+00  0.00000000000E+00  0.11500680542E+04  0.11500680542E+04  0.50400001928E-02 0. -1.
        1   -1    0    0  501    0  0.00000000000E+00  0.00000000000E+00 -0.11333753420E+04  0.11333753420E+04  0.50400001928E-02 0.  1.
    10030    2    1    2    0    0  0.00000000000E+00  0.00000000000E+00  0.16692712208E+02  0.22834433963E+04  0.22833823809E+04 0.  0.
        1    1    3    3  502    0 -0.65950147006E+03  0.51869727034E+01  0.94029919607E+03  0.11485345758E+04  0.50400001928E-02 0. -1.
       -1    1    3    3    0  502  0.65950147006E+03 -0.51869727034E+01 -0.92360648387E+03  0.11349088205E+04  0.50400001928E-02 0.  1.
</event>
<event>
 5   0  0.9312074E-05  0.2238584E+04  0.7818609E-02  0.8502538E-01
       -2   -1    0    0    0  501  0.00000000000E+00  0.00000000000E+00  0.62530872161E+03  0.62530872161E+03  0.25500000920E-02 0.  1.
        2   -1    0    0  501    0  0.00000000000E+00  0.00000000000E+00 -0.20035135488E+04  0.20035135489E+04  0.25500000920E-02 0. -1.
    10030    2    1    2    0    0  0.00000000000E+00  0.00000000000E+00 -0.13782048272E+04  0.26288222705E+04  0.22385839238E+04 0.  0.
        4    1    3    3  502    0  0.29773999913E+03  0.82843070745E+03  0.12268266552E+03  0.88881898801E+03  0.12699999809E+01 0.  1.
       -4    1    3    3    0  502 -0.29773999913E+03 -0.82843070745E+03 -0.15008874928E+04  0.17400032825E+04  0.12699999809E+01 0. -1.
</event>
<event>
 5   0  0.4095451E-05  0.2361126E+04  0.7818609E-02  0.8454202E-01
        1   -1    0    0  501    0  0.00000000000E+00  0.00000000000E+00  0.16599000839E+04  0.16599000839E+04  0.50400001928E-02 0.  1.
       -1   -1    0    0    0  501  0.00000000000E+00  0.00000000000E+00 -0.83964657251E+03  0.83964657253E+03  0.50400001928E-02 0. -1.
    10030    2    1    2    0    0  0.00000000000E+00  0.00000000000E+00  0.82025351138E+03  0.24995466564E+04  0.23611263551E+04 0.  0.
        3    1    3    3  502    0 -0.28589778185E+03  0.86059536614E+03  0.12103290239E+04  0.15123684347E+04  0.10100000352E+00 0.  1.
       -3    1    3    3    0  502  0.28589778185E+03 -0.86059536614E+03 -0.39007551250E+03  0.98717822177E+03  0.10100000352E+00 0. -1.
</event>
<event>
 5   0  0.4139830E-05  0.1617090E+04  0.7818609E-02  0.8810117E-01
        1   -1    0    0  501    0  0.00000000000E+00  0.00000000000E+00  0.81170559001E+03  0.81170559003E+03  0.50400001928E-02 0. -1.
       -1   -1    0    0    0  501  0.00000000000E+00  0.00000000000E+00 -0.80539691925E+03  0.80539691927E+03  0.50400001928E-02 0.  1.
    10030    2    1    2    0    0  0.00000000000E+00  0.00000000000E+00  0.63086707644E+01  0.16171025093E+04  0.16170902035E+04 0.  0.
        1    1    3    3  502    0 -0.41519677761E+02  0.80162079986E+03  0.10023952776E+03  0.80893000523E+03  0.50400001928E-02 0. -1.
       -1    1    3    3    0  502  0.41519677761E+02 -0.80162079986E+03 -0.93930857000E+02  0.80817250407E+03  0.50400001928E-02 0.  1.
</event>
<event>
 5   0  0.4139830E-05  0.2317532E+04  0.7818609E-02  0.8471040E-01
       -1   -1    0    0    0  501  0.00000000000E+00  0.00000000000E+00  0.11333486381E+04  0.11333486381E+04  0.50400001928E-02 0.  1.
        1   -1    0    0  501    0  0.00000000000E+00  0.00000000000E+00 -0.11847532212E+04  0.11847532212E+04  0.50400001928E-02 0. -1.
    10030    2    1    2    0    0  0.00000000000E+00  0.00000000000E+00 -0.51404583091E+02  0.23181018593E+04  0.23175318334E+04 0.  0.
        1    1    3    3  502    0 -0.11311658266E+03 -0.25718400146E+03  0.10987625806E+04  0.11341155940E+04  0.50400001928E-02 0.  1.
       -1    1    3    3    0  502  0.11311658266E+03  0.25718400146E+03 -0.11501671637E+04  0.11839862653E+04  0.50400001928E-02 0. -1.
</event>
<event>
 5   0  0.4295775E-05  0.2290841E+04  0.7818609E-02  0.8481541E-01
       -1   -1    0    0    0  501  0.00000000000E+00  0.00000000000E+00  0.10247016050E+04  0.10247016051E+04  0.50400001928E-02 0. -1.
        1   -1    0    0  501    0  0.00000000000E+00  0.00000000000E+00 -0.12803608157E+04  0.12803608157E+04  0.50400001928E-02 0.  1.
    10030    2    1    2    0    0  0.00000000000E+00  0.00000000000E+00 -0.25565921064E+03  0.23050624207E+04  0.22908407041E+04 0.  0.
        5    1    3    3  502    0 -0.36774603938E+03  0.30284439333E+03  0.92027694139E+03  0.10362835591E+04  0.46999998093E+01 0. -1.
       -5    1    3    3    0  502  0.36774603938E+03 -0.30284439333E+03 -0.11759361520E+04  0.12687788616E+04  0.46999998093E+01 0.  1.
</event>
<event>
 5   0  0.4295775E-05  0.2204516E+04  0.7818609E-02  0.8516551E-01
        1   -1    0    0  501    0  0.00000000000E+00  0.00000000000E+00  0.11578066461E+04  0.11578066461E+04  0.50400001928E-02 0. -1.
       -1   -1    0    0    0  501  0.00000000000E+00  0.00000000000E+00 -0.10493743264E+04  0.10493743264E+04  0.50400001928E-02 0.  1.
    10030    2    1    2    0    0  0.00000000000E+00  0.00000000000E+00  0.10843231972E+03  0.22071809726E+04  0.22045158828E+04 0.  0.
        5    1    3    3  502    0 -0.24055014730E+03 -0.43152747722E+03  0.10407347738E+04  0.11520552488E+04  0.46999998093E+01 0. -1.
       -5    1    3    3    0  502  0.24055014730E+03  0.43152747722E+03 -0.93230245409E+03  0.10551257237E+04  0.46999998093E+01 0.  1.
</event>
<event>
 5   0  0.3885219E-05  0.2336296E+04  0.7818609E-02  0.8463746E-01
       -1   -1    0    0    0  501  0.00000000000E+00  0.00000000000E+00  0.12276434015E+04  0.12276434015E+04  0.50400001928E-02 0. -1.
        1   -1    0    0  501    0  0.00000000000E+00  0.00000000000E+00 -0.11115359077E+04  0.11115359077E+04  0.50400001928E-02 0.  1.
    10030    2    1    2    0    0  0.00000000000E+00  0.00000000000E+00  0.11610749382E+03  0.23391793091E+04  0.23362959766E+04 0.  0.
        2    1    3    3  502    0  0.81108586951E+02 -0.56396281324E+03  0.10790853425E+04  0.12202695743E+04  0.25500000920E-02 0. -1.
       -2    1    3    3    0  502 -0.81108586951E+02  0.56396281324E+03 -0.96297784869E+03  0.11189097348E+04  0.25500000920E-02 0.  1.
</event>
<event>
 5   0  0.3885219E-05  0.2281019E+04  0.7818609E-02  0.8485443E-01
        1   -1    0    0  501    0  0.00000000000E+00  0.00000000000E+00  0.21466089603E+04  0.21466089603E+04  0.50400001928E-02 0.  1.
       -1   -1    0    0    0  501  0.00000000000E+00  0.00000000000E+00 -0.60596118394E+03  0.60596118396E+03  0.50400001928E-02 0. -1.
    10030    2    1    2    0    0  0.00000000000E+00  0.00000000000E+00  0.15406477764E+04  0.27525701443E+04  0.22810188137E+04 0.  0.
        2    1    3    3  502    0  0.19946474685E+02  0.91582821152E+03  0.15902090509E+04  0.18351850044E+04  0.25500000920E-02 0.  1.
       -2    1    3    3    0  502 -0.19946474685E+02 -0.91582821152E+03 -0.49561274529E+02  0.91738513985E+03  0.25500000920E-02 0. -1.
</event>
<event>
 5   0  0.3885219E-05  0.1990532E+04  0.7818609E-02  0.8611060E-01
       -1   -1    0    0    0  501  0.00000000000E+00  0.00000000000E+00  0.93010036889E+03  0.93010036890E+03  0.50400001928E-02 0. -1.
        1   -1    0    0  501    0  0.00000000000E+00  0.00000000000E+00 -0.10649968421E+04  0.10649968421E+04  0.50400001928E-02 0.  1.
    10030    2    1    2    0    0  0.00000000000E+00  0.00000000000E+00 -0.13489647324E+03  0.19950972110E+04  0.19905315428E+04 0.  0.
        2    1    3    3  502    0  0.35532706635E+03 -0.88184380324E+03  0.22758749456E+03  0.97760006397E+03  0.25500000920E-02 0. -1.
       -2    1    3    3    0  502 -0.35532706635E+03  0.88184380324E+03 -0.36248396781E+03  0.10174971471E+04  0.25500000920E-02 0.  1.
</event>
<event>
 5   0  0.9483073E-05  0.2309735E+04  0.7818609E-02  0.8474093E-01
       -2   -1    0    0    0  501  0.00000000000E+00  0.00000000000E+00  0.46234644309E+03  0.46234644309E+03  0.25500000920E-02 0. -1.
        2   -1    0    0  501    0  0.00000000000E+00  0.00000000000E+00 -0.28846744865E+04  0.28846744865E+04  0.25500000920E-02 0.  1.
    10030    2    1    2    0    0  0.00000000000E+00  0.00000000000E+00 -0.24223280434E+04  0.33470209296E+04  0.23097350396E+04 0.  0.
        5    1    3    3  502    0 -0.71768950540E+02  0.12530162934E+03  0.44919916111E+03  0.47186148064E+03  0.46999998093E+01 0. -1.
       -5    1    3    3    0  502  0.71768950540E+02 -0.12530162934E+03 -0.28715272045E+04  0.28751594490E+04  0.46999998093E+01 0.  1.
</event>
<event>
 5   0  0.4139830E-05  0.2292417E+04  0.7818609E-02  0.8480917E-01
        1   -1    0    0  501    0  0.00000000000E+00  0.00000000000E+00  0.18165276238E+04  0.18165276238E+04  0.50400001928E-02 0.  1.
       -1   -1    0    0    0  501  0.00000000000E+00  0.00000000000E+00 -0.72324437483E+03  0.72324437485E+03  0.50400001928E-02 0. -1.
    10030    2    1    2    0    0  0.00000000000E+00  0.00000000000E+00  0.10932832490E+04  0.25397719986E+04  0.22924165290E+04 0.  0.
        1    1    3    3  502    0  0.48504451933E+03 -0.81328810595E+03 -0.16886699225E+03  0.96188449936E+03  0.50400001928E-02 0. -1.
       -1    1    3    3    0  502 -0.48504451933E+03  0.81328810595E+03  0.12621502412E+04  0.15778874993E+04  0.50400001928E-02 0.  1.
</event>
<event>
 5   0  0.3261500E-05  0.2295487E+04  0.7818609E-02  0.8479703E-01
       -3   -1    0    0    0  501  0.00000000000E+00  0.00000000000E+00  0.17326184517E+04  0.17326184547E+04  0.10100000352E+00 0.  1.
        3   -1    0    0  501    0  0.00000000000E+00  0.00000000000E+00 -0.76030294475E+03  0.76030295146E+03  0.10100000352E+00 0. -1.
    10030    2    1    2    0    0  0.00000000000E+00  0.00000000000E+00  0.97231550699E+03  0.24929214061E+04  0.22954868094E+04 0.  0.
        4    1    3    3  502    0 -0.60267147330E+03  0.34087496605E+03 -0.50794457012E+03  0.85873042710E+03  0.12699999809E+01 0. -1.
       -4    1    3    3    0  502  0.60267147330E+03 -0.34087496605E+03  0.14802600771E+04  0.16341909790E+04  0.12699999809E+01 0.  1.
</event>
<event>
 5   0  0.9483073E-05  0.2297072E+04  0.7818609E-02  0.8479077E-01
        2   -1    0    0  501    0  0.00000000000E+00  0.00000000000E+00  0.16723760217E+04  0.16723760217E+04  0.25500000920E-02 0.  1.
       -2   -1    0    0    0  501  0.00000000000E+00  0.00000000000E+00 -0.78877882488E+03  0.78877882489E+03  0.25500000920E-02 0. -1.
    10030    2    1    2    0    0  0.00000000000E+00  0.00000000000E+00  0.88359719680E+03  0.24611548466E+04  0.22970718693E+04 0.  0.
        5    1    3    3  502    0  0.67786400784E+03  0.92679695941E+03  0.41426289439E+03  0.12206916289E+04  0.46999998093E+01 0. -1.
       -5    1    3    3    0  502 -0.67786400784E+03 -0.92679695941E+03  0.46933430241E+03  0.12404632177E+04  0.46999998093E+01 0.  1.
</event>
<event>
 5   0  0.4005462E-05  0.2321372E+04  0.7818609E-02  0.8469542E-01
       -1   -1    0    0    0  501  0.00000000000E+00  0.00000000000E+00  0.79710008929E+03  0.79710008930E+03  0.50400001928E-02 0. -1.
        1   -1    0    0  501    0  0.00000000000E+00  0.00000000000E+00 -0.16901161746E+04  0.16901161746E+04  0.50400001928E-02 0.  1.
    10030    2    1    2    0    0  0.00000000000E+00  0.00000000000E+00 -0.89301608527E+03  0.24872162639E+04  0.23213717959E+04 0.  0.
        4    1    3    3  502    0  0.10385079807E+04  0.10428736790E+02 -0.10017825644E+04  0.14429752263E+04  0.12699999809E+01 0.  1.
       -4    1    3    3    0  502 -0.10385079807E+04 -0.10428736790E+02  0.10876647908E+03  0.10442410375E+04  0.12699999809E+01 0. -1.
</event>
<event>
 5   0  0.9312074E-05  0.2262115E+04  0.7818609E-02  0.8493010E-01
       -2   -1    0    0    0  501  0.00000000000E+00  0.00000000000E+00  0.71998446286E+03  0.71998446287E+03  0.25500000920E-02 0.  1.
        2   -1    0    0  501    0  0.00000000000E+00  0.00000000000E+00 -0.17768317510E+04  0.17768317510E+04  0.25500000920E-02 0. -1.
    10030    2    1    2    0    0  0.00000000000E+00  0.00000000000E+00 -0.10568472881E+04  0.24968162139E+04  0.22621151640E+04 0.  0.
        4    1    3    3  502    0  0.36112058804E+03  0.33345444751E+02 -0.17109184231E+04  0.17489320916E+04  0.12699999809E+01 0. -1.
       -4    1    3    3    0  502 -0.36112058804E+03 -0.33345444751E+02  0.65407113496E+03  0.74788412223E+03  0.12699999809E+01 0.  1.
</event>
<event>
 5   0  0.9313463E-05  0.2321186E+04  0.7818609E-02  0.8469614E-01
        2   -1    0    0  501    0  0.00000000000E+00  0.00000000000E+00  0.61215688945E+03  0.61215688945E+03  0.25500000920E-02 0.  1.
       -2   -1    0    0    0  501  0.00000000000E+00  0.00000000000E+00 -0.22003778915E+04  0.22003778915E+04  0.25500000920E-02 0. -1.
    10030    2    1    2    0    0  0.00000000000E+00  0.00000000000E+00 -0.15882210020E+04  0.28125347809E+04  0.23211863223E+04 0.  0.
        1    1    3    3  502    0 -0.10517569569E+04  0.47820592354E+03 -0.92741117103E+03  0.14815414547E+04  0.50400001928E-02 0. -1.
       -1    1    3    3    0  502  0.10517569569E+04 -0.47820592354E+03 -0.66080983100E+03  0.13309933263E+04  0.50400001928E-02 0.  1.
</event>
<event>
 5   0  0.4095451E-05  0.1547652E+04  0.7818609E-02  0.8853369E-01
        1   -1    0    0  501    0  0.00000000000E+00  0.00000000000E+00  0.50872836778E+03  0.50872836780E+03  0.50400001928E-02 0. -1.
       -1   -1    0    0    0  501  0.00000000000E+00  0.00000000000E+00 -0.11770653187E+04  0.11770653187E+04  0.50400001928E-02 0.  1.
    10030    2    1    2    0    0  0.00000000000E+00  0.00000000000E+00 -0.66833695095E+03  0.16857936865E+04  0.15476517934E+04 0.  0.
        3    1    3    3  502    0  0.56094216118E+01 -0.71768328555E+02 -0.11734101103E+04  0.11756162026E+04  0.10100000352E+00 0.  1.
       -3    1    3    3    0  502 -0.56094216118E+01  0.71768328555E+02  0.50507315938E+03  0.51017748394E+03  0.10100000352E+00 0. -1.
</event>
<event>
 5   0  0.9641157E-05  0.2248405E+04  0.7818609E-02  0.8498547E-01
        2   -1    0    0  501    0  0.00000000000E+00  0.00000000000E+00  0.94543724957E+03  0.94543724957E+03  0.25500000920E-02 0.  1.
       -2   -1    0    0    0  501  0.00000000000E+00  0.00000000000E+00 -0.13367689686E+04  0.13367689686E+04  0.25500000920E-02 0. -1.
    10030    2    1    2    0    0  0.00000000000E+00  0.00000000000E+00 -0.39133171898E+03  0.22822062181E+04  0.22484049252E+04 0.  0.
        3    1    3    3  502    0  0.54501868532E+03 -0.84834190265E+03 -0.70023225703E+03  0.12276215114E+04  0.10100000352E+00 0. -1.
       -3    1    3    3    0  502 -0.54501868532E+03  0.84834190265E+03  0.30890053805E+03  0.10545847068E+04  0.10100000352E+00 0.  1.
</event>
<event>
 5   0  0.4005462E-05  0.2191263E+04  0.7818609E-02  0.8522073E-01
       -1   -1    0    0    0  501  0.00000000000E+00  0.00000000000E+00  0.65940890348E+03  0.65940890350E+03  0.50400001928E-02 0.  1.
        1   -1    0    0  501    0  0.00000000000E+00  0.00000000000E+00 -0.18204311102E+04  0.18204311102E+04  0.50400001928E-02 0. -1.
    10030    2    1    2    0    0  0.00000000000E+00  0.00000000000E+00 -0.11610222067E+04  0.24798400137E+04  0.21912630898E+04 0.  0.
        4    1    3    3  502    0  0.57656276453E+03  0.62008359301E+02  0.47150041140E+03  0.74738471279E+03  0.12699999809E+01 0.  1.
       -4    1    3    3    0  502 -0.57656276453E+03 -0.62008359301E+02 -0.16325226181E+04  0.17324553009E+04  0.12699999809E+01 0. -1.
</event>
<event>
 5   0  0.9535394E-05  0.2287847E+04  0.7818609E-02  0.8482728E-01
        2   -1    0    0  501    0  0.00000000000E+00  0.00000000000E+00  0.12709172761E+04  0.12709172761E+04  0.25500000920E-02 0.  1.
       -2   -1    0    0    0  501  0.00000000000E+00  0.00000000000E+00 -0.10296196375E+04  0.10296196375E+04  0.25500000920E-02 0. -1.
    10030    2    1    2    0    0  0.00000000000E+00  0.00000000000E+00  0.24129763861E+03  0.23005369136E+04  0.22878473595E+04 0.  0.
        2    1    3    3  502    0 -0.26986216568E+03  0.31907686391E+03  0.11914145651E+04  0.12625784330E+04  0.25500000920E-02 0.  1.
       -2    1    3    3    0  502  0.26986216568E+03 -0.31907686391E+03 -0.95011692646E+03  0.10379584806E+04  0.25500000920E-02 0. -1.
</event>
<event>
 5   0  0.4005462E-05  0.2329895E+04  0.7818609E-02  0.8466226E-01
        1   -1    0    0  501    0  0.00000000000E+00  0.00000000000E+00  0.78125405554E+03  0.78125405556E+03  0.50400001928E-02 0. -1.
       -1   -1    0    0    0  501  0.00000000000E+00  0.00000000000E+00 -0.17370822060E+04  0.17370822060E+04  0.50400001928E-02 0.  1.
    10030    2    1    2    0    0  0.00000000000E+00  0.00000000000E+00 -0.95582815044E+03  0.25183362615E+04  0.23298948631E+04 0.  0.
        4    1    3    3  502    0  0.96191820248E+03 -0.64581642488E+03 -0.60912158437E+03  0.13089676086E+04  0.12699999809E+01 0.  1.
       -4    1    3    3    0  502 -0.96191820248E+03  0.64581642488E+03 -0.34670656607E+03  0.12093686530E+04  0.12699999809E+01 0. -1.
</event>
<event>
 5   0  0.4005462E-05  0.2317941E+04  0.7818609E-02  0.8470880E-01
       -1   -1    0    0    0  501  0.00000000000E+00  0.00000000000E+00  0.83327853055E+03  0.83327853056E+03  0.50400001928E-02 0.  1.
        1   -1    0    0  501    0  0.00000000000E+00  0.00000000000E+00 -0.16119617469E+04  0.16119617469E+04  0.50400001928E-02 0. -1.
    10030    2    1    2    0    0  0.00000000000E+00  0.00000000000E+00 -0.77868321631E+03  0.24452402774E+04  0.23179414279E+04 0.  0.
        4    1    3    3  502    0 -0.64666317781E+03  0.13738749019E+03 -0.13935462521E+04  0.15424076497E+04  0.12699999809E+01 0. -1.
       -4    1    3    3    0  502  0.64666317781E+03 -0.13738749019E+03  0.61486303584E+03  0.90283262775E+03  0.12699999809E+01 0.  1.
</event>
<event>
 5   0  0.3885219E-05  0.1516524E+04  0.7818609E-02  0.8873539E-01
        1   -1    0    0  501    0  0.00000000000E+00  0.00000000000E+00  0.98087750703E+03  0.98087750704E+03  0.50400001928E-02 0.  1.
       -1   -1    0    0    0  501  0.00000000000E+00  0.00000000000E+00 -0.58617004203E+03  0.58617004205E+03  0.50400001928E-02 0. -1.
    10030    2    1    2    0    0  0.00000000000E+00  0.00000000000E+00  0.39470746500E+03  0.15670475491E+04  0.15165236689E+04 0.  0.
        2    1    3    3  502    0  0.35193722895E+03  0.61937921456E+03  0.46575849618E+03  0.85112948564E+03  0.25500000920E-02 0.  1.
       -2    1    3    3    0  502 -0.35193722895E+03 -0.61937921456E+03 -0.71051031182E+02  0.71591806346E+03  0.25500000920E-02 0. -1.
</event>
<event>
 5   0  0.9535394E-05  0.2368231E+04  0.7818609E-02  0.8451494E-01
       -2   -1    0    0    0  501  0.00000000000E+00  0.00000000000E+00  0.17010299195E+04  0.17010299195E+04  0.25500000920E-02 0. -1.
        2   -1    0    0  501    0  0.00000000000E+00  0.00000000000E+00 -0.82428258768E+03  0.82428258768E+03  0.25500000920E-02 0.  1.
    10030    2    1    2    0    0  0.00000000000E+00  0.00000000000E+00  0.87674733182E+03  0.25253125072E+04  0.23682308534E+04 0.  0.
        2    1    3    3  502    0 -0.94278847894E+03 -0.61791649051E+03  0.51752764091E+02  0.11284277796E+04  0.25500000920E-02 0.  1.
       -2    1    3    3    0  502  0.94278847894E+03  0.61791649051E+03  0.82499456773E+03  0.13968847275E+04  0.25500000920E-02 0. -1.
</event>
<event>
 5   0  0.9313463E-05  0.2347137E+04  0.7818609E-02  0.8459564E-01
        2   -1    0    0  501    0  0.00000000000E+00  0.00000000000E+00  0.10621032015E+04  0.10621032015E+04  0.25500000920E-02 0.  1.
       -2   -1    0    0    0  501  0.00000000000E+00  0.00000000000E+00 -0.12967323370E+04  0.12967323370E+04  0.25500000920E-02 0. -1.
    10030    2    1    2    0    0  0.00000000000E+00  0.00000000000E+00 -0.23462913550E+03  0.23588355386E+04  0.23471374623E+04 0.  0.
        1    1    3    3  502    0 -0.10309085877E+04 -0.13458360261E+03 -0.66443425399E+03  0.12338387821E+04  0.50400001928E-02 0. -1.
       -1    1    3    3    0  502  0.10309085877E+04  0.13458360261E+03  0.42980511849E+03  0.11249967565E+04  0.50400001928E-02 0.  1.
</event>
<event>
 5   0  0.3261500E-05  0.2306286E+04  0.7818609E-02  0.8475447E-01
        4   -1    0    0  501    0  0.00000000000E+00  0.00000000000E+00  0.94490968520E+03  0.94491053867E+03  0.12699999809E+01 0.  1.
       -4   -1    0    0    0  501  0.00000000000E+00  0.00000000000E+00 -0.14072636820E+04  0.14072642551E+04  0.12699999809E+01 0. -1.
    10030    2    1    2    0    0  0.00000000000E+00  0.00000000000E+00 -0.46235399679E+03  0.23521747937E+04  0.23062859844E+04 0.  0.
        3    1    3    3  502    0 -0.56330915495E+03  0.92557771409E+03  0.17129809150E+03  0.10969750933E+04  0.10100000352E+00 0.  1.
       -3    1    3    3    0  502  0.56330915495E+03 -0.92557771409E+03 -0.63365208830E+03  0.12551997005E+04  0.10100000352E+00 0. -1.
</event>
<event>
 5   0  0.9313463E-05  0.2209019E+04  0.7818609E-02  0.8514684E-01
        2   -1    0    0  501    0  0.00000000000E+00  0.00000000000E+00  0.14845481443E+04  0.14845481444E+04  0.25500000920E-02 0.  1.
       -2   -1    0    0    0  501  0.00000000000E+00  0.00000000000E+00 -0.82175922274E+03  0.82175922275E+03  0.25500000920E-02 0. -1.
    10030    2    1    2    0    0  0.00000000000E+00  0.00000000000E+00  0.66278892161E+03  0.23063073671E+04  0.22090189037E+04 0.  0.
        1    1    3    3  502    0  0.24972959679E+03  0.67373648625E+03 -0.54439107417E+03  0.90146955915E+03  0.50400001928E-02 0. -1.
       -1    1    3    3    0  502 -0.24972959679E+03 -0.67373648625E+03  0.12071799958E+04  0.14048378079E+04  0.50400001928E-02 0.  1.
</event>
<event>
 5   0  0.4139830E-05  0.1556239E+04  0.7818609E-02  0.8847892E-01
        1   -1    0    0  501    0  0.00000000000E+00  0.00000000000E+00  0.69212251648E+03  0.69212251649E+03  0.50400001928E-02 0.  1.
       -1   -1    0    0    0  501  0.00000000000E+00  0.00000000000E+00 -0.87480207723E+03  0.87480207724E+03  0.50400001928E-02 0. -1.
    10030    2    1    2    0    0  0.00000000000E+00  0.00000000000E+00 -0.18267956075E+03  0.15669245937E+04  0.15562393327E+04 0.  0.
        1    1    3    3  502    0  0.21555184095E+03  0.73558130956E+03  0.43474120664E+02  0.76774504773E+03  0.50400001928E-02 0.  1.
       -1    1    3    3    0  502 -0.21555184095E+03 -0.73558130956E+03 -0.22615368142E+03  0.79917954601E+03  0.50400001928E-02 0. -1.
</event>
<event>
 5   0  0.9483073E-05  0.2416584E+04  0.7818609E-02  0.8433321E-01
       -2   -1    0    0    0  501  0.00000000000E+00  0.00000000000E+00  0.81392832885E+03  0.81392832886E+03  0.25500000920E-02 0.  1.
        2   -1    0    0  501    0  0.00000000000E+00  0.00000000000E+00 -0.17937319187E+04  0.17937319187E+04  0.25500000920E-02 0. -1.
    10030    2    1    2    0    0  0.00000000000E+00  0.00000000000E+00 -0.97980358983E+03  0.26076602475E+04  0.24165837234E+04 0.  0.
        5    1    3    3  502    0  0.11074276612E+04  0.47437099668E+03 -0.39028050170E+03  0.12663983683E+04  0.46999998093E+01 0. -1.
       -5    1    3    3    0  502 -0.11074276612E+04 -0.47437099668E+03 -0.58952308813E+03  0.13412618792E+04  0.46999998093E+01 0.  1.
</event>
<event>
 5   0  0.3261500E-05  0.2238889E+04  0.7818609E-02  0.8502414E-01
       -3   -1    0    0    0  501  0.00000000000E+00  0.00000000000E+00  0.14582992913E+04  0.14582992948E+04  0.10100000352E+00 0. -1.
        3   -1    0    0  501    0  0.00000000000E+00  0.00000000000E+00 -0.85932733383E+03  0.85932733976E+03  0.10100000352E+00 0.  1.
    10030    2    1    2    0    0  0.00000000000E+00  0.00000000000E+00  0.59897195746E+03  0.23176266345E+04  0.22388894147E+04 0.  0.
        5    1    3    3  502    0 -0.36621450327E+03 -0.58438156657E+02  0.13928538445E+04  0.14413854456E+04  0.46999998093E+01 0. -1.
       -5    1    3    3    0  502  0.36621450327E+03  0.58438156657E+02 -0.79388188708E+03  0.87624118894E+03  0.46999998093E+01 0.  1.
</event>
<event>
 5   0  0.9312074E-05  0.2272735E+04  0.7818609E-02  0.8488750E-01
       -2   -1    0    0    0  501  0.00000000000E+00  0.00000000000E+00  0.15561319929E+04  0.15561319929E+04  0.25500000920E-02 0.  1.
        2   -1    0    0  501    0  0.00000000000E+00  0.00000000000E+00 -0.82983393770E+03  0.82983393771E+03  0.25500000920E-02 0. -1.
    10030    2    1    2    0    0  0.00000000000E+00  0.00000000000E+00  0.72629805517E+03  0.23859659306E+04  0.22727350389E+04 0.  0.
        4    1    3    3  502    0  0.40416179176E+03  0.39587729464E+03  0.13977766358E+04  0.15079279568E+04  0.12699999809E+01 0.  1.
       -4    1    3    3    0  502 -0.40416179176E+03 -0.39587729464E+03 -0.67147858062E+03  0.87803797382E+03  0.12699999809E+01 0. -1.
</event>
<event>
 5   0  0.9312074E-05  0.2332871E+04  0.7818609E-02  0.8465072E-01
        2   -1    0    0  501    0  0.00000000000E+00  0.00000000000E+00  0.12363447516E+04  0.12363447516E+04  0.25500000920E-02 0.  1.
       -2   -1    0    0    0  501  0.00000000000E+00  0.00000000000E+00 -0.11004797216E+04  0.11004797216E+04  0.25500000920E-02 0. -1.
    10030    2    1    2    0    0  0.00000000000E+00  0.00000000000E+00  0.13586502992E+03  0.23368244732E+04  0.23328714736E+04 0.  0.
        4    1    3    3  502    0 -0.89490788035E+03 -0.23293638684E+03  0.78008814676E+03  0.12098175913E+04  0.12699999809E+01 0.  1.
       -4    1    3    3    0  502  0.89490788035E+03  0.23293638684E+03 -0.64422311684E+03  0.11270068819E+04  0.12699999809E+01 0. -1.
</event>
<event>
 5   0  0.3885219E-05  0.2280051E+04  0.7818609E-02  0.8485829E-01
       -1   -1    0    0    0  501  0.00000000000E+00  0.00000000000E+00  0.56480171928E+03  0.56480171931E+03  0.50400001928E-02 0.  1.
        1   -1    0    0  501    0  0.00000000000E+00  0.00000000000E+00 -0.23010870055E+04  0.23010870055E+04  0.50400001928E-02 0. -1.
    10030    2    1    2    0    0  0.00000000000E+00  0.00000000000E+00 -0.17362852862E+04  0.28658887248E+04  0.22800507863E+04 0.  0.
        2    1    3    3  502    0 -0.48519516200E+03  0.10098046759E+04 -0.60287731311E+03  0.12722346023E+04  0.25500000920E-02 0. -1.
       -2    1    3    3    0  502  0.48519516200E+03 -0.10098046759E+04 -0.11334079731E+04  0.15936541225E+04  0.25500000920E-02 0.  1.
</event>
<event>
 5   0  0.4095451E-05  0.2314104E+04  0.7818609E-02  0.8472381E-01
       -1   -1    0    0    0  501  0.00000000000E+00  0.00000000000E+00  0.89894555711E+03  0.89894555713E+03  0.50400001928E-02 0. -1.
        1   -1    0    0  501    0  0.00000000000E+00  0.00000000000E+00 -0.14892659687E+04  0.14892659687E+04  0.50400001928E-02 0.  1.
    10030    2    1    2    0    0  0.00000000000E+00  0.00000000000E+00 -0.59032041162E+03  0.23882115259E+04  0.23141037366E+04 0.  0.
        3    1    3    3  502    0  0.26198458766E+03 -0.60783364964E+03 -0.12745896131E+04  0.14362020616E+04  0.10100000352E+00 0.  1.
       -3    1    3    3    0  502 -0.26198458766E+03  0.60783364964E+03  0.68426920145E+03  0.95200946427E+03  0.10100000352E+00 0. -1.
</event>
<event>
 5   0  0.4295775E-05  0.1960053E+04  0.7818609E-02  0.8625528E-01
       -1   -1    0    0    0  501  0.00000000000E+00  0.00000000000E+00  0.50464452172E+03  0.50464452174E+03  0.50400001928E-02 0. -1.
        1   -1    0    0  501    0  0.00000000000E+00  0.00000000000E+00 -0.19032246990E+04  0.19032246990E+04  0.50400001928E-02 0.  1.
    10030    2    1    2    0    0  0.00000000000E+00  0.00000000000E+00 -0.13985801773E+04  0.24078692208E+04  0.19600529768E+04 0.  0.
        5    1    3    3  502    0  0.54396390037E+03  0.74119737015E+03 -0.11161739540E+04  0.14460762953E+04  0.46999998093E+01 0.  1.
       -5    1    3    3    0  502 -0.54396390037E+03 -0.74119737015E+03 -0.28240622333E+03  0.96179292543E+03  0.46999998093E+01 0. -1.
</event>
<event>
 5   0  0.9312074E-05  0.2266235E+04  0.7818609E-02  0.8491354E-01
        2   -1    0    0  501    0  0.00000000000E+00  0.00000000000E+00  0.12204198663E+04  0.12204198663E+04  0.25500000920E-02 0.  1.
       -2   -1    0    0    0  501  0.00000000000E+00  0.00000000000E+00 -0.10520600678E+04  0.10520600678E+04  0.25500000920E-02 0. -1.
    10030    2    1    2    0    0  0.00000000000E+00  0.00000000000E+00  0.16835979852E+03  0.22724799341E+04  0.22662347692E+04 0.  0.
        4    1    3    3  502    0  0.20041406925E+03 -0.65620484125E+03  0.98843142711E+03  0.12032326840E+04  0.12699999809E+01 0.  1.
       -4    1    3    3    0  502 -0.20041406925E+03  0.65620484125E+03 -0.82007162859E+03  0.10692472501E+04  0.12699999809E+01 0. -1.
</event>
<event>
 5   0  0.9483073E-05  0.2275191E+04  0.7818609E-02  0.8487768E-01
       -2   -1    0    0    0  501  0.00000000000E+00  0.00000000000E+00  0.87683980776E+03  0.87683980777E+03  0.25500000920E-02 0. -1.
        2   -1    0    0  501    0  0.00000000000E+00  0.00000000000E+00 -0.14758954143E+04  0.14758954143E+04  0.25500000920E-02 0.  1.
    10030    2    1    2    0    0  0.00000000000E+00  0.00000000000E+00 -0.59905560650E+03  0.23527352220E+04  0.22751912898E+04 0.  0.
        5    1    3    3  502    0 -0.94447635646E+03 -0.56595457136E+03 -0.38424450948E+01  0.11010799331E+04  0.46999998093E+01 0. -1.
       -5    1    3    3    0  502  0.94447635646E+03  0.56595457136E+03 -0.59521316141E+03  0.12516552889E+04  0.46999998093E+01 0.  1.
</event>
<event>
 5   0  0.9313463E-05  0.2304571E+04  0.7818609E-02  0.8476121E-01
        2   -1    0    0  501    0  0.00000000000E+00  0.00000000000E+00  0.44278357891E+03  0.44278357892E+03  0.25500000920E-02 0. -1.
       -2   -1    0    0    0  501  0.00000000000E+00  0.00000000000E+00 -0.29986689760E+04  0.29986689760E+04  0.25500000920E-02 0.  1.
    10030    2    1    2    0    0  0.00000000000E+00  0.00000000000E+00 -0.25558853971E+04  0.34414525549E+04  0.23045705727E+04 0.  0.
        1    1    3    3  502    0  0.55483606758E+03  0.89068122348E+03 -0.56707826721E+03  0.11927840814E+04  0.50400001928E-02 0. -1.
       -1    1    3    3    0  502 -0.55483606758E+03 -0.89068122348E+03 -0.19888071299E+04  0.22486684735E+04  0.50400001928E-02 0.  1.
</event>
<event>
 5   0  0.9313463E-05  0.2322168E+04  0.7818609E-02  0.8469231E-01
        2   -1    0    0  501    0  0.00000000000E+00  0.00000000000E+00  0.10564694140E+04  0.10564694141E+04  0.25500000920E-02 0. -1.
       -2   -1    0    0    0  501  0.00000000000E+00  0.00000000000E+00 -0.12760583022E+04  0.12760583022E+04  0.25500000920E-02 0.  1.
    10030    2    1    2    0    0  0.00000000000E+00  0.00000000000E+00 -0.21958888819E+03  0.23325277163E+04  0.23221684408E+04 0.  0.
        1    1    3    3  502    0  0.54223668661E+03 -0.42367539756E+03 -0.10491642885E+04  0.12546980398E+04  0.50400001928E-02 0.  1.
       -1    1    3    3    0  502 -0.54223668661E+03  0.42367539756E+03  0.82957540027E+03  0.10778296765E+04  0.50400001928E-02 0. -1.
</event>
<event>
 5   0  0.4295775E-05  0.2022956E+04  0.7818609E-02  0.8595963E-01
       -1   -1    0    0    0  501  0.00000000000E+00  0.00000000000E+00  0.89883242149E+03  0.89883242151E+03  0.50400001928E-02 0. -1.
        1   -1    0    0  501    0  0.00000000000E+00  0.00000000000E+00 -0.11382406316E+04  0.11382406316E+04  0.50400001928E-02 0.  1.
    10030    2    1    2    0    0  0.00000000000E+00  0.00000000000E+00 -0.23940821014E+03  0.20370730531E+04  0.20229558405E+04 0.  0.
        5    1    3    3  502    0 -0.63724718213E+03  0.44763028366E+03  0.53025247280E+03  0.94214999702E+03  0.46999998093E+01 0. -1.
       -5    1    3    3    0  502  0.63724718213E+03 -0.44763028366E+03 -0.76966068294E+03  0.10949230561E+04  0.46999998093E+01 0.  1.
</event>
<event>
 5   0  0.4295775E-05  0.2318514E+04  0.7818609E-02  0.8470657E-01
        1   -1    0    0  501    0  0.00000000000E+00  0.00000000000E+00  0.23735123827E+04  0.23735123827E+04  0.50400001928E-02 0.  1.
       -1   -1    0    0    0  501  0.00000000000E+00  0.00000000000E+00 -0.56619733299E+03  0.56619733301E+03  0.50400001928E-02 0. -1.
    10030    2    1    2    0    0  0.00000000000E+00  0.00000000000E+00  0.18073150497E+04  0.29397097157E+04  0.23185136453E+04 0.  0.
        5    1    3    3  502    0  0.29098744398E+03  0.11191081552E+04  0.79927430508E+03  0.14056807106E+04  0.46999998093E+01 0.  1.
       -5    1    3    3    0  502 -0.29098744398E+03 -0.11191081552E+04  0.10080407446E+04  0.15340290050E+04  0.46999998093E+01 0. -1.
</event>
<event>
 5   0  0.9312074E-05  0.2265340E+04  0.7818609E-02  0.8491714E-01
       -2   -1    0    0    0  501  0.00000000000E+00  0.00000000000E+00  0.11973936760E+04  0.11973936760E+04  0.25500000920E-02 0.  1.
        2   -1    0    0  501    0  0.00000000000E+00  0.00000000000E+00 -0.10714451887E+04  0.10714451887E+04  0.25500000920E-02 0. -1.
    10030    2    1    2    0    0  0.00000000000E+00  0.00000000000E+00  0.12594848723E+03  0.22688388647E+04  0.22653403216E+04 0.  0.
        4    1    3    3  502    0 -0.20443446242E+03 -0.36105813596E+03  0.11185391367E+04  0.11930162783E+04  0.12699999809E+01 0.  1.
       -4    1    3    3    0  502  0.20443446242E+03  0.36105813596E+03 -0.99259064952E+03  0.10758225864E+04  0.12699999809E+01 0. -1.
</event>
<event>
 5   0  0.4005462E-05  0.2231400E+04  0.7818609E-02  0.8505471E-01
        1   -1    0    0  501    0  0.00000000000E+00  0.00000000000E+00  0.11179084349E+04  0.11179084349E+04  0.50400001928E-02 0. -1.
       -1   -1    0    0    0  501  0.00000000000E+00  0.00000000000E+00 -0.11134956528E+04  0.11134956528E+04  0.50400001928E-02 0.  1.
    10030    2    1    2    0    0  0.00000000000E+00  0.00000000000E+00  0.44127821133E+01  0.22314040878E+04  0.22313997245E+04 0.  0.
        4    1    3    3  502    0  0.19428132218E+03 -0.10817298430E+04 -0.18988741050E+03  0.11153221629E+04  0.12699999809E+01 0. -1.
       -4    1    3    3    0  502 -0.19428132218E+03  0.10817298430E+04  0.19430019261E+03  0.11160819249E+04  0.12699999809E+01 0.  1.
</event>
<event>
 5   0  0.9312074E-05  0.2238104E+04  0.7818609E-02  0.8502734E-01
       -2   -1    0    0    0  501  0.00000000000E+00  0.00000000000E+00  0.68333540542E+03  0.68333540543E+03  0.25500000920E-02 0. -1.
        2   -1    0    0  501    0  0.00000000000E+00  0.00000000000E+00 -0.18325947629E+04  0.18325947629E+04  0.25500000920E-02 0.  1.
    10030    2    1    2    0    0  0.00000000000E+00  0.00000000000E+00 -0.11492593575E+04  0.25159301683E+04  0.22381035591E+04 0.  0.
        4    1    3    3  502    0 -0.61241908166E+02 -0.60549870369E+03  0.48103768745E+03  0.77574359239E+03  0.12699999809E+01 0. -1.
       -4    1    3    3    0  502  0.61241908166E+02  0.60549870369E+03 -0.16302970449E+04  0.17401865759E+04  0.12699999809E+01 0.  1.
</event>
<event>
 5   0  0.4095451E-05  0.2295391E+04  0.7818609E-02  0.8479740E-01
       -1   -1    0    0    0  501  0.00000000000E+00  0.00000000000E+00  0.10789178617E+04  0.10789178617E+04  0.50400001928E-02 0.  1.
        1   -1    0    0  501    0  0.00000000000E+00  0.00000000000E+00 -0.12208578188E+04  0.12208578188E+04  0.50400001928E-02 0. -1.
    10030    2    1    2    0    0  0.00000000000E+00  0.00000000000E+00 -0.14193995708E+03  0.22997756805E+04  0.22953913020E+04 0.  0.
        3    1    3    3  502    0 -0.80531841258E+03  0.80857229460E+03  0.51240037418E+02  0.11423451549E+04  0.10100000352E+00 0.  1.
       -3    1    3    3    0  502  0.80531841258E+03 -0.80857229460E+03 -0.19317999449E+03  0.11574305256E+04  0.10100000352E+00 0. -1.
</event>
<event>
 5   0  0.4005462E-05  0.2264827E+04  0.7818609E-02  0.8491920E-01
        1   -1    0    0  501    0  0.00000000000E+00  0.00000000000E+00  0.12008154495E+04  0.12008154495E+04  0.50400001928E-02 0.  1.
       -1   -1    0    0    0  501  0.00000000000E+00  0.00000000000E+00 -0.10679080716E+04  0.10679080716E+04  0.50400001928E-02 0. -1.
    10030    2    1    2    0    0  0.00000000000E+00  0.00000000000E+00  0.13290737792E+03  0.22687235211E+04  0.22648271555E+04 0.  0.
        4    1    3    3  502    0 -0.62649113532E+03 -0.87944067248E+03 -0.27538382639E+03  0.11143360821E+04  0.12699999809E+01 0. -1.
       -4    1    3    3    0  502  0.62649113532E+03  0.87944067248E+03  0.40829120431E+03  0.11543874391E+04  0.12699999809E+01 0.  1.
</event>
<event>
 5   0  0.3885219E-05  0.2146144E+04  0.7818609E-02  0.8541185E-01
        1   -1    0    0  501    0  0.00000000000E+00  0.00000000000E+00  0.25198643926E+04  0.25198643926E+04  0.50400001928E-02 0. -1.
       -1   -1    0    0    0  501  0.00000000000E+00  0.00000000000E+00 -0.45696237288E+03  0.45696237291E+03  0.50400001928E-02 0.  1.
    10030    2    1    2    0    0  0.00000000000E+00  0.00000000000E+00  0.20629020197E+04  0.29768267655E+04  0.21461437158E+04 0.  0.
        2    1    3    3  502    0 -0.29973128679E+03  0.71814115405E+03  0.20562963459E+04  0.21986177984E+04  0.25500000920E-02 0. -1.
       -2    1    3    3    0  502  0.29973128679E+03 -0.71814115405E+03  0.66056737594E+01  0.77820896702E+03  0.25500000920E-02 0.  1.
</event>
<event>
 5   0  0.9313463E-05  0.2218663E+04  0.7818609E-02  0.8510700E-01
       -2   -1    0    0    0  501  0.00000000000E+00  0.00000000000E+00  0.11466702004E+04  0.11466702004E+04  0.25500000920E-02 0. -1.
        2   -1    0    0  501    0  0.00000000000E+00  0.00000000000E+00 -0.10732090221E+04  0.10732090221E+04  0.25500000920E-02 0.  1.
    10030    2    1    2    0    0  0.00000000000E+00  0.00000000000E+00  0.73461178258E+02  0.22198792225E+04  0.22186633854E+04 0.  0.
        1    1    3    3  502    0  0.83910178284E+03 -0.62486894771E+03  0.40580100058E+03  0.11221530448E+04  0.50400001928E-02 0. -1.
       -1    1    3    3    0  502 -0.83910178284E+03  0.62486894771E+03 -0.33233982232E+03  0.10977261777E+04  0.50400001928E-02 0.  1.
</event>
<event>
 5   0  0.4139830E-05  0.2381720E+04  0.7818609E-02  0.8446379E-01
        1   -1    0    0  501    0  0.00000000000E+00  0.00000000000E+00  0.14084920037E+04  0.14084920037E+04  0.50400001928E-02 0.  1.
       -1   -1    0    0    0  501  0.00000000000E+00  0.00000000000E+00 -0.10068549038E+04  0.10068549039E+04  0.50400001928E-02 0. -1.
    10030    2    1    2    0    0  0.00000000000E+00  0.00000000000E+00  0.40163709990E+03  0.24153469076E+04  0.23817196149E+04 0.  0.
        1    1    3    3  502    0 -0.11495685803E+04 -0.28759367115E+03  0.32050623908E+03  0.12275757776E+04  0.50400001928E-02 0.  1.
       -1    1    3    3    0  502  0.11495685803E+04  0.28759367115E+03  0.81130860814E+02  0.11877711300E+04  0.50400001928E-02 0. -1.
</event>
<event>
 5   0  0.9313463E-05  0.2344993E+04  0.7818609E-02  0.8460389E-01
        2   -1    0    0  501    0  0.00000000000E+00  0.00000000000E+00  0.14314569830E+04  0.14314569830E+04  0.25500000920E-02 0.  1.
       -2   -1    0    0    0  501  0.00000000000E+00  0.00000000000E+00 -0.96038415776E+03  0.96038415777E+03  0.25500000920E-02 0. -1.
    10030    2    1    2    0    0  0.00000000000E+00  0.00000000000E+00  0.47107282528E+03  0.23918411408E+04  0.23449934832E+04 0.  0.
        1    1    3    3  502    0 -0.31710289260E+03  0.10815891975E+04 -0.93964031688E+02  0.11310254975E+04  0.50400001928E-02 0. -1.
       -1    1    3    3    0  502  0.31710289260E+03 -0.10815891975E+04  0.56503685696E+03  0.12608156433E+04  0.50400001928E-02 0.  1.
</event>
<event>
 5   0  0.9535394E-05  0.2314698E+04  0.7818609E-02  0.8472148E-01
       -2   -1    0    0    0  501  0.00000000000E+00  0.00000000000E+00  0.12252215097E+04  0.12252215097E+04  0.25500000920E-02 0. -1.
        2   -1    0    0  501    0  0.00000000000E+00  0.00000000000E+00 -0.10932366226E+04  0.10932366226E+04  0.25500000920E-02 0.  1.
    10030    2    1    2    0    0  0.00000000000E+00  0.00000000000E+00  0.13198488706E+03  0.23184581323E+04  0.23146982742E+04 0.  0.
        2    1    3    3  502    0  0.36944519434E+03 -0.10292780012E+04  0.44549318141E+03  0.11808332355E+04  0.25500000920E-02 0.  1.
       -2    1    3    3    0  502 -0.36944519434E+03  0.10292780012E+04 -0.31350829434E+03  0.11376248968E+04  0.25500000920E-02 0. -1.
</event>
<event>
 5   0  0.9312074E-05  0.2316851E+04  0.7818609E-02  0.8471306E-01
        2   -1    0    0  501    0  0.00000000000E+00  0.00000000000E+00  0.84146405275E+03  0.84146405275E+03  0.25500000920E-02 0.  1.
       -2   -1    0    0    0  501  0.00000000000E+00  0.00000000000E+00 -0.15947798720E+04  0.15947798720E+04  0.25500000920E-02 0. -1.
    10030    2    1    2    0    0  0.00000000000E+00  0.00000000000E+00 -0.75331581928E+03  0.24362439248E+04  0.23168512549E+04 0.  0.
        4    1    3    3  502    0 -0.90384450972E+03 -0.61310328162E+03 -0.78271523133E+03  0.13436797527E+04  0.12699999809E+01 0. -1.
       -4    1    3    3    0  502  0.90384450972E+03  0.61310328162E+03  0.29399412053E+02  0.10925641720E+04  0.12699999809E+01 0.  1.
</event>
<event>
 5   0  0.4005462E-05  0.2327490E+04  0.7818609E-02  0.8467160E-01
       -1   -1    0    0    0  501  0.00000000000E+00  0.00000000000E+00  0.59522747241E+03  0.59522747243E+03  0.50400001928E-02 0. -1.
        1   -1    0    0  501    0  0.00000000000E+00  0.00000000000E+00 -0.22752686742E+04  0.22752686742E+04  0.50400001928E-02 0.  1.
    10030    2    1    2    0    0  0.00000000000E+00  0.00000000000E+00 -0.16800412018E+04  0.28704961467E+04  0.23274899975E+04 0.  0.
        4    1    3    3  502    0 -0.10142048490E+04  0.19803569379E+03 -0.15001204396E+04  0.18215906669E+04  0.12699999809E+01 0.  1.
       -4    1    3    3    0  502  0.10142048490E+04 -0.19803569379E+03 -0.17992076226E+03  0.10489054797E+04  0.12699999809E+01 0. -1.
</event>
<event>
 5   0  0.4139830E-05  0.2223168E+04  0.7818609E-02  0.8508846E-01
        1   -1    0    0  501    0  0.00000000000E+00  0.00000000000E+00  0.16132947770E+04  0.16132947770E+04  0.50400001928E-02 0. -1.
       -1   -1    0    0    0  501  0.00000000000E+00  0.00000000000E+00 -0.76589815086E+03  0.76589815088E+03  0.50400001928E-02 0.  1.
    10030    2    1    2    0    0  0.00000000000E+00  0.00000000000E+00  0.84739662609E+03  0.23791929278E+04  0.22231684475E+04 0.  0.
        1    1    3    3  502    0  0.65606984828E+03 -0.86007928885E+03  0.14990034445E+03  0.10920779012E+04  0.50400001928E-02 0. -1.
       -1    1    3    3    0  502 -0.65606984828E+03  0.86007928885E+03  0.69749628164E+03  0.12871150267E+04  0.50400001928E-02 0.  1.
</event>
<event>
 5   0  0.9312074E-05  0.2375264E+04  0.7818609E-02  0.8448823E-01
        2   -1    0    0  501    0  0.00000000000E+00  0.00000000000E+00  0.74706582084E+03  0.74706582084E+03  0.25500000920E-02 0.  1.
       -2   -1    0    0    0  501  0.00000000000E+00  0.00000000000E+00 -0.18880132425E+04  0.18880132425E+04  0.25500000920E-02 0. -1.
    10030    2    1    2    0    0  0.00000000000E+00  0.00000000000E+00 -0.11409474217E+04  0.26350790633E+04  0.23752643329E+04 0.  0.
        4    1    3    3  502    0  0.28561492584E+03 -0.94802544394E+03 -0.12980638947E+04  0.16325745361E+04  0.12699999809E+01 0. -1.
       -4    1    3    3    0  502 -0.28561492584E+03  0.94802544394E+03  0.15711647303E+03  0.10025045273E+04  0.12699999809E+01 0.  1.
</event>
<event>
 5   0  0.9483073E-05  0.2272775E+04  0.7818609E-02  0.8488734E-01
       -2   -1    0    0    0  501  0.00000000000E+00  0.00000000000E+00  0.96410803353E+03  0.96410803354E+03  0.25500000920E-02 0. -1.
        2   -1    0    0  501    0  0.00000000000E+00  0.00000000000E+00 -0.13394517530E+04  0.13394517530E+04  0.25500000920E-02 0.  1.
    10030    2    1    2    0    0  0.00000000000E+00  0.00000000000E+00 -0.37534371942E+03  0.23035597865E+04  0.22727746880E+04 0.  0.
        5    1    3    3  502    0 -0.74991459788E+03 -0.19936210909E+03  0.65377633048E+03  0.10146737086E+04  0.46999998093E+01 0. -1.
       -5    1    3    3    0  502  0.74991459788E+03  0.19936210909E+03 -0.10291200499E+04  0.12888860779E+04  0.46999998093E+01 0.  1.
</event>
<event>
 5   0  0.3885219E-05  0.2597183E+04  0.7818609E-02  0.8369159E-01
        1   -1    0    0  501    0  0.00000000000E+00  0.00000000000E+00  0.18315135932E+04  0.18315135932E+04  0.50400001928E-02 0. -1.
       -1   -1    0    0    0  501  0.00000000000E+00  0.00000000000E+00 -0.92073535976E+03  0.92073535977E+03  0.50400001928E-02 0.  1.
    10030    2    1    2    0    0  0.00000000000E+00  0.00000000000E+00  0.91077823341E+03  0.27522489530E+04  0.25971825713E+04 0.  0.
        2    1    3    3  502    0  0.38890312149E+03 -0.22466279547E+02  0.17681368270E+04  0.18105408614E+04  0.25500000920E-02 0. -1.
       -2    1    3    3    0  502 -0.38890312149E+03  0.22466279547E+02 -0.85735859363E+03  0.94170809156E+03  0.25500000920E-02 0.  1.
</event>
<event>
 5   0  0.4095451E-05  0.2476053E+04  0.7818609E-02  0.8411567E-01
       -1   -1    0    0    0  501  0.00000000000E+00  0.00000000000E+00  0.10714365352E+04  0.10714365352E+04  0.50400001928E-02 0. -1.
        1   -1    0    0  501    0  0.00000000000E+00  0.00000000000E+00 -0.14305186575E+04  0.14305186575E+04  0.50400001928E-02 0.  1.
    10030    2    1    2    0    0  0.00000000000E+00  0.00000000000E+00 -0.35908212233E+03  0.25019551927E+04  0.24760532741E+04 0.  0.
        3    1    3    3  502    0 -0.48184027274E+03 -0.72622362510E+03  0.70894040645E+03  0.11234621988E+04  0.10100000352E+00 0. -1.
       -3    1    3    3    0  502  0.48184027274E+03  0.72622362510E+03 -0.10680225288E+04  0.13784929939E+04  0.10100000352E+00 0.  1.
</event>
<event>
 5   0  0.9535394E-05  0.2276608E+04  0.7818609E-02  0.8487202E-01
       -2   -1    0    0    0  501  0.00000000000E+00  0.00000000000E+00  0.65869178245E+03  0.65869178245E+03  0.25500000920E-02 0.  1.
        2   -1    0    0  501    0  0.00000000000E+00  0.00000000000E+00 -0.19671355695E+04  0.19671355695E+04  0.25500000920E-02 0. -1.
    10030    2    1    2    0    0  0.00000000000E+00  0.00000000000E+00 -0.13084437870E+04  0.26258273519E+04  0.22766080335E+04 0.  0.
        2    1    3    3  502    0  0.10984540788E+04 -0.21838201331E+03 -0.41941623084E+03  0.11959105492E+04  0.25500000920E-02 0. -1.
       -2    1    3    3    0  502 -0.10984540788E+04  0.21838201331E+03 -0.88902755620E+03  0.14299168027E+04  0.25500000920E-02 0.  1.
</event>
<event>
 5   0  0.9312074E-05  0.2244228E+04  0.7818609E-02  0.8500242E-01
        2   -1    0    0  501    0  0.00000000000E+00  0.00000000000E+00  0.19882673752E+04  0.19882673752E+04  0.25500000920E-02 0.  1.
       -2   -1    0    0    0  501  0.00000000000E+00  0.00000000000E+00 -0.63328508685E+03  0.63328508685E+03  0.25500000920E-02 0. -1.
    10030    2    1    2    0    0  0.00000000000E+00  0.00000000000E+00  0.13549822884E+04  0.26215524621E+04  0.22442282214E+04 0.  0.
        4    1    3    3  502    0  0.86600335906E+03 -0.68140683443E+03  0.92490716188E+03  0.14386563047E+04  0.12699999809E+01 0.  1.
       -4    1    3    3    0  502 -0.86600335906E+03  0.68140683443E+03  0.43007512649E+03  0.11828961574E+04  0.12699999809E+01 0. -1.
</event>
<event>
 5   0  0.4139830E-05  0.2301789E+04  0.7818609E-02  0.8477216E-01
       -1   -1    0    0    0  501  0.00000000000E+00  0.00000000000E+00  0.73211935749E+03  0.73211935751E+03  0.50400001928E-02 0. -1.
        1   -1    0    0  501    0  0.00000000000E+00  0.00000000000E+00 -0.18092100074E+04  0.18092100074E+04  0.50400001928E-02 0.  1.
    10030    2    1    2    0    0  0.00000000000E+00  0.00000000000E+00 -0.10770906499E+04  0.25413293649E+04  0.23017885813E+04 0.  0.
        1    1    3    3  502    0 -0.68916611155E+03 -0.36821253054E+02  0.47830715644E+03  0.83969248532E+03  0.50400001928E-02 0. -1.
       -1    1    3    3    0  502  0.68916611155E+03  0.36821253054E+02 -0.15553978064E+04  0.17016368796E+04  0.50400001928E-02 0.  1.
</event>
<event>
 5   0  0.4139830E-05  0.2431223E+04  0.7818609E-02  0.8427906E-01
       -1   -1    0    0    0  501  0.00000000000E+00  0.00000000000E+00  0.72954703056E+03  0.72954703058E+03  0.50400001928E-02 0.  1.
        1   -1    0    0  501    0  0.00000000000E+00  0.00000000000E+00 -0.20255188390E+04  0.20255188390E+04  0.50400001928E-02 0. -1.
    10030    2    1    2    0    0  0.00000000000E+00  0.00000000000E+00 -0.12959718085E+04  0.27550658696E+04  0.24312229469E+04 0.  0.
        1    1    3    3  502    0  0.10198092190E+04 -0.66158108528E+03 -0.65172356144E+03  0.13792911136E+04  0.50400001928E-02 0.  1.
       -1    1    3    3    0  502 -0.10198092190E+04  0.66158108528E+03 -0.64424824703E+03  0.13757747560E+04  0.50400001928E-02 0. -1.
</event>
<event>
 5   0  0.9641157E-05  0.2352708E+04  0.7818609E-02  0.8457424E-01
       -2   -1    0    0    0  501  0.00000000000E+00  0.00000000000E+00  0.92646142559E+03  0.92646142560E+03  0.25500000920E-02 0.  1.
        2   -1    0    0  501    0  0.00000000000E+00  0.00000000000E+00 -0.14936501221E+04  0.14936501221E+04  0.25500000920E-02 0. -1.
    10030    2    1    2    0    0  0.00000000000E+00  0.00000000000E+00 -0.56718869652E+03  0.24201115477E+04  0.23527084150E+04 0.  0.
        3    1    3    3  502    0  0.83719667058E+03  0.29751744754E+03  0.50946301437E+03  0.10241911296E+04  0.10100000352E+00 0.  1.
       -3    1    3    3    0  502 -0.83719667058E+03 -0.29751744754E+03 -0.10766517109E+04  0.13959204181E+04  0.10100000352E+00 0. -1.
</event>
<event>
 5   0  0.4005462E-05  0.2388479E+04  0.7818609E-02  0.8443830E-01
        1   -1    0    0  501    0  0.00000000000E+00  0.00000000000E+00  0.19998708588E+04  0.19998708588E+04  0.50400001928E-02 0.  1.
       -1   -1    0    0    0  501  0.00000000000E+00  0.00000000000E+00 -0.71314986530E+03  0.71314986531E+03  0.50400001928E-02 0. -1.
    10030    2    1    2    0    0  0.00000000000E+00  0.00000000000E+00  0.12867209935E+04  0.27130207241E+04  0.23884787071E+04 0.  0.
        4    1    3    3  502    0  0.89434952378E+03  0.79078760088E+03  0.67927868536E+03  0.13735455019E+04  0.12699999809E+01 0.  1.
       -4    1    3    3    0  502 -0.89434952378E+03 -0.79078760088E+03  0.60744230811E+03  0.13394752222E+04  0.12699999809E+01 0. -1.
</event>
<event>
 5   0  0.4139830E-05  0.2294072E+04  0.7818609E-02  0.8480262E-01
        1   -1    0    0  501    0  0.00000000000E+00  0.00000000000E+00  0.19787110688E+04  0.19787110688E+04  0.50400001928E-02 0.  1.
       -1   -1    0    0    0  501  0.00000000000E+00  0.00000000000E+00 -0.66492347634E+03  0.66492347636E+03  0.50400001928E-02 0. -1.
    10030    2    1    2    0    0  0.00000000000E+00  0.00000000000E+00  0.13137875925E+04  0.26436345452E+04  0.22940718756E+04 0.  0.
        1    1    3    3  502    0 -0.56445184041E+03 -0.56634272866E+02  0.18057375382E+04  0.18927496871E+04  0.50400001928E-02 0.  1.
       -1    1    3    3    0  502  0.56445184041E+03  0.56634272866E+02 -0.49194994573E+03  0.75088485810E+03  0.50400001928E-02 0. -1.
</event>
<event>
 5   0  0.4139830E-05  0.2301911E+04  0.7818609E-02  0.8477168E-01
       -1   -1    0    0    0  501  0.00000000000E+00  0.00000000000E+00  0.10418809555E+04  0.10418809556E+04  0.50400001928E-02 0. -1.
        1   -1    0    0  501    0  0.00000000000E+00  0.00000000000E+00 -0.12714495316E+04  0.12714495316E+04  0.50400001928E-02 0.  1.
    10030    2    1    2    0    0  0.00000000000E+00  0.00000000000E+00 -0.22956857607E+03  0.23133304872E+04  0.23019114257E+04 0.  0.
        1    1    3    3  502    0  0.38016396065E+03 -0.71775408978E+03 -0.93430707305E+03  0.12379924382E+04  0.50400001928E-02 0.  1.
       -1    1    3    3    0  502 -0.38016396065E+03  0.71775408978E+03  0.70473849697E+03  0.10753380489E+04  0.50400001928E-02 0. -1.
</event>
<event>
 5   0  0.4095451E-05  0.1977697E+04  0.7818609E-02  0.8617120E-01
       -1   -1    0    0    0  501  0.00000000000E+00  0.00000000000E+00  0.53261177386E+03  0.53261177388E+03  0.50400001928E-02 0.  1.
        1   -1    0    0  501    0  0.00000000000E+00  0.00000000000E+00 -0.18358983331E+04  0.18358983331E+04  0.50400001928E-02 0. -1.
    10030    2    1    2    0    0  0.00000000000E+00  0.00000000000E+00 -0.13032865593E+04  0.23685101070E+04  0.19776967087E+04 0.  0.
        3    1    3    3  502    0 -0.23089462906E+02 -0.98673636592E+03 -0.72389084210E+03  0.12240096979E+04  0.10100000352E+00 0. -1.
       -3    1    3    3    0  502  0.23089462906E+02  0.98673636592E+03 -0.57939571715E+03  0.11445004091E+04  0.10100000352E+00 0.  1.
</event>
<event>
 5   0  0.3261500E-05  0.2285901E+04  0.7818609E-02  0.8483501E-01
       -4   -1    0    0    0  501  0.00000000000E+00  0.00000000000E+00  0.11943027055E+04  0.11943033807E+04  0.12699999809E+01 0. -1.
        4   -1    0    0  501    0  0.00000000000E+00  0.00000000000E+00 -0.10938049153E+04  0.10938056526E+04  0.12699999809E+01 0.  1.
    10030    2    1    2    0    0  0.00000000000E+00  0.00000000000E+00  0.10049779019E+03  0.22881090333E+04  0.22859009476E+04 0.  0.
        2    1    3    3  502    0  0.53037734782E+03 -0.84711898558E+01 -0.96313405085E+03  0.10995449477E+04  0.25500000920E-02 0.  1.
       -2    1    3    3    0  502 -0.53037734782E+03  0.84711898558E+01  0.10636318410E+04  0.11885640855E+04  0.25500000920E-02 0. -1.
</event>
<event>
 5   0  0.4005462E-05  0.2256986E+04  0.7818609E-02  0.8495077E-01
        1   -1    0    0  501    0  0.00000000000E+00  0.00000000000E+00  0.10271228948E+04  0.10271228948E+04  0.50400001928E-02 0. -1.
       -1   -1    0    0    0  501  0.00000000000E+00  0.00000000000E+00 -0.12398679347E+04  0.12398679347E+04  0.50400001928E-02 0.  1.
    10030    2    1    2    0    0  0.00000000000E+00  0.00000000000E+00 -0.21274503988E+03  0.22669908295E+04  0.22569862580E+04 0.  0.
        4    1    3    3  502    0 -0.80949699091E+02  0.32207146359E+03  0.97693144248E+03  0.10318330958E+04  0.12699999809E+01 0. -1.
       -4    1    3    3    0  502  0.80949699091E+02 -0.32207146359E+03 -0.11896764824E+04  0.12351577337E+04  0.12699999809E+01 0.  1.
</event>
<event>
 5   0  0.4139830E-05  0.2257427E+04  0.7818609E-02  0.8494899E-01
        1   -1    0    0  501    0  0.00000000000E+00  0.00000000000E+00  0.14048298717E+04  0.14048298717E+04  0.50400001928E-02 0.  1.
       -1   -1    0    0    0  501  0.00000000000E+00  0.00000000000E+00 -0.90686736109E+03  0.90686736110E+03  0.50400001928E-02 0. -1.
    10030    2    1    2    0    0  0.00000000000E+00  0.00000000000E+00  0.49796251058E+03  0.23116972328E+04  0.22574271714E+04 0.  0.
        1    1    3    3  502    0  0.19263238054E+03 -0.43305807757E+03 -0.80002224796E+03  0.92988285813E+03  0.50400001928E-02 0. -1.
       -1    1    3    3    0  502 -0.19263238054E+03  0.43305807757E+03  0.12979847585E+04  0.13818143747E+04  0.50400001928E-02 0.  1.
</event>
<event>
 5   0  0.4139830E-05  0.2328109E+04  0.7818609E-02  0.8466920E-01
        1   -1    0    0  501    0  0.00000000000E+00  0.00000000000E+00  0.18264981665E+04  0.18264981665E+04  0.50400001928E-02 0.  1.
       -1   -1    0    0    0  501  0.00000000000E+00  0.00000000000E+00 -0.74186952960E+03  0.74186952962E+03  0.50400001928E-02 0. -1.
    10030    2    1    2    0    0  0.00000000000E+00  0.00000000000E+00  0.10846286369E+04  0.25683676961E+04  0.23281093923E+04 0.  0.
        1    1    3    3  502    0 -0.44734247871E+03  0.10512018157E+04  0.29592086644E+03  0.11801312257E+04  0.50400001928E-02 0.  1.
       -1    1    3    3    0  502  0.44734247871E+03 -0.10512018157E+04  0.78870777047E+03  0.13882364704E+04  0.50400001928E-02 0. -1.
</event>
<event>
 5   0  0.9483073E-05  0.2146708E+04  0.7818609E-02  0.8540943E-01
       -2   -1    0    0    0  501  0.00000000000E+00  0.00000000000E+00  0.13485606263E+04  0.13485606263E+04  0.25500000920E-02 0.  1.
        2   -1    0    0  501    0  0.00000000000E+00  0.00000000000E+00 -0.85430963374E+03  0.85430963374E+03  0.25500000920E-02 0. -1.
    10030    2    1    2    0    0  0.00000000000E+00  0.00000000000E+00  0.49425099255E+03  0.22028702600E+04  0.21467075578E+04 0.  0.
        5    1    3    3  502    0  0.37394673253E+03 -0.79052425804E+03 -0.39149170864E+03  0.95815061929E+03  0.46999998093E+01 0. -1.
       -5    1    3    3    0  502 -0.37394673253E+03  0.79052425804E+03  0.88574270119E+03  0.12447196407E+04  0.46999998093E+01 0.  1.
</event>
<event>
 5   0  0.9312074E-05  0.2293210E+04  0.7818609E-02  0.8480603E-01
        2   -1    0    0  501    0  0.00000000000E+00  0.00000000000E+00  0.85674774971E+03  0.85674774971E+03  0.25500000920E-02 0.  1.
       -2   -1    0    0    0  501  0.00000000000E+00  0.00000000000E+00 -0.15345272853E+04  0.15345272853E+04  0.25500000920E-02 0. -1.
    10030    2    1    2    0    0  0.00000000000E+00  0.00000000000E+00 -0.67777953555E+03  0.23912750350E+04  0.22932098016E+04 0.  0.
        4    1    3    3  502    0  0.34711310885E+03 -0.91188336025E+02 -0.14744481703E+04  0.15174985479E+04  0.12699999809E+01 0. -1.
       -4    1    3    3    0  502 -0.34711310885E+03  0.91188336025E+02  0.79666863474E+03  0.87377648712E+03  0.12699999809E+01 0.  1.
</event>
<event>
 5   0  0.4295775E-05  0.2295593E+04  0.7818609E-02  0.8479661E-01
       -1   -1    0    0    0  501  0.00000000000E+00  0.00000000000E+00  0.12199168446E+04  0.12199168446E+04  0.50400001928E-02 0. -1.
        1   -1    0    0  501    0  0.00000000000E+00  0.00000000000E+00 -0.10799396938E+04  0.10799396938E+04  0.50400001928E-02 0.  1.
    10030    2    1    2    0    0  0.00000000000E+00  0.00000000000E+00  0.13997715082E+03  0.22998565384E+04  0.22955928417E+04 0.  0.
        5    1    3    3  502    0  0.45525714825E+03  0.44787441950E+03 -0.88549342029E+03  0.10917743604E+04  0.46999998093E+01 0.  1.
       -5    1    3    3    0  502 -0.45525714825E+03 -0.44787441950E+03  0.10254705711E+04  0.12080821780E+04  0.46999998093E+01 0. -1.
</event>
<event>
 5   0  0.9312074E-05  0.2364488E+04  0.7818609E-02  0.8452920E-01
        2   -1    0    0  501    0  0.00000000000E+00  0.00000000000E+00  0.16867404090E+04  0.16867404090E+04  0.25500000920E-02 0. -1.
       -2   -1    0    0    0  501  0.00000000000E+00  0.00000000000E+00 -0.82864007284E+03  0.82864007284E+03  0.25500000920E-02 0.  1.
    10030    2    1    2    0    0  0.00000000000E+00  0.00000000000E+00  0.85810033613E+03  0.25153804818E+04  0.23644878476E+04 0.  0.
        4    1    3    3  502    0  0.44851175162E+03  0.68455887934E+03 -0.47857611490E+03  0.94806137000E+03  0.12699999809E+01 0.  1.
       -4    1    3    3    0  502 -0.44851175162E+03 -0.68455887934E+03  0.13366764510E+04  0.15673191118E+04  0.12699999809E+01 0. -1.
</event>
<event>
 5   0  0.4095451E-05  0.2282262E+04  0.7818609E-02  0.8484948E-01
        1   -1    0    0  501    0  0.00000000000E+00  0.00000000000E+00  0.11477292112E+04  0.11477292112E+04  0.50400001928E-02 0.  1.
       -1   -1    0    0    0  501  0.00000000000E+00  0.00000000000E+00 -0.11345705573E+04  0.11345705573E+04  0.50400001928E-02 0. -1.
    10030    2    1    2    0    0  0.00000000000E+00  0.00000000000E+00  0.13158653893E+02  0.22822997685E+04  0.22822618349E+04 0.  0.
        3    1    3    3  502    0 -0.70238585704E+03 -0.64547975499E+03 -0.61968163432E+03  0.11375391617E+04  0.10100000352E+00 0.  1.
       -3    1    3    3    0  502  0.70238585704E+03  0.64547975499E+03  0.63284028821E+03  0.11447606068E+04  0.10100000352E+00 0. -1.
</event>
<event>
 5   0  0.9535394E-05  0.1413162E+04  0.7818609E-02  0.8944346E-01
       -2   -1    0    0    0  501  0.00000000000E+00  0.00000000000E+00  0.57420138984E+03  0.57420138985E+03  0.25500000920E-02 0.  1.
        2   -1    0    0  501    0  0.00000000000E+00  0.00000000000E+00 -0.86947964746E+03  0.86947964746E+03  0.25500000920E-02 0. -1.
    10030    2    1    2    0    0  0.00000000000E+00  0.00000000000E+00 -0.29527825761E+03  0.14436810373E+04  0.14131615930E+04 0.  0.
        2    1    3    3  502    0 -0.38120251494E+03 -0.37644257965E+03 -0.61827487466E+03  0.81810035681E+03  0.25500000920E-02 0. -1.
       -2    1    3    3    0  502  0.38120251494E+03  0.37644257965E+03  0.32299661705E+03  0.62558068049E+03  0.25500000920E-02 0.  1.
</event>
<event>
 5   0  0.9313463E-05  0.2152814E+04  0.7818609E-02  0.8538329E-01
        2   -1    0    0  501    0  0.00000000000E+00  0.00000000000E+00  0.12093043302E+04  0.12093043302E+04  0.25500000920E-02 0. -1.
       -2   -1    0    0    0  501  0.00000000000E+00  0.00000000000E+00 -0.95811466044E+03  0.95811466045E+03  0.25500000920E-02 0.  1.
    10030    2    1    2    0    0  0.00000000000E+00  0.00000000000E+00  0.25118966979E+03  0.21674189907E+04  0.21528141655E+04 0.  0.
        1    1    3    3  502    0 -0.11324068885E+03  0.26841153732E+03  0.11688602158E+04  0.12046171222E+04  0.50400001928E-02 0. -1.
       -1    1    3    3    0  502  0.11324068885E+03 -0.26841153732E+03 -0.91767054600E+03  0.96280186850E+03  0.50400001928E-02 0.  1.
</event>
<event>
 5   0  0.4005462E-05  0.1992594E+04  0.7818609E-02  0.8610091E-01
       -1   -1    0    0    0  501  0.00000000000E+00  0.00000000000E+00  0.73708489545E+03  0.73708489547E+03  0.50400001928E-02 0.  1.
        1   -1    0    0  501    0  0.00000000000E+00  0.00000000000E+00 -0.13466667867E+04  0.13466667867E+04  0.50400001928E-02 0. -1.
    10030    2    1    2    0    0  0.00000000000E+00  0.00000000000E+00 -0.60958189124E+03  0.20837516822E+04  0.19925940356E+04 0.  0.
        4    1    3    3  502    0 -0.94091331894E+03  0.99374718979E+02 -0.63117988444E+03  0.11373578452E+04  0.12699999809E+01 0. -1.
       -4    1    3    3    0  502  0.94091331894E+03 -0.99374718979E+02  0.21597993193E+02  0.94639383702E+03  0.12699999809E+01 0.  1.
</event>
<event>
 5   0  0.9313463E-05  0.2259861E+04  0.7818609E-02  0.8493917E-01
       -2   -1    0    0    0  501  0.00000000000E+00  0.00000000000E+00  0.84138576123E+03  0.84138576124E+03  0.25500000920E-02 0. -1.
        2   -1    0    0  501    0  0.00000000000E+00  0.00000000000E+00 -0.15174293075E+04  0.15174293075E+04  0.25500000920E-02 0.  1.
    10030    2    1    2    0    0  0.00000000000E+00  0.00000000000E+00 -0.67604354623E+03  0.23588150687E+04  0.22598614232E+04 0.  0.
        1    1    3    3  502    0  0.51732274211E+02 -0.11166665499E+04 -0.50992378328E+03  0.12286751714E+04  0.50400001928E-02 0.  1.
       -1    1    3    3    0  502 -0.51732274211E+02  0.11166665499E+04 -0.16611976294E+03  0.11301398973E+04  0.50400001928E-02 0. -1.
</event>
<event>
 5   0  0.3885219E-05  0.2424295E+04  0.7818609E-02  0.8430464E-01
        1   -1    0    0  501    0  0.00000000000E+00  0.00000000000E+00  0.21063573523E+04  0.21063573523E+04  0.50400001928E-02 0.  1.
       -1   -1    0    0    0  501  0.00000000000E+00  0.00000000000E+00 -0.69755549242E+03  0.69755549244E+03  0.50400001928E-02 0. -1.
    10030    2    1    2    0    0  0.00000000000E+00  0.00000000000E+00  0.14088018598E+04  0.28039128447E+04  0.24242946521E+04 0.  0.
        2    1    3    3  502    0  0.42867556537E+03  0.27385713580E+03 -0.56813132402E+03  0.76258355117E+03  0.25500000920E-02 0. -1.
       -2    1    3    3    0  502 -0.42867556537E+03 -0.27385713580E+03  0.19769331839E+04  0.20413292935E+04  0.25500000920E-02 0.  1.
</event>
<event>
 5   0  0.9312074E-05  0.2324513E+04  0.7818609E-02  0.8468318E-01
       -2   -1    0    0    0  501  0.00000000000E+00  0.00000000000E+00  0.10345143589E+04  0.10345143589E+04  0.25500000920E-02 0. -1.
        2   -1    0    0  501    0  0.00000000000E+00  0.00000000000E+00 -0.13057720693E+04  0.13057720693E+04  0.25500000920E-02 0.  1.
    10030    2    1    2    0    0  0.00000000000E+00  0.00000000000E+00 -0.27125771045E+03  0.23402864282E+04  0.23245128136E+04 0.  0.
        4    1    3    3  502    0  0.11299165545E+04  0.27087050088E+03 -0.10794510662E+03  0.11669344486E+04  0.12699999809E+01 0.  1.
       -4    1    3    3    0  502 -0.11299165545E+04 -0.27087050088E+03 -0.16331260383E+03  0.11733519795E+04  0.12699999809E+01 0. -1.
</event>
<event>
 5   0  0.9641157E-05  0.2311816E+04  0.7818609E-02  0.8473277E-01
       -2   -1    0    0    0  501  0.00000000000E+00  0.00000000000E+00  0.72174021087E+03  0.72174021087E+03  0.25500000920E-02 0. -1.
        2   -1    0    0  501    0  0.00000000000E+00  0.00000000000E+00 -0.18512517827E+04  0.18512517827E+04  0.25500000920E-02 0.  1.
    10030    2    1    2    0    0  0.00000000000E+00  0.00000000000E+00 -0.11295115718E+04  0.25729919936E+04  0.23118156086E+04 0.  0.
        3    1    3    3  502    0 -0.32221792957E+03 -0.96631210045E+03 -0.11728712547E+04  0.15534511450E+04  0.10100000352E+00 0.  1.
       -3    1    3    3    0  502  0.32221792957E+03  0.96631210045E+03  0.43359682864E+02  0.10195408486E+04  0.10100000352E+00 0. -1.
</event>
<event>
 5   0  0.3885219E-05  0.2266549E+04  0.7818609E-02  0.8491228E-01
        1   -1    0    0  501    0  0.00000000000E+00  0.00000000000E+00  0.25776966272E+04  0.25776966273E+04  0.50400001928E-02 0.  1.
       -1   -1    0    0    0  501  0.00000000000E+00  0.00000000000E+00 -0.49823989637E+03  0.49823989640E+03  0.50400001928E-02 0. -1.
    10030    2    1    2    0    0  0.00000000000E+00  0.00000000000E+00  0.20794567309E+04  0.30759365237E+04  0.22665491837E+04 0.  0.
        2    1    3    3  502    0  0.25108222998E+03  0.70042755587E+03  0.21997682857E+04  0.23222018771E+04  0.25500000920E-02 0.  1.
       -2    1    3    3    0  502 -0.25108222998E+03 -0.70042755587E+03 -0.12031155479E+03  0.75373464659E+03  0.25500000920E-02 0. -1.
</event>
<event>
 5   0  0.4005462E-05  0.2286485E+04  0.7818609E-02  0.8483269E-01
       -1   -1    0    0    0  501  0.00000000000E+00  0.00000000000E+00  0.64425181848E+03  0.64425181850E+03  0.50400001928E-02 0.  1.
        1   -1    0    0  501    0  0.00000000000E+00  0.00000000000E+00 -0.20287156776E+04  0.20287156776E+04  0.50400001928E-02 0. -1.
    10030    2    1    2    0    0  0.00000000000E+00  0.00000000000E+00 -0.13844638592E+04  0.26729674961E+04  0.22864853068E+04 0.  0.
        4    1    3    3  502    0 -0.57878988323E+03  0.49402213626E+02  0.45886916980E+03  0.74027078528E+03  0.12699999809E+01 0.  1.
       -4    1    3    3    0  502  0.57878988323E+03 -0.49402213626E+02 -0.18433330290E+04  0.19326967109E+04  0.12699999809E+01 0. -1.
</event>
<event>
 5   0  0.4095451E-05  0.2309164E+04  0.7818609E-02  0.8474317E-01
        1   -1    0    0  501    0  0.00000000000E+00  0.00000000000E+00  0.10296317448E+04  0.10296317448E+04  0.50400001928E-02 0. -1.
       -1   -1    0    0    0  501  0.00000000000E+00  0.00000000000E+00 -0.12946953314E+04  0.12946953314E+04  0.50400001928E-02 0.  1.
    10030    2    1    2    0    0  0.00000000000E+00  0.00000000000E+00 -0.26506358659E+03  0.23243270762E+04  0.23091638427E+04 0.  0.
        3    1    3    3  502    0 -0.87659110438E+03  0.20049539312E+03 -0.86147574775E+03  0.12452914683E+04  0.10100000352E+00 0.  1.
       -3    1    3    3    0  502  0.87659110438E+03 -0.20049539312E+03  0.59641216116E+03  0.10790356079E+04  0.10100000352E+00 0. -1.
</event>
<event>
 5   0  0.4095451E-05  0.2324344E+04  0.7818609E-02  0.8468384E-01
       -1   -1    0    0    0  501  0.00000000000E+00  0.00000000000E+00  0.63355642041E+03  0.63355642043E+03  0.50400001928E-02 0. -1.
        1   -1    0    0  501    0  0.00000000000E+00  0.00000000000E+00 -0.21318447862E+04  0.21318447863E+04  0.50400001928E-02 0.  1.
    10030    2    1    2    0    0  0.00000000000E+00  0.00000000000E+00 -0.14982883658E+04  0.27654012067E+04  0.23243441670E+04 0.  0.
        3    1    3    3  502    0 -0.73191379148E+03 -0.50573147345E+03 -0.16388250171E+04  0.18647277465E+04  0.10100000352E+00 0.  1.
       -3    1    3    3    0  502  0.73191379148E+03  0.50573147345E+03  0.14053665130E+03  0.90067346023E+03  0.10100000352E+00 0. -1.
</event>
<event>
 5   0  0.9641157E-05  0.2174867E+04  0.7818609E-02  0.8528962E-01
       -2   -1    0    0    0  501  0.00000000000E+00  0.00000000000E+00  0.11238678940E+04  0.11238678940E+04  0.25500000920E-02 0.  1.
        2   -1    0    0  501    0  0.00000000000E+00  0.00000000000E+00 -0.10521801645E+04  0.10521801646E+04  0.25500000920E-02 0. -1.
    10030    2    1    2    0    0  0.00000000000E+00  0.00000000000E+00  0.71687729441E+02  0.21760480585E+04  0.21748668977E+04 0.  0.
        3    1    3    3  502    0 -0.46246147468E+03  0.16218993531E+03  0.10071106351E+04  0.11200214427E+04  0.10100000352E+00 0.  1.
       -3    1    3    3    0  502  0.46246147468E+03 -0.16218993531E+03 -0.93542290565E+03  0.10560266158E+04  0.10100000352E+00 0. -1.
</event>
<event>
 5   0  0.9483073E-05  0.2301776E+04  0.7818609E-02  0.8477221E-01
       -2   -1    0    0    0  501  0.00000000000E+00  0.00000000000E+00  0.21236892930E+04  0.21236892930E+04  0.25500000920E-02 0. -1.
        2   -1    0    0  501    0  0.00000000000E+00  0.00000000000E+00 -0.62369938290E+03  0.62369938291E+03  0.25500000920E-02 0.  1.
    10030    2    1    2    0    0  0.00000000000E+00  0.00000000000E+00  0.14999899101E+04  0.27473886760E+04  0.23017764458E+04 0.  0.
        5    1    3    3  502    0  0.10589826731E+03  0.10070379393E+04  0.14028616537E+04  0.17301395215E+04  0.46999998093E+01 0. -1.
       -5    1    3    3    0  502 -0.10589826731E+03 -0.10070379393E+04  0.97128256392E+02  0.10172491545E+04  0.46999998093E+01 0.  1.
</event>
<event>
 5   0  0.9535394E-05  0.2426075E+04  0.7818609E-02  0.8429806E-01
        2   -1    0    0  501    0  0.00000000000E+00  0.00000000000E+00  0.19211051260E+04  0.19211051260E+04  0.25500000920E-02 0.  1.
       -2   -1    0    0    0  501  0.00000000000E+00  0.00000000000E+00 -0.76594425016E+03  0.76594425016E+03  0.25500000920E-02 0. -1.
    10030    2    1    2    0    0  0.00000000000E+00  0.00000000000E+00  0.11551608758E+04  0.26870493761E+04  0.24260745456E+04 0.  0.
        2    1    3    3  502    0 -0.87268181614E+03 -0.47893321389E+03 -0.19017376215E+03  0.10134676292E+04  0.25500000920E-02 0. -1.
       -2    1    3    3    0  502  0.87268181614E+03  0.47893321389E+03  0.13453346379E+04  0.16735817469E+04  0.25500000920E-02 0.  1.
</event>
<event>
 5   0  0.4139830E-05  0.2536610E+04  0.7818609E-02  0.8390058E-01
       -1   -1    0    0    0  501  0.00000000000E+00  0.00000000000E+00  0.21563936964E+04  0.21563936964E+04  0.50400001928E-02 0.  1.
        1   -1    0    0  501    0  0.00000000000E+00  0.00000000000E+00 -0.74596665491E+03  0.74596665493E+03  0.50400001928E-02 0. -1.
    10030    2    1    2    0    0  0.00000000000E+00  0.00000000000E+00  0.14104270415E+04  0.29023603513E+04  0.25366101730E+04 0.  0.
        1    1    3    3  502    0 -0.44506780128E+03  0.83982037983E+03  0.16660691063E+04  0.19181162335E+04  0.50400001928E-02 0.  1.
       -1    1    3    3    0  502  0.44506780128E+03 -0.83982037983E+03 -0.25564206485E+03  0.98424411782E+03  0.50400001928E-02 0. -1.
</event>
<event>
 5   0  0.9535394E-05  0.2007215E+04  0.7818609E-02  0.8603255E-01
       -2   -1    0    0    0  501  0.00000000000E+00  0.00000000000E+00  0.13799742608E+04  0.13799742608E+04  0.25500000920E-02 0. -1.
        2   -1    0    0  501    0  0.00000000000E+00  0.00000000000E+00 -0.72988916216E+03  0.72988916216E+03  0.25500000920E-02 0.  1.
    10030    2    1    2    0    0  0.00000000000E+00  0.00000000000E+00  0.65008509865E+03  0.21098634230E+04  0.20072152421E+04 0.  0.
        2    1    3    3  502    0  0.69107273272E+02 -0.58545938763E+02 -0.72558439595E+03  0.73121553444E+03  0.25500000920E-02 0.  1.
       -2    1    3    3    0  502 -0.69107273272E+02  0.58545938763E+02  0.13756694946E+04  0.13786478885E+04  0.25500000920E-02 0. -1.
</event>
<event>
 5   0  0.4139830E-05  0.2305571E+04  0.7818609E-02  0.8475728E-01
       -1   -1    0    0    0  501  0.00000000000E+00  0.00000000000E+00  0.10093972150E+04  0.10093972150E+04  0.50400001928E-02 0. -1.
        1   -1    0    0  501    0  0.00000000000E+00  0.00000000000E+00 -0.13165430065E+04  0.13165430065E+04  0.50400001928E-02 0.  1.
    10030    2    1    2    0    0  0.00000000000E+00  0.00000000000E+00 -0.30714579153E+03  0.23259402215E+04  0.23055713775E+04 0.  0.
        1    1    3    3  502    0 -0.16760239590E+02  0.11407948815E+04 -0.32001830841E+03  0.11849496128E+04  0.50400001928E-02 0.  1.
       -1    1    3    3    0  502  0.16760239590E+02 -0.11407948815E+04  0.12872516876E+02  0.11409906086E+04  0.50400001928E-02 0. -1.
</event>
<event>
 5   0  0.4295775E-05  0.2297042E+04  0.7818609E-02  0.8479088E-01
        1   -1    0    0  501    0  0.00000000000E+00  0.00000000000E+00  0.13106204915E+04  0.13106204915E+04  0.50400001928E-02 0.  1.
       -1   -1    0    0    0  501  0.00000000000E+00  0.00000000000E+00 -0.10064698769E+04  0.10064698769E+04  0.50400001928E-02 0. -1.
    10030    2    1    2    0    0  0.00000000000E+00  0.00000000000E+00  0.30415061462E+03  0.23170903685E+04  0.22970416146E+04 0.  0.
        5    1    3    3  502    0 -0.26869985966E+03 -0.37975824207E+03  0.12113176090E+04  0.12975855952E+04  0.46999998093E+01 0.  1.
       -5    1    3    3    0  502  0.26869985966E+03  0.37975824207E+03 -0.90716699437E+03  0.10195047733E+04  0.46999998093E+01 0. -1.
</event>
<event>
 5   0  0.9312074E-05  0.2368541E+04  0.7818609E-02  0.8451376E-01
       -2   -1    0    0    0  501  0.00000000000E+00  0.00000000000E+00  0.10691196034E+04  0.10691196035E+04  0.25500000920E-02 0. -1.
        2   -1    0    0  501    0  0.00000000000E+00  0.00000000000E+00 -0.13118239729E+04  0.13118239729E+04  0.25500000920E-02 0.  1.
    10030    2    1    2    0    0  0.00000000000E+00  0.00000000000E+00 -0.24270436942E+03  0.23809435763E+04  0.23685410916E+04 0.  0.
        4    1    3    3  502    0  0.24218411539E+03 -0.11364069511E+04  0.10880349364E+03  0.11670105901E+04  0.12699999809E+01 0. -1.
       -4    1    3    3    0  502 -0.24218411539E+03  0.11364069511E+04 -0.35150786306E+03  0.12139329862E+04  0.12699999809E+01 0.  1.
</event>
<event>
 5   0  0.4095451E-05  0.2293230E+04  0.7818609E-02  0.8480595E-01
        1   -1    0    0  501    0  0.00000000000E+00  0.00000000000E+00  0.13107343459E+04  0.13107343459E+04  0.50400001928E-02 0. -1.
       -1   -1    0    0    0  501  0.00000000000E+00  0.00000000000E+00 -0.10030449964E+04  0.10030449964E+04  0.50400001928E-02 0.  1.
    10030    2    1    2    0    0  0.00000000000E+00  0.00000000000E+00  0.30768934950E+03  0.23137793424E+04  0.22932296242E+04 0.  0.
        3    1    3    3  502    0  0.23487425323E+03  0.10547319678E+03 -0.97350168024E+03  0.10069737046E+04  0.10100000352E+00 0.  1.
       -3    1    3    3    0  502 -0.23487425323E+03 -0.10547319678E+03  0.12811910297E+04  0.13068056378E+04  0.10100000352E+00 0. -1.
</event>
<event>
 5   0  0.3261500E-05  0.2335508E+04  0.7818609E-02  0.8464051E-01
        3   -1    0    0  501    0  0.00000000000E+00  0.00000000000E+00  0.77383691105E+03  0.77383691764E+03  0.10100000352E+00 0. -1.
       -3   -1    0    0    0  501  0.00000000000E+00  0.00000000000E+00 -0.17621926266E+04  0.17621926295E+04  0.10100000352E+00 0.  1.
    10030    2    1    2    0    0  0.00000000000E+00  0.00000000000E+00 -0.98835571555E+03  0.25360295471E+04  0.23355082624E+04 0.  0.
        4    1    3    3  502    0 -0.15519085439E+02 -0.26008180834E+03  0.74187195987E+03  0.78629447841E+03  0.12699999809E+01 0. -1.
       -4    1    3    3    0  502  0.15519085439E+02  0.26008180834E+03 -0.17302276754E+04  0.17497350687E+04  0.12699999809E+01 0.  1.
</event>
<event>
 5   0  0.4139830E-05  0.1803115E+04  0.7818609E-02  0.8704644E-01
        1   -1    0    0  501    0  0.00000000000E+00  0.00000000000E+00  0.10298178494E+04  0.10298178495E+04  0.50400001928E-02 0. -1.
       -1   -1    0    0    0  501  0.00000000000E+00  0.00000000000E+00 -0.78927196404E+03  0.78927196405E+03  0.50400001928E-02 0.  1.
    10030    2    1    2    0    0  0.00000000000E+00  0.00000000000E+00  0.24054588540E+03  0.18190898135E+04  0.18031154779E+04 0.  0.
        1    1    3    3  502    0 -0.20967917929E+03  0.28717658837E+03 -0.71554162938E+03  0.79902163584E+03  0.50400001928E-02 0.  1.
       -1    1    3    3    0  502  0.20967917929E+03 -0.28717658837E+03  0.95608751478E+03  0.10200681777E+04  0.50400001928E-02 0. -1.
</event>
<event>
 5   0  0.3885219E-05  0.2303408E+04  0.7818609E-02  0.8476579E-01
       -1   -1    0    0    0  501  0.00000000000E+00  0.00000000000E+00  0.10219072475E+04  0.10219072475E+04  0.50400001928E-02 0. -1.
        1   -1    0    0  501    0  0.00000000000E+00  0.00000000000E+00 -0.12979868522E+04  0.12979868522E+04  0.50400001928E-02 0.  1.
    10030    2    1    2    0    0  0.00000000000E+00  0.00000000000E+00 -0.27607960474E+03  0.23198940998E+04  0.23034080589E+04 0.  0.
        2    1    3    3  502    0 -0.95043374713E+02  0.10254005766E+04 -0.65742697801E+03  0.12217568567E+04  0.25500000920E-02 0.  1.
       -2    1    3    3    0  502  0.95043374713E+02 -0.10254005766E+04  0.38134737327E+03  0.10981372431E+04  0.25500000920E-02 0. -1.
</event>
<event>
 5   0  0.4005462E-05  0.2202021E+04  0.7818609E-02  0.8517588E-01
       -1   -1    0    0    0  501  0.00000000000E+00  0.00000000000E+00  0.12892138399E+04  0.12892138399E+04  0.50400001928E-02 0.  1.
        1   -1    0    0  501    0  0.00000000000E+00  0.00000000000E+00 -0.94028142977E+03  0.94028142979E+03  0.50400001928E-02 0. -1.
    10030    2    1    2    0    0  0.00000000000E+00  0.00000000000E+00  0.34893241016E+03  0.22294952697E+04  0.22020207381E+04 0.  0.
        4    1    3    3  502    0  0.98481102551E+03 -0.33979660148E+03 -0.18621971927E+03  0.10582976345E+04  0.12699999809E+01 0.  1.
       -4    1    3    3    0  502 -0.98481102551E+03  0.33979660148E+03  0.53515212943E+03  0.11711976353E+04  0.12699999809E+01 0. -1.
</event>
<event>
 5   0  0.4295775E-05  0.2296209E+04  0.7818609E-02  0.8479417E-01
       -1   -1    0    0    0  501  0.00000000000E+00  0.00000000000E+00  0.19649668007E+04  0.19649668007E+04  0.50400001928E-02 0.  1.
        1   -1    0    0  501    0  0.00000000000E+00  0.00000000000E+00 -0.67082273178E+03  0.67082273180E+03  0.50400001928E-02 0. -1.
    10030    2    1    2    0    0  0.00000000000E+00  0.00000000000E+00  0.12941440689E+04  0.26357895325E+04  0.22962093956E+04 0.  0.
        5    1    3    3  502    0 -0.22125407087E+03  0.51858561533E+03 -0.50095176937E+03  0.75422753168E+03  0.46999998093E+01 0. -1.
       -5    1    3    3    0  502  0.22125407087E+03 -0.51858561533E+03  0.17950958383E+04  0.18815620008E+04  0.46999998093E+01 0.  1.
</event>
<event>
 5   0  0.9313463E-05  0.2317036E+04  0.7818609E-02  0.8471234E-01
       -2   -1    0    0    0  501  0.00000000000E+00  0.00000000000E+00  0.10315340849E+04  0.10315340849E+04  0.25500000920E-02 0.  1.
        2   -1    0    0  501    0  0.00000000000E+00  0.00000000000E+00 -0.13011340365E+04  0.13011340365E+04  0.25500000920E-02 0. -1.
    10030    2    1    2    0    0  0.00000000000E+00  0.00000000000E+00 -0.26959995165E+03  0.23326681214E+04  0.23170361306E+04 0.  0.
        1    1    3    3  502    0  0.16874391858E+02  0.30579280143E+02 -0.13006038996E+04  0.13010727655E+04  0.50400001928E-02 0. -1.
       -1    1    3    3    0  502 -0.16874391858E+02 -0.30579280143E+02  0.10310039480E+04  0.10315953559E+04  0.50400001928E-02 0.  1.
</event>
<event>
 5   0  0.3885219E-05  0.2300307E+04  0.7818609E-02  0.8477800E-01
        1   -1    0    0  501    0  0.00000000000E+00  0.00000000000E+00  0.13193613336E+04  0.13193613336E+04  0.50400001928E-02 0. -1.
       -1   -1    0    0    0  501  0.00000000000E+00  0.00000000000E+00 -0.10026463556E+04  0.10026463556E+04  0.50400001928E-02 0.  1.
    10030    2    1    2    0    0  0.00000000000E+00  0.00000000000E+00  0.31671497797E+03  0.23220076892E+04  0.23003067907E+04 0.  0.
        2    1    3    3  502    0  0.15981370025E+03 -0.23464117158E+03 -0.96672258258E+03  0.10075462520E+04  0.25500000920E-02 0.  1.
       -2    1    3    3    0  502 -0.15981370025E+03  0.23464117158E+03  0.12834375606E+04  0.13144614373E+04  0.25500000920E-02 0. -1.
</event>
<event>
 5   0  0.9641157E-05  0.2284942E+04  0.7818609E-02  0.8483882E-01
        2   -1    0    0  501    0  0.00000000000E+00  0.00000000000E+00  0.93198414050E+03  0.93198414050E+03  0.25500000920E-02 0.  1.
       -2   -1    0    0    0  501  0.00000000000E+00  0.00000000000E+00 -0.14004956747E+04  0.14004956747E+04  0.25500000920E-02 0. -1.
    10030    2    1    2    0    0  0.00000000000E+00  0.00000000000E+00 -0.46851153423E+03  0.23324798152E+04  0.22849418003E+04 0.  0.
        3    1    3    3  502    0 -0.10580893122E+04  0.31799294253E+03  0.62598870827E+02  0.11066124583E+04  0.10100000352E+00 0.  1.
       -3    1    3    3    0  502  0.10580893122E+04 -0.31799294253E+03 -0.53111040505E+03  0.12258673569E+04  0.10100000352E+00 0. -1.
</event>
<event>
 5   0  0.4005462E-05  0.2166915E+04  0.7818609E-02  0.8532327E-01
        1   -1    0    0  501    0  0.00000000000E+00  0.00000000000E+00  0.16298099631E+04  0.16298099631E+04  0.50400001928E-02 0.  1.
       -1   -1    0    0    0  501  0.00000000000E+00  0.00000000000E+00 -0.72025553000E+03  0.72025553001E+03  0.50400001928E-02 0. -1.
    10030    2    1    2    0    0  0.00000000000E+00  0.00000000000E+00  0.90955443308E+03  0.23500654931E+04  0.21669145242E+04 0.  0.
        4    1    3    3  502    0 -0.79285929634E+03  0.73785557339E+03  0.42369635581E+03  0.11630034075E+04  0.12699999809E+01 0.  1.
       -4    1    3    3    0  502  0.79285929634E+03 -0.73785557339E+03  0.48585807727E+03  0.11870620856E+04  0.12699999809E+01 0. -1.
</event>
<event>
 5   0  0.9313463E-05  0.2362027E+04  0.7818609E-02  0.8453859E-01
       -2   -1    0    0    0  501  0.00000000000E+00  0.00000000000E+00  0.74354317250E+03  0.74354317250E+03  0.25500000920E-02 0. -1.
        2   -1    0    0  501    0  0.00000000000E+00  0.00000000000E+00 -0.18758727851E+04  0.18758727851E+04  0.25500000920E-02 0.  1.
    10030    2    1    2    0    0  0.00000000000E+00  0.00000000000E+00 -0.11323296127E+04  0.26194159576E+04  0.23620265891E+04 0.  0.
        1    1    3    3  502    0  0.17084075965E+02 -0.23334260995E+03  0.71758524504E+03  0.75476434944E+03  0.50400001928E-02 0. -1.
       -1    1    3    3    0  502 -0.17084075965E+02  0.23334260995E+03 -0.18499148577E+04  0.18646516082E+04  0.50400001928E-02 0.  1.
</event>
<event>
 5   0  0.4095451E-05  0.2139221E+04  0.7818609E-02  0.8544161E-01
       -1   -1    0    0    0  501  0.00000000000E+00  0.00000000000E+00  0.13561815218E+04  0.13561815218E+04  0.50400001928E-02 0. -1.
        1   -1    0    0  501    0  0.00000000000E+00  0.00000000000E+00 -0.84359365987E+03  0.84359365988E+03  0.50400001928E-02 0.  1.
    10030    2    1    2    0    0  0.00000000000E+00  0.00000000000E+00  0.51258786191E+03  0.21997751817E+04  0.21392205435E+04 0.  0.
        3    1    3    3  502    0 -0.12718087667E+03  0.43001759874E+03 -0.74226352783E+03  0.86720543446E+03  0.10100000352E+00 0.  1.
       -3    1    3    3    0  502  0.12718087667E+03 -0.43001759874E+03  0.12548513897E+04  0.13325697472E+04  0.10100000352E+00 0. -1.
</event>
<event>
 5   0  0.9312074E-05  0.2294602E+04  0.7818609E-02  0.8480053E-01
        2   -1    0    0  501    0  0.00000000000E+00  0.00000000000E+00  0.11943270247E+04  0.11943270248E+04  0.25500000920E-02 0.  1.
       -2   -1    0    0    0  501  0.00000000000E+00  0.00000000000E+00 -0.11021265107E+04  0.11021265107E+04  0.25500000920E-02 0. -1.
    10030    2    1    2    0    0  0.00000000000E+00  0.00000000000E+00  0.92200514018E+02  0.22964535355E+04  0.22946019057E+04 0.  0.
        4    1    3    3  502    0 -0.18002282745E+03  0.89776782616E+03  0.73796308585E+03  0.11760044290E+04  0.12699999809E+01 0.  1.
       -4    1    3    3    0  502  0.18002282745E+03 -0.89776782616E+03 -0.64576257184E+03  0.11204491065E+04  0.12699999809E+01 0. -1.
</event>
<event>
 5   0  0.9312074E-05  0.2281683E+04  0.7818609E-02  0.8485179E-01
        2   -1    0    0  501    0  0.00000000000E+00  0.00000000000E+00  0.15420203388E+04  0.15420203388E+04  0.25500000920E-02 0. -1.
       -2   -1    0    0    0  501  0.00000000000E+00  0.00000000000E+00 -0.84403482925E+03  0.84403482925E+03  0.25500000920E-02 0.  1.
    10030    2    1    2    0    0  0.00000000000E+00  0.00000000000E+00  0.69798550952E+03  0.23860551680E+04  0.22816826014E+04 0.  0.
        4    1    3    3  502    0 -0.79234761584E+03  0.58542015523E+03 -0.25263782627E+03  0.10170344078E+04  0.12699999809E+01 0.  1.
       -4    1    3    3    0  502  0.79234761584E+03 -0.58542015523E+03  0.95062333579E+03  0.13690207602E+04  0.12699999809E+01 0. -1.
</event>
<event>
 5   0  0.9483073E-05  0.2354565E+04  0.7818609E-02  0.8456712E-01
        2   -1    0    0  501    0  0.00000000000E+00  0.00000000000E+00  0.11310068536E+04  0.11310068536E+04  0.25500000920E-02 0. -1.
       -2   -1    0    0    0  501  0.00000000000E+00  0.00000000000E+00 -0.12254513019E+04  0.12254513019E+04  0.25500000920E-02 0.  1.
    10030    2    1    2    0    0  0.00000000000E+00  0.00000000000E+00 -0.94444448318E+02  0.23564581556E+04  0.23545647761E+04 0.  0.
        5    1    3    3  502    0 -0.89650127626E+03 -0.17621290550E+03  0.69580741570E+03  0.11484492049E+04  0.46999998093E+01 0. -1.
       -5    1    3    3    0  502  0.89650127626E+03  0.17621290550E+03 -0.79025186401E+03  0.12080089507E+04  0.46999998093E+01 0.  1.
</event>
<event>
 5   0  0.9535394E-05  0.2289789E+04  0.7818609E-02  0.8481958E-01
        2   -1    0    0  501    0  0.00000000000E+00  0.00000000000E+00  0.12559782581E+04  0.12559782581E+04  0.25500000920E-02 0. -1.
       -2   -1    0    0    0  501  0.00000000000E+00  0.00000000000E+00 -0.10436358788E+04  0.10436358788E+04  0.25500000920E-02 0.  1.
    10030    2    1    2    0    0  0.00000000000E+00  0.00000000000E+00  0.21234237936E+03  0.22996141369E+04  0.22897894865E+04 0.  0.
        2    1    3    3  502    0  0.30977818060E+03  0.97451070887E+03  0.62330805549E+03  0.11975585893E+04  0.25500000920E-02 0. -1.
       -2    1    3    3    0  502 -0.30977818060E+03 -0.97451070887E+03 -0.41096567613E+03  0.11020555475E+04  0.25500000920E-02 0.  1.
</event>
<event>
 5   0  0.9641157E-05  0.2301868E+04  0.7818609E-02  0.8477185E-01
        2   -1    0    0  501    0  0.00000000000E+00  0.00000000000E+00  0.24285739107E+04  0.24285739107E+04  0.25500000920E-02 0.  1.
       -2   -1    0    0    0  501  0.00000000000E+00  0.00000000000E+00 -0.54544332911E+03  0.54544332912E+03  0.25500000920E-02 0. -1.
    10030    2    1    2    0    0  0.00000000000E+00  0.00000000000E+00  0.18831305816E+04  0.29740172398E+04  0.23018683184E+04 0.  0.
        3    1    3    3  502    0 -0.95041831252E+03 -0.62506777826E+03  0.71539220507E+03  0.13437971251E+04  0.10100000352E+00 0.  1.
       -3    1    3    3    0  502  0.95041831252E+03  0.62506777826E+03  0.11677383765E+04  0.16302201147E+04  0.10100000352E+00 0. -1.
</event>
<event>
 5   0  0.9641157E-05  0.2292554E+04  0.7818609E-02  0.8480863E-01
       -2   -1    0    0    0  501  0.00000000000E+00  0.00000000000E+00  0.18774415683E+04  0.18774415683E+04  0.25500000920E-02 0. -1.
        2   -1    0    0  501    0  0.00000000000E+00  0.00000000000E+00 -0.69986256297E+03  0.69986256297E+03  0.25500000920E-02 0.  1.
    10030    2    1    2    0    0  0.00000000000E+00  0.00000000000E+00  0.11775790053E+04  0.25773041313E+04  0.22925540934E+04 0.  0.
        3    1    3    3  502    0 -0.83474249048E+03  0.51655584999E+03  0.12541887674E+04  0.15926752482E+04  0.10100000352E+00 0. -1.
       -3    1    3    3    0  502  0.83474249048E+03 -0.51655584999E+03 -0.76609762108E+02  0.98462888309E+03  0.10100000352E+00 0.  1.
</event>
<event>
 5   0  0.9535394E-05  0.2294194E+04  0.7818609E-02  0.8480214E-01
        2   -1    0    0  501    0  0.00000000000E+00  0.00000000000E+00  0.17537039346E+04  0.17537039346E+04  0.25500000920E-02 0.  1.
       -2   -1    0    0    0  501  0.00000000000E+00  0.00000000000E+00 -0.75031555498E+03  0.75031555498E+03  0.25500000920E-02 0. -1.
    10030    2    1    2    0    0  0.00000000000E+00  0.00000000000E+00  0.10033883796E+04  0.25040194896E+04  0.22941938375E+04 0.  0.
        2    1    3    3  502    0 -0.47993952763E+03  0.30901186461E+02 -0.63496242423E+03  0.79653883377E+03  0.25500000920E-02 0. -1.
       -2    1    3    3    0  502  0.47993952763E+03 -0.30901186461E+02  0.16383508039E+04  0.17074806558E+04  0.25500000920E-02 0.  1.
</event>
<event>
 5   0  0.3261500E-05  0.2250597E+04  0.7818609E-02  0.8497659E-01
        3   -1    0    0  501    0  0.00000000000E+00  0.00000000000E+00  0.15645719990E+04  0.15645720023E+04  0.10100000352E+00 0.  1.
       -3   -1    0    0    0  501  0.00000000000E+00  0.00000000000E+00 -0.80935646690E+03  0.80935647320E+03  0.10100000352E+00 0. -1.
    10030    2    1    2    0    0  0.00000000000E+00  0.00000000000E+00  0.75521553211E+03  0.23739284755E+04  0.22505967890E+04 0.  0.
        3    1    3    3  502    0 -0.50882234605E+03  0.57786029497E+03 -0.48801820235E+03  0.91158349940E+03  0.10100000352E+00 0. -1.
       -3    1    3    3    0  502  0.50882234605E+03 -0.57786029497E+03  0.12432337345E+04  0.14623449761E+04  0.10100000352E+00 0.  1.
</event>
<event>
 5   0  0.3261500E-05  0.2245320E+04  0.7818609E-02  0.8499798E-01
        4   -1    0    0  501    0  0.00000000000E+00  0.00000000000E+00  0.98388498999E+03  0.98388580965E+03  0.12699999809E+01 0.  1.
       -4   -1    0    0    0  501  0.00000000000E+00  0.00000000000E+00 -0.12810071977E+04  0.12810078273E+04  0.12699999809E+01 0. -1.
    10030    2    1    2    0    0  0.00000000000E+00  0.00000000000E+00 -0.29712220774E+03  0.22648936369E+04  0.22453199283E+04 0.  0.
        5    1    3    3  502    0 -0.69076993278E+03  0.69576727061E+03  0.40309592368E+03  0.10600771710E+04  0.46999998093E+01 0.  1.
       -5    1    3    3    0  502  0.69076993278E+03 -0.69576727061E+03 -0.70021813142E+03  0.12048164659E+04  0.46999998093E+01 0. -1.
</event>
<event>
 5   0  0.9641157E-05  0.1952191E+04  0.7818609E-02  0.8629305E-01
        2   -1    0    0  501    0  0.00000000000E+00  0.00000000000E+00  0.12779330429E+04  0.12779330429E+04  0.25500000920E-02 0. -1.
       -2   -1    0    0    0  501  0.00000000000E+00  0.00000000000E+00 -0.74554949329E+03  0.74554949329E+03  0.25500000920E-02 0.  1.
    10030    2    1    2    0    0  0.00000000000E+00  0.00000000000E+00  0.53238354962E+03  0.20234825362E+04  0.19521909052E+04 0.  0.
        3    1    3    3  502    0 -0.29057458373E+03 -0.17088319868E+03 -0.68329997481E+03  0.76192750448E+03  0.10100000352E+00 0.  1.
       -3    1    3    3    0  502  0.29057458373E+03  0.17088319868E+03  0.12156835244E+04  0.12615550317E+04  0.10100000352E+00 0. -1.
</event>
<event>
 5   0  0.4005462E-05  0.2302740E+04  0.7818609E-02  0.8476841E-01
        1   -1    0    0  501    0  0.00000000000E+00  0.00000000000E+00  0.20766309769E+04  0.20766309769E+04  0.50400001928E-02 0.  1.
       -1   -1    0    0    0  501  0.00000000000E+00  0.00000000000E+00 -0.63836730556E+03  0.63836730558E+03  0.50400001928E-02 0. -1.
    10030    2    1    2    0    0  0.00000000000E+00  0.00000000000E+00  0.14382636713E+04  0.27149982825E+04  0.23027403860E+04 0.  0.
        4    1    3    3  502    0 -0.89310052308E+03  0.48306383790E+02  0.15739806186E+04  0.18103531842E+04  0.12699999809E+01 0.  1.
       -4    1    3    3    0  502  0.89310052308E+03 -0.48306383790E+02 -0.13571694729E+03  0.90464509822E+03  0.12699999809E+01 0. -1.
</event>
<event>
 5   0  0.9313463E-05  0.2272807E+04  0.7818609E-02  0.8488721E-01
       -2   -1    0    0    0  501  0.00000000000E+00  0.00000000000E+00  0.60690315876E+03  0.60690315877E+03  0.25500000920E-02 0.  1.
        2   -1    0    0  501    0  0.00000000000E+00  0.00000000000E+00 -0.21278728779E+04  0.21278728779E+04  0.25500000920E-02 0. -1.
    10030    2    1    2    0    0  0.00000000000E+00  0.00000000000E+00 -0.15209697191E+04  0.27347760366E+04  0.22728068735E+04 0.  0.
        1    1    3    3  502    0  0.10446542850E+04  0.29973828418E+03 -0.11600451499E+04  0.15896069841E+04  0.50400001928E-02 0. -1.
       -1    1    3    3    0  502 -0.10446542850E+04 -0.29973828418E+03 -0.36092456918E+03  0.11451690525E+04  0.50400001928E-02 0.  1.
</event>
<event>
 5   0  0.9535394E-05  0.2202863E+04  0.7818609E-02  0.8517237E-01
        2   -1    0    0  501    0  0.00000000000E+00  0.00000000000E+00  0.14436453209E+04  0.14436453209E+04  0.25500000920E-02 0. -1.
       -2   -1    0    0    0  501  0.00000000000E+00  0.00000000000E+00 -0.84033916091E+03  0.84033916091E+03  0.25500000920E-02 0.  1.
    10030    2    1    2    0    0  0.00000000000E+00  0.00000000000E+00  0.60330616003E+03  0.22839844819E+04  0.22028633164E+04 0.  0.
        2    1    3    3  502    0 -0.52889104192E+03  0.75828271080E+03 -0.31908697404E+03  0.97802602252E+03  0.25500000920E-02 0.  1.
       -2    1    3    3    0  502  0.52889104192E+03 -0.75828271080E+03  0.92239313407E+03  0.13059584593E+04  0.25500000920E-02 0. -1.
</event>
<event>
 5   0  0.3885219E-05  0.2316484E+04  0.7818609E-02  0.8471450E-01
        1   -1    0    0  501    0  0.00000000000E+00  0.00000000000E+00  0.13345761133E+04  0.13345761133E+04  0.50400001928E-02 0.  1.
       -1   -1    0    0    0  501  0.00000000000E+00  0.00000000000E+00 -0.10052065435E+04  0.10052065435E+04  0.50400001928E-02 0. -1.
    10030    2    1    2    0    0  0.00000000000E+00  0.00000000000E+00  0.32936956973E+03  0.23397826568E+04  0.23164840961E+04 0.  0.
        2    1    3    3  502    0  0.30781600833E+03 -0.42303387275E+03  0.12084299229E+04  0.13168186022E+04  0.25500000920E-02 0.  1.
       -2    1    3    3    0  502 -0.30781600833E+03  0.42303387275E+03 -0.87906035318E+03  0.10229640546E+04  0.25500000920E-02 0. -1.
</event>
<event>
 5   0  0.9483073E-05  0.2312005E+04  0.7818609E-02  0.8473203E-01
        2   -1    0    0  501    0  0.00000000000E+00  0.00000000000E+00  0.10534672384E+04  0.10534672384E+04  0.25500000920E-02 0.  1.
       -2   -1    0    0    0  501  0.00000000000E+00  0.00000000000E+00 -0.12685178529E+04  0.12685178529E+04  0.25500000920E-02 0. -1.
    10030    2    1    2    0    0  0.00000000000E+00  0.00000000000E+00 -0.21505061452E+03  0.23219850913E+04  0.23120051897E+04 0.  0.
        5    1    3    3  502    0 -0.34590733144E+03 -0.31026862607E+03 -0.11705844945E+04  0.12594477564E+04  0.46999998093E+01 0. -1.
       -5    1    3    3    0  502  0.34590733144E+03  0.31026862607E+03  0.95553387999E+03  0.10625373349E+04  0.46999998093E+01 0.  1.
</event>
<event>
 5   0  0.4095451E-05  0.1500775E+04  0.7818609E-02  0.8883938E-01
       -1   -1    0    0    0  501  0.00000000000E+00  0.00000000000E+00  0.51734133116E+03  0.51734133119E+03  0.50400001928E-02 0.  1.
        1   -1    0    0  501    0  0.00000000000E+00  0.00000000000E+00 -0.10884135625E+04  0.10884135625E+04  0.50400001928E-02 0. -1.
    10030    2    1    2    0    0  0.00000000000E+00  0.00000000000E+00 -0.57107223137E+03  0.16057548937E+04  0.15007748949E+04 0.  0.
        3    1    3    3  502    0 -0.72129379532E+03 -0.75498494646E+02 -0.79403129623E+02  0.72956811132E+03  0.10100000352E+00 0. -1.
       -3    1    3    3    0  502  0.72129379532E+03  0.75498494646E+02 -0.49166910175E+03  0.87618678241E+03  0.10100000352E+00 0.  1.
</event>
<event>
 5   0  0.4095451E-05  0.2282911E+04  0.7818609E-02  0.8484690E-01
       -1   -1    0    0    0  501  0.00000000000E+00  0.00000000000E+00  0.12857641020E+04  0.12857641020E+04  0.50400001928E-02 0. -1.
        1   -1    0    0  501    0  0.00000000000E+00  0.00000000000E+00 -0.10133435605E+04  0.10133435605E+04  0.50400001928E-02 0.  1.
    10030    2    1    2    0    0  0.00000000000E+00  0.00000000000E+00  0.27242054150E+03  0.22991076625E+04  0.22829111004E+04 0.  0.
        3    1    3    3  502    0  0.89144520505E+02 -0.11206156474E+04  0.33559108340E+03  0.11731784008E+04  0.10100000352E+00 0. -1.
       -3    1    3    3    0  502 -0.89144520505E+02  0.11206156474E+04 -0.63170541906E+02  0.11259292617E+04  0.10100000352E+00 0.  1.
</event>
<event>
 5   0  0.4005462E-05  0.1567654E+04  0.7818609E-02  0.8840669E-01
        1   -1    0    0  501    0  0.00000000000E+00  0.00000000000E+00  0.12115697916E+04  0.12115697916E+04  0.50400001928E-02 0.  1.
       -1   -1    0    0    0  501  0.00000000000E+00  0.00000000000E+00 -0.50709826130E+03  0.50709826132E+03  0.50400001928E-02 0. -1.
    10030    2    1    2    0    0  0.00000000000E+00  0.00000000000E+00  0.70447153028E+03  0.17186680529E+04  0.15676542154E+04 0.  0.
        4    1    3    3  502    0  0.28198267924E+03 -0.72731118043E+03  0.26811396345E+03  0.82485301410E+03  0.12699999809E+01 0.  1.
       -4    1    3    3    0  502 -0.28198267924E+03  0.72731118043E+03  0.43635756683E+03  0.89381503881E+03  0.12699999809E+01 0. -1.
</event>
<event>
 5   0  0.9312074E-05  0.2275859E+04  0.7818609E-02  0.8487501E-01
        2   -1    0    0  501    0  0.00000000000E+00  0.00000000000E+00  0.22320135310E+04  0.22320135310E+04  0.25500000920E-02 0. -1.
       -2   -1    0    0    0  501  0.00000000000E+00  0.00000000000E+00 -0.58014143131E+03  0.58014143131E+03  0.25500000920E-02 0.  1.
    10030    2    1    2    0    0  0.00000000000E+00  0.00000000000E+00  0.16518720997E+04  0.28121549624E+04  0.22758589803E+04 0.  0.
        4    1    3    3  502    0  0.85818764059E+03 -0.58635511134E+02 -0.94564103944E+02  0.86537167292E+03  0.12699999809E+01 0.  1.
       -4    1    3    3    0  502 -0.85818764059E+03  0.58635511134E+02  0.17464362037E+04  0.19467832894E+04  0.12699999809E+01 0. -1.
</event>
<event>
 5   0  0.9535394E-05  0.1671724E+04  0.7818609E-02  0.8777657E-01
       -2   -1    0    0    0  501  0.00000000000E+00  0.00000000000E+00  0.10530457701E+04  0.10530457701E+04  0.25500000920E-02 0. -1.
        2   -1    0    0  501    0  0.00000000000E+00  0.00000000000E+00 -0.66347113043E+03  0.66347113043E+03  0.25500000920E-02 0.  1.
    10030    2    1    2    0    0  0.00000000000E+00  0.00000000000E+00  0.38957463966E+03  0.17165169005E+04  0.16717242207E+04 0.  0.
        2    1    3    3  502    0 -0.29888017526E+03  0.39150540946E+03 -0.49862932265E+03  0.70088304746E+03  0.25500000920E-02 0.  1.
       -2    1    3    3    0  502  0.29888017526E+03 -0.39150540946E+03  0.88820396232E+03  0.10156338531E+04  0.25500000920E-02 0. -1.
</event>
<event>
 5   0  0.9312074E-05  0.2301989E+04  0.7818609E-02  0.8477137E-01
        2   -1    0    0  501    0  0.00000000000E+00  0.00000000000E+00  0.73081643795E+03  0.73081643796E+03  0.25500000920E-02 0. -1.
       -2   -1    0    0    0  501  0.00000000000E+00  0.00000000000E+00 -0.18127517598E+04  0.18127517598E+04  0.25500000920E-02 0.  1.
    10030    2    1    2    0    0  0.00000000000E+00  0.00000000000E+00 -0.10819353218E+04  0.25435681977E+04  0.23019893866E+04 0.  0.
        4    1    3    3  502    0 -0.96248083912E+03  0.52050760159E+03 -0.14643994303E+03  0.11039672997E+04  0.12699999809E+01 0. -1.
       -4    1    3    3    0  502  0.96248083912E+03 -0.52050760159E+03 -0.93549537878E+03  0.14396008980E+04  0.12699999809E+01 0.  1.
</event>
<event>
 5   0  0.9313463E-05  0.2314415E+04  0.7818609E-02  0.8472259E-01
        2   -1    0    0  501    0  0.00000000000E+00  0.00000000000E+00  0.25019686508E+04  0.25019686508E+04  0.25500000920E-02 0. -1.
       -2   -1    0    0    0  501  0.00000000000E+00  0.00000000000E+00 -0.53523008758E+03  0.53523008759E+03  0.25500000920E-02 0.  1.
    10030    2    1    2    0    0  0.00000000000E+00  0.00000000000E+00  0.19667385633E+04  0.30371987384E+04  0.23144147425E+04 0.  0.
        1    1    3    3  502    0  0.73880801028E+03 -0.45090364136E+02  0.21506927405E+04  0.22744998750E+04  0.50400001928E-02 0. -1.
       -1    1    3    3    0  502 -0.73880801028E+03  0.45090364136E+02 -0.18395417727E+03  0.76269886347E+03  0.50400001928E-02 0.  1.
</event>
<event>
 5   0  0.9641157E-05  0.2271150E+04  0.7818609E-02  0.8489384E-01
        2   -1    0    0  501    0  0.00000000000E+00  0.00000000000E+00  0.21636773838E+04  0.21636773838E+04  0.25500000920E-02 0. -1.
       -2   -1    0    0    0  501  0.00000000000E+00  0.00000000000E+00 -0.59598998688E+03  0.59598998688E+03  0.25500000920E-02 0.  1.
    10030    2    1    2    0    0  0.00000000000E+00  0.00000000000E+00  0.15676873969E+04  0.27596673707E+04  0.22711495376E+04 0.  0.
        3    1    3    3  502    0 -0.10430489540E+04 -0.38918723408E+03  0.51183497161E+03  0.12253133770E+04  0.10100000352E+00 0.  1.
       -3    1    3    3    0  502  0.10430489540E+04  0.38918723408E+03  0.10558524253E+04  0.15343539936E+04  0.10100000352E+00 0. -1.
</event>
<event>
 5   0  0.4139830E-05  0.2327651E+04  0.7818609E-02  0.8467098E-01
       -1   -1    0    0    0  501  0.00000000000E+00  0.00000000000E+00  0.52415321313E+03  0.52415321316E+03  0.50400001928E-02 0. -1.
        1   -1    0    0  501    0  0.00000000000E+00  0.00000000000E+00 -0.25841492090E+04  0.25841492090E+04  0.50400001928E-02 0.  1.
    10030    2    1    2    0    0  0.00000000000E+00  0.00000000000E+00 -0.20599959959E+04  0.31083024222E+04  0.23276512721E+04 0.  0.
        1    1    3    3  502    0  0.51884524529E+03  0.32566960778E+03 -0.23514381284E+04  0.24299222937E+04  0.50400001928E-02 0.  1.
       -1    1    3    3    0  502 -0.51884524529E+03 -0.32566960778E+03  0.29144213252E+03  0.67838012841E+03  0.50400001928E-02 0. -1.
</event>
<event>
 5   0  0.9535394E-05  0.1463570E+04  0.7818609E-02  0.8909047E-01
        2   -1    0    0  501    0  0.00000000000E+00  0.00000000000E+00  0.12618322728E+04  0.12618322728E+04  0.25500000920E-02 0. -1.
       -2   -1    0    0    0  501  0.00000000000E+00  0.00000000000E+00 -0.42439000319E+03  0.42439000320E+03  0.25500000920E-02 0.  1.
    10030    2    1    2    0    0  0.00000000000E+00  0.00000000000E+00  0.83744226960E+03  0.16862222760E+04  0.14635696120E+04 0.  0.
        2    1    3    3  502    0  0.54183398163E+03  0.30010461050E+03  0.86770034016E+03  0.10660913287E+04  0.25500000920E-02 0. -1.
       -2    1    3    3    0  502 -0.54183398163E+03 -0.30010461050E+03 -0.30258070564E+02  0.62013094724E+03  0.25500000920E-02 0.  1.
</event>
<event>
 5   0  0.3885219E-05  0.2304575E+04  0.7818609E-02  0.8476119E-01
        1   -1    0    0  501    0  0.00000000000E+00  0.00000000000E+00  0.15304726783E+04  0.15304726784E+04  0.50400001928E-02 0.  1.
       -1   -1    0    0    0  501  0.00000000000E+00  0.00000000000E+00 -0.86755335931E+03  0.86755335933E+03  0.50400001928E-02 0. -1.
    10030    2    1    2    0    0  0.00000000000E+00  0.00000000000E+00  0.66291931903E+03  0.23980260377E+04  0.23045752003E+04 0.  0.
        2    1    3    3  502    0 -0.89567062486E+02  0.65643456871E+03  0.13124717148E+04  0.14702076737E+04  0.25500000920E-02 0.  1.
       -2    1    3    3    0  502  0.89567062486E+02 -0.65643456871E+03 -0.64955239576E+03  0.92781836397E+03  0.25500000920E-02 0. -1.
</event>
<event>
 5   0  0.9312074E-05  0.2349290E+04  0.7818609E-02  0.8458737E-01
       -2   -1    0    0    0  501  0.00000000000E+00  0.00000000000E+00  0.10407923379E+04  0.10407923379E+04  0.25500000920E-02 0.  1.
        2   -1    0    0  501    0  0.00000000000E+00  0.00000000000E+00 -0.13257115993E+04  0.13257115993E+04  0.25500000920E-02 0. -1.
    10030    2    1    2    0    0  0.00000000000E+00  0.00000000000E+00 -0.28491926144E+03  0.23665039372E+04  0.23492896584E+04 0.  0.
        4    1    3    3  502    0 -0.48575306703E+03 -0.17714789106E+03  0.91999696401E+03  0.10553357021E+04  0.12699999809E+01 0.  1.
       -4    1    3    3    0  502  0.48575306703E+03  0.17714789106E+03 -0.12049162254E+04  0.13111682351E+04  0.12699999809E+01 0. -1.
</event>
<event>
 5   0  0.9312074E-05  0.2359700E+04  0.7818609E-02  0.8454747E-01
        2   -1    0    0  501    0  0.00000000000E+00  0.00000000000E+00  0.27607602700E+04  0.27607602700E+04  0.25500000920E-02 0.  1.
       -2   -1    0    0    0  501  0.00000000000E+00  0.00000000000E+00 -0.50422554450E+03  0.50422554451E+03  0.25500000920E-02 0. -1.
    10030    2    1    2    0    0  0.00000000000E+00  0.00000000000E+00  0.22565347255E+04  0.32649858145E+04  0.23596998541E+04 0.  0.
        4    1    3    3  502    0  0.24216638575E+02  0.74505847027E+03 -0.13710236065E+03  0.75795596172E+03  0.12699999809E+01 0. -1.
       -4    1    3    3    0  502 -0.24216638575E+02 -0.74505847027E+03  0.23936370862E+04  0.25070298528E+04  0.12699999809E+01 0.  1.
</event>
<event>
 5   0  0.4139830E-05  0.2249067E+04  0.7818609E-02  0.8498279E-01
        1   -1    0    0  501    0  0.00000000000E+00  0.00000000000E+00  0.11256828737E+04  0.11256828737E+04  0.50400001928E-02 0.  1.
       -1   -1    0    0    0  501  0.00000000000E+00  0.00000000000E+00 -0.11233850025E+04  0.11233850025E+04  0.50400001928E-02 0. -1.
    10030    2    1    2    0    0  0.00000000000E+00  0.00000000000E+00  0.22978712089E+01  0.22490678761E+04  0.22490667023E+04 0.  0.
        1    1    3    3  502    0 -0.64851874548E+03  0.43408530129E+03 -0.80852342410E+03  0.11237066963E+04  0.50400001928E-02 0. -1.
       -1    1    3    3    0  502  0.64851874548E+03 -0.43408530129E+03  0.81082129531E+03  0.11253611798E+04  0.50400001928E-02 0.  1.
</event>
<event>
 5   0  0.4095451E-05  0.1722752E+04  0.7818609E-02  0.8748493E-01
        1   -1    0    0  501    0  0.00000000000E+00  0.00000000000E+00  0.81128023338E+03  0.81128023340E+03  0.50400001928E-02 0. -1.
       -1   -1    0    0    0  501  0.00000000000E+00  0.00000000000E+00 -0.91456541985E+03  0.91456541986E+03  0.50400001928E-02 0.  1.
    10030    2    1    2    0    0  0.00000000000E+00  0.00000000000E+00 -0.10328518646E+03  0.17258456533E+04  0.17227522716E+04 0.  0.
        3    1    3    3  502    0 -0.39249520191E+03 -0.53541162847E+03  0.49820608351E+03  0.83001651024E+03  0.10100000352E+00 0. -1.
       -3    1    3    3    0  502  0.39249520191E+03  0.53541162847E+03 -0.60149126997E+03  0.89582914302E+03  0.10100000352E+00 0.  1.
</event>
<event>
 5   0  0.9641157E-05  0.2262842E+04  0.7818609E-02  0.8492718E-01
       -2   -1    0    0    0  501  0.00000000000E+00  0.00000000000E+00  0.86069815106E+03  0.86069815107E+03  0.25500000920E-02 0.  1.
        2   -1    0    0  501    0  0.00000000000E+00  0.00000000000E+00 -0.14872965124E+04  0.14872965124E+04  0.25500000920E-02 0. -1.
    10030    2    1    2    0    0  0.00000000000E+00  0.00000000000E+00 -0.62659836138E+03  0.23479946635E+04  0.22628418931E+04 0.  0.
        3    1    3    3  502    0  0.37819401508E+03 -0.10430882722E+01  0.79316841840E+03  0.87871949519E+03  0.10100000352E+00 0.  1.
       -3    1    3    3    0  502 -0.37819401508E+03  0.10430882722E+01 -0.14197667798E+04  0.14692751683E+04  0.10100000352E+00 0. -1.
</event>
<event>
 5   0  0.4295775E-05  0.2312472E+04  0.7818609E-02  0.8473020E-01
       -1   -1    0    0    0  501  0.00000000000E+00  0.00000000000E+00  0.14831444362E+04  0.14831444362E+04  0.50400001928E-02 0.  1.
        1   -1    0    0  501    0  0.00000000000E+00  0.00000000000E+00 -0.90138295315E+03  0.90138295316E+03  0.50400001928E-02 0. -1.
    10030    2    1    2    0    0  0.00000000000E+00  0.00000000000E+00  0.58176148305E+03  0.23845273894E+04  0.23124715020E+04 0.  0.
        5    1    3    3  502    0  0.36535542775E+02 -0.55314611422E+03 -0.75540521597E+03  0.93699765201E+03  0.46999998093E+01 0. -1.
       -5    1    3    3    0  502 -0.36535542775E+02  0.55314611422E+03  0.13371666990E+04  0.14475297374E+04  0.46999998093E+01 0.  1.
</event>
<event>
 5   0  0.4005462E-05  0.2252279E+04  0.7818609E-02  0.8496978E-01
       -1   -1    0    0    0  501  0.00000000000E+00  0.00000000000E+00  0.80873875904E+03  0.80873875906E+03  0.50400001928E-02 0. -1.
        1   -1    0    0  501    0  0.00000000000E+00  0.00000000000E+00 -0.15681079481E+04  0.15681079481E+04  0.50400001928E-02 0.  1.
    10030    2    1    2    0    0  0.00000000000E+00  0.00000000000E+00 -0.75936918909E+03  0.23768467072E+04  0.22522785583E+04 0.  0.
        4    1    3    3  502    0  0.81402260619E+03  0.70937240088E+03 -0.42075118595E+02  0.10805618608E+04  0.12699999809E+01 0.  1.
       -4    1    3    3    0  502 -0.81402260619E+03 -0.70937240088E+03 -0.71729407049E+03  0.12962848464E+04  0.12699999809E+01 0. -1.
</event>
<event>
 5   0  0.9312074E-05  0.2315964E+04  0.7818609E-02  0.8471653E-01
       -2   -1    0    0    0  501  0.00000000000E+00  0.00000000000E+00  0.11046418313E+04  0.11046418313E+04  0.25500000920E-02 0.  1.
        2   -1    0    0  501    0  0.00000000000E+00  0.00000000000E+00 -0.12138973692E+04  0.12138973692E+04  0.25500000920E-02 0. -1.
    10030    2    1    2    0    0  0.00000000000E+00  0.00000000000E+00 -0.10925553789E+03  0.23185392005E+04  0.23159635687E+04 0.  0.
        4    1    3    3  502    0  0.11404893799E+04  0.16051767835E+03 -0.17492066697E+03  0.11649381114E+04  0.12699999809E+01 0. -1.
       -4    1    3    3    0  502 -0.11404893799E+04 -0.16051767835E+03  0.65665129080E+02  0.11536010891E+04  0.12699999809E+01 0.  1.
</event>
<event>
 5   0  0.9313463E-05  0.2437770E+04  0.7818609E-02  0.8425497E-01
       -2   -1    0    0    0  501  0.00000000000E+00  0.00000000000E+00  0.11262786791E+04  0.11262786791E+04  0.25500000920E-02 0. -1.
        2   -1    0    0  501    0  0.00000000000E+00  0.00000000000E+00 -0.13191052239E+04  0.13191052239E+04  0.25500000920E-02 0.  1.
    10030    2    1    2    0    0  0.00000000000E+00  0.00000000000E+00 -0.19282654484E+03  0.24453839030E+04  0.24377695455E+04 0.  0.
        1    1    3    3  502    0 -0.87176465012E+03 -0.77019273432E+02  0.75463194374E+03  0.11555842437E+04  0.50400001928E-02 0. -1.
       -1    1    3    3    0  502  0.87176465012E+03  0.77019273432E+02 -0.94745848858E+03  0.12897996594E+04  0.50400001928E-02 0.  1.
</event>
<event>
 5   0  0.3885219E-05  0.2327207E+04  0.7818609E-02  0.8467270E-01
        1   -1    0    0  501    0  0.00000000000E+00  0.00000000000E+00  0.39121888882E+03  0.39121888885E+03  0.50400001928E-02 0. -1.
       -1   -1    0    0    0  501  0.00000000000E+00  0.00000000000E+00 -0.34609105223E+04  0.34609105223E+04  0.50400001928E-02 0.  1.
    10030    2    1    2    0    0  0.00000000000E+00  0.00000000000E+00 -0.30696916335E+04  0.38521294112E+04  0.23272073985E+04 0.  0.
        2    1    3    3  502    0  0.31812677952E+03 -0.75616700280E+03 -0.16890123091E+03  0.83756839111E+03  0.25500000920E-02 0. -1.
       -2    1    3    3    0  502 -0.31812677952E+03  0.75616700280E+03 -0.29007904026E+04  0.30145610201E+04  0.25500000920E-02 0.  1.
</event>
<event>
 5   0  0.9535394E-05  0.2267188E+04  0.7818609E-02  0.8490972E-01
        2   -1    0    0  501    0  0.00000000000E+00  0.00000000000E+00  0.16970935899E+04  0.16970935899E+04  0.25500000920E-02 0.  1.
       -2   -1    0    0    0  501  0.00000000000E+00  0.00000000000E+00 -0.75719792470E+03  0.75719792471E+03  0.25500000920E-02 0. -1.
    10030    2    1    2    0    0  0.00000000000E+00  0.00000000000E+00  0.93989566521E+03  0.24542915146E+04  0.22671883418E+04 0.  0.
        2    1    3    3  502    0 -0.10664583376E+04  0.29807093935E+03  0.73257169789E+03  0.13277202127E+04  0.25500000920E-02 0. -1.
       -2    1    3    3    0  502  0.10664583376E+04 -0.29807093935E+03  0.20732396733E+03  0.11265713019E+04  0.25500000920E-02 0.  1.
</event>
<event>
 5   0  0.9313463E-05  0.2308343E+04  0.7818609E-02  0.8474639E-01
       -2   -1    0    0    0  501  0.00000000000E+00  0.00000000000E+00  0.10507070395E+04  0.10507070395E+04  0.25500000920E-02 0. -1.
        2   -1    0    0  501    0  0.00000000000E+00  0.00000000000E+00 -0.12678242396E+04  0.12678242396E+04  0.25500000920E-02 0.  1.
    10030    2    1    2    0    0  0.00000000000E+00  0.00000000000E+00 -0.21711720010E+03  0.23185312790E+04  0.23083430016E+04 0.  0.
        1    1    3    3  502    0  0.50413288836E+02  0.95124078693E+03  0.54601658167E+03  0.10979684157E+04  0.50400001928E-02 0.  1.
       -1    1    3    3    0  502 -0.50413288836E+02 -0.95124078693E+03 -0.76313378177E+03  0.12205628633E+04  0.50400001928E-02 0. -1.
</event>
<event>
 5   0  0.9641157E-05  0.2509451E+04  0.7818609E-02  0.8399626E-01
        2   -1    0    0  501    0  0.00000000000E+00  0.00000000000E+00  0.14089754938E+04  0.14089754938E+04  0.25500000920E-02 0.  1.
       -2   -1    0    0    0  501  0.00000000000E+00  0.00000000000E+00 -0.11173626902E+04  0.11173626902E+04  0.25500000920E-02 0. -1.
    10030    2    1    2    0    0  0.00000000000E+00  0.00000000000E+00  0.29161280358E+03  0.25263381839E+04  0.25094514525E+04 0.  0.
        3    1    3    3  502    0  0.81598772409E+03 -0.70175773587E+03 -0.50354313727E+03  0.11882152949E+04  0.10100000352E+00 0. -1.
       -3    1    3    3    0  502 -0.81598772409E+03  0.70175773587E+03  0.79515594085E+03  0.13381228890E+04  0.10100000352E+00 0.  1.
</event>
<event>
 5   0  0.9535394E-05  0.2284515E+04  0.7818609E-02  0.8484052E-01
       -2   -1    0    0    0  501  0.00000000000E+00  0.00000000000E+00  0.10022163595E+04  0.10022163595E+04  0.25500000920E-02 0. -1.
        2   -1    0    0  501    0  0.00000000000E+00  0.00000000000E+00 -0.13018663526E+04  0.13018663526E+04  0.25500000920E-02 0.  1.
    10030    2    1    2    0    0  0.00000000000E+00  0.00000000000E+00 -0.29964999307E+03  0.23040827122E+04  0.22845146150E+04 0.  0.
        2    1    3    3  502    0 -0.31188207163E+03  0.99967312874E+03 -0.60995086207E+03  0.12118815310E+04  0.25500000920E-02 0.  1.
       -2    1    3    3    0  502  0.31188207163E+03 -0.99967312874E+03  0.31030086900E+03  0.10922011812E+04  0.25500000920E-02 0. -1.
</event>
<event>
 5   0  0.4295775E-05  0.2282505E+04  0.7818609E-02  0.8484851E-01
        1   -1    0    0  501    0  0.00000000000E+00  0.00000000000E+00  0.18006198401E+04  0.18006198401E+04  0.50400001928E-02 0. -1.
       -1   -1    0    0    0  501  0.00000000000E+00  0.00000000000E+00 -0.72333829903E+03  0.72333829905E+03  0.50400001928E-02 0.  1.
    10030    2    1    2    0    0  0.00000000000E+00  0.00000000000E+00  0.10772815410E+04  0.25239581391E+04  0.22825050207E+04 0.  0.
        5    1    3    3  502    0 -0.84095608934E+03  0.66033397081E+03  0.97982943827E+03  0.14502882180E+04  0.46999998093E+01 0. -1.
       -5    1    3    3    0  502  0.84095608934E+03 -0.66033397081E+03  0.97452102774E+02  0.10736699211E+04  0.46999998093E+01 0.  1.
</event>
<event>
 5   0  0.9312074E-05  0.2287698E+04  0.7818609E-02  0.8482788E-01
        2   -1    0    0  501    0  0.00000000000E+00  0.00000000000E+00  0.15981970828E+04  0.15981970828E+04  0.25500000920E-02 0.  1.
       -2   -1    0    0    0  501  0.00000000000E+00  0.00000000000E+00 -0.81866631181E+03  0.81866631182E+03  0.25500000920E-02 0. -1.
    10030    2    1    2    0    0  0.00000000000E+00  0.00000000000E+00  0.77953077102E+03  0.24168633947E+04  0.22876976298E+04 0.  0.
        4    1    3    3  502    0 -0.98232498775E+03 -0.57690172212E+03  0.49858866612E+03  0.12435313625E+04  0.12699999809E+01 0. -1.
       -4    1    3    3    0  502  0.98232498775E+03  0.57690172212E+03  0.28094210490E+03  0.11733320322E+04  0.12699999809E+01 0.  1.
</event>
<event>
 5   0  0.4095451E-05  0.2279160E+04  0.7818609E-02  0.8486183E-01
        1   -1    0    0  501    0  0.00000000000E+00  0.00000000000E+00  0.25918905640E+04  0.25918905640E+04  0.50400001928E-02 0. -1.
       -1   -1    0    0    0  501  0.00000000000E+00  0.00000000000E+00 -0.50104082477E+03  0.50104082480E+03  0.50400001928E-02 0.  1.
    10030    2    1    2    0    0  0.00000000000E+00  0.00000000000E+00  0.20908497392E+04  0.30929313888E+04  0.22791603594E+04 0.  0.
        3    1    3    3  502    0 -0.12233295159E+03 -0.63032858016E+03  0.23230437955E+04  0.24101477041E+04  0.10100000352E+00 0. -1.
       -3    1    3    3    0  502  0.12233295159E+03  0.63032858016E+03 -0.23219405626E+03  0.68278368462E+03  0.10100000352E+00 0.  1.
</event>
<event>
 5   0  0.4139830E-05  0.2272302E+04  0.7818609E-02  0.8488923E-01
       -1   -1    0    0    0  501  0.00000000000E+00  0.00000000000E+00  0.78813840529E+03  0.78813840531E+03  0.50400001928E-02 0. -1.
        1   -1    0    0  501    0  0.00000000000E+00  0.00000000000E+00 -0.16378330072E+04  0.16378330073E+04  0.50400001928E-02 0.  1.
    10030    2    1    2    0    0  0.00000000000E+00  0.00000000000E+00 -0.84969460195E+03  0.24259714126E+04  0.22723019997E+04 0.  0.
        1    1    3    3  502    0  0.44467450965E+03 -0.98619242557E+03 -0.54197374789E+02  0.10831658577E+04  0.50400001928E-02 0. -1.
       -1    1    3    3    0  502 -0.44467450965E+03  0.98619242557E+03 -0.79549722716E+03  0.13428055549E+04  0.50400001928E-02 0.  1.
</event>
<event>
 5   0  0.9641157E-05  0.2226845E+04  0.7818609E-02  0.8507337E-01
       -2   -1    0    0    0  501  0.00000000000E+00  0.00000000000E+00  0.13445624168E+04  0.13445624168E+04  0.25500000920E-02 0. -1.
        2   -1    0    0  501    0  0.00000000000E+00  0.00000000000E+00 -0.92201757268E+03  0.92201757268E+03  0.25500000920E-02 0.  1.
    10030    2    1    2    0    0  0.00000000000E+00  0.00000000000E+00  0.42254484416E+03  0.22665799895E+04  0.22268454602E+04 0.  0.
        3    1    3    3  502    0 -0.84202381009E+03  0.65608323561E+03  0.53356230864E+03  0.11933725555E+04  0.10100000352E+00 0. -1.
       -3    1    3    3    0  502  0.84202381009E+03 -0.65608323561E+03 -0.11101746448E+03  0.10732074340E+04  0.10100000352E+00 0.  1.
</event>
<event>
 5   0  0.3261500E-05  0.2270419E+04  0.7818609E-02  0.8489677E-01
        3   -1    0    0  501    0  0.00000000000E+00  0.00000000000E+00  0.17552398384E+04  0.17552398413E+04  0.10100000352E+00 0. -1.
       -3   -1    0    0    0  501  0.00000000000E+00  0.00000000000E+00 -0.73420218726E+03  0.73420219421E+03  0.10100000352E+00 0.  1.
    10030    2    1    2    0    0  0.00000000000E+00  0.00000000000E+00  0.10210376511E+04  0.24894420355E+04  0.22704192923E+04 0.  0.
        4    1    3    3  502    0  0.71571288681E+03 -0.21846317940E+03 -0.42548742145E+03  0.86082068737E+03  0.12699999809E+01 0.  1.
       -4    1    3    3    0  502 -0.71571288681E+03  0.21846317940E+03  0.14465250726E+04  0.16286213481E+04  0.12699999809E+01 0. -1.
</event>
<event>
 5   0  0.4095451E-05  0.2280493E+04  0.7818609E-02  0.8485653E-01
        1   -1    0    0  501    0  0.00000000000E+00  0.00000000000E+00  0.78334904380E+03  0.78334904382E+03  0.50400001928E-02 0.  1.
       -1   -1    0    0    0  501  0.00000000000E+00  0.00000000000E+00 -0.16597474994E+04  0.16597474994E+04  0.50400001928E-02 0. -1.
    10030    2    1    2    0    0  0.00000000000E+00  0.00000000000E+00 -0.87639845560E+03  0.24430965432E+04  0.22804925930E+04 0.  0.
        3    1    3    3  502    0 -0.51056851747E+03  0.80815062127E+03 -0.11041097735E+04  0.14604266637E+04  0.10100000352E+00 0. -1.
       -3    1    3    3    0  502  0.51056851747E+03 -0.80815062127E+03  0.22771131794E+03  0.98266987957E+03  0.10100000352E+00 0.  1.
</event>
<event>
 5   0  0.4005462E-05  0.2169473E+04  0.7818609E-02  0.8531243E-01
        1   -1    0    0  501    0  0.00000000000E+00  0.00000000000E+00  0.79578368390E+03  0.79578368392E+03  0.50400001928E-02 0.  1.
       -1   -1    0    0    0  501  0.00000000000E+00  0.00000000000E+00 -0.14786088209E+04  0.14786088209E+04  0.50400001928E-02 0. -1.
    10030    2    1    2    0    0  0.00000000000E+00  0.00000000000E+00 -0.68282513703E+03  0.22743925049E+04  0.21694725392E+04 0.  0.
        4    1    3    3  502    0 -0.56989913960E+01 -0.10844725811E+04 -0.31709816495E+03  0.11298965072E+04  0.12699999809E+01 0.  1.
       -4    1    3    3    0  502  0.56989913960E+01  0.10844725811E+04 -0.36572697208E+03  0.11444959977E+04  0.12699999809E+01 0. -1.
</event>
<event>
 5   0  0.4295775E-05  0.2393307E+04  0.7818609E-02  0.8442013E-01
       -1   -1    0    0    0  501  0.00000000000E+00  0.00000000000E+00  0.16341553899E+04  0.16341553900E+04  0.50400001928E-02 0.  1.
        1   -1    0    0  501    0  0.00000000000E+00  0.00000000000E+00 -0.87628153308E+03  0.87628153309E+03  0.50400001928E-02 0. -1.
    10030    2    1    2    0    0  0.00000000000E+00  0.00000000000E+00  0.75787385687E+03  0.25104369230E+04  0.23933074942E+04 0.  0.
        5    1    3    3  502    0 -0.57050508480E+03 -0.40813018771E+03 -0.63800080875E+03  0.94821591627E+03  0.46999998093E+01 0. -1.
       -5    1    3    3    0  502  0.57050508480E+03  0.40813018771E+03  0.13958746656E+04  0.15622210068E+04  0.46999998093E+01 0.  1.
</event>
<event>
 5   0  0.4005462E-05  0.2291718E+04  0.7818609E-02  0.8481194E-01
       -1   -1    0    0    0  501  0.00000000000E+00  0.00000000000E+00  0.47273793359E+03  0.47273793361E+03  0.50400001928E-02 0. -1.
        1   -1    0    0  501    0  0.00000000000E+00  0.00000000000E+00 -0.27774220234E+04  0.27774220234E+04  0.50400001928E-02 0.  1.
    10030    2    1    2    0    0  0.00000000000E+00  0.00000000000E+00 -0.23046840898E+04  0.32501599570E+04  0.22917179129E+04 0.  0.
        4    1    3    3  502    0 -0.19467080008E+03  0.83916315984E+03 -0.22239192031E+04  0.23849339119E+04  0.12699999809E+01 0.  1.
       -4    1    3    3    0  502  0.19467080008E+03 -0.83916315984E+03 -0.80764886647E+02  0.86522604507E+03  0.12699999809E+01 0. -1.
</event>
<event>
 5   0  0.9641157E-05  0.1587400E+04  0.7818609E-02  0.8828326E-01
        2   -1    0    0  501    0  0.00000000000E+00  0.00000000000E+00  0.16678298347E+04  0.16678298347E+04  0.25500000920E-02 0.  1.
       -2   -1    0    0    0  501  0.00000000000E+00  0.00000000000E+00 -0.37771221218E+03  0.37771221219E+03  0.25500000920E-02 0. -1.
    10030    2    1    2    0    0  0.00000000000E+00  0.00000000000E+00  0.12901176226E+04  0.20455420469E+04  0.15874000081E+04 0.  0.
        3    1    3    3  502    0 -0.59864650494E+03  0.50901553659E+03  0.78904483509E+03  0.11135826042E+04  0.10100000352E+00 0.  1.
       -3    1    3    3    0  502  0.59864650494E+03 -0.50901553659E+03  0.50107278748E+03  0.93195944274E+03  0.10100000352E+00 0. -1.
</event>
<event>
 5   0  0.4139830E-05  0.2270956E+04  0.7818609E-02  0.8489461E-01
        1   -1    0    0  501    0  0.00000000000E+00  0.00000000000E+00  0.11045101214E+04  0.11045101214E+04  0.50400001928E-02 0. -1.
       -1   -1    0    0    0  501  0.00000000000E+00  0.00000000000E+00 -0.11673146396E+04  0.11673146396E+04  0.50400001928E-02 0.  1.
    10030    2    1    2    0    0  0.00000000000E+00  0.00000000000E+00 -0.62804518222E+02  0.22718247611E+04  0.22709564807E+04 0.  0.
        1    1    3    3  502    0  0.44177546575E+03 -0.86422766175E+03  0.55810720822E+03  0.11196154114E+04  0.50400001928E-02 0.  1.
       -1    1    3    3    0  502 -0.44177546575E+03  0.86422766175E+03 -0.62091172644E+03  0.11522093497E+04  0.50400001928E-02 0. -1.
</event>
<event>
 5   0  0.9641157E-05  0.2108935E+04  0.7818609E-02  0.8557318E-01
        2   -1    0    0  501    0  0.00000000000E+00  0.00000000000E+00  0.87798260085E+03  0.87798260085E+03  0.25500000920E-02 0.  1.
       -2   -1    0    0    0  501  0.00000000000E+00  0.00000000000E+00 -0.12664280062E+04  0.12664280063E+04  0.25500000920E-02 0. -1.
    10030    2    1    2    0    0  0.00000000000E+00  0.00000000000E+00 -0.38844540540E+03  0.21444106071E+04  0.21089350438E+04 0.  0.
        3    1    3    3  502    0  0.57254680886E+03 -0.88475580342E+03 -0.15757387390E+03  0.10655666173E+04  0.10100000352E+00 0.  1.
       -3    1    3    3    0  502 -0.57254680886E+03  0.88475580342E+03 -0.23087153150E+03  0.10788439898E+04  0.10100000352E+00 0. -1.
</event>
<event>
 5   0  0.9312074E-05  0.2320068E+04  0.7818609E-02  0.8470051E-01
       -2   -1    0    0    0  501  0.00000000000E+00  0.00000000000E+00  0.71828873269E+03  0.71828873269E+03  0.25500000920E-02 0.  1.
        2   -1    0    0  501    0  0.00000000000E+00  0.00000000000E+00 -0.18734506485E+04  0.18734506485E+04  0.25500000920E-02 0. -1.
    10030    2    1    2    0    0  0.00000000000E+00  0.00000000000E+00 -0.11551619158E+04  0.25917393812E+04  0.23200676646E+04 0.  0.
        4    1    3    3  502    0 -0.57879455018E+03 -0.51071589229E+03  0.38975171010E+03  0.86472068460E+03  0.12699999809E+01 0.  1.
       -4    1    3    3    0  502  0.57879455018E+03  0.51071589229E+03 -0.15449136259E+04  0.17270186966E+04  0.12699999809E+01 0. -1.
</event>
<event>
 5   0  0.4005462E-05  0.1705913E+04  0.7818609E-02  0.8757999E-01
        1   -1    0    0  501    0  0.00000000000E+00  0.00000000000E+00  0.10334419527E+04  0.10334419527E+04  0.50400001928E-02 0.  1.
       -1   -1    0    0    0  501  0.00000000000E+00  0.00000000000E+00 -0.70399189746E+03  0.70399189748E+03  0.50400001928E-02 0. -1.
    10030    2    1    2    0    0  0.00000000000E+00  0.00000000000E+00  0.32945005525E+03  0.17374338502E+04  0.17059129652E+04 0.  0.
        4    1    3    3  502    0 -0.32211126630E+03 -0.75465874315E+03  0.40198362777E+03  0.91370560706E+03  0.12699999809E+01 0.  1.
       -4    1    3    3    0  502  0.32211126630E+03  0.75465874315E+03 -0.72533572519E+02  0.82372824313E+03  0.12699999809E+01 0. -1.
</event>
<event>
 5   0  0.4139830E-05  0.2249398E+04  0.7818609E-02  0.8498144E-01
       -1   -1    0    0    0  501  0.00000000000E+00  0.00000000000E+00  0.11277370381E+04  0.11277370381E+04  0.50400001928E-02 0.  1.
        1   -1    0    0  501    0  0.00000000000E+00  0.00000000000E+00 -0.11216694772E+04  0.11216694772E+04  0.50400001928E-02 0. -1.
    10030    2    1    2    0    0  0.00000000000E+00  0.00000000000E+00  0.60675609171E+01  0.22494065154E+04  0.22493983320E+04 0.  0.
        1    1    3    3  502    0  0.37270723222E+03  0.15286857705E+03 -0.10470503849E+04  0.11218707552E+04  0.50400001928E-02 0. -1.
       -1    1    3    3    0  502 -0.37270723222E+03 -0.15286857705E+03  0.10531179458E+04  0.11275357602E+04  0.50400001928E-02 0.  1.
</event>
<event>
 5   0  0.9535394E-05  0.2332914E+04  0.7818609E-02  0.8465055E-01
        2   -1    0    0  501    0  0.00000000000E+00  0.00000000000E+00  0.91772219588E+03  0.91772219588E+03  0.25500000920E-02 0.  1.
       -2   -1    0    0    0  501  0.00000000000E+00  0.00000000000E+00 -0.14826078982E+04  0.14826078982E+04  0.25500000920E-02 0. -1.
    10030    2    1    2    0    0  0.00000000000E+00  0.00000000000E+00 -0.56488570234E+03  0.24003300941E+04  0.23329142084E+04 0.  0.
        2    1    3    3  502    0 -0.33435889149E+03 -0.10060257644E+04  0.21817533153E+03  0.10823512287E+04  0.25500000920E-02 0.  1.
       -2    1    3    3    0  502  0.33435889149E+03  0.10060257644E+04 -0.78306103387E+03  0.13179788654E+04  0.25500000920E-02 0. -1.
</event>
<event>
 5   0  0.9641157E-05  0.2106978E+04  0.7818609E-02  0.8558176E-01
       -2   -1    0    0    0  501  0.00000000000E+00  0.00000000000E+00  0.81200057906E+03  0.81200057907E+03  0.25500000920E-02 0. -1.
        2   -1    0    0  501    0  0.00000000000E+00  0.00000000000E+00 -0.13667956355E+04  0.13667956355E+04  0.25500000920E-02 0.  1.
    10030    2    1    2    0    0  0.00000000000E+00  0.00000000000E+00 -0.55479505647E+03  0.21787962146E+04  0.21069777859E+04 0.  0.
        3    1    3    3  502    0 -0.29069455011E+03  0.23503955046E+03  0.74110731886E+03  0.83005239595E+03  0.10100000352E+00 0. -1.
       -3    1    3    3    0  502  0.29069455011E+03 -0.23503955046E+03 -0.12959023753E+04  0.13487438187E+04  0.10100000352E+00 0.  1.
</event>
<event>
 5   0  0.4005462E-05  0.2046557E+04  0.7818609E-02  0.8585158E-01
        1   -1    0    0  501    0  0.00000000000E+00  0.00000000000E+00  0.10718330377E+04  0.10718330377E+04  0.50400001928E-02 0. -1.
       -1   -1    0    0    0  501  0.00000000000E+00  0.00000000000E+00 -0.97692343671E+03  0.97692343672E+03  0.50400001928E-02 0.  1.
    10030    2    1    2    0    0  0.00000000000E+00  0.00000000000E+00  0.94909601020E+02  0.20487564745E+04  0.20465569279E+04 0.  0.
        4    1    3    3  502    0 -0.59773688530E+03 -0.57092473526E+03 -0.55639558635E+03  0.99640458589E+03  0.12699999809E+01 0.  1.
       -4    1    3    3    0  502  0.59773688530E+03  0.57092473526E+03  0.65130518737E+03  0.10523518886E+04  0.12699999809E+01 0. -1.
</event>
<event>
 5   0  0.3885219E-05  0.2297280E+04  0.7818609E-02  0.8478994E-01
        1   -1    0    0  501    0  0.00000000000E+00  0.00000000000E+00  0.18659280158E+04  0.18659280158E+04  0.50400001928E-02 0. -1.
       -1   -1    0    0    0  501  0.00000000000E+00  0.00000000000E+00 -0.70708715357E+03  0.70708715359E+03  0.50400001928E-02 0.  1.
    10030    2    1    2    0    0  0.00000000000E+00  0.00000000000E+00  0.11588408622E+04  0.25730151694E+04  0.22972798954E+04 0.  0.
        2    1    3    3  502    0  0.16753141180E+02  0.34298879934E+03  0.18070903117E+04  0.18394285468E+04  0.25500000920E-02 0. -1.
       -2    1    3    3    0  502 -0.16753141180E+02 -0.34298879934E+03 -0.64824944942E+03  0.73358662262E+03  0.25500000920E-02 0.  1.
</event>
<event>
 5   0  0.4139830E-05  0.2406551E+04  0.7818609E-02  0.8437055E-01
       -1   -1    0    0    0  501  0.00000000000E+00  0.00000000000E+00  0.86209966181E+03  0.86209966182E+03  0.50400001928E-02 0.  1.
        1   -1    0    0  501    0  0.00000000000E+00  0.00000000000E+00 -0.16794710003E+04  0.16794710003E+04  0.50400001928E-02 0. -1.
    10030    2    1    2    0    0  0.00000000000E+00  0.00000000000E+00 -0.81737133845E+03  0.25415706621E+04  0.24065505450E+04 0.  0.
        1    1    3    3  502    0 -0.10445168498E+04 -0.22548329675E+03  0.17553550281E+03  0.10828992933E+04  0.50400001928E-02 0.  1.
       -1    1    3    3    0  502  0.10445168498E+04  0.22548329675E+03 -0.99290684127E+03  0.14586713688E+04  0.50400001928E-02 0. -1.
</event>
<event>
 5   0  0.9535394E-05  0.2271393E+04  0.7818609E-02  0.8489287E-01
       -2   -1    0    0    0  501  0.00000000000E+00  0.00000000000E+00  0.60283097753E+03  0.60283097754E+03  0.25500000920E-02 0.  1.
        2   -1    0    0  501    0  0.00000000000E+00  0.00000000000E+00 -0.21395821182E+04  0.21395821182E+04  0.25500000920E-02 0. -1.
    10030    2    1    2    0    0  0.00000000000E+00  0.00000000000E+00 -0.15367511407E+04  0.27424130957E+04  0.22713928589E+04 0.  0.
        2    1    3    3  502    0 -0.85608701448E+03 -0.62944707700E+03 -0.28434523422E+03  0.10999730957E+04  0.25500000920E-02 0.  1.
       -2    1    3    3    0  502  0.85608701448E+03  0.62944707700E+03 -0.12524059064E+04  0.16424400000E+04  0.25500000920E-02 0. -1.
</event>
<event>
 5   0  0.4295775E-05  0.2358134E+04  0.7818609E-02  0.8455346E-01
       -1   -1    0    0    0  501  0.00000000000E+00  0.00000000000E+00  0.77343069056E+03  0.77343069058E+03  0.50400001928E-02 0. -1.
        1   -1    0    0  501    0  0.00000000000E+00  0.00000000000E+00 -0.17974444522E+04  0.17974444522E+04  0.50400001928E-02 0.  1.
    10030    2    1    2    0    0  0.00000000000E+00  0.00000000000E+00 -0.10240137616E+04  0.25708751428E+04  0.23581337570E+04 0.  0.
        5    1    3    3  502    0  0.17466471774E+03 -0.91231023797E+03  0.27970230078E+03  0.97008927475E+03  0.46999998093E+01 0. -1.
       -5    1    3    3    0  502 -0.17466471774E+03  0.91231023797E+03 -0.13037160624E+04  0.16007858680E+04  0.46999998093E+01 0.  1.
</event>
<event>
 5   0  0.4095451E-05  0.2298998E+04  0.7818609E-02  0.8478316E-01
       -1   -1    0    0    0  501  0.00000000000E+00  0.00000000000E+00  0.79172630978E+03  0.79172630980E+03  0.50400001928E-02 0. -1.
        1   -1    0    0  501    0  0.00000000000E+00  0.00000000000E+00 -0.16689455906E+04  0.16689455906E+04  0.50400001928E-02 0.  1.
    10030    2    1    2    0    0  0.00000000000E+00  0.00000000000E+00 -0.87721928085E+03  0.24606719004E+04  0.22989981590E+04 0.  0.
        3    1    3    3  502    0 -0.37503487404E+03  0.15105239803E+03  0.71311030724E+03  0.81975258718E+03  0.10100000352E+00 0. -1.
       -3    1    3    3    0  502  0.37503487404E+03 -0.15105239803E+03 -0.15903295881E+04  0.16409193133E+04  0.10100000352E+00 0.  1.
</event>
<event>
 5   0  0.9641157E-05  0.2401299E+04  0.7818609E-02  0.8439018E-01
       -2   -1    0    0    0  501  0.00000000000E+00  0.00000000000E+00  0.19830918455E+04  0.19830918455E+04  0.25500000920E-02 0.  1.
        2   -1    0    0  501    0  0.00000000000E+00  0.00000000000E+00 -0.72692479101E+03  0.72692479102E+03  0.25500000920E-02 0. -1.
    10030    2    1    2    0    0  0.00000000000E+00  0.00000000000E+00  0.12561670545E+04  0.27100166366E+04  0.24012985032E+04 0.  0.
        3    1    3    3  502    0 -0.14820502250E+03  0.44795319629E+03  0.18740762737E+04  0.19325601374E+04  0.10100000352E+00 0.  1.
       -3    1    3    3    0  502  0.14820502250E+03 -0.44795319629E+03 -0.61790921918E+03  0.77745649917E+03  0.10100000352E+00 0. -1.
</event>
<event>
 5   0  0.9641157E-05  0.2240922E+04  0.7818609E-02  0.8501586E-01
       -2   -1    0    0    0  501  0.00000000000E+00  0.00000000000E+00  0.64040740446E+03  0.64040740446E+03  0.25500000920E-02 0.  1.
        2   -1    0    0  501    0  0.00000000000E+00  0.00000000000E+00 -0.19603662703E+04  0.19603662703E+04  0.25500000920E-02 0. -1.
    10030    2    1    2    0    0  0.00000000000E+00  0.00000000000E+00 -0.13199588658E+04  0.26007736748E+04  0.22409221985E+04 0.  0.
        3    1    3    3  502    0 -0.19170424002E+03  0.22953928849E+03  0.59323096280E+03  0.66435064990E+03  0.10100000352E+00 0.  1.
       -3    1    3    3    0  502  0.19170424002E+03 -0.22953928849E+03 -0.19131898286E+04  0.19364230249E+04  0.10100000352E+00 0. -1.
</event>
<event>
 5   0  0.4139830E-05  0.2206147E+04  0.7818609E-02  0.8515874E-01
       -1   -1    0    0    0  501  0.00000000000E+00  0.00000000000E+00  0.84905684474E+03  0.84905684476E+03  0.50400001928E-02 0. -1.
        1   -1    0    0  501    0  0.00000000000E+00  0.00000000000E+00 -0.14330853801E+04  0.14330853801E+04  0.50400001928E-02 0.  1.
    10030    2    1    2    0    0  0.00000000000E+00  0.00000000000E+00 -0.58402853532E+03  0.22821422248E+04  0.22061468229E+04 0.  0.
        1    1    3    3  502    0 -0.86113570307E+03 -0.19086770709E+02  0.42081809083E+03  0.95864845982E+03  0.50400001928E-02 0. -1.
       -1    1    3    3    0  502  0.86113570307E+03  0.19086770709E+02 -0.10048466261E+04  0.13234937650E+04  0.50400001928E-02 0.  1.
</event>
<event>
 5   0  0.9313463E-05  0.2291908E+04  0.7818609E-02  0.8481118E-01
       -2   -1    0    0    0  501  0.00000000000E+00  0.00000000000E+00  0.11703182084E+04  0.11703182084E+04  0.25500000920E-02 0.  1.
        2   -1    0    0  501    0  0.00000000000E+00  0.00000000000E+00 -0.11220973453E+04  0.11220973453E+04  0.25500000920E-02 0. -1.
    10030    2    1    2    0    0  0.00000000000E+00  0.00000000000E+00  0.48220863093E+02  0.22924155538E+04  0.22919083358E+04 0.  0.
        1    1    3    3  502    0  0.44334970419E+03  0.34467754924E+03  0.10232556137E+04  0.11672247531E+04  0.50400001928E-02 0.  1.
       -1    1    3    3    0  502 -0.44334970419E+03 -0.34467754924E+03 -0.97503475060E+03  0.11251908007E+04  0.50400001928E-02 0. -1.
</event>
<event>
 5   0  0.3885219E-05  0.2287723E+04  0.7818609E-02  0.8482777E-01
       -1   -1    0    0    0  501  0.00000000000E+00  0.00000000000E+00  0.11593809414E+04  0.11593809414E+04  0.50400001928E-02 0. -1.
        1   -1    0    0  501    0  0.00000000000E+00  0.00000000000E+00 -0.11285499245E+04  0.11285499245E+04  0.50400001928E-02 0.  1.
    10030    2    1    2    0    0  0.00000000000E+00  0.00000000000E+00  0.30831016933E+02  0.22879308659E+04  0.22877231247E+04 0.  0.
        2    1    3    3  502    0 -0.14149571044E+02  0.71074895783E+03  0.91163023441E+03  0.11560423763E+04  0.25500000920E-02 0. -1.
       -2    1    3    3    0  502  0.14149571044E+02 -0.71074895783E+03 -0.88079921748E+03  0.11318884896E+04  0.25500000920E-02 0.  1.
</event>
<event>
 5   0  0.4139830E-05  0.2294147E+04  0.7818609E-02  0.8480233E-01
        1   -1    0    0  501    0  0.00000000000E+00  0.00000000000E+00  0.15934598222E+04  0.15934598222E+04  0.50400001928E-02 0.  1.
       -1   -1    0    0    0  501  0.00000000000E+00  0.00000000000E+00 -0.82573604503E+03  0.82573604505E+03  0.50400001928E-02 0. -1.
    10030    2    1    2    0    0  0.00000000000E+00  0.00000000000E+00  0.76772377720E+03  0.24191958673E+04  0.22941466488E+04 0.  0.
        1    1    3    3  502    0  0.22056468838E+03 -0.26528732795E+03  0.15374526440E+04  0.15756861302E+04  0.50400001928E-02 0.  1.
       -1    1    3    3    0  502 -0.22056468838E+03  0.26528732795E+03 -0.76972886684E+03  0.84350973711E+03  0.50400001928E-02 0. -1.
</event>
<event>
 5   0  0.3885219E-05  0.2295152E+04  0.7818609E-02  0.8479835E-01
        1   -1    0    0  501    0  0.00000000000E+00  0.00000000000E+00  0.13617679517E+04  0.13617679517E+04  0.50400001928E-02 0. -1.
       -1   -1    0    0    0  501  0.00000000000E+00  0.00000000000E+00 -0.96707430168E+03  0.96707430170E+03  0.50400001928E-02 0.  1.
    10030    2    1    2    0    0  0.00000000000E+00  0.00000000000E+00  0.39469365002E+03  0.23288422534E+04  0.22951521004E+04 0.  0.
        2    1    3    3  502    0  0.58851955954E+02 -0.75370891420E+02  0.13577182354E+04  0.13610816032E+04  0.25500000920E-02 0. -1.
       -2    1    3    3    0  502 -0.58851955954E+02  0.75370891420E+02 -0.96302458536E+03  0.96776065017E+03  0.25500000920E-02 0.  1.
</event>
<event>
 5   0  0.9313463E-05  0.2287797E+04  0.7818609E-02  0.8482748E-01
       -2   -1    0    0    0  501  0.00000000000E+00  0.00000000000E+00  0.11945009886E+04  0.11945009886E+04  0.25500000920E-02 0.  1.
        2   -1    0    0  501    0  0.00000000000E+00  0.00000000000E+00 -0.10954394601E+04  0.10954394601E+04  0.25500000920E-02 0. -1.
    10030    2    1    2    0    0  0.00000000000E+00  0.00000000000E+00  0.99061528443E+02  0.22899404487E+04  0.22877967725E+04 0.  0.
        1    1    3    3  502    0 -0.34988850506E+03  0.10196188908E+04 -0.33352727757E+03  0.11283993502E+04  0.50400001928E-02 0. -1.
       -1    1    3    3    0  502  0.34988850506E+03 -0.10196188908E+04  0.43258880601E+03  0.11615410986E+04  0.50400001928E-02 0.  1.
</event>
<event>
 5   0  0.4005462E-05  0.2316630E+04  0.7818609E-02  0.8471393E-01
       -1   -1    0    0    0  501  0.00000000000E+00  0.00000000000E+00  0.73709807809E+03  0.73709807811E+03  0.50400001928E-02 0. -1.
        1   -1    0    0  501    0  0.00000000000E+00  0.00000000000E+00 -0.18202368401E+04  0.18202368401E+04  0.50400001928E-02 0.  1.
    10030    2    1    2    0    0  0.00000000000E+00  0.00000000000E+00 -0.10831387620E+04  0.25573349182E+04  0.23166295142E+04 0.  0.
        4    1    3    3  502    0  0.71832415288E+03  0.70205516862E+03  0.95278931888E+02  0.10089354470E+04  0.12699999809E+01 0. -1.
       -4    1    3    3    0  502 -0.71832415288E+03 -0.70205516862E+03 -0.11784176939E+04  0.15483994713E+04  0.12699999809E+01 0.  1.
</event>
<event>
 5   0  0.3885219E-05  0.1863972E+04  0.7818609E-02  0.8673000E-01
       -1   -1    0    0    0  501  0.00000000000E+00  0.00000000000E+00  0.49630895590E+03  0.49630895592E+03  0.50400001928E-02 0. -1.
        1   -1    0    0  501    0  0.00000000000E+00  0.00000000000E+00 -0.17501159038E+04  0.17501159038E+04  0.50400001928E-02 0.  1.
    10030    2    1    2    0    0  0.00000000000E+00  0.00000000000E+00 -0.12538069479E+04  0.22464248597E+04  0.18639723141E+04 0.  0.
        2    1    3    3  502    0 -0.38748798092E+02  0.60166485575E+03 -0.14834273214E+04  0.16012678370E+04  0.25500000920E-02 0.  1.
       -2    1    3    3    0  502  0.38748798092E+02 -0.60166485575E+03  0.22962037351E+03  0.64515702270E+03  0.25500000920E-02 0. -1.
</event>
<event>
 5   0  0.9535394E-05  0.2312287E+04  0.7818609E-02  0.8473092E-01
        2   -1    0    0  501    0  0.00000000000E+00  0.00000000000E+00  0.21742686489E+04  0.21742686489E+04  0.25500000920E-02 0.  1.
       -2   -1    0    0    0  501  0.00000000000E+00  0.00000000000E+00 -0.61476643661E+03  0.61476643662E+03  0.25500000920E-02 0. -1.
    10030    2    1    2    0    0  0.00000000000E+00  0.00000000000E+00  0.15595022123E+04  0.27890350855E+04  0.23122866514E+04 0.  0.
        2    1    3    3  502    0 -0.63974410203E+03 -0.87558901250E+03  0.29616634680E+03  0.11241188282E+04  0.25500000920E-02 0. -1.
       -2    1    3    3    0  502  0.63974410203E+03  0.87558901250E+03  0.12633358655E+04  0.16649162573E+04  0.25500000920E-02 0.  1.
</event>
<event>
 5   0  0.4095451E-05  0.2309152E+04  0.7818609E-02  0.8474321E-01
        1   -1    0    0  501    0  0.00000000000E+00  0.00000000000E+00  0.21509538585E+04  0.21509538585E+04  0.50400001928E-02 0.  1.
       -1   -1    0    0    0  501  0.00000000000E+00  0.00000000000E+00 -0.61974650641E+03  0.61974650643E+03  0.50400001928E-02 0. -1.
    10030    2    1    2    0    0  0.00000000000E+00  0.00000000000E+00  0.15312073521E+04  0.27707003649E+04  0.23091523460E+04 0.  0.
        3    1    3    3  502    0  0.53887221921E+03  0.65532979749E+03  0.17051973262E+04  0.19046097615E+04  0.10100000352E+00 0.  1.
       -3    1    3    3    0  502 -0.53887221921E+03 -0.65532979749E+03 -0.17398997410E+03  0.86609060346E+03  0.10100000352E+00 0. -1.
</event>
<event>
 5   0  0.9483073E-05  0.2285801E+04  0.7818609E-02  0.8483541E-01
       -2   -1    0    0    0  501  0.00000000000E+00  0.00000000000E+00  0.10602597170E+04  0.10602597170E+04  0.25500000920E-02 0.  1.
        2   -1    0    0  501    0  0.00000000000E+00  0.00000000000E+00 -0.12319826046E+04  0.12319826046E+04  0.25500000920E-02 0. -1.
    10030    2    1    2    0    0  0.00000000000E+00  0.00000000000E+00 -0.17172288760E+03  0.22922423216E+04  0.22858009780E+04 0.  0.
        5    1    3    3  502    0 -0.54629400072E+03 -0.98123149874E+03 -0.29846606555E+03  0.11620483947E+04  0.46999998093E+01 0. -1.
       -5    1    3    3    0  502  0.54629400072E+03  0.98123149874E+03  0.12674317795E+03  0.11301939269E+04  0.46999998093E+01 0.  1.
</event>
<event>
 5   0  0.4095451E-05  0.2320064E+04  0.7818609E-02  0.8470052E-01
        1   -1    0    0  501    0  0.00000000000E+00  0.00000000000E+00  0.69807678428E+03  0.69807678429E+03  0.50400001928E-02 0. -1.
       -1   -1    0    0    0  501  0.00000000000E+00  0.00000000000E+00 -0.19276883895E+04  0.19276883895E+04  0.50400001928E-02 0.  1.
    10030    2    1    2    0    0  0.00000000000E+00  0.00000000000E+00 -0.12296116052E+04  0.26257651738E+04  0.23200642337E+04 0.  0.
        3    1    3    3  502    0 -0.75811987183E+02 -0.14367806434E+03  0.68513916274E+03  0.70413530382E+03  0.10100000352E+00 0. -1.
       -3    1    3    3    0  502  0.75811987183E+02  0.14367806434E+03 -0.19147507680E+04  0.19216298700E+04  0.10100000352E+00 0.  1.
</event>
<event>
 5   0  0.9535394E-05  0.2299830E+04  0.7818609E-02  0.8477988E-01
        2   -1    0    0  501    0  0.00000000000E+00  0.00000000000E+00  0.12691074026E+04  0.12691074026E+04  0.25500000920E-02 0.  1.
       -2   -1    0    0    0  501  0.00000000000E+00  0.00000000000E+00 -0.10419170583E+04  0.10419170583E+04  0.25500000920E-02 0. -1.
    10030    2    1    2    0    0  0.00000000000E+00  0.00000000000E+00  0.22719034436E+03  0.23110244609E+04  0.22998301255E+04 0.  0.
        2    1    3    3  502    0 -0.64799680210E+03  0.60033179067E+03 -0.62619923893E+03  0.10827851132E+04  0.25500000920E-02 0. -1.
       -2    1    3    3    0  502  0.64799680210E+03 -0.60033179067E+03  0.85338958329E+03  0.12282393477E+04  0.25500000920E-02 0.  1.
</event>
<event>
 5   0  0.9535394E-05  0.2283934E+04  0.7818609E-02  0.8484283E-01
       -2   -1    0    0    0  501  0.00000000000E+00  0.00000000000E+00  0.60302694188E+03  0.60302694188E+03  0.25500000920E-02 0.  1.
        2   -1    0    0  501    0  0.00000000000E+00  0.00000000000E+00 -0.21625720044E+04  0.21625720044E+04  0.25500000920E-02 0. -1.
    10030    2    1    2    0    0  0.00000000000E+00  0.00000000000E+00 -0.15595450625E+04  0.27655989463E+04  0.22839344845E+04 0.  0.
        2    1    3    3  502    0  0.19190849207E+03  0.23450517202E+03 -0.21130017252E+04  0.21346188970E+04  0.25500000920E-02 0. -1.
       -2    1    3    3    0  502 -0.19190849207E+03 -0.23450517202E+03  0.55345666268E+03  0.63098004921E+03  0.25500000920E-02 0.  1.
</event>
<event>
 5   0  0.4139830E-05  0.2183916E+04  0.7818609E-02  0.8525153E-01
       -1   -1    0    0    0  501  0.00000000000E+00  0.00000000000E+00  0.67757973259E+03  0.67757973261E+03  0.50400001928E-02 0. -1.
        1   -1    0    0  501    0  0.00000000000E+00  0.00000000000E+00 -0.17597521136E+04  0.17597521136E+04  0.50400001928E-02 0.  1.
    10030    2    1    2    0    0  0.00000000000E+00  0.00000000000E+00 -0.10821723810E+04  0.24373318462E+04  0.21839160850E+04 0.  0.
        1    1    3    3  502    0 -0.76750227209E+03 -0.16762812395E+03  0.30534806061E+03  0.84285014312E+03  0.50400001928E-02 0. -1.
       -1    1    3    3    0  502  0.76750227209E+03  0.16762812395E+03 -0.13875204416E+04  0.15944817031E+04  0.50400001928E-02 0.  1.
</event>
<event>
 5   0  0.9641157E-05  0.2312595E+04  0.7818609E-02  0.8472972E-01
       -2   -1    0    0    0  501  0.00000000000E+00  0.00000000000E+00  0.67414374118E+03  0.67414374119E+03  0.25500000920E-02 0.  1.
        2   -1    0    0  501    0  0.00000000000E+00  0.00000000000E+00 -0.19832915777E+04  0.19832915777E+04  0.25500000920E-02 0. -1.
    10030    2    1    2    0    0  0.00000000000E+00  0.00000000000E+00 -0.13091478365E+04  0.26574353189E+04  0.23125947367E+04 0.  0.
        3    1    3    3  502    0  0.32913016786E+03 -0.70385763131E+03  0.32943377283E+03  0.84396022029E+03  0.10100000352E+00 0.  1.
       -3    1    3    3    0  502 -0.32913016786E+03  0.70385763131E+03 -0.16385816093E+04  0.18134750986E+04  0.10100000352E+00 0. -1.
</event>
<event>
 5   0  0.9535394E-05  0.2346257E+04  0.7818609E-02  0.8459903E-01
       -2   -1    0    0    0  501  0.00000000000E+00  0.00000000000E+00  0.12169091688E+04  0.12169091688E+04  0.25500000920E-02 0.  1.
        2   -1    0    0  501    0  0.00000000000E+00  0.00000000000E+00 -0.11309233364E+04  0.11309233364E+04  0.25500000920E-02 0. -1.
    10030    2    1    2    0    0  0.00000000000E+00  0.00000000000E+00  0.85985832446E+02  0.23478325052E+04  0.23462574260E+04 0.  0.
        2    1    3    3  502    0 -0.84077629012E+03 -0.79930929340E+03  0.21755445810E+03  0.11803093064E+04  0.25500000920E-02 0.  1.
       -2    1    3    3    0  502  0.84077629012E+03  0.79930929340E+03 -0.13156862566E+03  0.11675231988E+04  0.25500000920E-02 0. -1.
</event>
<event>
 5   0  0.4095451E-05  0.2310674E+04  0.7818609E-02  0.8473724E-01
       -1   -1    0    0    0  501  0.00000000000E+00  0.00000000000E+00  0.76432236711E+03  0.76432236713E+03  0.50400001928E-02 0.  1.
        1   -1    0    0  501    0  0.00000000000E+00  0.00000000000E+00 -0.17463878967E+04  0.17463878967E+04  0.50400001928E-02 0. -1.
    10030    2    1    2    0    0  0.00000000000E+00  0.00000000000E+00 -0.98206552960E+03  0.25107102639E+04  0.23106737815E+04 0.  0.
        3    1    3    3  502    0  0.58411380382E+03  0.47521363102E+03 -0.14431231209E+04  0.16277657335E+04  0.10100000352E+00 0. -1.
       -3    1    3    3    0  502 -0.58411380382E+03 -0.47521363102E+03  0.46105759132E+03  0.88294453032E+03  0.10100000352E+00 0.  1.
</event>
<event>
 5   0  0.4095451E-05  0.2133660E+04  0.7818609E-02  0.8546559E-01
        1   -1    0    0  501    0  0.00000000000E+00  0.00000000000E+00  0.11085697287E+04  0.11085697287E+04  0.50400001928E-02 0. -1.
       -1   -1    0    0    0  501  0.00000000000E+00  0.00000000000E+00 -0.10266617100E+04  0.10266617100E+04  0.50400001928E-02 0.  1.
    10030    2    1    2    0    0  0.00000000000E+00  0.00000000000E+00  0.81908018741E+02  0.21352314387E+04  0.21336598542E+04 0.  0.
        3    1    3    3  502    0  0.46376482194E+03 -0.18348564371E+03  0.98471878561E+03  0.11038187752E+04  0.10100000352E+00 0. -1.
       -3    1    3    3    0  502 -0.46376482194E+03  0.18348564371E+03 -0.90281076686E+03  0.10314126635E+04  0.10100000352E+00 0.  1.
</event>
<event>
 5   0  0.4005462E-05  0.1853668E+04  0.7818609E-02  0.8678269E-01
       -1   -1    0    0    0  501  0.00000000000E+00  0.00000000000E+00  0.80276114720E+03  0.80276114722E+03  0.50400001928E-02 0.  1.
        1   -1    0    0  501    0  0.00000000000E+00  0.00000000000E+00 -0.10700835994E+04  0.10700835994E+04  0.50400001928E-02 0. -1.
    10030    2    1    2    0    0  0.00000000000E+00  0.00000000000E+00 -0.26732245222E+03  0.18728447466E+04  0.18536682960E+04 0.  0.
        4    1    3    3  502    0  0.82928401072E+03 -0.31246211406E+03 -0.40790132238E+03  0.97556632007E+03  0.12699999809E+01 0.  1.
       -4    1    3    3    0  502 -0.82928401072E+03  0.31246211406E+03  0.14057887016E+03  0.89727842657E+03  0.12699999809E+01 0. -1.
</event>
<event>
 5   0  0.9641157E-05  0.2291995E+04  0.7818609E-02  0.8481084E-01
       -2   -1    0    0    0  501  0.00000000000E+00  0.00000000000E+00  0.11295985089E+04  0.11295985089E+04  0.25500000920E-02 0.  1.
        2   -1    0    0  501    0  0.00000000000E+00  0.00000000000E+00 -0.11626341105E+04  0.11626341105E+04  0.25500000920E-02 0. -1.
    10030    2    1    2    0    0  0.00000000000E+00  0.00000000000E+00 -0.33035601658E+02  0.22922326194E+04  0.22919945529E+04 0.  0.
        3    1    3    3  502    0  0.49659613003E+02 -0.11445962333E+04 -0.43781097152E+02  0.11465092277E+04  0.10100000352E+00 0. -1.
       -3    1    3    3    0  502 -0.49659613003E+02  0.11445962333E+04  0.10745495495E+02  0.11457233917E+04  0.10100000352E+00 0.  1.
</event>
<event>
 5   0  0.9535394E-05  0.2090754E+04  0.7818609E-02  0.8565327E-01
        2   -1    0    0  501    0  0.00000000000E+00  0.00000000000E+00  0.18259871148E+04  0.18259871148E+04  0.25500000920E-02 0. -1.
       -2   -1    0    0    0  501  0.00000000000E+00  0.00000000000E+00 -0.59847782009E+03  0.59847782009E+03  0.25500000920E-02 0.  1.
    10030    2    1    2    0    0  0.00000000000E+00  0.00000000000E+00  0.12275092948E+04  0.24244649349E+04  0.20907537282E+04 0.  0.
        2    1    3    3  502    0 -0.64040219201E+03 -0.70532569266E+03  0.11128107060E+04  0.14649051054E+04  0.25500000920E-02 0. -1.
       -2    1    3    3    0  502  0.64040219201E+03  0.70532569266E+03  0.11469858872E+03  0.95955982957E+03  0.25500000920E-02 0.  1.
</event>
<event>
 5   0  0.9312074E-05  0.2222125E+04  0.7818609E-02  0.8509275E-01
        2   -1    0    0  501    0  0.00000000000E+00  0.00000000000E+00  0.22288586742E+04  0.22288586742E+04  0.25500000920E-02 0.  1.
       -2   -1    0    0    0  501  0.00000000000E+00  0.00000000000E+00 -0.55385304104E+03  0.55385304104E+03  0.25500000920E-02 0. -1.
    10030    2    1    2    0    0  0.00000000000E+00  0.00000000000E+00  0.16750056331E+04  0.27827117152E+04  0.22221252483E+04 0.  0.
        4    1    3    3  502    0  0.67179378127E+03 -0.54205494611E+03  0.17134940446E+04  0.19186437666E+04  0.12699999809E+01 0.  1.
       -4    1    3    3    0  502 -0.67179378127E+03  0.54205494611E+03 -0.38488411483E+02  0.86406794865E+03  0.12699999809E+01 0. -1.
</event>
<event>
 5   0  0.3885219E-05  0.2247068E+04  0.7818609E-02  0.8499089E-01
        1   -1    0    0  501    0  0.00000000000E+00  0.00000000000E+00  0.13408275825E+04  0.13408275825E+04  0.50400001928E-02 0.  1.
       -1   -1    0    0    0  501  0.00000000000E+00  0.00000000000E+00 -0.94145475316E+03  0.94145475317E+03  0.50400001928E-02 0. -1.
    10030    2    1    2    0    0  0.00000000000E+00  0.00000000000E+00  0.39937282938E+03  0.22822823357E+04  0.22470678679E+04 0.  0.
        2    1    3    3  502    0  0.78266784032E+03  0.60459553522E+03 -0.34179479877E+03  0.10463882616E+04  0.25500000920E-02 0. -1.
       -2    1    3    3    0  502 -0.78266784032E+03 -0.60459553522E+03  0.74116762815E+03  0.12358940741E+04  0.25500000920E-02 0.  1.
</event>
<event>
 5   0  0.3261500E-05  0.2306176E+04  0.7818609E-02  0.8475490E-01
        3   -1    0    0  501    0  0.00000000000E+00  0.00000000000E+00  0.11553104958E+04  0.11553105002E+04  0.10100000352E+00 0.  1.
       -3   -1    0    0    0  501  0.00000000000E+00  0.00000000000E+00 -0.11508695454E+04  0.11508695498E+04  0.10100000352E+00 0. -1.
    10030    2    1    2    0    0  0.00000000000E+00  0.00000000000E+00  0.44409503464E+01  0.23061800500E+04  0.23061757741E+04 0.  0.
        3    1    3    3  502    0  0.18919164139E+03  0.86504096066E+03  0.74081667553E+03  0.11545123203E+04  0.10100000352E+00 0.  1.
       -3    1    3    3    0  502 -0.18919164139E+03 -0.86504096066E+03 -0.73637572518E+03  0.11516677297E+04  0.10100000352E+00 0. -1.
</event>
<event>
 5   0  0.9641157E-05  0.1793354E+04  0.7818609E-02  0.8709842E-01
       -2   -1    0    0    0  501  0.00000000000E+00  0.00000000000E+00  0.60172767095E+03  0.60172767096E+03  0.25500000920E-02 0.  1.
        2   -1    0    0  501    0  0.00000000000E+00  0.00000000000E+00 -0.13362022499E+04  0.13362022499E+04  0.25500000920E-02 0. -1.
    10030    2    1    2    0    0  0.00000000000E+00  0.00000000000E+00 -0.73447457897E+03  0.19379299209E+04  0.17933542514E+04 0.  0.
        3    1    3    3  502    0 -0.56106399785E+03 -0.69892374105E+03 -0.39668589142E+03  0.98012596749E+03  0.10100000352E+00 0. -1.
       -3    1    3    3    0  502  0.56106399785E+03  0.69892374105E+03 -0.33778868754E+03  0.95780395339E+03  0.10100000352E+00 0.  1.
</event>
<event>
 5   0  0.9535394E-05  0.2205272E+04  0.7818609E-02  0.8516237E-01
       -2   -1    0    0    0  501  0.00000000000E+00  0.00000000000E+00  0.73862080780E+03  0.73862080780E+03  0.25500000920E-02 0.  1.
        2   -1    0    0  501    0  0.00000000000E+00  0.00000000000E+00 -0.16460494096E+04  0.16460494096E+04  0.25500000920E-02 0. -1.
    10030    2    1    2    0    0  0.00000000000E+00  0.00000000000E+00 -0.90742860183E+03  0.23846702174E+04  0.22052721779E+04 0.  0.
        2    1    3    3  502    0 -0.54324723461E+03 -0.41502099111E+03 -0.13892200715E+04  0.15483192138E+04  0.25500000920E-02 0. -1.
       -2    1    3    3    0  502  0.54324723461E+03  0.41502099111E+03  0.48179146964E+03  0.83635100359E+03  0.25500000920E-02 0.  1.
</event>
<event>
 5   0  0.4139830E-05  0.2262908E+04  0.7818609E-02  0.8492691E-01
        1   -1    0    0  501    0  0.00000000000E+00  0.00000000000E+00  0.10058883796E+04  0.10058883796E+04  0.50400001928E-02 0.  1.
       -1   -1    0    0    0  501  0.00000000000E+00  0.00000000000E+00 -0.12726945408E+04  0.12726945408E+04  0.50400001928E-02 0. -1.
    10030    2    1    2    0    0  0.00000000000E+00  0.00000000000E+00 -0.26680616119E+03  0.22785829204E+04  0.22629084377E+04 0.  0.
        1    1    3    3  502    0 -0.97498537303E+02  0.38575709703E+03 -0.11999253445E+04  0.12641737756E+04  0.50400001928E-02 0. -1.
       -1    1    3    3    0  502  0.97498537303E+02 -0.38575709703E+03  0.93311918329E+03  0.10144091447E+04  0.50400001928E-02 0.  1.
</event>
<event>
 5   0  0.4095451E-05  0.2260121E+04  0.7818609E-02  0.8493813E-01
        1   -1    0    0  501    0  0.00000000000E+00  0.00000000000E+00  0.12761366131E+04  0.12761366131E+04  0.50400001928E-02 0.  1.
       -1   -1    0    0    0  501  0.00000000000E+00  0.00000000000E+00 -0.10007055155E+04  0.10007055155E+04  0.50400001928E-02 0. -1.
    10030    2    1    2    0    0  0.00000000000E+00  0.00000000000E+00  0.27543109767E+03  0.22768421286E+04  0.22601211890E+04 0.  0.
        3    1    3    3  502    0  0.69881996750E+03  0.58673578157E+03  0.80930249538E+03  0.12196633813E+04  0.10100000352E+00 0.  1.
       -3    1    3    3    0  502 -0.69881996750E+03 -0.58673578157E+03 -0.53387139771E+03  0.10571787473E+04  0.10100000352E+00 0. -1.
</event>
<event>
 5   0  0.4005462E-05  0.2254287E+04  0.7818609E-02  0.8496166E-01
       -1   -1    0    0    0  501  0.00000000000E+00  0.00000000000E+00  0.77261260438E+03  0.77261260440E+03  0.50400001928E-02 0.  1.
        1   -1    0    0  501    0  0.00000000000E+00  0.00000000000E+00 -0.16443591211E+04  0.16443591211E+04  0.50400001928E-02 0. -1.
    10030    2    1    2    0    0  0.00000000000E+00  0.00000000000E+00 -0.87174651672E+03  0.24169717255E+04  0.22542871007E+04 0.  0.
        4    1    3    3  502    0  0.66977853263E+03 -0.48419655968E+03 -0.12576045492E+04  0.15048655775E+04  0.12699999809E+01 0. -1.
       -4    1    3    3    0  502 -0.66977853263E+03  0.48419655968E+03  0.38585803248E+03  0.91210614805E+03  0.12699999809E+01 0.  1.
</event>
<event>
 5   0  0.4139830E-05  0.2315948E+04  0.7818609E-02  0.8471659E-01
        1   -1    0    0  501    0  0.00000000000E+00  0.00000000000E+00  0.13327257951E+04  0.13327257951E+04  0.50400001928E-02 0. -1.
       -1   -1    0    0    0  501  0.00000000000E+00  0.00000000000E+00 -0.10061362447E+04  0.10061362447E+04  0.50400001928E-02 0.  1.
    10030    2    1    2    0    0  0.00000000000E+00  0.00000000000E+00  0.32658955042E+03  0.23388620399E+04  0.23159479500E+04 0.  0.
        1    1    3    3  502    0  0.86017590930E+02 -0.53963351576E+03 -0.86773749049E+03  0.10254617056E+04  0.50400001928E-02 0.  1.
       -1    1    3    3    0  502 -0.86017590930E+02  0.53963351576E+03  0.11943270409E+04  0.13134003342E+04  0.50400001928E-02 0. -1.
</event>
<event>
 5   0  0.9641157E-05  0.2296143E+04  0.7818609E-02  0.8479444E-01
        2   -1    0    0  501    0  0.00000000000E+00  0.00000000000E+00  0.13244036338E+04  0.13244036338E+04  0.25500000920E-02 0.  1.
       -2   -1    0    0    0  501  0.00000000000E+00  0.00000000000E+00 -0.99521597017E+03  0.99521597017E+03  0.25500000920E-02 0. -1.
    10030    2    1    2    0    0  0.00000000000E+00  0.00000000000E+00  0.32918766368E+03  0.23196196040E+04  0.22961425455E+04 0.  0.
        3    1    3    3  502    0 -0.91390190284E+03 -0.30747177430E+03 -0.46492447260E+03  0.10704720246E+04  0.10100000352E+00 0. -1.
       -3    1    3    3    0  502  0.91390190284E+03  0.30747177430E+03  0.79411213628E+03  0.12491475794E+04  0.10100000352E+00 0.  1.
</event>
<event>
 5   0  0.3885219E-05  0.2276686E+04  0.7818609E-02  0.8487171E-01
        1   -1    0    0  501    0  0.00000000000E+00  0.00000000000E+00  0.83500281622E+03  0.83500281623E+03  0.50400001928E-02 0.  1.
       -1   -1    0    0    0  501  0.00000000000E+00  0.00000000000E+00 -0.15518802943E+04  0.15518802943E+04  0.50400001928E-02 0. -1.
    10030    2    1    2    0    0  0.00000000000E+00  0.00000000000E+00 -0.71687747805E+03  0.23868831105E+04  0.22766856754E+04 0.  0.
        2    1    3    3  502    0 -0.35179732467E+03 -0.10699288439E+04 -0.18516558442E+03  0.11414006231E+04  0.25500000920E-02 0.  1.
       -2    1    3    3    0  502  0.35179732467E+03  0.10699288439E+04 -0.53171189363E+03  0.12454824874E+04  0.25500000920E-02 0. -1.
</event>
<event>
 5   0  0.9313463E-05  0.2609750E+04  0.7818609E-02  0.8364897E-01
       -2   -1    0    0    0  501  0.00000000000E+00  0.00000000000E+00  0.12571254601E+04  0.12571254601E+04  0.25500000920E-02 0.  1.
        2   -1    0    0  501    0  0.00000000000E+00  0.00000000000E+00 -0.13544381011E+04  0.13544381011E+04  0.25500000920E-02 0. -1.
    10030    2    1    2    0    0  0.00000000000E+00  0.00000000000E+00 -0.97312641023E+02  0.26115635613E+04  0.26097498893E+04 0.  0.
        1    1    3    3  502    0  0.20326973916E+03  0.12457434964E+03 -0.13324591388E+04  0.13536191163E+04  0.50400001928E-02 0. -1.
       -1    1    3    3    0  502 -0.20326973916E+03 -0.12457434964E+03  0.12351464978E+04  0.12579444449E+04  0.50400001928E-02 0.  1.
</event>
<event>
 5   0  0.3885219E-05  0.2289268E+04  0.7818609E-02  0.8482165E-01
        1   -1    0    0  501    0  0.00000000000E+00  0.00000000000E+00  0.13324830476E+04  0.13324830476E+04  0.50400001928E-02 0.  1.
       -1   -1    0    0    0  501  0.00000000000E+00  0.00000000000E+00 -0.98326732978E+03  0.98326732979E+03  0.50400001928E-02 0. -1.
    10030    2    1    2    0    0  0.00000000000E+00  0.00000000000E+00  0.34921571778E+03  0.23157503774E+04  0.22892680474E+04 0.  0.
        2    1    3    3  502    0 -0.74844508469E+03 -0.58034492577E+03 -0.47564768933E+03  0.10598164945E+04  0.25500000920E-02 0. -1.
       -2    1    3    3    0  502  0.74844508469E+03  0.58034492577E+03  0.82486340711E+03  0.12559338828E+04  0.25500000920E-02 0.  1.
</event>
<event>
 5   0  0.4095451E-05  0.2345365E+04  0.7818609E-02  0.8460246E-01
       -1   -1    0    0    0  501  0.00000000000E+00  0.00000000000E+00  0.10540699438E+04  0.10540699438E+04  0.50400001928E-02 0.  1.
        1   -1    0    0  501    0  0.00000000000E+00  0.00000000000E+00 -0.13046419897E+04  0.13046419897E+04  0.50400001928E-02 0. -1.
    10030    2    1    2    0    0  0.00000000000E+00  0.00000000000E+00 -0.25057204592E+03  0.23587119335E+04  0.23453647125E+04 0.  0.
        3    1    3    3  502    0 -0.94251992287E+03 -0.67005743408E+03 -0.32097788491E+03  0.12001448174E+04  0.10100000352E+00 0.  1.
       -3    1    3    3    0  502  0.94251992287E+03  0.67005743408E+03  0.70405838994E+02  0.11585671160E+04  0.10100000352E+00 0. -1.
</event>
<event>
 5   0  0.9313463E-05  0.2288434E+04  0.7818609E-02  0.8482495E-01
       -2   -1    0    0    0  501  0.00000000000E+00  0.00000000000E+00  0.12287107279E+04  0.12287107279E+04  0.25500000920E-02 0.  1.
        2   -1    0    0  501    0  0.00000000000E+00  0.00000000000E+00 -0.10655334012E+04  0.10655334012E+04  0.25500000920E-02 0. -1.
    10030    2    1    2    0    0  0.00000000000E+00  0.00000000000E+00  0.16317732669E+03  0.22942441290E+04  0.22884338058E+04 0.  0.
        1    1    3    3  502    0 -0.39508560779E+03  0.60250726580E+03 -0.80955779916E+03  0.10837395780E+04  0.50400001928E-02 0. -1.
       -1    1    3    3    0  502  0.39508560779E+03 -0.60250726580E+03  0.97273512585E+03  0.12105045510E+04  0.50400001928E-02 0.  1.
</event>
<event>
 5   0  0.4005462E-05  0.2016069E+04  0.7818609E-02  0.8599145E-01
        1   -1    0    0  501    0  0.00000000000E+00  0.00000000000E+00  0.13302658847E+04  0.13302658847E+04  0.50400001928E-02 0. -1.
       -1   -1    0    0    0  501  0.00000000000E+00  0.00000000000E+00 -0.76385750196E+03  0.76385750197E+03  0.50400001928E-02 0.  1.
    10030    2    1    2    0    0  0.00000000000E+00  0.00000000000E+00  0.56640838275E+03  0.20941233867E+04  0.20160690223E+04 0.  0.
        4    1    3    3  502    0  0.17034314825E+02  0.59943731276E+03  0.11248313866E+04  0.12747009535E+04  0.12699999809E+01 0. -1.
       -4    1    3    3    0  502 -0.17034314825E+02 -0.59943731276E+03 -0.55842300384E+03  0.81942243314E+03  0.12699999809E+01 0.  1.
</event>
<event>
 5   0  0.9535394E-05  0.2273490E+04  0.7818609E-02  0.8488447E-01
       -2   -1    0    0    0  501  0.00000000000E+00  0.00000000000E+00  0.14121742079E+04  0.14121742079E+04  0.25500000920E-02 0. -1.
        2   -1    0    0  501    0  0.00000000000E+00  0.00000000000E+00 -0.91503565910E+03  0.91503565911E+03  0.25500000920E-02 0.  1.
    10030    2    1    2    0    0  0.00000000000E+00  0.00000000000E+00  0.49713854879E+03  0.23272098670E+04  0.22734904945E+04 0.  0.
        2    1    3    3  502    0 -0.43013218733E+03  0.51847313821E+03 -0.68868647285E+03  0.96338837004E+03  0.25500000920E-02 0.  1.
       -2    1    3    3    0  502  0.43013218733E+03 -0.51847313821E+03  0.11858250216E+04  0.13638214970E+04  0.25500000920E-02 0. -1.
</event>
<event>
 5   0  0.4295775E-05  0.2356533E+04  0.7818609E-02  0.8455958E-01
        1   -1    0    0  501    0  0.00000000000E+00  0.00000000000E+00  0.84099198757E+03  0.84099198758E+03  0.50400001928E-02 0. -1.
       -1   -1    0    0    0  501  0.00000000000E+00  0.00000000000E+00 -0.16508031597E+04  0.16508031597E+04  0.50400001928E-02 0.  1.
    10030    2    1    2    0    0  0.00000000000E+00  0.00000000000E+00 -0.80981117209E+03  0.24917951472E+04  0.23565332422E+04 0.  0.
        5    1    3    3  502    0  0.33018062127E+03  0.60837335544E+03  0.60331879530E+03  0.91823365274E+03  0.46999998093E+01 0. -1.
       -5    1    3    3    0  502 -0.33018062127E+03 -0.60837335544E+03 -0.14131299674E+04  0.15735614945E+04  0.46999998093E+01 0.  1.
</event>
<event>
 5   0  0.9641157E-05  0.2251850E+04  0.7818609E-02  0.8497152E-01
        2   -1    0    0  501    0  0.00000000000E+00  0.00000000000E+00  0.72940899101E+03  0.72940899102E+03  0.25500000920E-02 0. -1.
       -2   -1    0    0    0  501  0.00000000000E+00  0.00000000000E+00 -0.17379920813E+04  0.17379920813E+04  0.25500000920E-02 0.  1.
    10030    2    1    2    0    0  0.00000000000E+00  0.00000000000E+00 -0.10085830903E+04  0.24674010724E+04  0.22518499510E+04 0.  0.
        3    1    3    3  502    0  0.45010217379E+02  0.31328825625E+03  0.67966188616E+03  0.74974378349E+03  0.10100000352E+00 0. -1.
       -3    1    3    3    0  502 -0.45010217379E+02 -0.31328825625E+03 -0.16882449765E+04  0.17176572889E+04  0.10100000352E+00 0.  1.
</event>
<event>
 5   0  0.3885219E-05  0.2287216E+04  0.7818609E-02  0.8482979E-01
       -1   -1    0    0    0  501  0.00000000000E+00  0.00000000000E+00  0.10896768057E+04  0.10896768057E+04  0.50400001928E-02 0.  1.
        1   -1    0    0  501    0  0.00000000000E+00  0.00000000000E+00 -0.12002084084E+04  0.12002084084E+04  0.50400001928E-02 0. -1.
    10030    2    1    2    0    0  0.00000000000E+00  0.00000000000E+00 -0.11053160276E+03  0.22898852141E+04  0.22872160061E+04 0.  0.
        2    1    3    3  502    0  0.36274136732E+03  0.10845020280E+04 -0.44608360137E+02  0.11444281778E+04  0.25500000920E-02 0. -1.
       -2    1    3    3    0  502 -0.36274136732E+03 -0.10845020280E+04 -0.65923242627E+02  0.11454570364E+04  0.25500000920E-02 0.  1.
</event>
<event>
 5   0  0.9535394E-05  0.2311922E+04  0.7818609E-02  0.8473235E-01
        2   -1    0    0  501    0  0.00000000000E+00  0.00000000000E+00  0.20369394273E+04  0.20369394273E+04  0.25500000920E-02 0. -1.
       -2   -1    0    0    0  501  0.00000000000E+00  0.00000000000E+00 -0.65600641338E+03  0.65600641339E+03  0.25500000920E-02 0.  1.
    10030    2    1    2    0    0  0.00000000000E+00  0.00000000000E+00  0.13809330139E+04  0.26929458407E+04  0.23119215627E+04 0.  0.
        2    1    3    3  502    0  0.16279759347E+02 -0.10916414639E+03 -0.64985482059E+03  0.65916092821E+03  0.25500000920E-02 0.  1.
       -2    1    3    3    0  502 -0.16279759347E+02  0.10916414639E+03  0.20307878345E+04  0.20337849125E+04  0.25500000920E-02 0. -1.
</event>
<event>
 5   0  0.9313463E-05  0.2198539E+04  0.7818609E-02  0.8519036E-01
        2   -1    0    0  501    0  0.00000000000E+00  0.00000000000E+00  0.10558345181E+04  0.10558345181E+04  0.25500000920E-02 0. -1.
       -2   -1    0    0    0  501  0.00000000000E+00  0.00000000000E+00 -0.11444915234E+04  0.11444915234E+04  0.25500000920E-02 0.  1.
    10030    2    1    2    0    0  0.00000000000E+00  0.00000000000E+00 -0.88657005304E+02  0.22003260415E+04  0.21985392023E+04 0.  0.
        1    1    3    3  502    0 -0.10020293557E+04 -0.31471623968E+03  0.28041096529E+03  0.10870784014E+04  0.50400001928E-02 0.  1.
       -1    1    3    3    0  502  0.10020293557E+04  0.31471623968E+03 -0.36906797059E+03  0.11132476401E+04  0.50400001928E-02 0. -1.
</event>
<event>
 5   0  0.4095451E-05  0.2284959E+04  0.7818609E-02  0.8483875E-01
       -1   -1    0    0    0  501  0.00000000000E+00  0.00000000000E+00  0.11497007200E+04  0.11497007200E+04  0.50400001928E-02 0. -1.
        1   -1    0    0  501    0  0.00000000000E+00  0.00000000000E+00 -0.11353036292E+04  0.11353036292E+04  0.50400001928E-02 0.  1.
    10030    2    1    2    0    0  0.00000000000E+00  0.00000000000E+00  0.14397090809E+02  0.22850043491E+04  0.22849589929E+04 0.  0.
        3    1    3    3  502    0 -0.71271220612E+02  0.35050853228E+03 -0.10778684164E+04  0.11356655103E+04  0.10100000352E+00 0.  1.
       -3    1    3    3    0  502  0.71271220612E+02 -0.35050853228E+03  0.10922655072E+04  0.11493388388E+04  0.10100000352E+00 0. -1.
</event>
<event>
 5   0  0.4005462E-05  0.2365106E+04  0.7818609E-02  0.8452684E-01
        1   -1    0    0  501    0  0.00000000000E+00  0.00000000000E+00  0.12116736517E+04  0.12116736517E+04  0.50400001928E-02 0.  1.
       -1   -1    0    0    0  501  0.00000000000E+00  0.00000000000E+00 -0.11541322729E+04  0.11541322729E+04  0.50400001928E-02 0. -1.
    10030    2    1    2    0    0  0.00000000000E+00  0.00000000000E+00  0.57541378883E+02  0.23658059246E+04  0.23651060574E+04 0.  0.
        4    1    3    3  502    0 -0.93782908891E+03  0.66559232949E+03 -0.24679858710E+03  0.11762005376E+04  0.12699999809E+01 0. -1.
       -4    1    3    3    0  502  0.93782908891E+03 -0.66559232949E+03  0.30433996598E+03  0.11896053870E+04  0.12699999809E+01 0.  1.
</event>
<event>
 5   0  0.9535394E-05  0.2303652E+04  0.7818609E-02  0.8476483E-01
       -2   -1    0    0    0  501  0.00000000000E+00  0.00000000000E+00  0.10509049420E+04  0.10509049420E+04  0.25500000920E-02 0.  1.
        2   -1    0    0  501    0  0.00000000000E+00  0.00000000000E+00 -0.12624385993E+04  0.12624385993E+04  0.25500000920E-02 0. -1.
    10030    2    1    2    0    0  0.00000000000E+00  0.00000000000E+00 -0.21153365733E+03  0.23133435413E+04  0.23036518513E+04 0.  0.
        2    1    3    3  502    0 -0.23520168061E+03  0.11260356941E+04 -0.46982119237E+02  0.11512964581E+04  0.25500000920E-02 0.  1.
       -2    1    3    3    0  502  0.23520168061E+03 -0.11260356941E+04 -0.16455153809E+03  0.11620470832E+04  0.25500000920E-02 0. -1.
</event>
<event>
 5   0  0.9312074E-05  0.2295986E+04  0.7818609E-02  0.8479506E-01
       -2   -1    0    0    0  501  0.00000000000E+00  0.00000000000E+00  0.94801971302E+03  0.94801971302E+03  0.25500000920E-02 0.  1.
        2   -1    0    0  501    0  0.00000000000E+00  0.00000000000E+00 -0.13901477579E+04  0.13901477579E+04  0.25500000920E-02 0. -1.
    10030    2    1    2    0    0  0.00000000000E+00  0.00000000000E+00 -0.44212804493E+03  0.23381674710E+04  0.22959856084E+04 0.  0.
        4    1    3    3  502    0 -0.37787952356E+02  0.24406842019E+02  0.94712108509E+03  0.94818963610E+03  0.12699999809E+01 0.  1.
       -4    1    3    3    0  502  0.37787952356E+02 -0.24406842019E+02 -0.13892491300E+04  0.13899778349E+04  0.12699999809E+01 0. -1.
</event>
<event>
 5   0  0.9641157E-05  0.2282279E+04  0.7818609E-02  0.8484941E-01
        2   -1    0    0  501    0  0.00000000000E+00  0.00000000000E+00  0.25091151455E+04  0.25091151455E+04  0.25500000920E-02 0.  1.
       -2   -1    0    0    0  501  0.00000000000E+00  0.00000000000E+00 -0.51898727870E+03  0.51898727871E+03  0.25500000920E-02 0. -1.
    10030    2    1    2    0    0  0.00000000000E+00  0.00000000000E+00  0.19901278668E+04  0.30281024243E+04  0.22822785468E+04 0.  0.
        3    1    3    3  502    0  0.76084713701E+02 -0.11372670422E+04  0.10681412619E+04  0.15620790551E+04  0.10100000352E+00 0. -1.
       -3    1    3    3    0  502 -0.76084713701E+02  0.11372670422E+04  0.92198660496E+03  0.14660233691E+04  0.10100000352E+00 0.  1.
</event>
<event>
 5   0  0.9483073E-05  0.2248423E+04  0.7818609E-02  0.8498540E-01
        2   -1    0    0  501    0  0.00000000000E+00  0.00000000000E+00  0.10418470032E+04  0.10418470032E+04  0.25500000920E-02 0.  1.
       -2   -1    0    0    0  501  0.00000000000E+00  0.00000000000E+00 -0.12130871191E+04  0.12130871191E+04  0.25500000920E-02 0. -1.
    10030    2    1    2    0    0  0.00000000000E+00  0.00000000000E+00 -0.17124011587E+03  0.22549341223E+04  0.22484227180E+04 0.  0.
        5    1    3    3  502    0  0.10804749959E+04  0.13299176479E+03 -0.36699639850E+03  0.11488348327E+04  0.46999998093E+01 0. -1.
       -5    1    3    3    0  502 -0.10804749959E+04 -0.13299176479E+03  0.19575628263E+03  0.11060992896E+04  0.46999998093E+01 0.  1.
</event>
<event>
 5   0  0.4005462E-05  0.2383074E+04  0.7818609E-02  0.8445868E-01
        1   -1    0    0  501    0  0.00000000000E+00  0.00000000000E+00  0.15328769502E+04  0.15328769502E+04  0.50400001928E-02 0. -1.
       -1   -1    0    0    0  501  0.00000000000E+00  0.00000000000E+00 -0.92620614115E+03  0.92620614116E+03  0.50400001928E-02 0.  1.
    10030    2    1    2    0    0  0.00000000000E+00  0.00000000000E+00  0.60667080902E+03  0.24590830913E+04  0.23830736832E+04 0.  0.
        4    1    3    3  502    0 -0.27148580300E+03  0.80832271014E+03  0.11621479603E+04  0.14414158454E+04  0.12699999809E+01 0. -1.
       -4    1    3    3    0  502  0.27148580300E+03 -0.80832271014E+03 -0.55547715125E+03  0.10176672459E+04  0.12699999809E+01 0.  1.
</event>
<event>
 5   0  0.4295775E-05  0.2293499E+04  0.7818609E-02  0.8480489E-01
       -1   -1    0    0    0  501  0.00000000000E+00  0.00000000000E+00  0.10504566364E+04  0.10504566364E+04  0.50400001928E-02 0.  1.
        1   -1    0    0  501    0  0.00000000000E+00  0.00000000000E+00 -0.12518696833E+04  0.12518696834E+04  0.50400001928E-02 0. -1.
    10030    2    1    2    0    0  0.00000000000E+00  0.00000000000E+00 -0.20141304698E+03  0.23023263197E+04  0.22934993497E+04 0.  0.
        5    1    3    3  502    0  0.21313609566E+03  0.99316471695E+02 -0.12273995564E+04  0.12497289778E+04  0.46999998093E+01 0. -1.
       -5    1    3    3    0  502 -0.21313609566E+03 -0.99316471695E+02  0.10259865094E+04  0.10525973420E+04  0.46999998093E+01 0.  1.
</event>
<event>
 5   0  0.4139830E-05  0.2258597E+04  0.7818609E-02  0.8494427E-01
       -1   -1    0    0    0  501  0.00000000000E+00  0.00000000000E+00  0.11383950398E+04  0.11383950398E+04  0.50400001928E-02 0.  1.
        1   -1    0    0  501    0  0.00000000000E+00  0.00000000000E+00 -0.11202749834E+04  0.11202749834E+04  0.50400001928E-02 0. -1.
    10030    2    1    2    0    0  0.00000000000E+00  0.00000000000E+00  0.18120056363E+02  0.22586700232E+04  0.22585973385E+04 0.  0.
        1    1    3    3  502    0  0.69680610751E+03  0.57142499876E+03  0.68970679427E+03  0.11347954630E+04  0.50400001928E-02 0.  1.
       -1    1    3    3    0  502 -0.69680610751E+03 -0.57142499876E+03 -0.67158673791E+03  0.11238745603E+04  0.50400001928E-02 0. -1.
</event>
<event>
 5   0  0.9312074E-05  0.2289819E+04  0.7818609E-02  0.8481946E-01
        2   -1    0    0  501    0  0.00000000000E+00  0.00000000000E+00  0.10215697317E+04  0.10215697318E+04  0.25500000920E-02 0.  1.
       -2   -1    0    0    0  501  0.00000000000E+00  0.00000000000E+00 -0.12831411001E+04  0.12831411001E+04  0.25500000920E-02 0. -1.
    10030    2    1    2    0    0  0.00000000000E+00  0.00000000000E+00 -0.26157136833E+03  0.23047108318E+04  0.22898193024E+04 0.  0.
        4    1    3    3  502    0  0.10773491529E+03 -0.69133626373E+03  0.78134399172E+03  0.10488339658E+04  0.12699999809E+01 0.  1.
       -4    1    3    3    0  502 -0.10773491529E+03  0.69133626373E+03 -0.10429153600E+04  0.12558768660E+04  0.12699999809E+01 0. -1.
</event>
<event>
 5   0  0.9312074E-05  0.2112187E+04  0.7818609E-02  0.8555894E-01
       -2   -1    0    0    0  501  0.00000000000E+00  0.00000000000E+00  0.58953052768E+03  0.58953052769E+03  0.25500000920E-02 0.  1.
        2   -1    0    0  501    0  0.00000000000E+00  0.00000000000E+00 -0.18919011785E+04  0.18919011785E+04  0.25500000920E-02 0. -1.
    10030    2    1    2    0    0  0.00000000000E+00  0.00000000000E+00 -0.13023706508E+04  0.24814317062E+04  0.21121870183E+04 0.  0.
        4    1    3    3  502    0  0.34432603849E+02  0.63484508913E+03 -0.16418821993E+04  0.17606796019E+04  0.12699999809E+01 0. -1.
       -4    1    3    3    0  502 -0.34432603849E+02 -0.63484508913E+03  0.33951154845E+03  0.72075210428E+03  0.12699999809E+01 0.  1.
</event>
<event>
 5   0  0.3261500E-05  0.2398341E+04  0.7818609E-02  0.8440125E-01
       -3   -1    0    0    0  501  0.00000000000E+00  0.00000000000E+00  0.11987405212E+04  0.11987405255E+04  0.10100000352E+00 0.  1.
        3   -1    0    0  501    0  0.00000000000E+00  0.00000000000E+00 -0.11996008821E+04  0.11996008863E+04  0.10100000352E+00 0. -1.
    10030    2    1    2    0    0  0.00000000000E+00  0.00000000000E+00 -0.86036082841E+00  0.23983414118E+04  0.23983412575E+04 0.  0.
        2    1    3    3  502    0 -0.40719565493E+03 -0.97509137911E+03  0.56649021892E+03  0.11989673336E+04  0.25500000920E-02 0.  1.
       -2    1    3    3    0  502  0.40719565493E+03  0.97509137911E+03 -0.56735057975E+03  0.11993740782E+04  0.25500000920E-02 0. -1.
</event>
<event>
 5   0  0.9535394E-05  0.2270248E+04  0.7818609E-02  0.8489745E-01
       -2   -1    0    0    0  501  0.00000000000E+00  0.00000000000E+00  0.55718049569E+03  0.55718049570E+03  0.25500000920E-02 0. -1.
        2   -1    0    0  501    0  0.00000000000E+00  0.00000000000E+00 -0.23125477452E+04  0.23125477452E+04  0.25500000920E-02 0.  1.
    10030    2    1    2    0    0  0.00000000000E+00  0.00000000000E+00 -0.17553672495E+04  0.28697282409E+04  0.22702480032E+04 0.  0.
        2    1    3    3  502    0 -0.35463577939E+03  0.35998810314E+03 -0.21625230369E+04  0.22207800106E+04  0.25500000920E-02 0.  1.
       -2    1    3    3    0  502  0.35463577939E+03 -0.35998810314E+03  0.40715578737E+03  0.64894823031E+03  0.25500000920E-02 0. -1.
</event>
<event>
 5   0  0.3885219E-05  0.2268898E+04  0.7818609E-02  0.8490286E-01
        1   -1    0    0  501    0  0.00000000000E+00  0.00000000000E+00  0.12607780574E+04  0.12607780575E+04  0.50400001928E-02 0. -1.
       -1   -1    0    0    0  501  0.00000000000E+00  0.00000000000E+00 -0.10207779485E+04  0.10207779485E+04  0.50400001928E-02 0.  1.
    10030    2    1    2    0    0  0.00000000000E+00  0.00000000000E+00  0.24000010897E+03  0.22815560059E+04  0.22688979166E+04 0.  0.
        2    1    3    3  502    0  0.56170839749E+02 -0.24917399662E+03 -0.99148615920E+03  0.10238591933E+04  0.25500000920E-02 0.  1.
       -2    1    3    3    0  502 -0.56170839749E+02  0.24917399662E+03  0.12314862682E+04  0.12576968126E+04  0.25500000920E-02 0. -1.
</event>
<event>
 5   0  0.4095451E-05  0.2389920E+04  0.7818609E-02  0.8443287E-01
        1   -1    0    0  501    0  0.00000000000E+00  0.00000000000E+00  0.19701364561E+04  0.19701364561E+04  0.50400001928E-02 0.  1.
       -1   -1    0    0    0  501  0.00000000000E+00  0.00000000000E+00 -0.72478694406E+03  0.72478694408E+03  0.50400001928E-02 0. -1.
    10030    2    1    2    0    0  0.00000000000E+00  0.00000000000E+00  0.12453495120E+04  0.26949234002E+04  0.23899198158E+04 0.  0.
        3    1    3    3  502    0 -0.10229134097E+03  0.10413036646E+03 -0.71469617223E+03  0.72944998489E+03  0.10100000352E+00 0. -1.
       -3    1    3    3    0  502  0.10229134097E+03 -0.10413036646E+03  0.19600456843E+04  0.19654734153E+04  0.10100000352E+00 0.  1.
</event>
<event>
 5   0  0.9483073E-05  0.2321729E+04  0.7818609E-02  0.8469403E-01
       -2   -1    0    0    0  501  0.00000000000E+00  0.00000000000E+00  0.96036646770E+03  0.96036646770E+03  0.25500000920E-02 0. -1.
        2   -1    0    0  501    0  0.00000000000E+00  0.00000000000E+00 -0.14032209052E+04  0.14032209052E+04  0.25500000920E-02 0.  1.
    10030    2    1    2    0    0  0.00000000000E+00  0.00000000000E+00 -0.44285443750E+03  0.23635873729E+04  0.23217289283E+04 0.  0.
        5    1    3    3  502    0 -0.10300950195E+03 -0.18400386529E+03  0.94069461173E+03  0.96405229239E+03  0.46999998093E+01 0. -1.
       -5    1    3    3    0  502  0.10300950195E+03  0.18400386529E+03 -0.13835490492E+04  0.13995350805E+04  0.46999998093E+01 0.  1.
</event>
<event>
 5   0  0.9313463E-05  0.2274708E+04  0.7818609E-02  0.8487961E-01
        2   -1    0    0  501    0  0.00000000000E+00  0.00000000000E+00  0.20667044715E+04  0.20667044715E+04  0.25500000920E-02 0.  1.
       -2   -1    0    0    0  501  0.00000000000E+00  0.00000000000E+00 -0.62591139220E+03  0.62591139220E+03  0.25500000920E-02 0. -1.
    10030    2    1    2    0    0  0.00000000000E+00  0.00000000000E+00  0.14407930793E+04  0.26926158637E+04  0.22747077817E+04 0.  0.
        1    1    3    3  502    0  0.79882857823E+03 -0.45277424072E+03  0.15148498014E+04  0.17714122985E+04  0.50400001928E-02 0.  1.
       -1    1    3    3    0  502 -0.79882857823E+03  0.45277424072E+03 -0.74056722076E+02  0.92120356522E+03  0.50400001928E-02 0. -1.
</event>
<event>
 5   0  0.4005462E-05  0.2334257E+04  0.7818609E-02  0.8464535E-01
       -1   -1    0    0    0  501  0.00000000000E+00  0.00000000000E+00  0.11579152040E+04  0.11579152040E+04  0.50400001928E-02 0.  1.
        1   -1    0    0  501    0  0.00000000000E+00  0.00000000000E+00 -0.11764155939E+04  0.11764155939E+04  0.50400001928E-02 0. -1.
    10030    2    1    2    0    0  0.00000000000E+00  0.00000000000E+00 -0.18500389924E+02  0.23343307979E+04  0.23342574857E+04 0.  0.
        4    1    3    3  502    0  0.33919483151E+02  0.36235971955E+03  0.10997178107E+04  0.11583764387E+04  0.12699999809E+01 0.  1.
       -4    1    3    3    0  502 -0.33919483151E+02 -0.36235971955E+03 -0.11182182006E+04  0.11759543592E+04  0.12699999809E+01 0. -1.
</event>
<event>
 5   0  0.4005462E-05  0.2017038E+04  0.7818609E-02  0.8598696E-01
        1   -1    0    0  501    0  0.00000000000E+00  0.00000000000E+00  0.14239917515E+04  0.14239917515E+04  0.50400001928E-02 0. -1.
       -1   -1    0    0    0  501  0.00000000000E+00  0.00000000000E+00 -0.71426684995E+03  0.71426684996E+03  0.50400001928E-02 0.  1.
    10030    2    1    2    0    0  0.00000000000E+00  0.00000000000E+00  0.70972490151E+03  0.21382586014E+04  0.20170375333E+04 0.  0.
        4    1    3    3  502    0 -0.36091486739E+03 -0.83051991582E+03 -0.11576116316E+03  0.91292120792E+03  0.12699999809E+01 0.  1.
       -4    1    3    3    0  502  0.36091486739E+03  0.83051991582E+03  0.82548606467E+03  0.12253373935E+04  0.12699999809E+01 0. -1.
</event>
<event>
 5   0  0.4295775E-05  0.2268219E+04  0.7818609E-02  0.8490558E-01
       -1   -1    0    0    0  501  0.00000000000E+00  0.00000000000E+00  0.10579831588E+04  0.10579831588E+04  0.50400001928E-02 0.  1.
        1   -1    0    0  501    0  0.00000000000E+00  0.00000000000E+00 -0.12157134793E+04  0.12157134794E+04  0.50400001928E-02 0. -1.
    10030    2    1    2    0    0  0.00000000000E+00  0.00000000000E+00 -0.15773032051E+03  0.22736966382E+04  0.22682190257E+04 0.  0.
        5    1    3    3  502    0  0.99747394588E+03 -0.50955258459E+02  0.45967669065E+03  0.10994887271E+04  0.46999998093E+01 0.  1.
       -5    1    3    3    0  502 -0.99747394588E+03  0.50955258459E+02 -0.61740701116E+03  0.11742079111E+04  0.46999998093E+01 0. -1.
</event>
<event>
 5   0  0.9312074E-05  0.2286654E+04  0.7818609E-02  0.8483202E-01
        2   -1    0    0  501    0  0.00000000000E+00  0.00000000000E+00  0.22998411119E+04  0.22998411119E+04  0.25500000920E-02 0. -1.
       -2   -1    0    0    0  501  0.00000000000E+00  0.00000000000E+00 -0.56838553138E+03  0.56838553138E+03  0.25500000920E-02 0.  1.
    10030    2    1    2    0    0  0.00000000000E+00  0.00000000000E+00  0.17314555806E+04  0.28682266433E+04  0.22866538107E+04 0.  0.
        4    1    3    3  502    0  0.91006871181E+03  0.50986470399E+03  0.14527340890E+04  0.17884700229E+04  0.12699999809E+01 0. -1.
       -4    1    3    3    0  502 -0.91006871181E+03 -0.50986470399E+03  0.27872149157E+03  0.10797566204E+04  0.12699999809E+01 0.  1.
</event>
<event>
 5   0  0.4295775E-05  0.2297171E+04  0.7818609E-02  0.8479037E-01
        1   -1    0    0  501    0  0.00000000000E+00  0.00000000000E+00  0.11061927514E+04  0.11061927514E+04  0.50400001928E-02 0.  1.
       -1   -1    0    0    0  501  0.00000000000E+00  0.00000000000E+00 -0.11926032943E+04  0.11926032943E+04  0.50400001928E-02 0. -1.
    10030    2    1    2    0    0  0.00000000000E+00  0.00000000000E+00 -0.86410542829E+02  0.22987960457E+04  0.22971714080E+04 0.  0.
        5    1    3    3  502    0  0.96833017673E+02  0.75481001249E+03  0.81770092349E+03  0.11170370086E+04  0.46999998093E+01 0.  1.
       -5    1    3    3    0  502 -0.96833017673E+02 -0.75481001249E+03 -0.90411146632E+03  0.11817590371E+04  0.46999998093E+01 0. -1.
</event>
<event>
 5   0  0.9641157E-05  0.2363157E+04  0.7818609E-02  0.8453427E-01
        2   -1    0    0  501    0  0.00000000000E+00  0.00000000000E+00  0.19549274516E+04  0.19549274516E+04  0.25500000920E-02 0.  1.
       -2   -1    0    0    0  501  0.00000000000E+00  0.00000000000E+00 -0.71415804472E+03  0.71415804473E+03  0.25500000920E-02 0. -1.
    10030    2    1    2    0    0  0.00000000000E+00  0.00000000000E+00  0.12407694069E+04  0.26690854963E+04  0.23631565047E+04 0.  0.
        3    1    3    3  502    0 -0.11570961536E+03  0.60843590104E+03 -0.51613506702E+03  0.80621236555E+03  0.10100000352E+00 0. -1.
       -3    1    3    3    0  502  0.11570961536E+03 -0.60843590104E+03  0.17569044739E+04  0.18628731308E+04  0.10100000352E+00 0.  1.
</event>
<event>
 5   0  0.9641157E-05  0.2332523E+04  0.7818609E-02  0.8465207E-01
       -2   -1    0    0    0  501  0.00000000000E+00  0.00000000000E+00  0.83709643168E+03  0.83709643168E+03  0.25500000920E-02 0.  1.
        2   -1    0    0  501    0  0.00000000000E+00  0.00000000000E+00 -0.16248613780E+04  0.16248613780E+04  0.25500000920E-02 0. -1.
    10030    2    1    2    0    0  0.00000000000E+00  0.00000000000E+00 -0.78776494632E+03  0.24619578097E+04  0.23325228072E+04 0.  0.
        3    1    3    3  502    0 -0.60167583274E+03 -0.18423779980E+03  0.64254790739E+03  0.89934709544E+03  0.10100000352E+00 0.  1.
       -3    1    3    3    0  502  0.60167583274E+03  0.18423779980E+03 -0.14303128537E+04  0.15626107142E+04  0.10100000352E+00 0. -1.
</event>
<event>
 5   0  0.3261500E-05  0.2290685E+04  0.7818609E-02  0.8481603E-01
       -3   -1    0    0    0  501  0.00000000000E+00  0.00000000000E+00  0.96058191391E+03  0.96058191922E+03  0.10100000352E+00 0. -1.
        3   -1    0    0  501    0  0.00000000000E+00  0.00000000000E+00 -0.13656406672E+04  0.13656406710E+04  0.10100000352E+00 0.  1.
    10030    2    1    2    0    0  0.00000000000E+00  0.00000000000E+00 -0.40505875333E+03  0.23262225902E+04  0.22906852567E+04 0.  0.
        4    1    3    3  502    0 -0.55502841213E+03  0.95569570003E+03  0.10279649932E+03  0.11099457385E+04  0.12699999809E+01 0. -1.
       -4    1    3    3    0  502  0.55502841213E+03 -0.95569570003E+03 -0.50785525266E+03  0.12162768517E+04  0.12699999809E+01 0.  1.
</event>
<event>
 5   0  0.4295775E-05  0.2260952E+04  0.7818609E-02  0.8493478E-01
       -1   -1    0    0    0  501  0.00000000000E+00  0.00000000000E+00  0.16068372692E+04  0.16068372692E+04  0.50400001928E-02 0.  1.
        1   -1    0    0  501    0  0.00000000000E+00  0.00000000000E+00 -0.79533620647E+03  0.79533620648E+03  0.50400001928E-02 0. -1.
    10030    2    1    2    0    0  0.00000000000E+00  0.00000000000E+00  0.81150106269E+03  0.24021734757E+04  0.22609518863E+04 0.  0.
        5    1    3    3  502    0 -0.62894437003E+03  0.78498992798E+03  0.95389559034E+03  0.13862608322E+04  0.46999998093E+01 0.  1.
       -5    1    3    3    0  502  0.62894437003E+03 -0.78498992798E+03 -0.14239452765E+03  0.10159126435E+04  0.46999998093E+01 0. -1.
</event>
<event>
 5   0  0.9641157E-05  0.2248725E+04  0.7818609E-02  0.8498417E-01
        2   -1    0    0  501    0  0.00000000000E+00  0.00000000000E+00  0.19120715964E+04  0.19120715964E+04  0.25500000920E-02 0. -1.
       -2   -1    0    0    0  501  0.00000000000E+00  0.00000000000E+00 -0.66116285451E+03  0.66116285451E+03  0.25500000920E-02 0.  1.
    10030    2    1    2    0    0  0.00000000000E+00  0.00000000000E+00  0.12509087419E+04  0.25732344509E+04  0.22487247183E+04 0.  0.
        3    1    3    3  502    0  0.57522083451E+03  0.56057277335E+03  0.15258075333E+04  0.17242997076E+04  0.10100000352E+00 0. -1.
       -3    1    3    3    0  502 -0.57522083451E+03 -0.56057277335E+03 -0.27489879143E+03  0.84893474331E+03  0.10100000352E+00 0.  1.
</event>
<event>
 5   0  0.3261500E-05  0.2304141E+04  0.7818609E-02  0.8476290E-01
       -3   -1    0    0    0  501  0.00000000000E+00  0.00000000000E+00  0.79949695067E+03  0.79949695705E+03  0.10100000352E+00 0. -1.
        3   -1    0    0  501    0  0.00000000000E+00  0.00000000000E+00 -0.16601273379E+04  0.16601273410E+04  0.10100000352E+00 0.  1.
    10030    2    1    2    0    0  0.00000000000E+00  0.00000000000E+00 -0.86063038727E+03  0.24596242981E+04  0.23041412769E+04 0.  0.
        5    1    3    3  502    0  0.43328044297E+03 -0.92486554615E+03 -0.99932944284E+03  0.14289120498E+04  0.46999998093E+01 0.  1.
       -5    1    3    3    0  502 -0.43328044297E+03  0.92486554615E+03  0.13869905557E+03  0.10307122483E+04  0.46999998093E+01 0. -1.
</event>
<event>
 5   0  0.9535394E-05  0.2266121E+04  0.7818609E-02  0.8491400E-01
       -2   -1    0    0    0  501  0.00000000000E+00  0.00000000000E+00  0.10459317345E+04  0.10459317345E+04  0.25500000920E-02 0.  1.
        2   -1    0    0  501    0  0.00000000000E+00  0.00000000000E+00 -0.12274470509E+04  0.12274470509E+04  0.25500000920E-02 0. -1.
    10030    2    1    2    0    0  0.00000000000E+00  0.00000000000E+00 -0.18151531633E+03  0.22733787854E+04  0.22661207584E+04 0.  0.
        2    1    3    3  502    0 -0.63883724639E+03 -0.93499829186E+03 -0.52020648696E+02  0.11335964807E+04  0.25500000920E-02 0.  1.
       -2    1    3    3    0  502  0.63883724639E+03  0.93499829186E+03 -0.12949466764E+03  0.11397823047E+04  0.25500000920E-02 0. -1.
</event>
<event>
 5   0  0.9313463E-05  0.2269232E+04  0.7818609E-02  0.8490152E-01
       -2   -1    0    0    0  501  0.00000000000E+00  0.00000000000E+00  0.13916428226E+04  0.13916428226E+04  0.25500000920E-02 0. -1.
        2   -1    0    0  501    0  0.00000000000E+00  0.00000000000E+00 -0.92506025805E+03  0.92506025805E+03  0.25500000920E-02 0.  1.
    10030    2    1    2    0    0  0.00000000000E+00  0.00000000000E+00  0.46658256459E+03  0.23167030807E+04  0.22692320010E+04 0.  0.
        1    1    3    3  502    0 -0.59878110607E+03  0.67384410032E+03 -0.47014280112E+03  0.10166803519E+04  0.50400001928E-02 0.  1.
       -1    1    3    3    0  502  0.59878110607E+03 -0.67384410032E+03  0.93672536571E+03  0.13000227288E+04  0.50400001928E-02 0. -1.
</event>
<event>
 5   0  0.4139830E-05  0.2273686E+04  0.7818609E-02  0.8488369E-01
       -1   -1    0    0    0  501  0.00000000000E+00  0.00000000000E+00  0.15081702076E+04  0.15081702076E+04  0.50400001928E-02 0. -1.
        1   -1    0    0  501    0  0.00000000000E+00  0.00000000000E+00 -0.85694064839E+03  0.85694064841E+03  0.50400001928E-02 0.  1.
    10030    2    1    2    0    0  0.00000000000E+00  0.00000000000E+00  0.65122955916E+03  0.23651108560E+04  0.22736863069E+04 0.  0.
        1    1    3    3  502    0 -0.10958917073E+04 -0.28997420366E+03  0.41478620371E+03  0.12071086396E+04  0.50400001928E-02 0.  1.
       -1    1    3    3    0  502  0.10958917073E+04  0.28997420366E+03  0.23644335545E+03  0.11580022164E+04  0.50400001928E-02 0. -1.
</event>
<event>
 5   0  0.9312074E-05  0.2328584E+04  0.7818609E-02  0.8466735E-01
       -2   -1    0    0    0  501  0.00000000000E+00  0.00000000000E+00  0.15805829181E+04  0.15805829181E+04  0.25500000920E-02 0.  1.
        2   -1    0    0  501    0  0.00000000000E+00  0.00000000000E+00 -0.85764335003E+03  0.85764335004E+03  0.25500000920E-02 0. -1.
    10030    2    1    2    0    0  0.00000000000E+00  0.00000000000E+00  0.72293956806E+03  0.24382262681E+04  0.23285844875E+04 0.  0.
        4    1    3    3  502    0  0.31633119039E+03 -0.73903680494E+03 -0.52040595049E+03  0.95763499689E+03  0.12699999809E+01 0. -1.
       -4    1    3    3    0  502 -0.31633119039E+03  0.73903680494E+03  0.12433455185E+04  0.14805912712E+04  0.12699999809E+01 0.  1.
</event>
<event>
 5   0  0.9312074E-05  0.2348877E+04  0.7818609E-02  0.8458895E-01
       -2   -1    0    0    0  501  0.00000000000E+00  0.00000000000E+00  0.87242991634E+03  0.87242991635E+03  0.25500000920E-02 0. -1.
        2   -1    0    0  501    0  0.00000000000E+00  0.00000000000E+00 -0.15809936682E+04  0.15809936682E+04  0.25500000920E-02 0.  1.
    10030    2    1    2    0    0  0.00000000000E+00  0.00000000000E+00 -0.70856375188E+03  0.24534235846E+04  0.23488773265E+04 0.  0.
        4    1    3    3  502    0 -0.14319894701E+03  0.40069469001E+03  0.78908219131E+03  0.89650124962E+03  0.12699999809E+01 0. -1.
       -4    1    3    3    0  502  0.14319894701E+03 -0.40069469001E+03 -0.14976459432E+04  0.15569223349E+04  0.12699999809E+01 0.  1.
</event>
<event>
 5   0  0.9483073E-05  0.2296246E+04  0.7818609E-02  0.8479403E-01
       -2   -1    0    0    0  501  0.00000000000E+00  0.00000000000E+00  0.80096884442E+03  0.80096884443E+03  0.25500000920E-02 0.  1.
        2   -1    0    0  501    0  0.00000000000E+00  0.00000000000E+00 -0.16457394748E+04  0.16457394748E+04  0.25500000920E-02 0. -1.
    10030    2    1    2    0    0  0.00000000000E+00  0.00000000000E+00 -0.84477063041E+03  0.24467083193E+04  0.22962456710E+04 0.  0.
        5    1    3    3  502    0 -0.62684825784E+03  0.48617488624E+03 -0.13067452900E+04  0.15286955555E+04  0.46999998093E+01 0. -1.
       -5    1    3    3    0  502  0.62684825784E+03 -0.48617488624E+03  0.46197465960E+03  0.91801276379E+03  0.46999998093E+01 0.  1.
</event>
<event>
 5   0  0.4005462E-05  0.2304070E+04  0.7818609E-02  0.8476318E-01
        1   -1    0    0  501    0  0.00000000000E+00  0.00000000000E+00  0.12451654579E+04  0.12451654579E+04  0.50400001928E-02 0. -1.
       -1   -1    0    0    0  501  0.00000000000E+00  0.00000000000E+00 -0.10658701530E+04  0.10658701530E+04  0.50400001928E-02 0.  1.
    10030    2    1    2    0    0  0.00000000000E+00  0.00000000000E+00  0.17929530486E+03  0.23110356109E+04  0.23040700485E+04 0.  0.
        4    1    3    3  502    0  0.65700511014E+03  0.37459718555E+03  0.96129977378E+03  0.12231425240E+04  0.12699999809E+01 0. -1.
       -4    1    3    3    0  502 -0.65700511014E+03 -0.37459718555E+03 -0.78200446892E+03  0.10878930869E+04  0.12699999809E+01 0.  1.
</event>
<event>
 5   0  0.3885219E-05  0.2334287E+04  0.7818609E-02  0.8464524E-01
        1   -1    0    0  501    0  0.00000000000E+00  0.00000000000E+00  0.15608290899E+04  0.15608290899E+04  0.50400001928E-02 0. -1.
       -1   -1    0    0    0  501  0.00000000000E+00  0.00000000000E+00 -0.87275674297E+03  0.87275674298E+03  0.50400001928E-02 0.  1.
    10030    2    1    2    0    0  0.00000000000E+00  0.00000000000E+00  0.68807234695E+03  0.24335858329E+04  0.23342871399E+04 0.  0.
        2    1    3    3  502    0  0.66310013544E+03  0.46271631608E+03  0.12215148096E+04  0.14648913301E+04  0.25500000920E-02 0. -1.
       -2    1    3    3    0  502 -0.66310013544E+03 -0.46271631608E+03 -0.53344246269E+03  0.96869450282E+03  0.25500000920E-02 0.  1.
</event>
<event>
 5   0  0.9641157E-05  0.2247919E+04  0.7818609E-02  0.8498744E-01
       -2   -1    0    0    0  501  0.00000000000E+00  0.00000000000E+00  0.13499484199E+04  0.13499484199E+04  0.25500000920E-02 0.  1.
        2   -1    0    0  501    0  0.00000000000E+00  0.00000000000E+00 -0.93580213037E+03  0.93580213037E+03  0.25500000920E-02 0. -1.
    10030    2    1    2    0    0  0.00000000000E+00  0.00000000000E+00  0.41414628952E+03  0.22857505503E+04  0.22479186882E+04 0.  0.
        3    1    3    3  502    0  0.54550295540E+03  0.93144324947E+03  0.52559348817E+03  0.12005867425E+04  0.10100000352E+00 0. -1.
       -3    1    3    3    0  502 -0.54550295540E+03 -0.93144324947E+03 -0.11144719865E+03  0.10851638077E+04  0.10100000352E+00 0.  1.
</event>
<event>
 5   0  0.9313463E-05  0.2300130E+04  0.7818609E-02  0.8477870E-01
        2   -1    0    0  501    0  0.00000000000E+00  0.00000000000E+00  0.19868560164E+04  0.19868560164E+04  0.25500000920E-02 0.  1.
       -2   -1    0    0    0  501  0.00000000000E+00  0.00000000000E+00 -0.66569956529E+03  0.66569956529E+03  0.25500000920E-02 0. -1.
    10030    2    1    2    0    0  0.00000000000E+00  0.00000000000E+00  0.13211564511E+04  0.26525555817E+04  0.23001297236E+04 0.  0.
        1    1    3    3  502    0 -0.56655793595E+03  0.92152405908E+03  0.11108581367E+04  0.15505483824E+04  0.50400001928E-02 0.  1.
       -1    1    3    3    0  502  0.56655793595E+03 -0.92152405908E+03  0.21029831443E+03  0.11020071993E+04  0.50400001928E-02 0. -1.
</event>
<event>
 5   0  0.9312074E-05  0.2361087E+04  0.7818609E-02  0.8454217E-01
        2   -1    0    0  501    0  0.00000000000E+00  0.00000000000E+00  0.17083844079E+04  0.17083844079E+04  0.25500000920E-02 0. -1.
       -2   -1    0    0    0  501  0.00000000000E+00  0.00000000000E+00 -0.81578988148E+03  0.81578988149E+03  0.25500000920E-02 0.  1.
    10030    2    1    2    0    0  0.00000000000E+00  0.00000000000E+00  0.89259452640E+03  0.25241742894E+04  0.23610867952E+04 0.  0.
        4    1    3    3  502    0 -0.96393055526E+03  0.28143103715E+03 -0.21731691809E+03  0.10274209458E+04  0.12699999809E+01 0.  1.
       -4    1    3    3    0  502  0.96393055526E+03 -0.28143103715E+03  0.11099114445E+04  0.14967533436E+04  0.12699999809E+01 0. -1.
</event>
<event>
 5   0  0.4095451E-05  0.2286167E+04  0.7818609E-02  0.8483395E-01
        1   -1    0    0  501    0  0.00000000000E+00  0.00000000000E+00  0.15516229604E+04  0.15516229604E+04  0.50400001928E-02 0.  1.
       -1   -1    0    0    0  501  0.00000000000E+00  0.00000000000E+00 -0.84211199807E+03  0.84211199809E+03  0.50400001928E-02 0. -1.
    10030    2    1    2    0    0  0.00000000000E+00  0.00000000000E+00  0.70951096236E+03  0.23937349585E+04  0.22861673705E+04 0.  0.
        3    1    3    3  502    0  0.77168815375E+03 -0.53284853026E+03  0.10391220966E+04  0.13997160086E+04  0.10100000352E+00 0.  1.
       -3    1    3    3    0  502 -0.77168815375E+03  0.53284853026E+03 -0.32961113423E+03  0.99401894995E+03  0.10100000352E+00 0. -1.
</event>
<event>
 5   0  0.4139830E-05  0.2277314E+04  0.7818609E-02  0.8486920E-01
       -1   -1    0    0    0  501  0.00000000000E+00  0.00000000000E+00  0.13704167568E+04  0.13704167568E+04  0.50400001928E-02 0.  1.
        1   -1    0    0  501    0  0.00000000000E+00  0.00000000000E+00 -0.94609195287E+03  0.94609195289E+03  0.50400001928E-02 0. -1.
    10030    2    1    2    0    0  0.00000000000E+00  0.00000000000E+00  0.42432480397E+03  0.23165087097E+04  0.22773144410E+04 0.  0.
        1    1    3    3  502    0  0.95409131166E+03  0.61723514881E+03  0.28601222273E+03  0.11717817423E+04  0.50400001928E-02 0.  1.
       -1    1    3    3    0  502 -0.95409131166E+03 -0.61723514881E+03  0.13831258124E+03  0.11447269675E+04  0.50400001928E-02 0. -1.
</event>
<event>
 5   0  0.3885219E-05  0.2265100E+04  0.7818609E-02  0.8491810E-01
        1   -1    0    0  501    0  0.00000000000E+00  0.00000000000E+00  0.12274331785E+04  0.12274331785E+04  0.50400001928E-02 0.  1.
       -1   -1    0    0    0  501  0.00000000000E+00  0.00000000000E+00 -0.10450015449E+04  0.10450015449E+04  0.50400001928E-02 0. -1.
    10030    2    1    2    0    0  0.00000000000E+00  0.00000000000E+00  0.18243163353E+03  0.22724347234E+04  0.22651000577E+04 0.  0.
        2    1    3    3  502    0 -0.95852488102E+03  0.53418907469E+03  0.37237614626E+03  0.11587889840E+04  0.25500000920E-02 0. -1.
       -2    1    3    3    0  502  0.95852488102E+03 -0.53418907469E+03 -0.18994451273E+03  0.11136457394E+04  0.25500000920E-02 0.  1.
</event>
<event>
 5   0  0.9313463E-05  0.2315582E+04  0.7818609E-02  0.8471803E-01
       -2   -1    0    0    0  501  0.00000000000E+00  0.00000000000E+00  0.65931801299E+03  0.65931801299E+03  0.25500000920E-02 0. -1.
        2   -1    0    0  501    0  0.00000000000E+00  0.00000000000E+00 -0.20331306388E+04  0.20331306388E+04  0.25500000920E-02 0.  1.
    10030    2    1    2    0    0  0.00000000000E+00  0.00000000000E+00 -0.13738126258E+04  0.26924486517E+04  0.23155817005E+04 0.  0.
        1    1    3    3  502    0  0.10817122356E+04  0.41211504546E+03 -0.71391326652E+03  0.13600045307E+04  0.50400001928E-02 0. -1.
       -1    1    3    3    0  502 -0.10817122356E+04 -0.41211504546E+03 -0.65989935924E+03  0.13324441211E+04  0.50400001928E-02 0.  1.
</event>
<event>
 5   0  0.9312074E-05  0.2401773E+04  0.7818609E-02  0.8438840E-01
        2   -1    0    0  501    0  0.00000000000E+00  0.00000000000E+00  0.16520779835E+04  0.16520779835E+04  0.25500000920E-02 0. -1.
       -2   -1    0    0    0  501  0.00000000000E+00  0.00000000000E+00 -0.87291819005E+03  0.87291819006E+03  0.25500000920E-02 0.  1.
    10030    2    1    2    0    0  0.00000000000E+00  0.00000000000E+00  0.77915979346E+03  0.25249961736E+04  0.24017734474E+04 0.  0.
        4    1    3    3  502    0 -0.10160538830E+04  0.37577698425E+03 -0.15522885263E+03  0.10943817637E+04  0.12699999809E+01 0.  1.
       -4    1    3    3    0  502  0.10160538830E+04 -0.37577698425E+03  0.93438864609E+03  0.14306144099E+04  0.12699999809E+01 0. -1.
</event>
<event>
 5   0  0.4295775E-05  0.2270539E+04  0.7818609E-02  0.8489628E-01
        1   -1    0    0  501    0  0.00000000000E+00  0.00000000000E+00  0.16468241769E+04  0.16468241769E+04  0.50400001928E-02 0.  1.
       -1   -1    0    0    0  501  0.00000000000E+00  0.00000000000E+00 -0.78261968183E+03  0.78261968184E+03  0.50400001928E-02 0. -1.
    10030    2    1    2    0    0  0.00000000000E+00  0.00000000000E+00  0.86420449505E+03  0.24294438587E+04  0.22705391548E+04 0.  0.
        5    1    3    3  502    0  0.35429547774E+03 -0.10713106579E+04  0.29853346475E+03  0.11672086921E+04  0.46999998093E+01 0.  1.
       -5    1    3    3    0  502 -0.35429547774E+03  0.10713106579E+04  0.56567103030E+03  0.12622351666E+04  0.46999998093E+01 0. -1.
</event>
<event>
 5   0  0.9313463E-05  0.2282011E+04  0.7818609E-02  0.8485048E-01
        2   -1    0    0  501    0  0.00000000000E+00  0.00000000000E+00  0.10600331500E+04  0.10600331500E+04  0.25500000920E-02 0.  1.
       -2   -1    0    0    0  501  0.00000000000E+00  0.00000000000E+00 -0.12281635558E+04  0.12281635558E+04  0.25500000920E-02 0. -1.
    10030    2    1    2    0    0  0.00000000000E+00  0.00000000000E+00 -0.16813040580E+03  0.22881967058E+04  0.22820114661E+04 0.  0.
        1    1    3    3  502    0 -0.12940755162E+03 -0.85694651147E+03  0.66009892730E+03  0.10894192177E+04  0.50400001928E-02 0.  1.
       -1    1    3    3    0  502  0.12940755162E+03  0.85694651147E+03 -0.82822933310E+03  0.11987774882E+04  0.50400001928E-02 0. -1.
</event>
<event>
 5   0  0.4095451E-05  0.2399682E+04  0.7818609E-02  0.8439623E-01
       -1   -1    0    0    0  501  0.00000000000E+00  0.00000000000E+00  0.10953003675E+04  0.10953003675E+04  0.50400001928E-02 0.  1.
        1   -1    0    0  501    0  0.00000000000E+00  0.00000000000E+00 -0.13143598227E+04  0.13143598227E+04  0.50400001928E-02 0. -1.
    10030    2    1    2    0    0  0.00000000000E+00  0.00000000000E+00 -0.21905945524E+03  0.24096601902E+04  0.23996823097E+04 0.  0.
        3    1    3    3  502    0 -0.31999423205E+03  0.30840413180E+03  0.10096039675E+04  0.11030909293E+04  0.10100000352E+00 0.  1.
       -3    1    3    3    0  502  0.31999423205E+03 -0.30840413180E+03 -0.12286634227E+04  0.13065692609E+04  0.10100000352E+00 0. -1.
</event>
<event>
 5   0  0.4295775E-05  0.2246188E+04  0.7818609E-02  0.8499446E-01
        1   -1    0    0  501    0  0.00000000000E+00  0.00000000000E+00  0.86845784350E+03  0.86845784352E+03  0.50400001928E-02 0.  1.
       -1   -1    0    0    0  501  0.00000000000E+00  0.00000000000E+00 -0.14523912868E+04  0.14523912868E+04  0.50400001928E-02 0. -1.
    10030    2    1    2    0    0  0.00000000000E+00  0.00000000000E+00 -0.58393344331E+03  0.23208491303E+04  0.22461884203E+04 0.  0.
        5    1    3    3  502    0  0.63854254641E+03 -0.84777550536E+03 -0.67140407932E+03  0.12558922799E+04  0.46999998093E+01 0. -1.
       -5    1    3    3    0  502 -0.63854254641E+03  0.84777550536E+03  0.87470636009E+02  0.10649568504E+04  0.46999998093E+01 0.  1.
</event>
<event>
 5   0  0.4295775E-05  0.2296069E+04  0.7818609E-02  0.8479473E-01
        1   -1    0    0  501    0  0.00000000000E+00  0.00000000000E+00  0.10382794027E+04  0.10382794027E+04  0.50400001928E-02 0. -1.
       -1   -1    0    0    0  501  0.00000000000E+00  0.00000000000E+00 -0.12693914807E+04  0.12693914807E+04  0.50400001928E-02 0.  1.
    10030    2    1    2    0    0  0.00000000000E+00  0.00000000000E+00 -0.23111207799E+03  0.23076708834E+04  0.22960688390E+04 0.  0.
        5    1    3    3  502    0  0.50470778527E+03  0.28250869053E+03 -0.11122422420E+04  0.12536530635E+04  0.46999998093E+01 0.  1.
       -5    1    3    3    0  502 -0.50470778527E+03 -0.28250869053E+03  0.88113016402E+03  0.10540178199E+04  0.46999998093E+01 0. -1.
</event>
<event>
 5   0  0.3261500E-05  0.2240289E+04  0.7818609E-02  0.8501844E-01
        4   -1    0    0  501    0  0.00000000000E+00  0.00000000000E+00  0.14492808423E+04  0.14492813987E+04  0.12699999809E+01 0. -1.
       -4   -1    0    0    0  501  0.00000000000E+00  0.00000000000E+00 -0.86575472678E+03  0.86575565828E+03  0.12699999809E+01 0.  1.
    10030    2    1    2    0    0  0.00000000000E+00  0.00000000000E+00  0.58352611550E+03  0.23150370570E+04  0.22402887867E+04 0.  0.
        3    1    3    3  502    0 -0.23554746704E+03 -0.51375442951E+03  0.12911387130E+04  0.14094202388E+04  0.10100000352E+00 0. -1.
       -3    1    3    3    0  502  0.23554746704E+03  0.51375442951E+03 -0.70761259752E+03  0.90561681821E+03  0.10100000352E+00 0.  1.
</event>
<event>
 5   0  0.9483073E-05  0.2277176E+04  0.7818609E-02  0.8486975E-01
       -2   -1    0    0    0  501  0.00000000000E+00  0.00000000000E+00  0.12645033754E+04  0.12645033754E+04  0.25500000920E-02 0.  1.
        2   -1    0    0  501    0  0.00000000000E+00  0.00000000000E+00 -0.10252106814E+04  0.10252106814E+04  0.25500000920E-02 0. -1.
    10030    2    1    2    0    0  0.00000000000E+00  0.00000000000E+00  0.23929269402E+03  0.22897140569E+04  0.22771757659E+04 0.  0.
        5    1    3    3  502    0  0.57604953058E+03  0.61425433392E+03  0.89016770834E+03  0.12253824250E+04  0.46999998093E+01 0.  1.
       -5    1    3    3    0  502 -0.57604953058E+03 -0.61425433392E+03 -0.65087501432E+03  0.10643316319E+04  0.46999998093E+01 0. -1.
</event>
<event>
 5   0  0.9312074E-05  0.2298937E+04  0.7818609E-02  0.8478341E-01
        2   -1    0    0  501    0  0.00000000000E+00  0.00000000000E+00  0.80889939443E+03  0.80889939443E+03  0.25500000920E-02 0.  1.
       -2   -1    0    0    0  501  0.00000000000E+00  0.00000000000E+00 -0.16334259716E+04  0.16334259716E+04  0.25500000920E-02 0. -1.
    10030    2    1    2    0    0  0.00000000000E+00  0.00000000000E+00 -0.82452657722E+03  0.24423253661E+04  0.22989365188E+04 0.  0.
        4    1    3    3  502    0 -0.91615273137E+03  0.48730920623E+03 -0.93754097348E+03  0.13984958990E+04  0.12699999809E+01 0. -1.
       -4    1    3    3    0  502  0.91615273137E+03 -0.48730920623E+03  0.11301439626E+03  0.10438294671E+04  0.12699999809E+01 0.  1.
</event>
<event>
 5   0  0.4139830E-05  0.2303226E+04  0.7818609E-02  0.8476650E-01
       -1   -1    0    0    0  501  0.00000000000E+00  0.00000000000E+00  0.10565073084E+04  0.10565073084E+04  0.50400001928E-02 0. -1.
        1   -1    0    0  501    0  0.00000000000E+00  0.00000000000E+00 -0.12552798889E+04  0.12552798889E+04  0.50400001928E-02 0.  1.
    10030    2    1    2    0    0  0.00000000000E+00  0.00000000000E+00 -0.19877258053E+03  0.23117871973E+04  0.23032258914E+04 0.  0.
        1    1    3    3  502    0 -0.67810241628E+03  0.93078788953E+03 -0.10424104337E+03  0.11563110211E+04  0.50400001928E-02 0. -1.
       -1    1    3    3    0  502  0.67810241628E+03 -0.93078788953E+03 -0.94531537158E+02  0.11554761762E+04  0.50400001928E-02 0.  1.
</event>
<event>
 5   0  0.9483073E-05  0.2193041E+04  0.7818609E-02  0.8521330E-01
       -2   -1    0    0    0  501  0.00000000000E+00  0.00000000000E+00  0.71632148929E+03  0.71632148930E+03  0.25500000920E-02 0.  1.
        2   -1    0    0  501    0  0.00000000000E+00  0.00000000000E+00 -0.16785157607E+04  0.16785157607E+04  0.25500000920E-02 0. -1.
    10030    2    1    2    0    0  0.00000000000E+00  0.00000000000E+00 -0.96219427145E+03  0.23948372500E+04  0.21930407288E+04 0.  0.
        5    1    3    3  502    0  0.37005727636E+03  0.10674381731E+03 -0.16022097515E+04  0.16478576419E+04  0.46999998093E+01 0. -1.
       -5    1    3    3    0  502 -0.37005727636E+03 -0.10674381731E+03  0.64001548001E+03  0.74697960814E+03  0.46999998093E+01 0.  1.
</event>
<event>
 5   0  0.4295775E-05  0.2262629E+04  0.7818609E-02  0.8492803E-01
        1   -1    0    0  501    0  0.00000000000E+00  0.00000000000E+00  0.85444572639E+03  0.85444572640E+03  0.50400001928E-02 0.  1.
       -1   -1    0    0    0  501  0.00000000000E+00  0.00000000000E+00 -0.14978985925E+04  0.14978985925E+04  0.50400001928E-02 0. -1.
    10030    2    1    2    0    0  0.00000000000E+00  0.00000000000E+00 -0.64345286607E+03  0.23523443189E+04  0.22626294888E+04 0.  0.
        5    1    3    3  502    0  0.72672040479E+03  0.83003053266E+03 -0.61236917218E+02  0.11049186766E+04  0.46999998093E+01 0. -1.
       -5    1    3    3    0  502 -0.72672040479E+03 -0.83003053266E+03 -0.58221594885E+03  0.12474256423E+04  0.46999998093E+01 0.  1.
</event>
<event>
 5   0  0.9641157E-05  0.2317733E+04  0.7818609E-02  0.8470962E-01
       -2   -1    0    0    0  501  0.00000000000E+00  0.00000000000E+00  0.50405261307E+03  0.50405261308E+03  0.25500000920E-02 0. -1.
        2   -1    0    0  501    0  0.00000000000E+00  0.00000000000E+00 -0.26643488445E+04  0.26643488445E+04  0.25500000920E-02 0.  1.
    10030    2    1    2    0    0  0.00000000000E+00  0.00000000000E+00 -0.21602962314E+04  0.31684014576E+04  0.23177333731E+04 0.  0.
        3    1    3    3  502    0  0.32826554183E+03  0.11094781628E+04 -0.99079932885E+03  0.15232804666E+04  0.10100000352E+00 0.  1.
       -3    1    3    3    0  502 -0.32826554183E+03 -0.11094781628E+04 -0.11694969026E+04  0.16451209910E+04  0.10100000352E+00 0. -1.
</event>
<event>
 5   0  0.9483073E-05  0.2106167E+04  0.7818609E-02  0.8558532E-01
        2   -1    0    0  501    0  0.00000000000E+00  0.00000000000E+00  0.16907640418E+04  0.16907640418E+04  0.25500000920E-02 0. -1.
       -2   -1    0    0    0  501  0.00000000000E+00  0.00000000000E+00 -0.65590732676E+03  0.65590732676E+03  0.25500000920E-02 0.  1.
    10030    2    1    2    0    0  0.00000000000E+00  0.00000000000E+00  0.10348567150E+04  0.23466713685E+04  0.21061666818E+04 0.  0.
        5    1    3    3  502    0  0.56844569224E+03 -0.62355737792E+03  0.12194641156E+04  0.14829258673E+04  0.46999998093E+01 0. -1.
       -5    1    3    3    0  502 -0.56844569224E+03  0.62355737792E+03 -0.18460740060E+03  0.86374550126E+03  0.46999998093E+01 0.  1.
</event>
<event>
 5   0  0.4005462E-05  0.2282381E+04  0.7818609E-02  0.8484900E-01
       -1   -1    0    0    0  501  0.00000000000E+00  0.00000000000E+00  0.74087651385E+03  0.74087651386E+03  0.50400001928E-02 0. -1.
        1   -1    0    0  501    0  0.00000000000E+00  0.00000000000E+00 -0.17578044992E+04  0.17578044992E+04  0.50400001928E-02 0.  1.
    10030    2    1    2    0    0  0.00000000000E+00  0.00000000000E+00 -0.10169279853E+04  0.24986810130E+04  0.22823812735E+04 0.  0.
        4    1    3    3  502    0 -0.45567219768E+03  0.74826679287E+03  0.29212167090E+03  0.92351341548E+03  0.12699999809E+01 0. -1.
       -4    1    3    3    0  502  0.45567219768E+03 -0.74826679287E+03 -0.13090496562E+04  0.15751675976E+04  0.12699999809E+01 0.  1.
</event>
<event>
 5   0  0.9641157E-05  0.2307846E+04  0.7818609E-02  0.8474834E-01
       -2   -1    0    0    0  501  0.00000000000E+00  0.00000000000E+00  0.66076785387E+03  0.66076785388E+03  0.25500000920E-02 0. -1.
        2   -1    0    0  501    0  0.00000000000E+00  0.00000000000E+00 -0.20151373019E+04  0.20151373019E+04  0.25500000920E-02 0.  1.
    10030    2    1    2    0    0  0.00000000000E+00  0.00000000000E+00 -0.13543694481E+04  0.26759051558E+04  0.23078457057E+04 0.  0.
        3    1    3    3  502    0  0.35129945560E+02  0.14457293375E+03 -0.20039696482E+04  0.20094849607E+04  0.10100000352E+00 0.  1.
       -3    1    3    3    0  502 -0.35129945560E+02 -0.14457293375E+03  0.64960020012E+03  0.66642019511E+03  0.10100000352E+00 0. -1.
</event>
<event>
 5   0  0.9535394E-05  0.2296732E+04  0.7818609E-02  0.8479211E-01
        2   -1    0    0  501    0  0.00000000000E+00  0.00000000000E+00  0.13749581703E+04  0.13749581703E+04  0.25500000920E-02 0.  1.
       -2   -1    0    0    0  501  0.00000000000E+00  0.00000000000E+00 -0.95911625031E+03  0.95911625032E+03  0.25500000920E-02 0. -1.
    10030    2    1    2    0    0  0.00000000000E+00  0.00000000000E+00  0.41584191994E+03  0.23340744206E+04  0.22967322217E+04 0.  0.
        2    1    3    3  502    0  0.94118113777E+03 -0.64630185293E+03  0.33328259628E+03  0.11893718124E+04  0.25500000920E-02 0. -1.
       -2    1    3    3    0  502 -0.94118113777E+03  0.64630185293E+03  0.82559323654E+02  0.11447026082E+04  0.25500000920E-02 0.  1.
</event>
<event>
 5   0  0.9312074E-05  0.2281571E+04  0.7818609E-02  0.8485223E-01
        2   -1    0    0  501    0  0.00000000000E+00  0.00000000000E+00  0.15128143912E+04  0.15128143912E+04  0.25500000920E-02 0.  1.
       -2   -1    0    0    0  501  0.00000000000E+00  0.00000000000E+00 -0.86024549824E+03  0.86024549824E+03  0.25500000920E-02 0. -1.
    10030    2    1    2    0    0  0.00000000000E+00  0.00000000000E+00  0.65256889297E+03  0.23730598894E+04  0.22815711864E+04 0.  0.
        4    1    3    3  502    0  0.29066045210E+03  0.10581564434E+04  0.19943244726E+01  0.10973532464E+04  0.12699999809E+01 0.  1.
       -4    1    3    3    0  502 -0.29066045210E+03 -0.10581564434E+04  0.65057456850E+03  0.12757066431E+04  0.12699999809E+01 0. -1.
</event>
<event>
 5   0  0.9483073E-05  0.2300311E+04  0.7818609E-02  0.8477799E-01
       -2   -1    0    0    0  501  0.00000000000E+00  0.00000000000E+00  0.83352430733E+03  0.83352430734E+03  0.25500000920E-02 0.  1.
        2   -1    0    0  501    0  0.00000000000E+00  0.00000000000E+00 -0.15870651338E+04  0.15870651338E+04  0.25500000920E-02 0. -1.
    10030    2    1    2    0    0  0.00000000000E+00  0.00000000000E+00 -0.75354082642E+03  0.24205894411E+04  0.23003107323E+04 0.  0.
        5    1    3    3  502    0  0.37322310678E+03 -0.23880580019E+03 -0.14936399842E+04  0.15579814473E+04  0.46999998093E+01 0. -1.
       -5    1    3    3    0  502 -0.37322310678E+03  0.23880580019E+03  0.74009915779E+03  0.86260799382E+03  0.46999998093E+01 0.  1.
</event>
<event>
 5   0  0.9313463E-05  0.2285003E+04  0.7818609E-02  0.8483858E-01
        2   -1    0    0  501    0  0.00000000000E+00  0.00000000000E+00  0.10454844146E+04  0.10454844146E+04  0.25500000920E-02 0. -1.
       -2   -1    0    0    0  501  0.00000000000E+00  0.00000000000E+00 -0.12485218561E+04  0.12485218561E+04  0.25500000920E-02 0.  1.
    10030    2    1    2    0    0  0.00000000000E+00  0.00000000000E+00 -0.20303744143E+03  0.22940062707E+04  0.22850034064E+04 0.  0.
        1    1    3    3  502    0  0.93290644170E+03 -0.42726260363E+03  0.40289731219E+03  0.11023583835E+04  0.50400001928E-02 0. -1.
       -1    1    3    3    0  502 -0.93290644170E+03  0.42726260363E+03 -0.60593475361E+03  0.11916478872E+04  0.50400001928E-02 0.  1.
</event>
<event>
 5   0  0.9313463E-05  0.2286907E+04  0.7818609E-02  0.8483101E-01
        2   -1    0    0  501    0  0.00000000000E+00  0.00000000000E+00  0.11780546876E+04  0.11780546876E+04  0.25500000920E-02 0.  1.
       -2   -1    0    0    0  501  0.00000000000E+00  0.00000000000E+00 -0.11098689317E+04  0.11098689317E+04  0.25500000920E-02 0. -1.
    10030    2    1    2    0    0  0.00000000000E+00  0.00000000000E+00  0.68185755941E+02  0.22879236193E+04  0.22869073419E+04 0.  0.
        1    1    3    3  502    0  0.23913792282E+03  0.11114028298E+04  0.15696073336E+03  0.11476235742E+04  0.50400001928E-02 0.  1.
       -1    1    3    3    0  502 -0.23913792282E+03 -0.11114028298E+04 -0.88774977418E+02  0.11403000451E+04  0.50400001928E-02 0. -1.
</event>
<event>
 5   0  0.4139830E-05  0.2303365E+04  0.7818609E-02  0.8476596E-01
        1   -1    0    0  501    0  0.00000000000E+00  0.00000000000E+00  0.10845607240E+04  0.10845607240E+04  0.50400001928E-02 0. -1.
       -1   -1    0    0    0  501  0.00000000000E+00  0.00000000000E+00 -0.12229582784E+04  0.12229582784E+04  0.50400001928E-02 0.  1.
    10030    2    1    2    0    0  0.00000000000E+00  0.00000000000E+00 -0.13839755446E+03  0.23075190024E+04  0.23033649436E+04 0.  0.
        1    1    3    3  502    0  0.10525313518E+04  0.26037366892E+03 -0.45817188774E+03  0.11770888550E+04  0.50400001928E-02 0.  1.
       -1    1    3    3    0  502 -0.10525313518E+04 -0.26037366892E+03  0.31977433328E+03  0.11304301474E+04  0.50400001928E-02 0. -1.
</event>
<event>
 5   0  0.3885219E-05  0.2300485E+04  0.7818609E-02  0.8477730E-01
       -1   -1    0    0    0  501  0.00000000000E+00  0.00000000000E+00  0.97009473581E+03  0.97009473582E+03  0.50400001928E-02 0. -1.
        1   -1    0    0  501    0  0.00000000000E+00  0.00000000000E+00 -0.13638441106E+04  0.13638441107E+04  0.50400001928E-02 0.  1.
    10030    2    1    2    0    0  0.00000000000E+00  0.00000000000E+00 -0.39374937484E+03  0.23339388465E+04  0.23004851595E+04 0.  0.
        2    1    3    3  502    0  0.76596761886E+03 -0.85810715860E+03 -0.19882710804E+03  0.11672988082E+04  0.25500000920E-02 0.  1.
       -2    1    3    3    0  502 -0.76596761886E+03  0.85810715860E+03 -0.19492226679E+03  0.11666400383E+04  0.25500000920E-02 0. -1.
</event>
<event>
 5   0  0.9313463E-05  0.2301748E+04  0.7818609E-02  0.8477232E-01
        2   -1    0    0  501    0  0.00000000000E+00  0.00000000000E+00  0.17128396218E+04  0.17128396218E+04  0.25500000920E-02 0. -1.
       -2   -1    0    0    0  501  0.00000000000E+00  0.00000000000E+00 -0.77328395468E+03  0.77328395469E+03  0.25500000920E-02 0.  1.
    10030    2    1    2    0    0  0.00000000000E+00  0.00000000000E+00  0.93955566714E+03  0.24861235765E+04  0.23017483759E+04 0.  0.
        1    1    3    3  502    0 -0.33816098608E+03  0.24580326577E+03  0.16279271487E+04  0.16807495053E+04  0.50400001928E-02 0. -1.
       -1    1    3    3    0  502  0.33816098608E+03 -0.24580326577E+03 -0.68837148156E+03  0.80537407124E+03  0.50400001928E-02 0.  1.
</event>
<event>
 5   0  0.4095451E-05  0.2347828E+04  0.7818609E-02  0.8459298E-01
        1   -1    0    0  501    0  0.00000000000E+00  0.00000000000E+00  0.14185160051E+04  0.14185160051E+04  0.50400001928E-02 0.  1.
       -1   -1    0    0    0  501  0.00000000000E+00  0.00000000000E+00 -0.97148999156E+03  0.97148999157E+03  0.50400001928E-02 0. -1.
    10030    2    1    2    0    0  0.00000000000E+00  0.00000000000E+00  0.44702601356E+03  0.23900059967E+04  0.23478280191E+04 0.  0.
        3    1    3    3  502    0 -0.18874765177E+02  0.95095898761E+03  0.92391031571E+03  0.13260051035E+04  0.10100000352E+00 0.  1.
       -3    1    3    3    0  502  0.18874765177E+02 -0.95095898761E+03 -0.47688430214E+03  0.10640008932E+04  0.10100000352E+00 0. -1.
</event>
<event>
 5   0  0.9483073E-05  0.2297186E+04  0.7818609E-02  0.8479031E-01
        2   -1    0    0  501    0  0.00000000000E+00  0.00000000000E+00  0.11198174766E+04  0.11198174766E+04  0.25500000920E-02 0. -1.
       -2   -1    0    0    0  501  0.00000000000E+00  0.00000000000E+00 -0.11781080460E+04  0.11781080460E+04  0.25500000920E-02 0.  1.
    10030    2    1    2    0    0  0.00000000000E+00  0.00000000000E+00 -0.58290569355E+02  0.22979255226E+04  0.22971860867E+04 0.  0.
        5    1    3    3  502    0 -0.13845945027E+02 -0.18360227332E+03  0.11049490629E+04  0.11201946378E+04  0.46999998093E+01 0. -1.
       -5    1    3    3    0  502  0.13845945027E+02  0.18360227332E+03 -0.11632396322E+04  0.11777308848E+04  0.46999998093E+01 0.  1.
</event>
<event>
 5   0  0.4095451E-05  0.2367976E+04  0.7818609E-02  0.8451591E-01
       -1   -1    0    0    0  501  0.00000000000E+00  0.00000000000E+00  0.13737506391E+04  0.13737506391E+04  0.50400001928E-02 0.  1.
        1   -1    0    0  501    0  0.00000000000E+00  0.00000000000E+00 -0.10204380784E+04  0.10204380784E+04  0.50400001928E-02 0. -1.
    10030    2    1    2    0    0  0.00000000000E+00  0.00000000000E+00  0.35331256068E+03  0.23941887175E+04  0.23679758971E+04 0.  0.
        3    1    3    3  502    0  0.82709278924E+03  0.82875200055E+03  0.35442951391E+03  0.12233285131E+04  0.10100000352E+00 0.  1.
       -3    1    3    3    0  502 -0.82709278924E+03 -0.82875200055E+03 -0.11169532283E+01  0.11708602044E+04  0.10100000352E+00 0. -1.
</event>
<event>
 5   0  0.9535394E-05  0.2326540E+04  0.7818609E-02  0.8467530E-01
       -2   -1    0    0    0  501  0.00000000000E+00  0.00000000000E+00  0.10465590862E+04  0.10465590862E+04  0.25500000920E-02 0.  1.
        2   -1    0    0  501    0  0.00000000000E+00  0.00000000000E+00 -0.12929960065E+04  0.12929960065E+04  0.25500000920E-02 0. -1.
    10030    2    1    2    0    0  0.00000000000E+00  0.00000000000E+00 -0.24643692032E+03  0.23395550927E+04  0.23265396786E+04 0.  0.
        2    1    3    3  502    0 -0.26094441116E+03  0.17418558974E+03 -0.12496475500E+04  0.12884298990E+04  0.25500000920E-02 0. -1.
       -2    1    3    3    0  502  0.26094441116E+03 -0.17418558974E+03  0.10032106297E+04  0.10511251937E+04  0.25500000920E-02 0.  1.
</event>
<event>
 5   0  0.4005462E-05  0.1949563E+04  0.7818609E-02  0.8630571E-01
       -1   -1    0    0    0  501  0.00000000000E+00  0.00000000000E+00  0.12225629283E+04  0.12225629283E+04  0.50400001928E-02 0. -1.
        1   -1    0    0  501    0  0.00000000000E+00  0.00000000000E+00 -0.77721892007E+03  0.77721892008E+03  0.50400001928E-02 0.  1.
    10030    2    1    2    0    0  0.00000000000E+00  0.00000000000E+00  0.44534400824E+03  0.19997818484E+04  0.19495630678E+04 0.  0.
        4    1    3    3  502    0 -0.81506044053E+03  0.25966235613E+03  0.70209705872E+03  0.11066571075E+04  0.12699999809E+01 0. -1.
       -4    1    3    3    0  502  0.81506044053E+03 -0.25966235613E+03 -0.25675305049E+03  0.89312474086E+03  0.12699999809E+01 0.  1.
</event>
<event>
 5   0  0.4295775E-05  0.2246645E+04  0.7818609E-02  0.8499260E-01
        1   -1    0    0  501    0  0.00000000000E+00  0.00000000000E+00  0.19781425243E+04  0.19781425243E+04  0.50400001928E-02 0.  1.
       -1   -1    0    0    0  501  0.00000000000E+00  0.00000000000E+00 -0.63789819231E+03  0.63789819233E+03  0.50400001928E-02 0. -1.
    10030    2    1    2    0    0  0.00000000000E+00  0.00000000000E+00  0.13402443319E+04  0.26160407166E+04  0.22466450903E+04 0.  0.
        5    1    3    3  502    0  0.95595538015E+03 -0.10195388163E+03  0.13466759849E+04  0.16546309502E+04  0.46999998093E+01 0.  1.
       -5    1    3    3    0  502 -0.95595538015E+03  0.10195388163E+03 -0.64316529937E+01  0.96140976643E+03  0.46999998093E+01 0. -1.
</event>
<event>
 5   0  0.4139830E-05  0.2159549E+04  0.7818609E-02  0.8535456E-01
        1   -1    0    0  501    0  0.00000000000E+00  0.00000000000E+00  0.87404497539E+03  0.87404497541E+03  0.50400001928E-02 0.  1.
       -1   -1    0    0    0  501  0.00000000000E+00  0.00000000000E+00 -0.13339284455E+04  0.13339284455E+04  0.50400001928E-02 0. -1.
    10030    2    1    2    0    0  0.00000000000E+00  0.00000000000E+00 -0.45988347014E+03  0.22079734210E+04  0.21595494487E+04 0.  0.
        1    1    3    3  502    0  0.10499052398E+04  0.24660755711E+03 -0.28401579813E+03  0.11152494220E+04  0.50400001928E-02 0.  1.
       -1    1    3    3    0  502 -0.10499052398E+04 -0.24660755711E+03 -0.17586767202E+03  0.10927239989E+04  0.50400001928E-02 0. -1.
</event>
<event>
 5   0  0.3885219E-05  0.2299421E+04  0.7818609E-02  0.8478149E-01
        1   -1    0    0  501    0  0.00000000000E+00  0.00000000000E+00  0.12623601839E+04  0.12623601839E+04  0.50400001928E-02 0. -1.
       -1   -1    0    0    0  501  0.00000000000E+00  0.00000000000E+00 -0.10471136553E+04  0.10471136553E+04  0.50400001928E-02 0.  1.
    10030    2    1    2    0    0  0.00000000000E+00  0.00000000000E+00  0.21524652859E+03  0.23094738392E+04  0.22994213067E+04 0.  0.
        2    1    3    3  502    0  0.11132028310E+04 -0.28414335776E+03  0.64114187174E+02  0.11506818064E+04  0.25500000920E-02 0. -1.
       -2    1    3    3    0  502 -0.11132028310E+04  0.28414335776E+03  0.15113234142E+03  0.11587920328E+04  0.25500000920E-02 0.  1.
</event>
<event>
 5   0  0.9641157E-05  0.2259508E+04  0.7818609E-02  0.8494060E-01
        2   -1    0    0  501    0  0.00000000000E+00  0.00000000000E+00  0.12705487612E+04  0.12705487612E+04  0.25500000920E-02 0. -1.
       -2   -1    0    0    0  501  0.00000000000E+00  0.00000000000E+00 -0.10045613131E+04  0.10045613131E+04  0.25500000920E-02 0.  1.
    10030    2    1    2    0    0  0.00000000000E+00  0.00000000000E+00  0.26598744805E+03  0.22751100743E+04  0.22595080278E+04 0.  0.
        3    1    3    3  502    0  0.80234663972E+02  0.38353947174E+03  0.11999349572E+04  0.12622931670E+04  0.10100000352E+00 0. -1.
       -3    1    3    3    0  502 -0.80234663972E+02 -0.38353947174E+03 -0.93394750916E+03  0.10128169073E+04  0.10100000352E+00 0.  1.
</event>
<event>
 5   0  0.9313463E-05  0.2241748E+04  0.7818609E-02  0.8501250E-01
        2   -1    0    0  501    0  0.00000000000E+00  0.00000000000E+00  0.93225260118E+03  0.93225260118E+03  0.25500000920E-02 0. -1.
       -2   -1    0    0    0  501  0.00000000000E+00  0.00000000000E+00 -0.13476591773E+04  0.13476591773E+04  0.25500000920E-02 0.  1.
    10030    2    1    2    0    0  0.00000000000E+00  0.00000000000E+00 -0.41540657614E+03  0.22799117785E+04  0.22417482228E+04 0.  0.
        1    1    3    3  502    0 -0.42472218780E+03 -0.32984196817E+03 -0.12078956645E+04  0.13221938576E+04  0.50400001928E-02 0.  1.
       -1    1    3    3    0  502  0.42472218780E+03  0.32984196817E+03  0.79248908836E+03  0.95771792088E+03  0.50400001928E-02 0. -1.
</event>
<event>
 5   0  0.3885219E-05  0.2008158E+04  0.7818609E-02  0.8602816E-01
        1   -1    0    0  501    0  0.00000000000E+00  0.00000000000E+00  0.14434319323E+04  0.14434319323E+04  0.50400001928E-02 0. -1.
       -1   -1    0    0    0  501  0.00000000000E+00  0.00000000000E+00 -0.69845694732E+03  0.69845694733E+03  0.50400001928E-02 0.  1.
    10030    2    1    2    0    0  0.00000000000E+00  0.00000000000E+00  0.74497498501E+03  0.21418888797E+04  0.20081584212E+04 0.  0.
        2    1    3    3  502    0  0.31930472202E+03  0.42864679276E+03  0.12790804175E+04  0.13862684779E+04  0.25500000920E-02 0. -1.
       -2    1    3    3    0  502 -0.31930472202E+03 -0.42864679276E+03 -0.53410543251E+03  0.75562040172E+03  0.25500000920E-02 0.  1.
</event>
<event>
 5   0  0.4005462E-05  0.2308078E+04  0.7818609E-02  0.8474743E-01
        1   -1    0    0  501    0  0.00000000000E+00  0.00000000000E+00  0.15663470875E+04  0.15663470875E+04  0.50400001928E-02 0. -1.
       -1   -1    0    0    0  501  0.00000000000E+00  0.00000000000E+00 -0.85026264157E+03  0.85026264158E+03  0.50400001928E-02 0.  1.
    10030    2    1    2    0    0  0.00000000000E+00  0.00000000000E+00  0.71608444593E+03  0.24166097291E+04  0.23080783455E+04 0.  0.
        4    1    3    3  502    0  0.55956007584E+03 -0.33141724696E+03 -0.64012763514E+03  0.91252938157E+03  0.12699999809E+01 0.  1.
       -4    1    3    3    0  502 -0.55956007584E+03  0.33141724696E+03  0.13562120811E+04  0.15040803475E+04  0.12699999809E+01 0. -1.
</event>
<event>
 5   0  0.4095451E-05  0.2249613E+04  0.7818609E-02  0.8498057E-01
       -1   -1    0    0    0  501  0.00000000000E+00  0.00000000000E+00  0.66297841746E+03  0.66297841748E+03  0.50400001928E-02 0.  1.
        1   -1    0    0  501    0  0.00000000000E+00  0.00000000000E+00 -0.19083420031E+04  0.19083420031E+04  0.50400001928E-02 0. -1.
    10030    2    1    2    0    0  0.00000000000E+00  0.00000000000E+00 -0.12453635857E+04  0.25713204206E+04  0.22496129100E+04 0.  0.
        3    1    3    3  502    0  0.10801322201E+03  0.57547157164E+03 -0.17204167521E+04  0.18173244611E+04  0.10100000352E+00 0. -1.
       -3    1    3    3    0  502 -0.10801322201E+03 -0.57547157164E+03  0.47505316639E+03  0.75399595954E+03  0.10100000352E+00 0.  1.
</event>
<event>
 5   0  0.4005462E-05  0.2347555E+04  0.7818609E-02  0.8459403E-01
        1   -1    0    0  501    0  0.00000000000E+00  0.00000000000E+00  0.26812288731E+04  0.26812288731E+04  0.50400001928E-02 0.  1.
       -1   -1    0    0    0  501  0.00000000000E+00  0.00000000000E+00 -0.51385161984E+03  0.51385161986E+03  0.50400001928E-02 0. -1.
    10030    2    1    2    0    0  0.00000000000E+00  0.00000000000E+00  0.21673772533E+04  0.31950804930E+04  0.23475551535E+04 0.  0.
        4    1    3    3  502    0  0.10025316707E+03 -0.34282159157E+02  0.26747062283E+04  0.26768042484E+04  0.12699999809E+01 0.  1.
       -4    1    3    3    0  502 -0.10025316707E+03  0.34282159157E+02 -0.50732897497E+03  0.51827624457E+03  0.12699999809E+01 0. -1.
</event>
<event>
 5   0  0.9535394E-05  0.2311439E+04  0.7818609E-02  0.8473425E-01
       -2   -1    0    0    0  501  0.00000000000E+00  0.00000000000E+00  0.82000526704E+03  0.82000526704E+03  0.25500000920E-02 0. -1.
        2   -1    0    0  501    0  0.00000000000E+00  0.00000000000E+00 -0.16288764388E+04  0.16288764388E+04  0.25500000920E-02 0.  1.
    10030    2    1    2    0    0  0.00000000000E+00  0.00000000000E+00 -0.80887117181E+03  0.24488817059E+04  0.23114387374E+04 0.  0.
        2    1    3    3  502    0  0.29376232537E+03  0.78858505598E+03  0.43483264737E+03  0.94722865536E+03  0.25500000920E-02 0. -1.
       -2    1    3    3    0  502 -0.29376232537E+03 -0.78858505598E+03 -0.12437038192E+04  0.15016530505E+04  0.25500000920E-02 0.  1.
</event>
<event>
 5   0  0.9313463E-05  0.2288880E+04  0.7818609E-02  0.8482319E-01
       -2   -1    0    0    0  501  0.00000000000E+00  0.00000000000E+00  0.95194205891E+03  0.95194205891E+03  0.25500000920E-02 0.  1.
        2   -1    0    0  501    0  0.00000000000E+00  0.00000000000E+00 -0.13758635698E+04  0.13758635698E+04  0.25500000920E-02 0. -1.
    10030    2    1    2    0    0  0.00000000000E+00  0.00000000000E+00 -0.42392151091E+03  0.23278056287E+04  0.22888795507E+04 0.  0.
        1    1    3    3  502    0 -0.88713879241E+03 -0.21839136092E+03 -0.91290807595E+03  0.12915537847E+04  0.50400001928E-02 0.  1.
       -1    1    3    3    0  502  0.88713879241E+03  0.21839136092E+03  0.48898656503E+03  0.10362518441E+04  0.50400001928E-02 0. -1.
</event>
<event>
 5   0  0.4139830E-05  0.2169561E+04  0.7818609E-02  0.8531205E-01
       -1   -1    0    0    0  501  0.00000000000E+00  0.00000000000E+00  0.10015619030E+04  0.10015619031E+04  0.50400001928E-02 0. -1.
        1   -1    0    0  501    0  0.00000000000E+00  0.00000000000E+00 -0.11749134188E+04  0.11749134188E+04  0.50400001928E-02 0.  1.
    10030    2    1    2    0    0  0.00000000000E+00  0.00000000000E+00 -0.17335151579E+03  0.21764753219E+04  0.21695608032E+04 0.  0.
        1    1    3    3  502    0  0.65290829592E+03  0.33561036487E+02  0.78172327578E+03  0.10190715706E+04  0.50400001928E-02 0. -1.
       -1    1    3    3    0  502 -0.65290829592E+03 -0.33561036487E+02 -0.95507479157E+03  0.11574037513E+04  0.50400001928E-02 0.  1.
</event>
<event>
 5   0  0.9535394E-05  0.2316190E+04  0.7818609E-02  0.8471565E-01
        2   -1    0    0  501    0  0.00000000000E+00  0.00000000000E+00  0.15371044361E+04  0.15371044361E+04  0.25500000920E-02 0.  1.
       -2   -1    0    0    0  501  0.00000000000E+00  0.00000000000E+00 -0.87253962105E+03  0.87253962105E+03  0.25500000920E-02 0. -1.
    10030    2    1    2    0    0  0.00000000000E+00  0.00000000000E+00  0.66456481503E+03  0.24096440571E+04  0.23161904258E+04 0.  0.
        2    1    3    3  502    0  0.66766760224E+03 -0.66757414982E+03 -0.36540977477E+03  0.10124028724E+04  0.25500000920E-02 0. -1.
       -2    1    3    3    0  502 -0.66766760224E+03  0.66757414982E+03  0.10299745898E+04  0.13972411847E+04  0.25500000920E-02 0.  1.
</event>
<event>
 5   0  0.4095451E-05  0.2294044E+04  0.7818609E-02  0.8480273E-01
        1   -1    0    0  501    0  0.00000000000E+00  0.00000000000E+00  0.15855859005E+04  0.15855859005E+04  0.50400001928E-02 0. -1.
       -1   -1    0    0    0  501  0.00000000000E+00  0.00000000000E+00 -0.82976254235E+03  0.82976254237E+03  0.50400001928E-02 0.  1.
    10030    2    1    2    0    0  0.00000000000E+00  0.00000000000E+00  0.75582335810E+03  0.24153484428E+04  0.22940442785E+04 0.  0.
        3    1    3    3  502    0 -0.10107456072E+04  0.10943680500E+03 -0.18128114294E+03  0.10326887042E+04  0.10100000352E+00 0. -1.
       -3    1    3    3    0  502  0.10107456072E+04 -0.10943680500E+03  0.93710450104E+03  0.13826597386E+04  0.10100000352E+00 0.  1.
</event>
<event>
 5   0  0.9313463E-05  0.2176513E+04  0.7818609E-02  0.8528268E-01
       -2   -1    0    0    0  501  0.00000000000E+00  0.00000000000E+00  0.13647805814E+04  0.13647805814E+04  0.25500000920E-02 0.  1.
        2   -1    0    0  501    0  0.00000000000E+00  0.00000000000E+00 -0.86775988310E+03  0.86775988311E+03  0.25500000920E-02 0. -1.
    10030    2    1    2    0    0  0.00000000000E+00  0.00000000000E+00  0.49702069829E+03  0.22325404645E+04  0.21765126582E+04 0.  0.
        1    1    3    3  502    0  0.52289350050E+03 -0.54581817453E+03  0.10515862596E+04  0.12950555023E+04  0.50400001928E-02 0.  1.
       -1    1    3    3    0  502 -0.52289350050E+03  0.54581817453E+03 -0.55456556135E+03  0.93748496221E+03  0.50400001928E-02 0. -1.
</event>
<event>
 5   0  0.4095451E-05  0.2291659E+04  0.7818609E-02  0.8481217E-01
       -1   -1    0    0    0  501  0.00000000000E+00  0.00000000000E+00  0.14936431822E+04  0.14936431822E+04  0.50400001928E-02 0. -1.
        1   -1    0    0  501    0  0.00000000000E+00  0.00000000000E+00 -0.87900881451E+03  0.87900881452E+03  0.50400001928E-02 0.  1.
    10030    2    1    2    0    0  0.00000000000E+00  0.00000000000E+00  0.61463436766E+03  0.23726519967E+04  0.22916592442E+04 0.  0.
        3    1    3    3  502    0 -0.12921892058E+03 -0.24030831716E+03 -0.84488444056E+03  0.88784871731E+03  0.10100000352E+00 0.  1.
       -3    1    3    3    0  502  0.12921892058E+03  0.24030831716E+03  0.14595188082E+04  0.14848032794E+04  0.10100000352E+00 0. -1.
</event>
<event>
 5   0  0.9483073E-05  0.2302455E+04  0.7818609E-02  0.8476954E-01
        2   -1    0    0  501    0  0.00000000000E+00  0.00000000000E+00  0.10820213152E+04  0.10820213152E+04  0.25500000920E-02 0.  1.
       -2   -1    0    0    0  501  0.00000000000E+00  0.00000000000E+00 -0.12248606456E+04  0.12248606456E+04  0.25500000920E-02 0. -1.
    10030    2    1    2    0    0  0.00000000000E+00  0.00000000000E+00 -0.14283933039E+03  0.23068819607E+04  0.23024554950E+04 0.  0.
        5    1    3    3  502    0  0.41829864634E+03  0.97678333644E+03  0.37240349508E+03  0.11259599891E+04  0.46999998093E+01 0.  1.
       -5    1    3    3    0  502 -0.41829864634E+03 -0.97678333644E+03 -0.51524282547E+03  0.11809219716E+04  0.46999998093E+01 0. -1.
</event>
<event>
 5   0  0.9313463E-05  0.2307943E+04  0.7818609E-02  0.8474796E-01
        2   -1    0    0  501    0  0.00000000000E+00  0.00000000000E+00  0.12395944195E+04  0.12395944195E+04  0.25500000920E-02 0. -1.
       -2   -1    0    0    0  501  0.00000000000E+00  0.00000000000E+00 -0.10742624428E+04  0.10742624428E+04  0.25500000920E-02 0.  1.
    10030    2    1    2    0    0  0.00000000000E+00  0.00000000000E+00  0.16533197667E+03  0.23138568623E+04  0.23079425722E+04 0.  0.
        1    1    3    3  502    0 -0.98750383125E+03  0.41678519635E+03  0.51128466445E+03  0.11875545144E+04  0.50400001928E-02 0. -1.
       -1    1    3    3    0  502  0.98750383125E+03 -0.41678519635E+03 -0.34595268779E+03  0.11263023479E+04  0.50400001928E-02 0.  1.
</event>
<event>
 5   0  0.3885219E-05  0.2279555E+04  0.7818609E-02  0.8486026E-01
        1   -1    0    0  501    0  0.00000000000E+00  0.00000000000E+00  0.14539140190E+04  0.14539140190E+04  0.50400001928E-02 0.  1.
       -1   -1    0    0    0  501  0.00000000000E+00  0.00000000000E+00 -0.89351405583E+03  0.89351405585E+03  0.50400001928E-02 0. -1.
    10030    2    1    2    0    0  0.00000000000E+00  0.00000000000E+00  0.56039996320E+03  0.23474280749E+04  0.22795548794E+04 0.  0.
        2    1    3    3  502    0 -0.50386051150E+03  0.61700664857E+03  0.11196527545E+04  0.13741160468E+04  0.25500000920E-02 0.  1.
       -2    1    3    3    0  502  0.50386051150E+03 -0.61700664857E+03 -0.55925279129E+03  0.97331202808E+03  0.25500000920E-02 0. -1.
</event>
<event>
 5   0  0.9535394E-05  0.2360352E+04  0.7818609E-02  0.8454498E-01
        2   -1    0    0  501    0  0.00000000000E+00  0.00000000000E+00  0.19871496060E+04  0.19871496060E+04  0.25500000920E-02 0.  1.
       -2   -1    0    0    0  501  0.00000000000E+00  0.00000000000E+00 -0.70091107466E+03  0.70091107466E+03  0.25500000920E-02 0. -1.
    10030    2    1    2    0    0  0.00000000000E+00  0.00000000000E+00  0.12862385313E+04  0.26880606806E+04  0.23603518092E+04 0.  0.
        2    1    3    3  502    0  0.10248954708E+04 -0.15485737866E+03  0.12857551536E+04  0.16515319703E+04  0.25500000920E-02 0.  1.
       -2    1    3    3    0  502 -0.10248954708E+04  0.15485737866E+03  0.48337766705E+00  0.10365287104E+04  0.25500000920E-02 0. -1.
</event>
<event>
 5   0  0.9313463E-05  0.2330950E+04  0.7818609E-02  0.8465817E-01
       -2   -1    0    0    0  501  0.00000000000E+00  0.00000000000E+00  0.12048691970E+04  0.12048691970E+04  0.25500000920E-02 0.  1.
        2   -1    0    0  501    0  0.00000000000E+00  0.00000000000E+00 -0.11273689524E+04  0.11273689524E+04  0.25500000920E-02 0. -1.
    10030    2    1    2    0    0  0.00000000000E+00  0.00000000000E+00  0.77500244626E+02  0.23322381494E+04  0.23309501276E+04 0.  0.
        1    1    3    3  502    0  0.43051099559E+03  0.32090504404E+03 -0.99623548522E+03  0.11317265158E+04  0.50400001928E-02 0. -1.
       -1    1    3    3    0  502 -0.43051099559E+03 -0.32090504404E+03  0.10737357298E+04  0.12005116335E+04  0.50400001928E-02 0.  1.
</event>
<event>
 5   0  0.3885219E-05  0.2221494E+04  0.7818609E-02  0.8509535E-01
        1   -1    0    0  501    0  0.00000000000E+00  0.00000000000E+00  0.17241213254E+04  0.17241213254E+04  0.50400001928E-02 0.  1.
       -1   -1    0    0    0  501  0.00000000000E+00  0.00000000000E+00 -0.71558674886E+03  0.71558674888E+03  0.50400001928E-02 0. -1.
    10030    2    1    2    0    0  0.00000000000E+00  0.00000000000E+00  0.10085345766E+04  0.24397080743E+04  0.22214935282E+04 0.  0.
        2    1    3    3  502    0  0.11810539719E+00  0.39101058007E+03 -0.63750463442E+03  0.74786459108E+03  0.25500000920E-02 0. -1.
       -2    1    3    3    0  502 -0.11810539719E+00 -0.39101058007E+03  0.16460392110E+04  0.16918434832E+04  0.25500000920E-02 0.  1.
</event>
<event>
 5   0  0.4005462E-05  0.1738482E+04  0.7818609E-02  0.8739716E-01
       -1   -1    0    0    0  501  0.00000000000E+00  0.00000000000E+00  0.91196293600E+03  0.91196293601E+03  0.50400001928E-02 0.  1.
        1   -1    0    0  501    0  0.00000000000E+00  0.00000000000E+00 -0.82852047273E+03  0.82852047275E+03  0.50400001928E-02 0. -1.
    10030    2    1    2    0    0  0.00000000000E+00  0.00000000000E+00  0.83442463268E+02  0.17404834088E+04  0.17384820538E+04 0.  0.
        4    1    3    3  502    0 -0.30995758747E+03  0.76444800918E+03 -0.23268166786E+03  0.85708624783E+03  0.12699999809E+01 0. -1.
       -4    1    3    3    0  502  0.30995758747E+03 -0.76444800918E+03  0.31612413113E+03  0.88339716093E+03  0.12699999809E+01 0.  1.
</event>
<event>
 5   0  0.9483073E-05  0.2294613E+04  0.7818609E-02  0.8480048E-01
        2   -1    0    0  501    0  0.00000000000E+00  0.00000000000E+00  0.21399415052E+04  0.21399415052E+04  0.25500000920E-02 0.  1.
       -2   -1    0    0    0  501  0.00000000000E+00  0.00000000000E+00 -0.61511619264E+03  0.61511619265E+03  0.25500000920E-02 0. -1.
    10030    2    1    2    0    0  0.00000000000E+00  0.00000000000E+00  0.15248253126E+04  0.27550576979E+04  0.22946134064E+04 0.  0.
        5    1    3    3  502    0  0.99946848864E+03 -0.27803624404E+03  0.17415000665E+03  0.10519466372E+04  0.46999998093E+01 0. -1.
       -5    1    3    3    0  502 -0.99946848864E+03  0.27803624404E+03  0.13506753059E+04  0.17031110606E+04  0.46999998093E+01 0.  1.
</event>
<event>
 5   0  0.4095451E-05  0.2394343E+04  0.7818609E-02  0.8441625E-01
        1   -1    0    0  501    0  0.00000000000E+00  0.00000000000E+00  0.18631134335E+04  0.18631134335E+04  0.50400001928E-02 0.  1.
       -1   -1    0    0    0  501  0.00000000000E+00  0.00000000000E+00 -0.76926031616E+03  0.76926031618E+03  0.50400001928E-02 0. -1.
    10030    2    1    2    0    0  0.00000000000E+00  0.00000000000E+00  0.10938531174E+04  0.26323737497E+04  0.23943426897E+04 0.  0.
        3    1    3    3  502    0  0.11603557761E+04 -0.29083904673E+03  0.59856789962E+03  0.13376458496E+04  0.10100000352E+00 0.  1.
       -3    1    3    3    0  502 -0.11603557761E+04  0.29083904673E+03  0.49528521774E+03  0.12947279001E+04  0.10100000352E+00 0. -1.
</event>
<event>
 5   0  0.4095451E-05  0.2243288E+04  0.7818609E-02  0.8500624E-01
       -1   -1    0    0    0  501  0.00000000000E+00  0.00000000000E+00  0.91281474086E+03  0.91281474088E+03  0.50400001928E-02 0. -1.
        1   -1    0    0  501    0  0.00000000000E+00  0.00000000000E+00 -0.13782480692E+04  0.13782480692E+04  0.50400001928E-02 0.  1.
    10030    2    1    2    0    0  0.00000000000E+00  0.00000000000E+00 -0.46543332831E+03  0.22910628101E+04  0.22432879032E+04 0.  0.
        3    1    3    3  502    0  0.17262294531E+02  0.76758506175E+03  0.60237716505E+03  0.97588066535E+03  0.10100000352E+00 0. -1.
       -3    1    3    3    0  502 -0.17262294531E+02 -0.76758506175E+03 -0.10678104934E+04  0.13151821447E+04  0.10100000352E+00 0.  1.
</event>
<event>
 5   0  0.9641157E-05  0.2239509E+04  0.7818609E-02  0.8502161E-01
        2   -1    0    0  501    0  0.00000000000E+00  0.00000000000E+00  0.14741672379E+04  0.14741672379E+04  0.25500000920E-02 0. -1.
       -2   -1    0    0    0  501  0.00000000000E+00  0.00000000000E+00 -0.85054818758E+03  0.85054818758E+03  0.25500000920E-02 0.  1.
    10030    2    1    2    0    0  0.00000000000E+00  0.00000000000E+00  0.62361905036E+03  0.23247154255E+04  0.22395091180E+04 0.  0.
        3    1    3    3  502    0  0.52896647399E+03 -0.86713229259E+03  0.80104390895E+03  0.12935978114E+04  0.10100000352E+00 0. -1.
       -3    1    3    3    0  502 -0.52896647399E+03  0.86713229259E+03 -0.17742485859E+03  0.10311176141E+04  0.10100000352E+00 0.  1.
</event>
<event>
 5   0  0.9483073E-05  0.2274168E+04  0.7818609E-02  0.8488176E-01
        2   -1    0    0  501    0  0.00000000000E+00  0.00000000000E+00  0.21989834404E+04  0.21989834404E+04  0.25500000920E-02 0.  1.
       -2   -1    0    0    0  501  0.00000000000E+00  0.00000000000E+00 -0.58798091349E+03  0.58798091349E+03  0.25500000920E-02 0. -1.
    10030    2    1    2    0    0  0.00000000000E+00  0.00000000000E+00  0.16110025269E+04  0.27869643539E+04  0.22741682366E+04 0.  0.
        5    1    3    3  502    0  0.77350193961E+03  0.17145057738E+03 -0.19403196242E+03  0.81570279116E+03  0.46999998093E+01 0. -1.
       -5    1    3    3    0  502 -0.77350193961E+03 -0.17145057738E+03  0.18050344894E+04  0.19712615628E+04  0.46999998093E+01 0.  1.
</event>
<event>
 5   0  0.4295775E-05  0.2333661E+04  0.7818609E-02  0.8464766E-01
        1   -1    0    0  501    0  0.00000000000E+00  0.00000000000E+00  0.10330921179E+04  0.10330921179E+04  0.50400001928E-02 0. -1.
       -1   -1    0    0    0  501  0.00000000000E+00  0.00000000000E+00 -0.13178823993E+04  0.13178823993E+04  0.50400001928E-02 0.  1.
    10030    2    1    2    0    0  0.00000000000E+00  0.00000000000E+00 -0.28479028141E+03  0.23509745172E+04  0.23336614313E+04 0.  0.
        5    1    3    3  502    0  0.29609911334E+03  0.73859553753E+03 -0.10021158911E+04  0.12796313540E+04  0.46999998093E+01 0.  1.
       -5    1    3    3    0  502 -0.29609911334E+03 -0.73859553753E+03  0.71732560967E+03  0.10713431632E+04  0.46999998093E+01 0. -1.
</event>
<event>
 5   0  0.3885219E-05  0.2384812E+04  0.7818609E-02  0.8445212E-01
        1   -1    0    0  501    0  0.00000000000E+00  0.00000000000E+00  0.16284056845E+04  0.16284056845E+04  0.50400001928E-02 0. -1.
       -1   -1    0    0    0  501  0.00000000000E+00  0.00000000000E+00 -0.87314393828E+03  0.87314393830E+03  0.50400001928E-02 0.  1.
    10030    2    1    2    0    0  0.00000000000E+00  0.00000000000E+00  0.75526174622E+03  0.25015496228E+04  0.23848124056E+04 0.  0.
        2    1    3    3  502    0 -0.47397518019E+03 -0.10908444751E+04  0.28838738109E+03  0.12238306345E+04  0.25500000920E-02 0. -1.
       -2    1    3    3    0  502  0.47397518019E+03  0.10908444751E+04  0.46687436513E+03  0.12777189883E+04  0.25500000920E-02 0.  1.
</event>
<event>
 5   0  0.9312074E-05  0.2313600E+04  0.7818609E-02  0.8472578E-01
        2   -1    0    0  501    0  0.00000000000E+00  0.00000000000E+00  0.18074028253E+04  0.18074028253E+04  0.25500000920E-02 0.  1.
       -2   -1    0    0    0  501  0.00000000000E+00  0.00000000000E+00 -0.74039149099E+03  0.74039149100E+03  0.25500000920E-02 0. -1.
    10030    2    1    2    0    0  0.00000000000E+00  0.00000000000E+00  0.10670113343E+04  0.25477943163E+04  0.23135995096E+04 0.  0.
        4    1    3    3  502    0  0.64259179447E+03  0.27668726600E+03 -0.48099959959E+03  0.84902431366E+03  0.12699999809E+01 0. -1.
       -4    1    3    3    0  502 -0.64259179447E+03 -0.27668726600E+03  0.15480109339E+04  0.16987700027E+04  0.12699999809E+01 0.  1.
</event>
<event>
 5   0  0.9483073E-05  0.2265906E+04  0.7818609E-02  0.8491487E-01
       -2   -1    0    0    0  501  0.00000000000E+00  0.00000000000E+00  0.80361538829E+03  0.80361538829E+03  0.25500000920E-02 0.  1.
        2   -1    0    0  501    0  0.00000000000E+00  0.00000000000E+00 -0.15972593052E+04  0.15972593052E+04  0.25500000920E-02 0. -1.
    10030    2    1    2    0    0  0.00000000000E+00  0.00000000000E+00 -0.79364391696E+03  0.24008746935E+04  0.22659056969E+04 0.  0.
        5    1    3    3  502    0  0.16029555492E+03 -0.40693860504E+03 -0.15041898950E+04  0.15664938632E+04  0.46999998093E+01 0. -1.
       -5    1    3    3    0  502 -0.16029555492E+03  0.40693860504E+03  0.71054597802E+03  0.83438083036E+03  0.46999998093E+01 0.  1.
</event>
<event>
 5   0  0.4139830E-05  0.2075096E+04  0.7818609E-02  0.8572294E-01
       -1   -1    0    0    0  501  0.00000000000E+00  0.00000000000E+00  0.80046685347E+03  0.80046685348E+03  0.50400001928E-02 0.  1.
        1   -1    0    0  501    0  0.00000000000E+00  0.00000000000E+00 -0.13448472658E+04  0.13448472658E+04  0.50400001928E-02 0. -1.
    10030    2    1    2    0    0  0.00000000000E+00  0.00000000000E+00 -0.54438041235E+03  0.21453141193E+04  0.20750958140E+04 0.  0.
        1    1    3    3  502    0 -0.30053388205E+03  0.32226579621E+03  0.69891931212E+03  0.82623487129E+03  0.50400001928E-02 0.  1.
       -1    1    3    3    0  502  0.30053388205E+03 -0.32226579621E+03 -0.12432997245E+04  0.13190792480E+04  0.50400001928E-02 0. -1.
</event>
<event>
 5   0  0.9535394E-05  0.2153198E+04  0.7818609E-02  0.8538165E-01
       -2   -1    0    0    0  501  0.00000000000E+00  0.00000000000E+00  0.94647350727E+03  0.94647350727E+03  0.25500000920E-02 0.  1.
        2   -1    0    0  501    0  0.00000000000E+00  0.00000000000E+00 -0.12246144741E+04  0.12246144741E+04  0.25500000920E-02 0. -1.
    10030    2    1    2    0    0  0.00000000000E+00  0.00000000000E+00 -0.27814096680E+03  0.21710879814E+04  0.21531977674E+04 0.  0.
        2    1    3    3  502    0  0.55236579813E+03  0.34496903079E+03 -0.10034877796E+04  0.11962856394E+04  0.25500000920E-02 0. -1.
       -2    1    3    3    0  502 -0.55236579813E+03 -0.34496903079E+03  0.72534681278E+03  0.97480234200E+03  0.25500000920E-02 0.  1.
</event>
<event>
 5   0  0.3885219E-05  0.2116185E+04  0.7818609E-02  0.8554147E-01
       -1   -1    0    0    0  501  0.00000000000E+00  0.00000000000E+00  0.96638525068E+03  0.96638525069E+03  0.50400001928E-02 0.  1.
        1   -1    0    0  501    0  0.00000000000E+00  0.00000000000E+00 -0.11585019714E+04  0.11585019714E+04  0.50400001928E-02 0. -1.
    10030    2    1    2    0    0  0.00000000000E+00  0.00000000000E+00 -0.19211672074E+03  0.21248872221E+04  0.21161845081E+04 0.  0.
        2    1    3    3  502    0  0.48737099349E+03 -0.41314289267E+03  0.75082087249E+03  0.98587500102E+03  0.25500000920E-02 0.  1.
       -2    1    3    3    0  502 -0.48737099349E+03  0.41314289267E+03 -0.94293759323E+03  0.11390122211E+04  0.25500000920E-02 0. -1.
</event>
<event>
 5   0  0.9313463E-05  0.2304942E+04  0.7818609E-02  0.8475975E-01
        2   -1    0    0  501    0  0.00000000000E+00  0.00000000000E+00  0.12058780960E+04  0.12058780960E+04  0.25500000920E-02 0.  1.
       -2   -1    0    0    0  501  0.00000000000E+00  0.00000000000E+00 -0.11014296530E+04  0.11014296530E+04  0.25500000920E-02 0. -1.
    10030    2    1    2    0    0  0.00000000000E+00  0.00000000000E+00  0.10444844292E+03  0.23073077490E+04  0.23049424226E+04 0.  0.
        1    1    3    3  502    0 -0.76151402450E+03 -0.61606931438E+03 -0.55564260750E+03  0.11261366333E+04  0.50400001928E-02 0. -1.
       -1    1    3    3    0  502  0.76151402450E+03  0.61606931438E+03  0.66009105042E+03  0.11811711157E+04  0.50400001928E-02 0.  1.
</event>
<event>
 5   0  0.4095451E-05  0.2302490E+04  0.7818609E-02  0.8476940E-01
        1   -1    0    0  501    0  0.00000000000E+00  0.00000000000E+00  0.18641798711E+04  0.18641798711E+04  0.50400001928E-02 0. -1.
       -1   -1    0    0    0  501  0.00000000000E+00  0.00000000000E+00 -0.71096406130E+03  0.71096406132E+03  0.50400001928E-02 0.  1.
    10030    2    1    2    0    0  0.00000000000E+00  0.00000000000E+00  0.11532158098E+04  0.25751439324E+04  0.23024898629E+04 0.  0.
        3    1    3    3  502    0  0.82385312653E+03  0.67592455673E+03  0.89413186687E+02  0.10693936173E+04  0.10100000352E+00 0.  1.
       -3    1    3    3    0  502 -0.82385312653E+03 -0.67592455673E+03  0.10638026231E+04  0.15057503152E+04  0.10100000352E+00 0. -1.
</event>
<event>
 5   0  0.4095451E-05  0.2252270E+04  0.7818609E-02  0.8496982E-01
        1   -1    0    0  501    0  0.00000000000E+00  0.00000000000E+00  0.14857820900E+04  0.14857820900E+04  0.50400001928E-02 0.  1.
       -1   -1    0    0    0  501  0.00000000000E+00  0.00000000000E+00 -0.85354387765E+03  0.85354387767E+03  0.50400001928E-02 0. -1.
    10030    2    1    2    0    0  0.00000000000E+00  0.00000000000E+00  0.63223821234E+03  0.23393259677E+04  0.22522701494E+04 0.  0.
        3    1    3    3  502    0 -0.59525725794E+03  0.95434304015E+03  0.25849162965E+03  0.11540882870E+04  0.10100000352E+00 0. -1.
       -3    1    3    3    0  502  0.59525725794E+03 -0.95434304015E+03  0.37374658269E+03  0.11852376807E+04  0.10100000352E+00 0.  1.
</event>
<event>
 5   0  0.9312074E-05  0.2213171E+04  0.7818609E-02  0.8512966E-01
       -2   -1    0    0    0  501  0.00000000000E+00  0.00000000000E+00  0.11012562586E+04  0.11012562586E+04  0.25500000920E-02 0.  1.
        2   -1    0    0  501    0  0.00000000000E+00  0.00000000000E+00 -0.11119403195E+04  0.11119403195E+04  0.25500000920E-02 0. -1.
    10030    2    1    2    0    0  0.00000000000E+00  0.00000000000E+00 -0.10684060886E+02  0.22131965781E+04  0.22131707897E+04 0.  0.
        4    1    3    3  502    0  0.65117451094E+03 -0.29619391107E+03  0.83892520058E+03  0.11025226445E+04  0.12699999809E+01 0.  1.
       -4    1    3    3    0  502 -0.65117451094E+03  0.29619391107E+03 -0.84960926147E+03  0.11106739336E+04  0.12699999809E+01 0. -1.
</event>
<event>
 5   0  0.9313463E-05  0.2279924E+04  0.7818609E-02  0.8485879E-01
        2   -1    0    0  501    0  0.00000000000E+00  0.00000000000E+00  0.19380410621E+04  0.19380410621E+04  0.25500000920E-02 0. -1.
       -2   -1    0    0    0  501  0.00000000000E+00  0.00000000000E+00 -0.67052937702E+03  0.67052937703E+03  0.25500000920E-02 0.  1.
    10030    2    1    2    0    0  0.00000000000E+00  0.00000000000E+00  0.12675116850E+04  0.26085704391E+04  0.22799240917E+04 0.  0.
        1    1    3    3  502    0  0.10475888494E+04 -0.27585228041E+03  0.22766134833E+03  0.11069627670E+04  0.50400001928E-02 0.  1.
       -1    1    3    3    0  502 -0.10475888494E+04  0.27585228041E+03  0.10398503367E+04  0.15016076721E+04  0.50400001928E-02 0. -1.
</event>
<event>
 5   0  0.3885219E-05  0.1604967E+04  0.7818609E-02  0.8817502E-01
        1   -1    0    0  501    0  0.00000000000E+00  0.00000000000E+00  0.55070785203E+03  0.55070785206E+03  0.50400001928E-02 0. -1.
       -1   -1    0    0    0  501  0.00000000000E+00  0.00000000000E+00 -0.11693670748E+04  0.11693670748E+04  0.50400001928E-02 0.  1.
    10030    2    1    2    0    0  0.00000000000E+00  0.00000000000E+00 -0.61865922279E+03  0.17200749269E+04  0.16049668284E+04 0.  0.
        2    1    3    3  502    0 -0.79935629295E+03  0.32144186972E+02 -0.24175260747E+03  0.83573204740E+03  0.25500000920E-02 0.  1.
       -2    1    3    3    0  502  0.79935629295E+03 -0.32144186972E+02 -0.37690661533E+03  0.88434287949E+03  0.25500000920E-02 0. -1.
</event>
<event>
 5   0  0.4005462E-05  0.2289941E+04  0.7818609E-02  0.8481898E-01
        1   -1    0    0  501    0  0.00000000000E+00  0.00000000000E+00  0.16957196673E+04  0.16957196673E+04  0.50400001928E-02 0.  1.
       -1   -1    0    0    0  501  0.00000000000E+00  0.00000000000E+00 -0.77309779444E+03  0.77309779446E+03  0.50400001928E-02 0. -1.
    10030    2    1    2    0    0  0.00000000000E+00  0.00000000000E+00  0.92262187285E+03  0.24688174618E+04  0.22899407283E+04 0.  0.
        4    1    3    3  502    0  0.88206073205E+03  0.69350320402E+03  0.21551582647E+03  0.11425526305E+04  0.12699999809E+01 0. -1.
       -4    1    3    3    0  502 -0.88206073205E+03 -0.69350320402E+03  0.70710604638E+03  0.13262648313E+04  0.12699999809E+01 0.  1.
</event>
<event>
 5   0  0.4295775E-05  0.2170800E+04  0.7818609E-02  0.8530681E-01
        1   -1    0    0  501    0  0.00000000000E+00  0.00000000000E+00  0.10593917490E+04  0.10593917490E+04  0.50400001928E-02 0.  1.
       -1   -1    0    0    0  501  0.00000000000E+00  0.00000000000E+00 -0.11120471432E+04  0.11120471433E+04  0.50400001928E-02 0. -1.
    10030    2    1    2    0    0  0.00000000000E+00  0.00000000000E+00 -0.52655394248E+02  0.21714388923E+04  0.21708003760E+04 0.  0.
        5    1    3    3  502    0 -0.36230933855E+03 -0.65428315310E+03 -0.81314470732E+03  0.11047990343E+04  0.46999998093E+01 0. -1.
       -5    1    3    3    0  502  0.36230933855E+03  0.65428315310E+03  0.76048931308E+03  0.10666398579E+04  0.46999998093E+01 0.  1.
</event>
<event>
 5   0  0.9535394E-05  0.2274314E+04  0.7818609E-02  0.8488118E-01
       -2   -1    0    0    0  501  0.00000000000E+00  0.00000000000E+00  0.12273415385E+04  0.12273415385E+04  0.25500000920E-02 0. -1.
        2   -1    0    0  501    0  0.00000000000E+00  0.00000000000E+00 -0.10535991853E+04  0.10535991853E+04  0.25500000920E-02 0.  1.
    10030    2    1    2    0    0  0.00000000000E+00  0.00000000000E+00  0.17374235319E+03  0.22809407237E+04  0.22743140021E+04 0.  0.
        2    1    3    3  502    0  0.11120468473E+03  0.91070853240E+03 -0.58692678716E+03  0.10891462557E+04  0.25500000920E-02 0.  1.
       -2    1    3    3    0  502 -0.11120468473E+03 -0.91070853240E+03  0.76066914034E+03  0.11917944680E+04  0.25500000920E-02 0. -1.
</event>
<event>
 5   0  0.4005462E-05  0.2295886E+04  0.7818609E-02  0.8479545E-01
       -1   -1    0    0    0  501  0.00000000000E+00  0.00000000000E+00  0.77843602445E+03  0.77843602446E+03  0.50400001928E-02 0. -1.
        1   -1    0    0  501    0  0.00000000000E+00  0.00000000000E+00 -0.16928470690E+04  0.16928470690E+04  0.50400001928E-02 0.  1.
    10030    2    1    2    0    0  0.00000000000E+00  0.00000000000E+00 -0.91441104454E+03  0.24712830935E+04  0.22958860097E+04 0.  0.
        4    1    3    3  502    0 -0.10359236797E+04  0.14093290155E+03  0.53114810638E+02  0.10468155276E+04  0.12699999809E+01 0. -1.
       -4    1    3    3    0  502  0.10359236797E+04 -0.14093290155E+03 -0.96752585518E+03  0.14244675659E+04  0.12699999809E+01 0.  1.
</event>
<event>
 5   0  0.9483073E-05  0.2316066E+04  0.7818609E-02  0.8471614E-01
        2   -1    0    0  501    0  0.00000000000E+00  0.00000000000E+00  0.10851836193E+04  0.10851836193E+04  0.25500000920E-02 0. -1.
       -2   -1    0    0    0  501  0.00000000000E+00  0.00000000000E+00 -0.12357723923E+04  0.12357723923E+04  0.25500000920E-02 0.  1.
    10030    2    1    2    0    0  0.00000000000E+00  0.00000000000E+00 -0.15058877298E+03  0.23209560115E+04  0.23160655925E+04 0.  0.
        5    1    3    3  502    0 -0.51346162853E+03  0.10941281733E+03 -0.11096578874E+04  0.12275898035E+04  0.46999998093E+01 0.  1.
       -5    1    3    3    0  502  0.51346162853E+03 -0.10941281733E+03  0.95906911444E+03  0.10933662080E+04  0.46999998093E+01 0. -1.
</event>
<event>
 5   0  0.4295775E-05  0.2307376E+04  0.7818609E-02  0.8475018E-01
       -1   -1    0    0    0  501  0.00000000000E+00  0.00000000000E+00  0.92555975886E+03  0.92555975887E+03  0.50400001928E-02 0. -1.
        1   -1    0    0  501    0  0.00000000000E+00  0.00000000000E+00 -0.14380449214E+04  0.14380449214E+04  0.50400001928E-02 0.  1.
    10030    2    1    2    0    0  0.00000000000E+00  0.00000000000E+00 -0.51248516258E+03  0.23636046803E+04  0.23073764415E+04 0.  0.
        5    1    3    3  502    0 -0.75870716106E+03 -0.13497501359E+02  0.63393086328E+03  0.98879177191E+03  0.46999998093E+01 0. -1.
       -5    1    3    3    0  502  0.75870716106E+03  0.13497501359E+02 -0.11464160259E+04  0.13748129084E+04  0.46999998093E+01 0.  1.
</event>
<event>
 5   0  0.4139830E-05  0.2176074E+04  0.7818609E-02  0.8528453E-01
        1   -1    0    0  501    0  0.00000000000E+00  0.00000000000E+00  0.14054061063E+04  0.14054061063E+04  0.50400001928E-02 0.  1.
       -1   -1    0    0    0  501  0.00000000000E+00  0.00000000000E+00 -0.84233606025E+03  0.84233606026E+03  0.50400001928E-02 0. -1.
    10030    2    1    2    0    0  0.00000000000E+00  0.00000000000E+00  0.56307004609E+03  0.22477421666E+04  0.21760737512E+04 0.  0.
        1    1    3    3  502    0  0.35989824896E+03  0.75569052507E+03  0.99957648527E+03  0.13037438664E+04  0.50400001928E-02 0.  1.
       -1    1    3    3    0  502 -0.35989824896E+03 -0.75569052507E+03 -0.43650643918E+03  0.94399830019E+03  0.50400001928E-02 0. -1.
</event>
<event>
 5   0  0.9535394E-05  0.2311434E+04  0.7818609E-02  0.8473426E-01
       -2   -1    0    0    0  501  0.00000000000E+00  0.00000000000E+00  0.73948532156E+03  0.73948532157E+03  0.25500000920E-02 0. -1.
        2   -1    0    0  501    0  0.00000000000E+00  0.00000000000E+00 -0.18062317423E+04  0.18062317423E+04  0.25500000920E-02 0.  1.
    10030    2    1    2    0    0  0.00000000000E+00  0.00000000000E+00 -0.10667464207E+04  0.25457170638E+04  0.23114340663E+04 0.  0.
        2    1    3    3  502    0  0.51565211765E+03 -0.98982515575E+03 -0.20290898096E+03  0.11343822107E+04  0.25500000920E-02 0. -1.
       -2    1    3    3    0  502 -0.51565211765E+03  0.98982515575E+03 -0.86383743975E+03  0.14113348531E+04  0.25500000920E-02 0.  1.
</event>
<event>
 5   0  0.4295775E-05  0.2275226E+04  0.7818609E-02  0.8487754E-01
        1   -1    0    0  501    0  0.00000000000E+00  0.00000000000E+00  0.15181690834E+04  0.15181690834E+04  0.50400001928E-02 0.  1.
       -1   -1    0    0    0  501  0.00000000000E+00  0.00000000000E+00 -0.85245022173E+03  0.85245022174E+03  0.50400001928E-02 0. -1.
    10030    2    1    2    0    0  0.00000000000E+00  0.00000000000E+00  0.66571886169E+03  0.23706193052E+04  0.22752262057E+04 0.  0.
        5    1    3    3  502    0  0.66801690318E+03  0.88330503386E+03  0.61823998827E+02  0.11091973055E+04  0.46999998093E+01 0.  1.
       -5    1    3    3    0  502 -0.66801690318E+03 -0.88330503386E+03  0.60389486286E+03  0.12614219996E+04  0.46999998093E+01 0. -1.
</event>
<event>
 5   0  0.9313463E-05  0.2270806E+04  0.7818609E-02  0.8489522E-01
        2   -1    0    0  501    0  0.00000000000E+00  0.00000000000E+00  0.18893215999E+04  0.18893215999E+04  0.25500000920E-02 0. -1.
       -2   -1    0    0    0  501  0.00000000000E+00  0.00000000000E+00 -0.68232962663E+03  0.68232962664E+03  0.25500000920E-02 0.  1.
    10030    2    1    2    0    0  0.00000000000E+00  0.00000000000E+00  0.12069919733E+04  0.25716512266E+04  0.22708061140E+04 0.  0.
        1    1    3    3  502    0 -0.15275460022E+02 -0.10771212855E+04  0.19719383545E+03  0.10951296783E+04  0.50400001928E-02 0. -1.
       -1    1    3    3    0  502  0.15275460022E+02  0.10771212855E+04  0.10097981378E+04  0.14765215483E+04  0.50400001928E-02 0.  1.
</event>
<event>
 5   0  0.4139830E-05  0.2644291E+04  0.7818609E-02  0.8353310E-01
        1   -1    0    0  501    0  0.00000000000E+00  0.00000000000E+00  0.13226738519E+04  0.13226738519E+04  0.50400001928E-02 0. -1.
       -1   -1    0    0    0  501  0.00000000000E+00  0.00000000000E+00 -0.13216176834E+04  0.13216176834E+04  0.50400001928E-02 0.  1.
    10030    2    1    2    0    0  0.00000000000E+00  0.00000000000E+00  0.10561685140E+01  0.26442915353E+04  0.26442913243E+04 0.  0.
        1    1    3    3  502    0  0.11524594861E+04 -0.35103927321E+03 -0.54415325454E+03  0.13219282140E+04  0.50400001928E-02 0.  1.
       -1    1    3    3    0  502 -0.11524594861E+04  0.35103927321E+03  0.54520942306E+03  0.13223633213E+04  0.50400001928E-02 0. -1.
</event>
<event>
 5   0  0.3885219E-05  0.2289853E+04  0.7818609E-02  0.8481933E-01
       -1   -1    0    0    0  501  0.00000000000E+00  0.00000000000E+00  0.14977394521E+04  0.14977394521E+04  0.50400001928E-02 0.  1.
        1   -1    0    0  501    0  0.00000000000E+00  0.00000000000E+00 -0.87522322740E+03  0.87522322742E+03  0.50400001928E-02 0. -1.
    10030    2    1    2    0    0  0.00000000000E+00  0.00000000000E+00  0.62251622468E+03  0.23729626795E+04  0.22898527089E+04 0.  0.
        2    1    3    3  502    0 -0.26983441500E+03  0.76614705012E+03  0.11474295890E+04  0.14058401671E+04  0.25500000920E-02 0.  1.
       -2    1    3    3    0  502  0.26983441500E+03 -0.76614705012E+03 -0.52491336428E+03  0.96712251237E+03  0.25500000920E-02 0. -1.
</event>
<event>
 5   0  0.9312074E-05  0.2266701E+04  0.7818609E-02  0.8491167E-01
       -2   -1    0    0    0  501  0.00000000000E+00  0.00000000000E+00  0.64947163564E+03  0.64947163564E+03  0.25500000920E-02 0. -1.
        2   -1    0    0  501    0  0.00000000000E+00  0.00000000000E+00 -0.19777354139E+04  0.19777354139E+04  0.25500000920E-02 0.  1.
    10030    2    1    2    0    0  0.00000000000E+00  0.00000000000E+00 -0.13282637782E+04  0.26272070495E+04  0.22667007338E+04 0.  0.
        4    1    3    3  502    0 -0.12080197432E+03  0.80571838871E+03 -0.15772840645E+04  0.17752751539E+04  0.12699999809E+01 0.  1.
       -4    1    3    3    0  502  0.12080197432E+03 -0.80571838871E+03  0.24902028629E+03  0.85193189563E+03  0.12699999809E+01 0. -1.
</event>
<event>
 5   0  0.9535394E-05  0.2299585E+04  0.7818609E-02  0.8478085E-01
        2   -1    0    0  501    0  0.00000000000E+00  0.00000000000E+00  0.16214375219E+04  0.16214375219E+04  0.25500000920E-02 0.  1.
       -2   -1    0    0    0  501  0.00000000000E+00  0.00000000000E+00 -0.81534007743E+03  0.81534007744E+03  0.25500000920E-02 0. -1.
    10030    2    1    2    0    0  0.00000000000E+00  0.00000000000E+00  0.80609744449E+03  0.24367775994E+04  0.22995851754E+04 0.  0.
        2    1    3    3  502    0 -0.25446565402E+03 -0.58342785031E+03 -0.61161739191E+03  0.88273249611E+03  0.25500000920E-02 0. -1.
       -2    1    3    3    0  502  0.25446565402E+03  0.58342785031E+03  0.14177148364E+04  0.15540451032E+04  0.25500000920E-02 0.  1.
</event>
<event>
 5   0  0.9312074E-05  0.2284806E+04  0.7818609E-02  0.8483936E-01
       -2   -1    0    0    0  501  0.00000000000E+00  0.00000000000E+00  0.84041530032E+03  0.84041530033E+03  0.25500000920E-02 0. -1.
        2   -1    0    0  501    0  0.00000000000E+00  0.00000000000E+00 -0.15529049416E+04  0.15529049416E+04  0.25500000920E-02 0.  1.
    10030    2    1    2    0    0  0.00000000000E+00  0.00000000000E+00 -0.71248964132E+03  0.23933202420E+04  0.22848064013E+04 0.  0.
        4    1    3    3  502    0 -0.52134002134E+03 -0.50673718162E+03  0.56680186462E+03  0.92186981495E+03  0.12699999809E+01 0. -1.
       -4    1    3    3    0  502  0.52134002134E+03  0.50673718162E+03 -0.12792915059E+04  0.14714504270E+04  0.12699999809E+01 0.  1.
</event>
<event>
 5   0  0.3885219E-05  0.2266749E+04  0.7818609E-02  0.8491148E-01
        1   -1    0    0  501    0  0.00000000000E+00  0.00000000000E+00  0.76347465404E+03  0.76347465405E+03  0.50400001928E-02 0.  1.
       -1   -1    0    0    0  501  0.00000000000E+00  0.00000000000E+00 -0.16824897560E+04  0.16824897560E+04  0.50400001928E-02 0. -1.
    10030    2    1    2    0    0  0.00000000000E+00  0.00000000000E+00 -0.91901510193E+03  0.24459644100E+04  0.22667494651E+04 0.  0.
        2    1    3    3  502    0  0.41963652947E+03 -0.53155950563E+03  0.52112697325E+03  0.85453124410E+03  0.25500000920E-02 0.  1.
       -2    1    3    3    0  502 -0.41963652947E+03  0.53155950563E+03 -0.14401420752E+04  0.15914331659E+04  0.25500000920E-02 0. -1.
</event>
<event>
 5   0  0.9313463E-05  0.2395098E+04  0.7818609E-02  0.8441341E-01
       -2   -1    0    0    0  501  0.00000000000E+00  0.00000000000E+00  0.11788229440E+04  0.11788229440E+04  0.25500000920E-02 0. -1.
        2   -1    0    0  501    0  0.00000000000E+00  0.00000000000E+00 -0.12165720537E+04  0.12165720537E+04  0.25500000920E-02 0.  1.
    10030    2    1    2    0    0  0.00000000000E+00  0.00000000000E+00 -0.37749109657E+02  0.23953949976E+04  0.23950975344E+04 0.  0.
        1    1    3    3  502    0  0.49932567944E+02 -0.11956078754E+04 -0.65265623778E+02  0.11984285772E+04  0.50400001928E-02 0. -1.
       -1    1    3    3    0  502 -0.49932567944E+02  0.11956078754E+04  0.27516514121E+02  0.11969664204E+04  0.50400001928E-02 0.  1.
</event>
<event>
 5   0  0.4005462E-05  0.2315015E+04  0.7818609E-02  0.8472024E-01
       -1   -1    0    0    0  501  0.00000000000E+00  0.00000000000E+00  0.52229367339E+03  0.52229367342E+03  0.50400001928E-02 0. -1.
        1   -1    0    0  501    0  0.00000000000E+00  0.00000000000E+00 -0.25652692997E+04  0.25652692997E+04  0.50400001928E-02 0.  1.
    10030    2    1    2    0    0  0.00000000000E+00  0.00000000000E+00 -0.20429756263E+04  0.30875629731E+04  0.23150152706E+04 0.  0.
        4    1    3    3  502    0 -0.37426478060E+03  0.67265322793E+03  0.13144854572E+03  0.78090769245E+03  0.12699999809E+01 0. -1.
       -4    1    3    3    0  502  0.37426478060E+03 -0.67265322793E+03 -0.21744241721E+04  0.23066552807E+04  0.12699999809E+01 0.  1.
</event>
<event>
 5   0  0.3885219E-05  0.2305797E+04  0.7818609E-02  0.8475639E-01
       -1   -1    0    0    0  501  0.00000000000E+00  0.00000000000E+00  0.91453105892E+03  0.91453105894E+03  0.50400001928E-02 0.  1.
        1   -1    0    0  501    0  0.00000000000E+00  0.00000000000E+00 -0.14533957013E+04  0.14533957013E+04  0.50400001928E-02 0. -1.
    10030    2    1    2    0    0  0.00000000000E+00  0.00000000000E+00 -0.53886464233E+03  0.23679267602E+04  0.23057974844E+04 0.  0.
        2    1    3    3  502    0 -0.49440347852E+03  0.18661183183E+03  0.78283124485E+03  0.94450173810E+03  0.25500000920E-02 0.  1.
       -2    1    3    3    0  502  0.49440347852E+03 -0.18661183183E+03 -0.13216958872E+04  0.14234250221E+04  0.25500000920E-02 0. -1.
</event>
<event>
 5   0  0.4139830E-05  0.2314325E+04  0.7818609E-02  0.8472294E-01
        1   -1    0    0  501    0  0.00000000000E+00  0.00000000000E+00  0.10547982133E+04  0.10547982133E+04  0.50400001928E-02 0.  1.
       -1   -1    0    0    0  501  0.00000000000E+00  0.00000000000E+00 -0.12694611100E+04  0.12694611100E+04  0.50400001928E-02 0. -1.
    10030    2    1    2    0    0  0.00000000000E+00  0.00000000000E+00 -0.21466289677E+03  0.23242593233E+04  0.23143252241E+04 0.  0.
        1    1    3    3  502    0 -0.81755468638E+03  0.78781085053E+03  0.11719858126E+03  0.11413926182E+04  0.50400001928E-02 0.  1.
       -1    1    3    3    0  502  0.81755468638E+03 -0.78781085053E+03 -0.33186147803E+03  0.11828667051E+04  0.50400001928E-02 0. -1.
</event>
<event>
 5   0  0.9313463E-05  0.2296183E+04  0.7818609E-02  0.8479428E-01
       -2   -1    0    0    0  501  0.00000000000E+00  0.00000000000E+00  0.11897824802E+04  0.11897824802E+04  0.25500000920E-02 0. -1.
        2   -1    0    0  501    0  0.00000000000E+00  0.00000000000E+00 -0.11078614011E+04  0.11078614011E+04  0.25500000920E-02 0.  1.
    10030    2    1    2    0    0  0.00000000000E+00  0.00000000000E+00  0.81921079091E+02  0.22976438812E+04  0.22961829939E+04 0.  0.
        1    1    3    3  502    0  0.85244744696E+03  0.55691403762E+03  0.57166972214E+03  0.11677440500E+04  0.50400001928E-02 0.  1.
       -1    1    3    3    0  502 -0.85244744696E+03 -0.55691403762E+03 -0.48974864305E+03  0.11298998312E+04  0.50400001928E-02 0. -1.
</event>
<event>
 5   0  0.4095451E-05  0.2305603E+04  0.7818609E-02  0.8475715E-01
        1   -1    0    0  501    0  0.00000000000E+00  0.00000000000E+00  0.22571180112E+04  0.22571180112E+04  0.50400001928E-02 0. -1.
       -1   -1    0    0    0  501  0.00000000000E+00  0.00000000000E+00 -0.58878227068E+03  0.58878227071E+03  0.50400001928E-02 0.  1.
    10030    2    1    2    0    0  0.00000000000E+00  0.00000000000E+00  0.16683357405E+04  0.28459002819E+04  0.23056028000E+04 0.  0.
        3    1    3    3  502    0 -0.10770399278E+04  0.24268372713E+03  0.12436281527E+04  0.16629856854E+04  0.10100000352E+00 0. -1.
       -3    1    3    3    0  502  0.10770399278E+04 -0.24268372713E+03  0.42470758788E+03  0.11829145966E+04  0.10100000352E+00 0.  1.
</event>
<event>
 5   0  0.4295775E-05  0.2290265E+04  0.7818609E-02  0.8481769E-01
       -1   -1    0    0    0  501  0.00000000000E+00  0.00000000000E+00  0.61010767263E+03  0.61010767265E+03  0.50400001928E-02 0.  1.
        1   -1    0    0  501    0  0.00000000000E+00  0.00000000000E+00 -0.21493396502E+04  0.21493396502E+04  0.50400001928E-02 0. -1.
    10030    2    1    2    0    0  0.00000000000E+00  0.00000000000E+00 -0.15392319776E+04  0.27594473228E+04  0.22902651477E+04 0.  0.
        5    1    3    3  502    0 -0.10184284132E+04  0.51230564439E+03 -0.63955246696E+03  0.13071736510E+04  0.46999998093E+01 0. -1.
       -5    1    3    3    0  502  0.10184284132E+04 -0.51230564439E+03 -0.89967951060E+03  0.14522736718E+04  0.46999998093E+01 0.  1.
</event>
<event>
 5   0  0.4095451E-05  0.2273595E+04  0.7818609E-02  0.8488406E-01
       -1   -1    0    0    0  501  0.00000000000E+00  0.00000000000E+00  0.11198247256E+04  0.11198247256E+04  0.50400001928E-02 0. -1.
        1   -1    0    0  501    0  0.00000000000E+00  0.00000000000E+00 -0.11540274217E+04  0.11540274217E+04  0.50400001928E-02 0.  1.
    10030    2    1    2    0    0  0.00000000000E+00  0.00000000000E+00 -0.34202696131E+02  0.22738521473E+04  0.22735948987E+04 0.  0.
        3    1    3    3  502    0 -0.10159197930E+04 -0.22215724859E+03 -0.47634995258E+03  0.11438339724E+04  0.10100000352E+00 0.  1.
       -3    1    3    3    0  502  0.10159197930E+04  0.22215724859E+03  0.44214725645E+03  0.11300181749E+04  0.10100000352E+00 0. -1.
</event>
<event>
 5   0  0.9535394E-05  0.2260580E+04  0.7818609E-02  0.8493628E-01
        2   -1    0    0  501    0  0.00000000000E+00  0.00000000000E+00  0.95672833517E+03  0.95672833518E+03  0.25500000920E-02 0.  1.
       -2   -1    0    0    0  501  0.00000000000E+00  0.00000000000E+00 -0.13353371902E+04  0.13353371902E+04  0.25500000920E-02 0. -1.
    10030    2    1    2    0    0  0.00000000000E+00  0.00000000000E+00 -0.37860885502E+03  0.22920655254E+04  0.22605795070E+04 0.  0.
        2    1    3    3  502    0  0.23227241378E+03 -0.85328997175E+03 -0.90302689589E+03  0.12639271438E+04  0.25500000920E-02 0.  1.
       -2    1    3    3    0  502 -0.23227241378E+03  0.85328997175E+03  0.52441804087E+03  0.10281383816E+04  0.25500000920E-02 0. -1.
</event>
<event>
 5   0  0.9535394E-05  0.2324881E+04  0.7818609E-02  0.8468175E-01
        2   -1    0    0  501    0  0.00000000000E+00  0.00000000000E+00  0.12168487318E+04  0.12168487318E+04  0.25500000920E-02 0.  1.
       -2   -1    0    0    0  501  0.00000000000E+00  0.00000000000E+00 -0.11104650816E+04  0.11104650816E+04  0.25500000920E-02 0. -1.
    10030    2    1    2    0    0  0.00000000000E+00  0.00000000000E+00  0.10638365023E+03  0.23273138133E+04  0.23248810947E+04 0.  0.
        2    1    3    3  502    0 -0.61585126341E+03  0.13921373954E+03  0.10302329845E+04  0.12083183547E+04  0.25500000920E-02 0.  1.
       -2    1    3    3    0  502  0.61585126341E+03 -0.13921373954E+03 -0.92384933430E+03  0.11189954586E+04  0.25500000920E-02 0. -1.
</event>
<event>
 5   0  0.9312074E-05  0.2311008E+04  0.7818609E-02  0.8473593E-01
        2   -1    0    0  501    0  0.00000000000E+00  0.00000000000E+00  0.57946387725E+03  0.57946387726E+03  0.25500000920E-02 0.  1.
       -2   -1    0    0    0  501  0.00000000000E+00  0.00000000000E+00 -0.23041812997E+04  0.23041812997E+04  0.25500000920E-02 0. -1.
    10030    2    1    2    0    0  0.00000000000E+00  0.00000000000E+00 -0.17247174224E+04  0.28836451770E+04  0.23110082906E+04 0.  0.
        4    1    3    3  502    0 -0.73405630137E+03  0.65052031973E+03 -0.10011236252E+03  0.98592060431E+03  0.12699999809E+01 0.  1.
       -4    1    3    3    0  502  0.73405630137E+03 -0.65052031973E+03 -0.16246050599E+04  0.18977245726E+04  0.12699999809E+01 0. -1.
</event>
<event>
 5   0  0.3261500E-05  0.2212465E+04  0.7818609E-02  0.8513258E-01
        3   -1    0    0  501    0  0.00000000000E+00  0.00000000000E+00  0.76578924617E+03  0.76578925283E+03  0.10100000352E+00 0.  1.
       -3   -1    0    0    0  501  0.00000000000E+00  0.00000000000E+00 -0.15980243069E+04  0.15980243101E+04  0.10100000352E+00 0. -1.
    10030    2    1    2    0    0  0.00000000000E+00  0.00000000000E+00 -0.83223506073E+03  0.23638135629E+04  0.22124645452E+04 0.  0.
        4    1    3    3  502    0  0.10532230106E+04  0.33522221074E+03 -0.36720841564E+03  0.11646872001E+04  0.12699999809E+01 0. -1.
       -4    1    3    3    0  502 -0.10532230106E+04 -0.33522221074E+03 -0.46502664509E+03  0.11991263629E+04  0.12699999809E+01 0.  1.
</event>
<event>
 5   0  0.4095451E-05  0.2310254E+04  0.7818609E-02  0.8473889E-01
       -1   -1    0    0    0  501  0.00000000000E+00  0.00000000000E+00  0.10039661374E+04  0.10039661375E+04  0.50400001928E-02 0. -1.
        1   -1    0    0  501    0  0.00000000000E+00  0.00000000000E+00 -0.13290474875E+04  0.13290474875E+04  0.50400001928E-02 0.  1.
    10030    2    1    2    0    0  0.00000000000E+00  0.00000000000E+00 -0.32508135003E+03  0.23330136249E+04  0.23102542479E+04 0.  0.
        3    1    3    3  502    0  0.45863105467E+03 -0.36461160083E+03 -0.11678550810E+04  0.13065869907E+04  0.10100000352E+00 0.  1.
       -3    1    3    3    0  502 -0.45863105467E+03  0.36461160083E+03  0.84277373096E+03  0.10264266343E+04  0.10100000352E+00 0. -1.
</event>
<event>
 5   0  0.4005462E-05  0.2256244E+04  0.7818609E-02  0.8495376E-01
       -1   -1    0    0    0  501  0.00000000000E+00  0.00000000000E+00  0.72107578924E+03  0.72107578925E+03  0.50400001928E-02 0. -1.
        1   -1    0    0  501    0  0.00000000000E+00  0.00000000000E+00 -0.17649453435E+04  0.17649453435E+04  0.50400001928E-02 0.  1.
    10030    2    1    2    0    0  0.00000000000E+00  0.00000000000E+00 -0.10438695543E+04  0.24860211328E+04  0.22562440972E+04 0.  0.
        4    1    3    3  502    0 -0.23017323174E+03 -0.52434181831E+03  0.54903134194E+03  0.79331651084E+03  0.12699999809E+01 0. -1.
       -4    1    3    3    0  502  0.23017323174E+03  0.52434181831E+03 -0.15929008962E+04  0.16927046219E+04  0.12699999809E+01 0.  1.
</event>
<event>
 5   0  0.9483073E-05  0.1685190E+04  0.7818609E-02  0.8769857E-01
       -2   -1    0    0    0  501  0.00000000000E+00  0.00000000000E+00  0.92812164019E+03  0.92812164020E+03  0.25500000920E-02 0. -1.
        2   -1    0    0  501    0  0.00000000000E+00  0.00000000000E+00 -0.76494931334E+03  0.76494931335E+03  0.25500000920E-02 0.  1.
    10030    2    1    2    0    0  0.00000000000E+00  0.00000000000E+00  0.16317232685E+03  0.16930709535E+04  0.16851896171E+04 0.  0.
        5    1    3    3  502    0 -0.55552350035E+03 -0.62663837420E+03  0.17509081486E+03  0.85554713190E+03  0.46999998093E+01 0. -1.
       -5    1    3    3    0  502  0.55552350035E+03  0.62663837420E+03 -0.11918488013E+02  0.83752382164E+03  0.46999998093E+01 0.  1.
</event>
<event>
 5   0  0.4095451E-05  0.2336642E+04  0.7818609E-02  0.8463612E-01
       -1   -1    0    0    0  501  0.00000000000E+00  0.00000000000E+00  0.11710392424E+04  0.11710392424E+04  0.50400001928E-02 0.  1.
        1   -1    0    0  501    0  0.00000000000E+00  0.00000000000E+00 -0.11656088852E+04  0.11656088852E+04  0.50400001928E-02 0. -1.
    10030    2    1    2    0    0  0.00000000000E+00  0.00000000000E+00  0.54303572427E+01  0.23366481276E+04  0.23366418175E+04 0.  0.
        3    1    3    3  502    0  0.10089498625E+04  0.17838828451E+03  0.56411809346E+03  0.11696287610E+04  0.10100000352E+00 0.  1.
       -3    1    3    3    0  502 -0.10089498625E+04 -0.17838828451E+03 -0.55868773622E+03  0.11670193665E+04  0.10100000352E+00 0. -1.
</event>
<event>
 5   0  0.3885219E-05  0.2296277E+04  0.7818609E-02  0.8479390E-01
        1   -1    0    0  501    0  0.00000000000E+00  0.00000000000E+00  0.14411511508E+04  0.14411511508E+04  0.50400001928E-02 0. -1.
       -1   -1    0    0    0  501  0.00000000000E+00  0.00000000000E+00 -0.91470109510E+03  0.91470109512E+03  0.50400001928E-02 0.  1.
    10030    2    1    2    0    0  0.00000000000E+00  0.00000000000E+00  0.52645005567E+03  0.23558522459E+04  0.22962774535E+04 0.  0.
        2    1    3    3  502    0  0.44546120220E+03  0.44815089918E+03 -0.72026297632E+03  0.95815117083E+03  0.25500000920E-02 0.  1.
       -2    1    3    3    0  502 -0.44546120220E+03 -0.44815089918E+03  0.12467130320E+04  0.13977010751E+04  0.25500000920E-02 0. -1.
</event>
<event>
 5   0  0.9641157E-05  0.2280822E+04  0.7818609E-02  0.8485521E-01
       -2   -1    0    0    0  501  0.00000000000E+00  0.00000000000E+00  0.96582699128E+03  0.96582699128E+03  0.25500000920E-02 0. -1.
        2   -1    0    0  501    0  0.00000000000E+00  0.00000000000E+00 -0.13465534485E+04  0.13465534485E+04  0.25500000920E-02 0.  1.
    10030    2    1    2    0    0  0.00000000000E+00  0.00000000000E+00 -0.38072645722E+03  0.23123804398E+04  0.22808223655E+04 0.  0.
        3    1    3    3  502    0  0.94688751051E+03 -0.63440325364E+03 -0.22928991773E+03  0.11625993817E+04  0.10100000352E+00 0. -1.
       -3    1    3    3    0  502 -0.94688751051E+03  0.63440325364E+03 -0.15143653949E+03  0.11497810581E+04  0.10100000352E+00 0.  1.
</event>
<event>
 5   0  0.4095451E-05  0.2398287E+04  0.7818609E-02  0.8440145E-01
       -1   -1    0    0    0  501  0.00000000000E+00  0.00000000000E+00  0.11749615215E+04  0.11749615215E+04  0.50400001928E-02 0.  1.
        1   -1    0    0  501    0  0.00000000000E+00  0.00000000000E+00 -0.12238233970E+04  0.12238233970E+04  0.50400001928E-02 0. -1.
    10030    2    1    2    0    0  0.00000000000E+00  0.00000000000E+00 -0.48861875516E+02  0.23987849186E+04  0.23982872227E+04 0.  0.
        3    1    3    3  502    0 -0.86263103646E+01 -0.10882312282E+04 -0.52814618149E+03  0.12096528504E+04  0.10100000352E+00 0. -1.
       -3    1    3    3    0  502  0.86263103646E+01  0.10882312282E+04  0.47928430597E+03  0.11891320681E+04  0.10100000352E+00 0.  1.
</event>
<event>
 5   0  0.4095451E-05  0.2410963E+04  0.7818609E-02  0.8435410E-01
        1   -1    0    0  501    0  0.00000000000E+00  0.00000000000E+00  0.28711222094E+04  0.28711222094E+04  0.50400001928E-02 0. -1.
       -1   -1    0    0    0  501  0.00000000000E+00  0.00000000000E+00 -0.50613863821E+03  0.50613863823E+03  0.50400001928E-02 0.  1.
    10030    2    1    2    0    0  0.00000000000E+00  0.00000000000E+00  0.23649835711E+04  0.33772608476E+04  0.24109631977E+04 0.  0.
        3    1    3    3  502    0  0.33757026149E+03 -0.58536632662E+03  0.25808864931E+04  0.26678797796E+04  0.10100000352E+00 0. -1.
       -3    1    3    3    0  502 -0.33757026149E+03  0.58536632662E+03 -0.21590292193E+03  0.70938106803E+03  0.10100000352E+00 0.  1.
</event>
<event>
 5   0  0.4095451E-05  0.2336516E+04  0.7818609E-02  0.8463661E-01
       -1   -1    0    0    0  501  0.00000000000E+00  0.00000000000E+00  0.13308181794E+04  0.13308181794E+04  0.50400001928E-02 0. -1.
        1   -1    0    0  501    0  0.00000000000E+00  0.00000000000E+00 -0.10255549876E+04  0.10255549876E+04  0.50400001928E-02 0.  1.
    10030    2    1    2    0    0  0.00000000000E+00  0.00000000000E+00  0.30526319174E+03  0.23563731670E+04  0.23365163997E+04 0.  0.
        3    1    3    3  502    0 -0.57528295612E+03 -0.60999936471E+03 -0.66777895292E+03  0.10719041210E+04  0.10100000352E+00 0. -1.
       -3    1    3    3    0  502  0.57528295612E+03  0.60999936471E+03  0.97304214466E+03  0.12844690460E+04  0.10100000352E+00 0.  1.
</event>
<event>
 5   0  0.3885219E-05  0.2311029E+04  0.7818609E-02  0.8473585E-01
        1   -1    0    0  501    0  0.00000000000E+00  0.00000000000E+00  0.64139649716E+03  0.64139649718E+03  0.50400001928E-02 0.  1.
       -1   -1    0    0    0  501  0.00000000000E+00  0.00000000000E+00 -0.20817294787E+04  0.20817294787E+04  0.50400001928E-02 0. -1.
    10030    2    1    2    0    0  0.00000000000E+00  0.00000000000E+00 -0.14403329816E+04  0.27231259759E+04  0.23110292043E+04 0.  0.
        2    1    3    3  502    0 -0.11034102770E+04 -0.28629606225E+03 -0.49742297702E+03  0.12437480825E+04  0.25500000920E-02 0.  1.
       -2    1    3    3    0  502  0.11034102770E+04  0.28629606225E+03 -0.94291000453E+03  0.14793778934E+04  0.25500000920E-02 0. -1.
</event>
<event>
 5   0  0.4005462E-05  0.2271371E+04  0.7818609E-02  0.8489295E-01
        1   -1    0    0  501    0  0.00000000000E+00  0.00000000000E+00  0.76866226014E+03  0.76866226015E+03  0.50400001928E-02 0.  1.
       -1   -1    0    0    0  501  0.00000000000E+00  0.00000000000E+00 -0.16779562006E+04  0.16779562006E+04  0.50400001928E-02 0. -1.
    10030    2    1    2    0    0  0.00000000000E+00  0.00000000000E+00 -0.90929394048E+03  0.24466184608E+04  0.22713710446E+04 0.  0.
        4    1    3    3  502    0 -0.47579198005E+03 -0.29770706448E+03 -0.15181281162E+04  0.16185555580E+04  0.12699999809E+01 0. -1.
       -4    1    3    3    0  502  0.47579198005E+03  0.29770706448E+03  0.60883417567E+03  0.82806290274E+03  0.12699999809E+01 0.  1.
</event>
<event>
 5   0  0.4005462E-05  0.2337629E+04  0.7818609E-02  0.8463231E-01
       -1   -1    0    0    0  501  0.00000000000E+00  0.00000000000E+00  0.45300034946E+03  0.45300034949E+03  0.50400001928E-02 0.  1.
        1   -1    0    0  501    0  0.00000000000E+00  0.00000000000E+00 -0.30157313841E+04  0.30157313841E+04  0.50400001928E-02 0. -1.
    10030    2    1    2    0    0  0.00000000000E+00  0.00000000000E+00 -0.25627310346E+04  0.34687317336E+04  0.23376290304E+04 0.  0.
        4    1    3    3  502    0  0.60909615875E+03 -0.88557738526E+03 -0.19627828084E+04  0.22378032535E+04  0.12699999809E+01 0.  1.
       -4    1    3    3    0  502 -0.60909615875E+03  0.88557738526E+03 -0.59994822629E+03  0.12309284801E+04  0.12699999809E+01 0. -1.
</event>
<event>
 5   0  0.9641157E-05  0.2321087E+04  0.7818609E-02  0.8469653E-01
        2   -1    0    0  501    0  0.00000000000E+00  0.00000000000E+00  0.70555240091E+03  0.70555240091E+03  0.25500000920E-02 0. -1.
       -2   -1    0    0    0  501  0.00000000000E+00  0.00000000000E+00 -0.19089464105E+04  0.19089464105E+04  0.25500000920E-02 0.  1.
    10030    2    1    2    0    0  0.00000000000E+00  0.00000000000E+00 -0.12033940096E+04  0.26144988114E+04  0.23210874375E+04 0.  0.
        3    1    3    3  502    0 -0.60687404069E+03 -0.77928613360E+02  0.50911389413E+03  0.79596855305E+03  0.10100000352E+00 0. -1.
       -3    1    3    3    0  502  0.60687404069E+03  0.77928613360E+02 -0.17125079037E+04  0.18185302583E+04  0.10100000352E+00 0.  1.
</event>
<event>
 5   0  0.9312074E-05  0.2298617E+04  0.7818609E-02  0.8478467E-01
       -2   -1    0    0    0  501  0.00000000000E+00  0.00000000000E+00  0.14142043322E+04  0.14142043322E+04  0.25500000920E-02 0. -1.
        2   -1    0    0  501    0  0.00000000000E+00  0.00000000000E+00 -0.93403044970E+03  0.93403044971E+03  0.25500000920E-02 0.  1.
    10030    2    1    2    0    0  0.00000000000E+00  0.00000000000E+00  0.48017388250E+03  0.23482347819E+04  0.22986168958E+04 0.  0.
        4    1    3    3  502    0 -0.32208954806E+03  0.67933038510E+03  0.11281483129E+04  0.13557107648E+04  0.12699999809E+01 0. -1.
       -4    1    3    3    0  502  0.32208954806E+03 -0.67933038510E+03 -0.64797443041E+03  0.99252401707E+03  0.12699999809E+01 0.  1.
</event>
<event>
 5   0  0.9312074E-05  0.2316849E+04  0.7818609E-02  0.8471307E-01
       -2   -1    0    0    0  501  0.00000000000E+00  0.00000000000E+00  0.18761514162E+04  0.18761514162E+04  0.25500000920E-02 0.  1.
        2   -1    0    0  501    0  0.00000000000E+00  0.00000000000E+00 -0.71526586569E+03  0.71526586570E+03  0.25500000920E-02 0. -1.
    10030    2    1    2    0    0  0.00000000000E+00  0.00000000000E+00  0.11608855505E+04  0.25914172819E+04  0.23168487796E+04 0.  0.
        4    1    3    3  502    0  0.31849611698E+03  0.92712905610E+03 -0.10990266985E+03  0.98645236729E+03  0.12699999809E+01 0. -1.
       -4    1    3    3    0  502 -0.31849611698E+03 -0.92712905610E+03  0.12707882204E+04  0.16049649146E+04  0.12699999809E+01 0.  1.
</event>
<event>
 5   0  0.4295775E-05  0.2324649E+04  0.7818609E-02  0.8468265E-01
        1   -1    0    0  501    0  0.00000000000E+00  0.00000000000E+00  0.16250771420E+04  0.16250771420E+04  0.50400001928E-02 0. -1.
       -1   -1    0    0    0  501  0.00000000000E+00  0.00000000000E+00 -0.83134404443E+03  0.83134404445E+03  0.50400001928E-02 0.  1.
    10030    2    1    2    0    0  0.00000000000E+00  0.00000000000E+00  0.79373309757E+03  0.24564211865E+04  0.23246489660E+04 0.  0.
        5    1    3    3  502    0 -0.42347253189E+03 -0.77852942062E+03  0.11915181441E+04  0.14849830375E+04  0.46999998093E+01 0. -1.
       -5    1    3    3    0  502  0.42347253189E+03  0.77852942062E+03 -0.39778504649E+03  0.97143814895E+03  0.46999998093E+01 0.  1.
</event>
<event>
 5   0  0.4095451E-05  0.2236097E+04  0.7818609E-02  0.8503552E-01
        1   -1    0    0  501    0  0.00000000000E+00  0.00000000000E+00  0.98338421653E+03  0.98338421654E+03  0.50400001928E-02 0.  1.
       -1   -1    0    0    0  501  0.00000000000E+00  0.00000000000E+00 -0.12711539819E+04  0.12711539819E+04  0.50400001928E-02 0. -1.
    10030    2    1    2    0    0  0.00000000000E+00  0.00000000000E+00 -0.28776976540E+03  0.22545381985E+04  0.22360972811E+04 0.  0.
        3    1    3    3  502    0  0.52422358703E+03  0.97010981581E+03 -0.33009509242E+03  0.11510370125E+04  0.10100000352E+00 0. -1.
       -3    1    3    3    0  502 -0.52422358703E+03 -0.97010981581E+03  0.42325327021E+02  0.11035011860E+04  0.10100000352E+00 0.  1.
</event>
<event>
 5   0  0.9312074E-05  0.2322032E+04  0.7818609E-02  0.8469285E-01
        2   -1    0    0  501    0  0.00000000000E+00  0.00000000000E+00  0.10321615979E+04  0.10321615979E+04  0.25500000920E-02 0.  1.
       -2   -1    0    0    0  501  0.00000000000E+00  0.00000000000E+00 -0.13059562911E+04  0.13059562911E+04  0.25500000920E-02 0. -1.
    10030    2    1    2    0    0  0.00000000000E+00  0.00000000000E+00 -0.27379469322E+03  0.23381178889E+04  0.23220318104E+04 0.  0.
        4    1    3    3  502    0  0.63110711193E+03 -0.93509599885E+03  0.13933063286E+03  0.11367125195E+04  0.12699999809E+01 0.  1.
       -4    1    3    3    0  502 -0.63110711193E+03  0.93509599885E+03 -0.41312532608E+03  0.12014053694E+04  0.12699999809E+01 0. -1.
</event>
<event>
 5   0  0.9483073E-05  0.2356566E+04  0.7818609E-02  0.8455946E-01
       -2   -1    0    0    0  501  0.00000000000E+00  0.00000000000E+00  0.99429853236E+03  0.99429853236E+03  0.25500000920E-02 0. -1.
        2   -1    0    0  501    0  0.00000000000E+00  0.00000000000E+00 -0.13963116757E+04  0.13963116758E+04  0.25500000920E-02 0.  1.
    10030    2    1    2    0    0  0.00000000000E+00  0.00000000000E+00 -0.40201314339E+03  0.23906102081E+04  0.23565658488E+04 0.  0.
        5    1    3    3  502    0 -0.63995336995E+03 -0.95815275671E+03 -0.45100445606E+03  0.12373455986E+04  0.46999998093E+01 0. -1.
       -5    1    3    3    0  502  0.63995336995E+03  0.95815275671E+03  0.48991312668E+02  0.11532646095E+04  0.46999998093E+01 0.  1.
</event>
<event>
 5   0  0.4295775E-05  0.2293182E+04  0.7818609E-02  0.8480614E-01
       -1   -1    0    0    0  501  0.00000000000E+00  0.00000000000E+00  0.58093742017E+03  0.58093742019E+03  0.50400001928E-02 0.  1.
        1   -1    0    0  501    0  0.00000000000E+00  0.00000000000E+00 -0.22630157987E+04  0.22630157987E+04  0.50400001928E-02 0. -1.
    10030    2    1    2    0    0  0.00000000000E+00  0.00000000000E+00 -0.16820783785E+04  0.28439532189E+04  0.22931816849E+04 0.  0.
        5    1    3    3  502    0 -0.92105985818E+03 -0.15648236866E+03 -0.16707513366E+02  0.93441919129E+03  0.46999998093E+01 0.  1.
       -5    1    3    3    0  502  0.92105985818E+03  0.15648236866E+03 -0.16653708652E+04  0.19095340276E+04  0.46999998093E+01 0. -1.
</event>
<event>
 5   0  0.4095451E-05  0.2300390E+04  0.7818609E-02  0.8477768E-01
        1   -1    0    0  501    0  0.00000000000E+00  0.00000000000E+00  0.14653884402E+04  0.14653884402E+04  0.50400001928E-02 0. -1.
       -1   -1    0    0    0  501  0.00000000000E+00  0.00000000000E+00 -0.90279684133E+03  0.90279684134E+03  0.50400001928E-02 0.  1.
    10030    2    1    2    0    0  0.00000000000E+00  0.00000000000E+00  0.56259159890E+03  0.23681852816E+04  0.23003895802E+04 0.  0.
        3    1    3    3  502    0  0.10087055806E+04 -0.25711287663E+03  0.78495258558E+03  0.13037425173E+04  0.10100000352E+00 0. -1.
       -3    1    3    3    0  502 -0.10087055806E+04  0.25711287663E+03 -0.22236098668E+03  0.10644427642E+04  0.10100000352E+00 0.  1.
</event>
<event>
 5   0  0.9535394E-05  0.2339097E+04  0.7818609E-02  0.8462663E-01
       -2   -1    0    0    0  501  0.00000000000E+00  0.00000000000E+00  0.55813306914E+03  0.55813306914E+03  0.25500000920E-02 0. -1.
        2   -1    0    0  501    0  0.00000000000E+00  0.00000000000E+00 -0.24507490795E+04  0.24507490795E+04  0.25500000920E-02 0.  1.
    10030    2    1    2    0    0  0.00000000000E+00  0.00000000000E+00 -0.18926160103E+04  0.30088821486E+04  0.23390973519E+04 0.  0.
        2    1    3    3  502    0  0.32181004458E+03 -0.25425633723E+03 -0.23552127976E+04  0.23906558330E+04  0.25500000920E-02 0.  1.
       -2    1    3    3    0  502 -0.32181004458E+03  0.25425633723E+03  0.46259678723E+03  0.61822631566E+03  0.25500000920E-02 0. -1.
</event>
<event>
 5   0  0.9483073E-05  0.2255510E+04  0.7818609E-02  0.8495672E-01
       -2   -1    0    0    0  501  0.00000000000E+00  0.00000000000E+00  0.10255034654E+04  0.10255034654E+04  0.25500000920E-02 0.  1.
        2   -1    0    0  501    0  0.00000000000E+00  0.00000000000E+00 -0.12402020813E+04  0.12402020813E+04  0.25500000920E-02 0. -1.
    10030    2    1    2    0    0  0.00000000000E+00  0.00000000000E+00 -0.21469861590E+03  0.22657055468E+04  0.22555101705E+04 0.  0.
        5    1    3    3  502    0  0.43020787906E+03  0.19415950147E+03 -0.11362019886E+04  0.12303470161E+04  0.46999998093E+01 0. -1.
       -5    1    3    3    0  502 -0.43020787906E+03 -0.19415950147E+03  0.92150337266E+03  0.10353585307E+04  0.46999998093E+01 0.  1.
</event>
<event>
 5   0  0.9313463E-05  0.2277284E+04  0.7818609E-02  0.8486932E-01
        2   -1    0    0  501    0  0.00000000000E+00  0.00000000000E+00  0.21829730848E+04  0.21829730848E+04  0.25500000920E-02 0.  1.
       -2   -1    0    0    0  501  0.00000000000E+00  0.00000000000E+00 -0.59391728204E+03  0.59391728205E+03  0.25500000920E-02 0. -1.
    10030    2    1    2    0    0  0.00000000000E+00  0.00000000000E+00  0.15890558028E+04  0.27768903669E+04  0.22772838570E+04 0.  0.
        1    1    3    3  502    0 -0.35513484926E+03  0.10173999504E+03  0.21078669610E+04  0.21399941385E+04  0.50400001928E-02 0.  1.
       -1    1    3    3    0  502  0.35513484926E+03 -0.10173999504E+03 -0.51881115821E+03  0.63689622833E+03  0.50400001928E-02 0. -1.
</event>
<event>
 5   0  0.9312074E-05  0.2392098E+04  0.7818609E-02  0.8442468E-01
       -2   -1    0    0    0  501  0.00000000000E+00  0.00000000000E+00  0.12637731845E+04  0.12637731845E+04  0.25500000920E-02 0.  1.
        2   -1    0    0  501    0  0.00000000000E+00  0.00000000000E+00 -0.11319544468E+04  0.11319544468E+04  0.25500000920E-02 0. -1.
    10030    2    1    2    0    0  0.00000000000E+00  0.00000000000E+00  0.13181873772E+03  0.23957276313E+04  0.23920983893E+04 0.  0.
        4    1    3    3  502    0 -0.47940399734E+03 -0.71207158703E+03 -0.76821551921E+03  0.11519682437E+04  0.12699999809E+01 0. -1.
       -4    1    3    3    0  502  0.47940399734E+03  0.71207158703E+03  0.90003425692E+03  0.12437593876E+04  0.12699999809E+01 0.  1.
</event>
<event>
 5   0  0.9483073E-05  0.2304503E+04  0.7818609E-02  0.8476148E-01
        2   -1    0    0  501    0  0.00000000000E+00  0.00000000000E+00  0.96043623827E+03  0.96043623827E+03  0.25500000920E-02 0. -1.
       -2   -1    0    0    0  501  0.00000000000E+00  0.00000000000E+00 -0.13823754786E+04  0.13823754786E+04  0.25500000920E-02 0.  1.
    10030    2    1    2    0    0  0.00000000000E+00  0.00000000000E+00 -0.42193924035E+03  0.23428117169E+04  0.23045029873E+04 0.  0.
        5    1    3    3  502    0  0.37332183981E+03 -0.59352515105E+03 -0.11405104590E+04  0.13388157073E+04  0.46999998093E+01 0.  1.
       -5    1    3    3    0  502 -0.37332183981E+03  0.59352515105E+03  0.71857121866E+03  0.10039960096E+04  0.46999998093E+01 0. -1.
</event>
<event>
 5   0  0.9641157E-05  0.1946995E+04  0.7818609E-02  0.8631811E-01
        2   -1    0    0  501    0  0.00000000000E+00  0.00000000000E+00  0.84377784268E+03  0.84377784269E+03  0.25500000920E-02 0. -1.
       -2   -1    0    0    0  501  0.00000000000E+00  0.00000000000E+00 -0.11231602542E+04  0.11231602542E+04  0.25500000920E-02 0.  1.
    10030    2    1    2    0    0  0.00000000000E+00  0.00000000000E+00 -0.27938241150E+03  0.19669380969E+04  0.19469953634E+04 0.  0.
        3    1    3    3  502    0  0.10817811150E+03 -0.82626978890E+03  0.36872643960E+03  0.91125378755E+03  0.10100000352E+00 0. -1.
       -3    1    3    3    0  502 -0.10817811150E+03  0.82626978890E+03 -0.64810885110E+03  0.10556843093E+04  0.10100000352E+00 0.  1.
</event>
<event>
 5   0  0.4005462E-05  0.2302367E+04  0.7818609E-02  0.8476988E-01
       -1   -1    0    0    0  501  0.00000000000E+00  0.00000000000E+00  0.11063658482E+04  0.11063658482E+04  0.50400001928E-02 0. -1.
        1   -1    0    0  501    0  0.00000000000E+00  0.00000000000E+00 -0.11978170002E+04  0.11978170002E+04  0.50400001928E-02 0.  1.
    10030    2    1    2    0    0  0.00000000000E+00  0.00000000000E+00 -0.91451152028E+02  0.23041828485E+04  0.23023673221E+04 0.  0.
        4    1    3    3  502    0  0.30411673313E+03 -0.58970276409E+02 -0.11553188117E+04  0.11961302815E+04  0.12699999809E+01 0.  1.
       -4    1    3    3    0  502 -0.30411673313E+03  0.58970276409E+02  0.10638676597E+04  0.11080525669E+04  0.12699999809E+01 0. -1.
</event>
<event>
 5   0  0.9483073E-05  0.2184364E+04  0.7818609E-02  0.8524964E-01
       -2   -1    0    0    0  501  0.00000000000E+00  0.00000000000E+00  0.12166896388E+04  0.12166896388E+04  0.25500000920E-02 0. -1.
        2   -1    0    0  501    0  0.00000000000E+00  0.00000000000E+00 -0.98041596133E+03  0.98041596134E+03  0.25500000920E-02 0.  1.
    10030    2    1    2    0    0  0.00000000000E+00  0.00000000000E+00  0.23627367750E+03  0.21971056002E+04  0.21843643853E+04 0.  0.
        5    1    3    3  502    0  0.17834090755E+02  0.94781436501E+03  0.66367461927E+03  0.11572191735E+04  0.46999998093E+01 0. -1.
       -5    1    3    3    0  502 -0.17834090755E+02 -0.94781436501E+03 -0.42740094176E+03  0.10398864267E+04  0.46999998093E+01 0.  1.
</event>
<event>
 5   0  0.4295775E-05  0.2209969E+04  0.7818609E-02  0.8514290E-01
        1   -1    0    0  501    0  0.00000000000E+00  0.00000000000E+00  0.79140556219E+03  0.79140556221E+03  0.50400001928E-02 0.  1.
       -1   -1    0    0    0  501  0.00000000000E+00  0.00000000000E+00 -0.15428134546E+04  0.15428134546E+04  0.50400001928E-02 0. -1.
    10030    2    1    2    0    0  0.00000000000E+00  0.00000000000E+00 -0.75140789241E+03  0.23342190168E+04  0.22099693658E+04 0.  0.
        5    1    3    3  502    0  0.47605683808E+03 -0.50945478366E+03 -0.12810995418E+04  0.14585651907E+04  0.46999998093E+01 0. -1.
       -5    1    3    3    0  502 -0.47605683808E+03  0.50945478366E+03  0.52969164939E+03  0.87565382607E+03  0.46999998093E+01 0.  1.
</event>
<event>
 5   0  0.4295775E-05  0.2899043E+04  0.7818609E-02  0.8273162E-01
       -1   -1    0    0    0  501  0.00000000000E+00  0.00000000000E+00  0.14831060918E+04  0.14831060918E+04  0.50400001928E-02 0.  1.
        1   -1    0    0  501    0  0.00000000000E+00  0.00000000000E+00 -0.14166969802E+04  0.14166969802E+04  0.50400001928E-02 0. -1.
    10030    2    1    2    0    0  0.00000000000E+00  0.00000000000E+00  0.66409111591E+02  0.28998030719E+04  0.28990425464E+04 0.  0.
        5    1    3    3  502    0 -0.69973999679E+03  0.26152210208E+03  0.12757300757E+04  0.14783569220E+04  0.46999998093E+01 0.  1.
       -5    1    3    3    0  502  0.69973999679E+03 -0.26152210208E+03 -0.12093209641E+04  0.14214461499E+04  0.46999998093E+01 0. -1.
</event>
<event>
 5   0  0.4295775E-05  0.2330246E+04  0.7818609E-02  0.8466090E-01
       -1   -1    0    0    0  501  0.00000000000E+00  0.00000000000E+00  0.10602761189E+04  0.10602761189E+04  0.50400001928E-02 0.  1.
        1   -1    0    0  501    0  0.00000000000E+00  0.00000000000E+00 -0.12803383203E+04  0.12803383203E+04  0.50400001928E-02 0. -1.
    10030    2    1    2    0    0  0.00000000000E+00  0.00000000000E+00 -0.22006220140E+03  0.23406144391E+04  0.23302464634E+04 0.  0.
        5    1    3    3  502    0  0.11833396306E+03  0.18643795159E+03 -0.12591176009E+04  0.12783431697E+04  0.46999998093E+01 0. -1.
       -5    1    3    3    0  502 -0.11833396306E+03 -0.18643795159E+03  0.10390553995E+04  0.10622712694E+04  0.46999998093E+01 0.  1.
</event>
<event>
 5   0  0.4139830E-05  0.2280807E+04  0.7818609E-02  0.8485527E-01
        1   -1    0    0  501    0  0.00000000000E+00  0.00000000000E+00  0.13590734861E+04  0.13590734861E+04  0.50400001928E-02 0. -1.
       -1   -1    0    0    0  501  0.00000000000E+00  0.00000000000E+00 -0.95691647957E+03  0.95691647959E+03  0.50400001928E-02 0.  1.
    10030    2    1    2    0    0  0.00000000000E+00  0.00000000000E+00  0.40215700657E+03  0.23159899657E+04  0.22808067133E+04 0.  0.
        1    1    3    3  502    0 -0.36722920959E+03  0.50263560374E+01 -0.89522272671E+03  0.96762920950E+03  0.50400001928E-02 0.  1.
       -1    1    3    3    0  502  0.36722920959E+03 -0.50263560374E+01  0.12973797333E+04  0.13483607562E+04  0.50400001928E-02 0. -1.
</event>
<event>
 5   0  0.9641157E-05  0.2296094E+04  0.7818609E-02  0.8479463E-01
        2   -1    0    0  501    0  0.00000000000E+00  0.00000000000E+00  0.20915381924E+04  0.20915381924E+04  0.25500000920E-02 0.  1.
       -2   -1    0    0    0  501  0.00000000000E+00  0.00000000000E+00 -0.63016373945E+03  0.63016373945E+03  0.25500000920E-02 0. -1.
    10030    2    1    2    0    0  0.00000000000E+00  0.00000000000E+00  0.14613744529E+04  0.27217019318E+04  0.22960936640E+04 0.  0.
        3    1    3    3  502    0 -0.13707294375E+03  0.11114851919E+04  0.43122625380E+03  0.12000601717E+04  0.10100000352E+00 0.  1.
       -3    1    3    3    0  502  0.13707294375E+03 -0.11114851919E+04  0.10301481991E+04  0.15216417601E+04  0.10100000352E+00 0. -1.
</event>
<event>
 5   0  0.3261500E-05  0.2354389E+04  0.7818609E-02  0.8456780E-01
       -4   -1    0    0    0  501  0.00000000000E+00  0.00000000000E+00  0.14132681067E+04  0.14132686773E+04  0.12699999809E+01 0. -1.
        4   -1    0    0  501    0  0.00000000000E+00  0.00000000000E+00 -0.98055391021E+03  0.98055473265E+03  0.12699999809E+01 0.  1.
    10030    2    1    2    0    0  0.00000000000E+00  0.00000000000E+00  0.43271419650E+03  0.23938234100E+04  0.23543892929E+04 0.  0.
        5    1    3    3  502    0 -0.14891787061E+03 -0.10232041888E+03  0.13990768649E+04  0.14107034289E+04  0.46999998093E+01 0. -1.
       -5    1    3    3    0  502  0.14891787061E+03  0.10232041888E+03 -0.96636266843E+03  0.98311998110E+03  0.46999998093E+01 0.  1.
</event>
<event>
 5   0  0.4005462E-05  0.2281620E+04  0.7818609E-02  0.8485204E-01
       -1   -1    0    0    0  501  0.00000000000E+00  0.00000000000E+00  0.14983500529E+04  0.14983500529E+04  0.50400001928E-02 0.  1.
        1   -1    0    0  501    0  0.00000000000E+00  0.00000000000E+00 -0.86858696097E+03  0.86858696098E+03  0.50400001928E-02 0. -1.
    10030    2    1    2    0    0  0.00000000000E+00  0.00000000000E+00  0.62976309189E+03  0.23669370138E+04  0.22816198797E+04 0.  0.
        4    1    3    3  502    0 -0.67423991672E+03 -0.39409702777E+03 -0.54779920273E+03  0.95393789736E+03  0.12699999809E+01 0. -1.
       -4    1    3    3    0  502  0.67423991672E+03  0.39409702777E+03  0.11775622946E+04  0.14129991165E+04  0.12699999809E+01 0.  1.
</event>
<event>
 5   0  0.9312074E-05  0.2284665E+04  0.7818609E-02  0.8483992E-01
        2   -1    0    0  501    0  0.00000000000E+00  0.00000000000E+00  0.14458115539E+04  0.14458115539E+04  0.25500000920E-02 0. -1.
       -2   -1    0    0    0  501  0.00000000000E+00  0.00000000000E+00 -0.90255406129E+03  0.90255406129E+03  0.25500000920E-02 0.  1.
    10030    2    1    2    0    0  0.00000000000E+00  0.00000000000E+00  0.54325749262E+03  0.23483656152E+04  0.22846646054E+04 0.  0.
        4    1    3    3  502    0 -0.33980553957E+03  0.10827150799E+04  0.40636258331E+03  0.12053513641E+04  0.12699999809E+01 0.  1.
       -4    1    3    3    0  502  0.33980553957E+03 -0.10827150799E+04  0.13689490931E+03  0.11430142511E+04  0.12699999809E+01 0. -1.
</event>
<event>
 5   0  0.9535394E-05  0.2319209E+04  0.7818609E-02  0.8470386E-01
       -2   -1    0    0    0  501  0.00000000000E+00  0.00000000000E+00  0.92771507705E+03  0.92771507706E+03  0.25500000920E-02 0. -1.
        2   -1    0    0  501    0  0.00000000000E+00  0.00000000000E+00 -0.14494562927E+04  0.14494562927E+04  0.25500000920E-02 0.  1.
    10030    2    1    2    0    0  0.00000000000E+00  0.00000000000E+00 -0.52174121565E+03  0.23771713698E+04  0.23192088791E+04 0.  0.
        2    1    3    3  502    0  0.98992397824E+03  0.57995890276E+03 -0.43354651821E+03  0.12264845678E+04  0.25500000920E-02 0.  1.
       -2    1    3    3    0  502 -0.98992397824E+03 -0.57995890276E+03 -0.88194697448E+02  0.11506868020E+04  0.25500000920E-02 0. -1.
</event>
<event>
 5   0  0.4139830E-05  0.2342357E+04  0.7818609E-02  0.8461405E-01
       -1   -1    0    0    0  501  0.00000000000E+00  0.00000000000E+00  0.65696262323E+03  0.65696262325E+03  0.50400001928E-02 0. -1.
        1   -1    0    0  501    0  0.00000000000E+00  0.00000000000E+00 -0.20878805248E+04  0.20878805248E+04  0.50400001928E-02 0.  1.
    10030    2    1    2    0    0  0.00000000000E+00  0.00000000000E+00 -0.14309179016E+04  0.27448431481E+04  0.23423573311E+04 0.  0.
        1    1    3    3  502    0 -0.16092113846E+03 -0.11318099531E+04 -0.10136891462E+04  0.15278923614E+04  0.50400001928E-02 0.  1.
       -1    1    3    3    0  502  0.16092113846E+03  0.11318099531E+04 -0.41722875534E+03  0.12169507867E+04  0.50400001928E-02 0. -1.
</event>
<event>
 5   0  0.9483073E-05  0.1527618E+04  0.7818609E-02  0.8866292E-01
       -2   -1    0    0    0  501  0.00000000000E+00  0.00000000000E+00  0.84457788461E+03  0.84457788461E+03  0.25500000920E-02 0. -1.
        2   -1    0    0  501    0  0.00000000000E+00  0.00000000000E+00 -0.69076454656E+03  0.69076454657E+03  0.25500000920E-02 0.  1.
    10030    2    1    2    0    0  0.00000000000E+00  0.00000000000E+00  0.15381333804E+03  0.15353424312E+04  0.15276183548E+04 0.  0.
        5    1    3    3  502    0 -0.76979305575E+02  0.42633053737E+03 -0.55531993498E+03  0.70433362888E+03  0.46999998093E+01 0.  1.
       -5    1    3    3    0  502  0.76979305575E+02 -0.42633053737E+03  0.70913327303E+03  0.83100880230E+03  0.46999998093E+01 0. -1.
</event>
<event>
 5   0  0.4095451E-05  0.2231487E+04  0.7818609E-02  0.8505436E-01
       -1   -1    0    0    0  501  0.00000000000E+00  0.00000000000E+00  0.83236233890E+03  0.83236233892E+03  0.50400001928E-02 0.  1.
        1   -1    0    0  501    0  0.00000000000E+00  0.00000000000E+00 -0.14956034385E+04  0.14956034386E+04  0.50400001928E-02 0. -1.
    10030    2    1    2    0    0  0.00000000000E+00  0.00000000000E+00 -0.66324109965E+03  0.23279657775E+04  0.22314873750E+04 0.  0.
        3    1    3    3  502    0  0.68667741276E+01  0.89208140008E+03 -0.10306873389E+04  0.13631481129E+04  0.10100000352E+00 0. -1.
       -3    1    3    3    0  502 -0.68667741276E+01 -0.89208140008E+03  0.36744623924E+03  0.96481766458E+03  0.10100000352E+00 0.  1.
</event>
<event>
 5   0  0.9312074E-05  0.2347575E+04  0.7818609E-02  0.8459396E-01
       -2   -1    0    0    0  501  0.00000000000E+00  0.00000000000E+00  0.91512406120E+03  0.91512406121E+03  0.25500000920E-02 0.  1.
        2   -1    0    0  501    0  0.00000000000E+00  0.00000000000E+00 -0.15055636232E+04  0.15055636232E+04  0.25500000920E-02 0. -1.
    10030    2    1    2    0    0  0.00000000000E+00  0.00000000000E+00 -0.59043956201E+03  0.24206876844E+04  0.23475753426E+04 0.  0.
        4    1    3    3  502    0  0.10564208639E+04 -0.11185382445E+03  0.21956738762E+03  0.10847800562E+04  0.12699999809E+01 0.  1.
       -4    1    3    3    0  502 -0.10564208639E+04  0.11185382445E+03 -0.81000694963E+03  0.13359076282E+04  0.12699999809E+01 0. -1.
</event>
<event>
 5   0  0.3261500E-05  0.2529008E+04  0.7818609E-02  0.8392723E-01
       -4   -1    0    0    0  501  0.00000000000E+00  0.00000000000E+00  0.11018980649E+04  0.11018987968E+04  0.12699999809E+01 0.  1.
        4   -1    0    0  501    0  0.00000000000E+00  0.00000000000E+00 -0.14511045763E+04  0.14511051321E+04  0.12699999809E+01 0. -1.
    10030    2    1    2    0    0  0.00000000000E+00  0.00000000000E+00 -0.34920651140E+03  0.25530039288E+04  0.25290084763E+04 0.  0.
        5    1    3    3  502    0  0.37406005443E+03  0.46019742873E+03 -0.13020013775E+04  0.14307104091E+04  0.46999998093E+01 0. -1.
       -5    1    3    3    0  502 -0.37406005443E+03 -0.46019742873E+03  0.95279486606E+03  0.11222935198E+04  0.46999998093E+01 0.  1.
</event>
<event>
 5   0  0.4139830E-05  0.2357380E+04  0.7818609E-02  0.8455634E-01
       -1   -1    0    0    0  501  0.00000000000E+00  0.00000000000E+00  0.11265631330E+04  0.11265631330E+04  0.50400001928E-02 0.  1.
        1   -1    0    0  501    0  0.00000000000E+00  0.00000000000E+00 -0.12332288041E+04  0.12332288041E+04  0.50400001928E-02 0. -1.
    10030    2    1    2    0    0  0.00000000000E+00  0.00000000000E+00 -0.10666567109E+03  0.23597919371E+04  0.23573799908E+04 0.  0.
        1    1    3    3  502    0  0.10296880300E+03 -0.33278689874E+02  0.11215801299E+04  0.11267883712E+04  0.50400001928E-02 0.  1.
       -1    1    3    3    0  502 -0.10296880300E+03  0.33278689874E+02 -0.12282458010E+04  0.12330035658E+04  0.50400001928E-02 0. -1.
</event>
<event>
 5   0  0.4139830E-05  0.2344811E+04  0.7818609E-02  0.8460460E-01
        1   -1    0    0  501    0  0.00000000000E+00  0.00000000000E+00  0.11467355490E+04  0.11467355490E+04  0.50400001928E-02 0. -1.
       -1   -1    0    0    0  501  0.00000000000E+00  0.00000000000E+00 -0.11986497286E+04  0.11986497287E+04  0.50400001928E-02 0.  1.
    10030    2    1    2    0    0  0.00000000000E+00  0.00000000000E+00 -0.51914179609E+02  0.23453852777E+04  0.23448106574E+04 0.  0.
        1    1    3    3  502    0 -0.90212783999E+03  0.35426775896E+03  0.63389690446E+03  0.11580870305E+04  0.50400001928E-02 0. -1.
       -1    1    3    3    0  502  0.90212783999E+03 -0.35426775896E+03 -0.68581108407E+03  0.11872982472E+04  0.50400001928E-02 0.  1.
</event>
<event>
 5   0  0.4095451E-05  0.2297597E+04  0.7818609E-02  0.8478869E-01
        1   -1    0    0  501    0  0.00000000000E+00  0.00000000000E+00  0.19744752763E+04  0.19744752763E+04  0.50400001928E-02 0.  1.
       -1   -1    0    0    0  501  0.00000000000E+00  0.00000000000E+00 -0.66839921904E+03  0.66839921906E+03  0.50400001928E-02 0. -1.
    10030    2    1    2    0    0  0.00000000000E+00  0.00000000000E+00  0.13060760572E+04  0.26428744954E+04  0.22975967729E+04 0.  0.
        3    1    3    3  502    0  0.30195991361E+03 -0.72905258891E+03 -0.30731665214E+03  0.84684178080E+03  0.10100000352E+00 0. -1.
       -3    1    3    3    0  502 -0.30195991361E+03  0.72905258891E+03  0.16133927094E+04  0.17960327146E+04  0.10100000352E+00 0.  1.
</event>
<event>
 5   0  0.9312074E-05  0.2268580E+04  0.7818609E-02  0.8490414E-01
       -2   -1    0    0    0  501  0.00000000000E+00  0.00000000000E+00  0.12422756371E+04  0.12422756371E+04  0.25500000920E-02 0.  1.
        2   -1    0    0  501    0  0.00000000000E+00  0.00000000000E+00 -0.10356912436E+04  0.10356912436E+04  0.25500000920E-02 0. -1.
    10030    2    1    2    0    0  0.00000000000E+00  0.00000000000E+00  0.20658439349E+03  0.22779668807E+04  0.22685801722E+04 0.  0.
        4    1    3    3  502    0 -0.59828809342E+02  0.72377324696E+03 -0.77162537009E+03  0.10596388649E+04  0.12699999809E+01 0. -1.
       -4    1    3    3    0  502  0.59828809342E+02 -0.72377324696E+03  0.97820976357E+03  0.12183280157E+04  0.12699999809E+01 0.  1.
</event>
<event>
 5   0  0.9313463E-05  0.2211563E+04  0.7818609E-02  0.8513631E-01
       -2   -1    0    0    0  501  0.00000000000E+00  0.00000000000E+00  0.82202570555E+03  0.82202570555E+03  0.25500000920E-02 0.  1.
        2   -1    0    0  501    0  0.00000000000E+00  0.00000000000E+00 -0.14874868565E+04  0.14874868565E+04  0.25500000920E-02 0. -1.
    10030    2    1    2    0    0  0.00000000000E+00  0.00000000000E+00 -0.66546115092E+03  0.23095125620E+04  0.22115627350E+04 0.  0.
        1    1    3    3  502    0 -0.47947422573E+03  0.30358318839E+03  0.65835176040E+03  0.86918658864E+03  0.50400001928E-02 0.  1.
       -1    1    3    3    0  502  0.47947422573E+03 -0.30358318839E+03 -0.13238129113E+04  0.14403259734E+04  0.50400001928E-02 0. -1.
</event>
<event>
 5   0  0.3885219E-05  0.2156196E+04  0.7818609E-02  0.8536885E-01
        1   -1    0    0  501    0  0.00000000000E+00  0.00000000000E+00  0.22665947540E+04  0.22665947540E+04  0.50400001928E-02 0.  1.
       -1   -1    0    0    0  501  0.00000000000E+00  0.00000000000E+00 -0.51279367866E+03  0.51279367869E+03  0.50400001928E-02 0. -1.
    10030    2    1    2    0    0  0.00000000000E+00  0.00000000000E+00  0.17538010753E+04  0.27793884327E+04  0.21561961525E+04 0.  0.
        2    1    3    3  502    0  0.52468667761E+03  0.67705571641E+03  0.17207878999E+04  0.19221892595E+04  0.25500000920E-02 0.  1.
       -2    1    3    3    0  502 -0.52468667761E+03 -0.67705571641E+03  0.33013175420E+02  0.85719917321E+03  0.25500000920E-02 0. -1.
</event>
<event>
 5   0  0.3885219E-05  0.2279347E+04  0.7818609E-02  0.8486109E-01
       -1   -1    0    0    0  501  0.00000000000E+00  0.00000000000E+00  0.94725491044E+03  0.94725491045E+03  0.50400001928E-02 0. -1.
        1   -1    0    0  501    0  0.00000000000E+00  0.00000000000E+00 -0.13711786281E+04  0.13711786281E+04  0.50400001928E-02 0.  1.
    10030    2    1    2    0    0  0.00000000000E+00  0.00000000000E+00 -0.42392371763E+03  0.23184335385E+04  0.22793470017E+04 0.  0.
        2    1    3    3  502    0  0.45160206239E+03 -0.30596128621E+03 -0.12297703895E+04  0.13453222448E+04  0.25500000920E-02 0.  1.
       -2    1    3    3    0  502 -0.45160206239E+03  0.30596128621E+03  0.80584667188E+03  0.97311129374E+03  0.25500000920E-02 0. -1.
</event>
<event>
 5   0  0.4295775E-05  0.2280329E+04  0.7818609E-02  0.8485718E-01
        1   -1    0    0  501    0  0.00000000000E+00  0.00000000000E+00  0.12079762291E+04  0.12079762291E+04  0.50400001928E-02 0.  1.
       -1   -1    0    0    0  501  0.00000000000E+00  0.00000000000E+00 -0.10761599529E+04  0.10761599529E+04  0.50400001928E-02 0. -1.
    10030    2    1    2    0    0  0.00000000000E+00  0.00000000000E+00  0.13181627627E+03  0.22841361820E+04  0.22803294866E+04 0.  0.
        5    1    3    3  502    0  0.86627196487E+03 -0.73988567021E+03  0.20053669463E+02  0.11394218542E+04  0.46999998093E+01 0. -1.
       -5    1    3    3    0  502 -0.86627196487E+03  0.73988567021E+03  0.11176260681E+03  0.11447143278E+04  0.46999998093E+01 0.  1.
</event>
<event>
 5   0  0.9312074E-05  0.2451286E+04  0.7818609E-02  0.8420549E-01
        2   -1    0    0  501    0  0.00000000000E+00  0.00000000000E+00  0.21702234529E+04  0.21702234529E+04  0.25500000920E-02 0.  1.
       -2   -1    0    0    0  501  0.00000000000E+00  0.00000000000E+00 -0.69218689646E+03  0.69218689647E+03  0.25500000920E-02 0. -1.
    10030    2    1    2    0    0  0.00000000000E+00  0.00000000000E+00  0.14780365565E+04  0.28624103494E+04  0.24512855701E+04 0.  0.
        4    1    3    3  502    0  0.42159621603E+02  0.19044310285E+03 -0.67394592213E+03  0.70160582094E+03  0.12699999809E+01 0. -1.
       -4    1    3    3    0  502 -0.42159621603E+02 -0.19044310285E+03  0.21519824786E+04  0.21608045285E+04  0.12699999809E+01 0.  1.
</event>
<event>
 5   0  0.4095451E-05  0.2082408E+04  0.7818609E-02  0.8569032E-01
       -1   -1    0    0    0  501  0.00000000000E+00  0.00000000000E+00  0.11762894114E+04  0.11762894115E+04  0.50400001928E-02 0. -1.
        1   -1    0    0  501    0  0.00000000000E+00  0.00000000000E+00 -0.92163210782E+03  0.92163210784E+03  0.50400001928E-02 0.  1.
    10030    2    1    2    0    0  0.00000000000E+00  0.00000000000E+00  0.25465730363E+03  0.20979215193E+04  0.20824083074E+04 0.  0.
        3    1    3    3  502    0 -0.91979438819E+03  0.39943992082E+03  0.40965212649E+03  0.10832307427E+04  0.10100000352E+00 0. -1.
       -3    1    3    3    0  502  0.91979438819E+03 -0.39943992082E+03 -0.15499482286E+03  0.10146907766E+04  0.10100000352E+00 0.  1.
</event>
<event>
 5   0  0.9312074E-05  0.2304782E+04  0.7818609E-02  0.8476038E-01
       -2   -1    0    0    0  501  0.00000000000E+00  0.00000000000E+00  0.46746402337E+03  0.46746402338E+03  0.25500000920E-02 0. -1.
        2   -1    0    0  501    0  0.00000000000E+00  0.00000000000E+00 -0.28408714364E+04  0.28408714364E+04  0.25500000920E-02 0.  1.
    10030    2    1    2    0    0  0.00000000000E+00  0.00000000000E+00 -0.23734074130E+04  0.33083354598E+04  0.23047821516E+04 0.  0.
        4    1    3    3  502    0 -0.71981931473E+02 -0.91972018146E+03 -0.21780152217E+04  0.23653368744E+04  0.12699999809E+01 0.  1.
       -4    1    3    3    0  502  0.71981931473E+02  0.91972018146E+03 -0.19539219131E+03  0.94299858534E+03  0.12699999809E+01 0. -1.
</event>
<event>
 5   0  0.4095451E-05  0.2284138E+04  0.7818609E-02  0.8484201E-01
        1   -1    0    0  501    0  0.00000000000E+00  0.00000000000E+00  0.11186215560E+04  0.11186215560E+04  0.50400001928E-02 0. -1.
       -1   -1    0    0    0  501  0.00000000000E+00  0.00000000000E+00 -0.11660084164E+04  0.11660084164E+04  0.50400001928E-02 0.  1.
    10030    2    1    2    0    0  0.00000000000E+00  0.00000000000E+00 -0.47386860398E+02  0.22846299725E+04  0.22841384802E+04 0.  0.
        3    1    3    3  502    0  0.58198216341E+03 -0.44159563374E+03  0.85434066210E+03  0.11241031623E+04  0.10100000352E+00 0. -1.
       -3    1    3    3    0  502 -0.58198216341E+03  0.44159563374E+03 -0.90172752250E+03  0.11605268102E+04  0.10100000352E+00 0.  1.
</event>
<event>
 5   0  0.4139830E-05  0.2286948E+04  0.7818609E-02  0.8483085E-01
       -1   -1    0    0    0  501  0.00000000000E+00  0.00000000000E+00  0.99478236879E+03  0.99478236880E+03  0.50400001928E-02 0. -1.
        1   -1    0    0  501    0  0.00000000000E+00  0.00000000000E+00 -0.13143904529E+04  0.13143904529E+04  0.50400001928E-02 0.  1.
    10030    2    1    2    0    0  0.00000000000E+00  0.00000000000E+00 -0.31960808413E+03  0.23091728217E+04  0.22869477023E+04 0.  0.
        1    1    3    3  502    0  0.99894663108E+01  0.82344008123E+03  0.64123993542E+03  0.10437154840E+04  0.50400001928E-02 0. -1.
       -1    1    3    3    0  502 -0.99894663108E+01 -0.82344008123E+03 -0.96084801955E+03  0.12654573377E+04  0.50400001928E-02 0.  1.
</event>
<event>
 5   0  0.9312074E-05  0.2365565E+04  0.7818609E-02  0.8452509E-01
        2   -1    0    0  501    0  0.00000000000E+00  0.00000000000E+00  0.18253313677E+04  0.18253313677E+04  0.25500000920E-02 0. -1.
       -2   -1    0    0    0  501  0.00000000000E+00  0.00000000000E+00 -0.76642210782E+03  0.76642210783E+03  0.25500000920E-02 0.  1.
    10030    2    1    2    0    0  0.00000000000E+00  0.00000000000E+00  0.10589092598E+04  0.25917534755E+04  0.23655648918E+04 0.  0.
        4    1    3    3  502    0 -0.75555531024E+03  0.11787136801E+03 -0.45916318095E+03  0.89195847767E+03  0.12699999809E+01 0.  1.
       -4    1    3    3    0  502  0.75555531024E+03 -0.11787136801E+03  0.15180724408E+04  0.16997949978E+04  0.12699999809E+01 0. -1.
</event>
<event>
 5   0  0.9313463E-05  0.2303590E+04  0.7818609E-02  0.8476507E-01
       -2   -1    0    0    0  501  0.00000000000E+00  0.00000000000E+00  0.83758471605E+03  0.83758471605E+03  0.25500000920E-02 0.  1.
        2   -1    0    0  501    0  0.00000000000E+00  0.00000000000E+00 -0.15838782525E+04  0.15838782525E+04  0.25500000920E-02 0. -1.
    10030    2    1    2    0    0  0.00000000000E+00  0.00000000000E+00 -0.74629353644E+03  0.24214629685E+04  0.23035904292E+04 0.  0.
        1    1    3    3  502    0 -0.37006572784E+03  0.47828539527E+03 -0.14035748511E+04  0.15283088447E+04  0.50400001928E-02 0. -1.
       -1    1    3    3    0  502  0.37006572784E+03 -0.47828539527E+03  0.65728131466E+03  0.89315412380E+03  0.50400001928E-02 0.  1.
</event>
<event>
 5   0  0.9312074E-05  0.2147484E+04  0.7818609E-02  0.8540610E-01
        2   -1    0    0  501    0  0.00000000000E+00  0.00000000000E+00  0.10769719208E+04  0.10769719208E+04  0.25500000920E-02 0. -1.
       -2   -1    0    0    0  501  0.00000000000E+00  0.00000000000E+00 -0.10705220107E+04  0.10705220107E+04  0.25500000920E-02 0.  1.
    10030    2    1    2    0    0  0.00000000000E+00  0.00000000000E+00  0.64499101506E+01  0.21474939315E+04  0.21474842455E+04 0.  0.
        4    1    3    3  502    0  0.80444286514E+01  0.25662032235E+03 -0.10393735469E+04  0.10706155638E+04  0.12699999809E+01 0.  1.
       -4    1    3    3    0  502 -0.80444286514E+01 -0.25662032235E+03  0.10458234570E+04  0.10768783677E+04  0.12699999809E+01 0. -1.
</event>
<event>
 5   0  0.9312074E-05  0.2317936E+04  0.7818609E-02  0.8470883E-01
       -2   -1    0    0    0  501  0.00000000000E+00  0.00000000000E+00  0.18460008976E+04  0.18460008976E+04  0.25500000920E-02 0.  1.
        2   -1    0    0  501    0  0.00000000000E+00  0.00000000000E+00 -0.72763071688E+03  0.72763071688E+03  0.25500000920E-02 0. -1.
    10030    2    1    2    0    0  0.00000000000E+00  0.00000000000E+00  0.11183701808E+04  0.25736316145E+04  0.23179361135E+04 0.  0.
        4    1    3    3  502    0 -0.70936229556E+03  0.50912598891E+03 -0.28698695806E+03  0.91911221618E+03  0.12699999809E+01 0. -1.
       -4    1    3    3    0  502  0.70936229556E+03 -0.50912598891E+03  0.14053571388E+04  0.16545193983E+04  0.12699999809E+01 0.  1.
</event>
<event>
 5   0  0.4139830E-05  0.2190598E+04  0.7818609E-02  0.8522352E-01
        1   -1    0    0  501    0  0.00000000000E+00  0.00000000000E+00  0.59022506656E+03  0.59022506658E+03  0.50400001928E-02 0. -1.
       -1   -1    0    0    0  501  0.00000000000E+00  0.00000000000E+00 -0.20325800353E+04  0.20325800353E+04  0.50400001928E-02 0.  1.
    10030    2    1    2    0    0  0.00000000000E+00  0.00000000000E+00 -0.14423549687E+04  0.26228051019E+04  0.21905978058E+04 0.  0.
        1    1    3    3  502    0  0.60109897241E+02 -0.10690608921E+04 -0.99727234916E+03  0.14632349535E+04  0.50400001928E-02 0. -1.
       -1    1    3    3    0  502 -0.60109897241E+02  0.10690608921E+04 -0.44508261957E+03  0.11595701484E+04  0.50400001928E-02 0.  1.
</event>
<event>
 5   0  0.4095451E-05  0.2356558E+04  0.7818609E-02  0.8455949E-01
       -1   -1    0    0    0  501  0.00000000000E+00  0.00000000000E+00  0.72662606428E+03  0.72662606430E+03  0.50400001928E-02 0.  1.
        1   -1    0    0  501    0  0.00000000000E+00  0.00000000000E+00 -0.19106684263E+04  0.19106684263E+04  0.50400001928E-02 0. -1.
    10030    2    1    2    0    0  0.00000000000E+00  0.00000000000E+00 -0.11840423620E+04  0.26372944906E+04  0.23565580653E+04 0.  0.
        3    1    3    3  502    0  0.39125252239E+03 -0.26951931870E+03 -0.17987225376E+04  0.18604090886E+04  0.10100000352E+00 0. -1.
       -3    1    3    3    0  502 -0.39125252239E+03  0.26951931870E+03  0.61468017557E+03  0.77688540202E+03  0.10100000352E+00 0.  1.
</event>
<event>
 5   0  0.9535394E-05  0.2299943E+04  0.7818609E-02  0.8477943E-01
       -2   -1    0    0    0  501  0.00000000000E+00  0.00000000000E+00  0.96186419502E+03  0.96186419503E+03  0.25500000920E-02 0. -1.
        2   -1    0    0  501    0  0.00000000000E+00  0.00000000000E+00 -0.13748664778E+04  0.13748664778E+04  0.25500000920E-02 0.  1.
    10030    2    1    2    0    0  0.00000000000E+00  0.00000000000E+00 -0.41300228282E+03  0.23367306729E+04  0.22999433367E+04 0.  0.
        2    1    3    3  502    0 -0.52344125941E+03  0.45853662115E+03  0.72366881437E+03  0.10039637134E+04  0.25500000920E-02 0. -1.
       -2    1    3    3    0  502  0.52344125941E+03 -0.45853662115E+03 -0.11366710972E+04  0.13327669594E+04  0.25500000920E-02 0.  1.
</event>
<event>
 5   0  0.3885219E-05  0.2292144E+04  0.7818609E-02  0.8481025E-01
       -1   -1    0    0    0  501  0.00000000000E+00  0.00000000000E+00  0.64604676860E+03  0.64604676861E+03  0.50400001928E-02 0. -1.
        1   -1    0    0  501    0  0.00000000000E+00  0.00000000000E+00 -0.20331057946E+04  0.20331057946E+04  0.50400001928E-02 0.  1.
    10030    2    1    2    0    0  0.00000000000E+00  0.00000000000E+00 -0.13870590260E+04  0.26791525632E+04  0.22921443487E+04 0.  0.
        2    1    3    3  502    0  0.52313992946E+03  0.33151476666E+03  0.43360186323E+03  0.75603439215E+03  0.25500000920E-02 0. -1.
       -2    1    3    3    0  502 -0.52313992946E+03 -0.33151476666E+03 -0.18206608892E+04  0.19231181711E+04  0.25500000920E-02 0.  1.
</event>
<event>
 5   0  0.4005462E-05  0.2288737E+04  0.7818609E-02  0.8482375E-01
        1   -1    0    0  501    0  0.00000000000E+00  0.00000000000E+00  0.13462353870E+04  0.13462353870E+04  0.50400001928E-02 0. -1.
       -1   -1    0    0    0  501  0.00000000000E+00  0.00000000000E+00 -0.97277165808E+03  0.97277165809E+03  0.50400001928E-02 0.  1.
    10030    2    1    2    0    0  0.00000000000E+00  0.00000000000E+00  0.37346372887E+03  0.23190070451E+04  0.22887373196E+04 0.  0.
        4    1    3    3  502    0 -0.33486371136E+03 -0.16061647903E+03 -0.91001006157E+03  0.98287907881E+03  0.12699999809E+01 0.  1.
       -4    1    3    3    0  502  0.33486371136E+03  0.16061647903E+03  0.12834737904E+04  0.13361279662E+04  0.12699999809E+01 0. -1.
</event>
<event>
 5   0  0.4005462E-05  0.2289621E+04  0.7818609E-02  0.8482025E-01
        1   -1    0    0  501    0  0.00000000000E+00  0.00000000000E+00  0.11465439813E+04  0.11465439813E+04  0.50400001928E-02 0. -1.
       -1   -1    0    0    0  501  0.00000000000E+00  0.00000000000E+00 -0.11430796970E+04  0.11430796970E+04  0.50400001928E-02 0.  1.
    10030    2    1    2    0    0  0.00000000000E+00  0.00000000000E+00  0.34642842569E+01  0.22896236783E+04  0.22896210576E+04 0.  0.
        4    1    3    3  502    0 -0.89117472462E+03 -0.58974320612E+03 -0.40887774683E+03  0.11441905714E+04  0.12699999809E+01 0. -1.
       -4    1    3    3    0  502  0.89117472462E+03  0.58974320612E+03  0.41234203109E+03  0.11454331069E+04  0.12699999809E+01 0.  1.
</event>
<event>
 5   0  0.9535394E-05  0.2419629E+04  0.7818609E-02  0.8432191E-01
        2   -1    0    0  501    0  0.00000000000E+00  0.00000000000E+00  0.17230785208E+04  0.17230785208E+04  0.25500000920E-02 0.  1.
       -2   -1    0    0    0  501  0.00000000000E+00  0.00000000000E+00 -0.84943975081E+03  0.84943975081E+03  0.25500000920E-02 0. -1.
    10030    2    1    2    0    0  0.00000000000E+00  0.00000000000E+00  0.87363877002E+03  0.25725182716E+04  0.24196292190E+04 0.  0.
        2    1    3    3  502    0 -0.54353914216E+02  0.76722398051E+03 -0.55603127287E+03  0.94908258896E+03  0.25500000920E-02 0. -1.
       -2    1    3    3    0  502  0.54353914216E+02 -0.76722398051E+03  0.14296700429E+04  0.16234356827E+04  0.25500000920E-02 0.  1.
</event>
<event>
 5   0  0.4139830E-05  0.2288860E+04  0.7818609E-02  0.8482326E-01
       -1   -1    0    0    0  501  0.00000000000E+00  0.00000000000E+00  0.94480395469E+03  0.94480395471E+03  0.50400001928E-02 0.  1.
        1   -1    0    0  501    0  0.00000000000E+00  0.00000000000E+00 -0.13862351301E+04  0.13862351302E+04  0.50400001928E-02 0. -1.
    10030    2    1    2    0    0  0.00000000000E+00  0.00000000000E+00 -0.44143117546E+03  0.23310390849E+04  0.22888603567E+04 0.  0.
        1    1    3    3  502    0  0.44311456388E+03 -0.35267430328E+02 -0.12947230025E+04  0.13689053881E+04  0.50400001928E-02 0. -1.
       -1    1    3    3    0  502 -0.44311456388E+03  0.35267430328E+02  0.85329182703E+03  0.96213369677E+03  0.50400001928E-02 0.  1.
</event>
<event>
 5   0  0.9535394E-05  0.2320030E+04  0.7818609E-02  0.8470065E-01
        2   -1    0    0  501    0  0.00000000000E+00  0.00000000000E+00  0.22186787057E+04  0.22186787057E+04  0.25500000920E-02 0.  1.
       -2   -1    0    0    0  501  0.00000000000E+00  0.00000000000E+00 -0.60650259025E+03  0.60650259026E+03  0.25500000920E-02 0. -1.
    10030    2    1    2    0    0  0.00000000000E+00  0.00000000000E+00  0.16121761154E+04  0.28251812959E+04  0.23200296394E+04 0.  0.
        2    1    3    3  502    0  0.48563575016E+03 -0.55272367742E+03 -0.28600289559E+03  0.78939419918E+03  0.25500000920E-02 0. -1.
       -2    1    3    3    0  502 -0.48563575016E+03  0.55272367742E+03  0.18981790110E+04  0.20357870967E+04  0.25500000920E-02 0.  1.
</event>
<event>
 5   0  0.9535394E-05  0.2248400E+04  0.7818609E-02  0.8498549E-01
       -2   -1    0    0    0  501  0.00000000000E+00  0.00000000000E+00  0.45139376085E+03  0.45139376086E+03  0.25500000920E-02 0. -1.
        2   -1    0    0  501    0  0.00000000000E+00  0.00000000000E+00 -0.27998287720E+04  0.27998287720E+04  0.25500000920E-02 0.  1.
    10030    2    1    2    0    0  0.00000000000E+00  0.00000000000E+00 -0.23484350111E+04  0.32512225328E+04  0.22483996434E+04 0.  0.
        2    1    3    3  502    0 -0.17998053082E+03 -0.57409519691E+03  0.19900088021E+03  0.63370311418E+03  0.25500000920E-02 0. -1.
       -2    1    3    3    0  502  0.17998053082E+03  0.57409519691E+03 -0.25474358913E+04  0.26175194186E+04  0.25500000920E-02 0.  1.
</event>
<event>
 5   0  0.9535394E-05  0.2149424E+04  0.7818609E-02  0.8539779E-01
        2   -1    0    0  501    0  0.00000000000E+00  0.00000000000E+00  0.24555025152E+04  0.24555025152E+04  0.25500000920E-02 0.  1.
       -2   -1    0    0    0  501  0.00000000000E+00  0.00000000000E+00 -0.47037456555E+03  0.47037456556E+03  0.25500000920E-02 0. -1.
    10030    2    1    2    0    0  0.00000000000E+00  0.00000000000E+00  0.19851279497E+04  0.29258770808E+04  0.21494240427E+04 0.  0.
        2    1    3    3  502    0 -0.71505615666E+03  0.31558415811E+03 -0.11534333140E+02  0.78168517247E+03  0.25500000920E-02 0. -1.
       -2    1    3    3    0  502  0.71505615666E+03 -0.31558415811E+03  0.19966622828E+04  0.21441919083E+04  0.25500000920E-02 0.  1.
</event>
<event>
 5   0  0.9313463E-05  0.2303285E+04  0.7818609E-02  0.8476627E-01
       -2   -1    0    0    0  501  0.00000000000E+00  0.00000000000E+00  0.91307092663E+03  0.91307092663E+03  0.25500000920E-02 0. -1.
        2   -1    0    0  501    0  0.00000000000E+00  0.00000000000E+00 -0.14525486423E+04  0.14525486423E+04  0.25500000920E-02 0.  1.
    10030    2    1    2    0    0  0.00000000000E+00  0.00000000000E+00 -0.53947771563E+03  0.23656195689E+04  0.23032845545E+04 0.  0.
        1    1    3    3  502    0  0.11462507662E+04  0.74737900675E+02 -0.18502409548E+03  0.11634906483E+04  0.50400001928E-02 0. -1.
       -1    1    3    3    0  502 -0.11462507662E+04 -0.74737900675E+02 -0.35445362015E+03  0.12021289206E+04  0.50400001928E-02 0.  1.
</event>
<event>
 5   0  0.3885219E-05  0.2228338E+04  0.7818609E-02  0.8506725E-01
        1   -1    0    0  501    0  0.00000000000E+00  0.00000000000E+00  0.13164337962E+04  0.13164337962E+04  0.50400001928E-02 0. -1.
       -1   -1    0    0    0  501  0.00000000000E+00  0.00000000000E+00 -0.94298133523E+03  0.94298133524E+03  0.50400001928E-02 0.  1.
    10030    2    1    2    0    0  0.00000000000E+00  0.00000000000E+00  0.37345246093E+03  0.22594151314E+04  0.22283379446E+04 0.  0.
        2    1    3    3  502    0 -0.36675091470E+03 -0.15830069550E+03  0.12413314152E+04  0.13040203319E+04  0.25500000920E-02 0. -1.
       -2    1    3    3    0  502  0.36675091470E+03  0.15830069550E+03 -0.86787895428E+03  0.95539479951E+03  0.25500000920E-02 0.  1.
</event>
<event>
 5   0  0.9312074E-05  0.2304962E+04  0.7818609E-02  0.8475967E-01
       -2   -1    0    0    0  501  0.00000000000E+00  0.00000000000E+00  0.11757769597E+04  0.11757769597E+04  0.25500000920E-02 0.  1.
        2   -1    0    0  501    0  0.00000000000E+00  0.00000000000E+00 -0.11296465855E+04  0.11296465855E+04  0.25500000920E-02 0. -1.
    10030    2    1    2    0    0  0.00000000000E+00  0.00000000000E+00  0.46130374216E+02  0.23054235451E+04  0.23049619760E+04 0.  0.
        4    1    3    3  502    0 -0.95834119423E+03  0.44978194309E+03 -0.43253582450E+03  0.11435954238E+04  0.12699999809E+01 0. -1.
       -4    1    3    3    0  502  0.95834119423E+03 -0.44978194309E+03  0.47866619871E+03  0.11618281214E+04  0.12699999809E+01 0.  1.
</event>
<event>
 5   0  0.9483073E-05  0.2286208E+04  0.7818609E-02  0.8483379E-01
       -2   -1    0    0    0  501  0.00000000000E+00  0.00000000000E+00  0.60297744497E+03  0.60297744497E+03  0.25500000920E-02 0. -1.
        2   -1    0    0  501    0  0.00000000000E+00  0.00000000000E+00 -0.21670567427E+04  0.21670567427E+04  0.25500000920E-02 0.  1.
    10030    2    1    2    0    0  0.00000000000E+00  0.00000000000E+00 -0.15640792977E+04  0.27700341877E+04  0.22862076352E+04 0.  0.
        5    1    3    3  502    0  0.28776556713E+02 -0.60363973638E+03  0.39358665255E+03  0.72120840581E+03  0.46999998093E+01 0. -1.
       -5    1    3    3    0  502 -0.28776556713E+02  0.60363973638E+03 -0.19576659503E+04  0.20488257819E+04  0.46999998093E+01 0.  1.
</event>
<event>
 5   0  0.4095451E-05  0.2249705E+04  0.7818609E-02  0.8498020E-01
       -1   -1    0    0    0  501  0.00000000000E+00  0.00000000000E+00  0.23579055178E+04  0.23579055178E+04  0.50400001928E-02 0.  1.
        1   -1    0    0  501    0  0.00000000000E+00  0.00000000000E+00 -0.53661758965E+03  0.53661758967E+03  0.50400001928E-02 0. -1.
    10030    2    1    2    0    0  0.00000000000E+00  0.00000000000E+00  0.18212879281E+04  0.28945231074E+04  0.22497053812E+04 0.  0.
        3    1    3    3  502    0 -0.14819017540E+03 -0.20052430018E+03  0.23219020140E+04  0.23352514416E+04  0.10100000352E+00 0.  1.
       -3    1    3    3    0  502  0.14819017540E+03  0.20052430018E+03 -0.50061408583E+03  0.55927166581E+03  0.10100000352E+00 0. -1.
</event>
<event>
 5   0  0.9483073E-05  0.2255394E+04  0.7818609E-02  0.8495719E-01
       -2   -1    0    0    0  501  0.00000000000E+00  0.00000000000E+00  0.78748184901E+03  0.78748184901E+03  0.25500000920E-02 0. -1.
        2   -1    0    0  501    0  0.00000000000E+00  0.00000000000E+00 -0.16148952285E+04  0.16148952285E+04  0.25500000920E-02 0.  1.
    10030    2    1    2    0    0  0.00000000000E+00  0.00000000000E+00 -0.82741337946E+03  0.24023770775E+04  0.22553941389E+04 0.  0.
        5    1    3    3  502    0 -0.43829498395E+03 -0.23285787231E+03 -0.14922944719E+04  0.15726697563E+04  0.46999998093E+01 0.  1.
       -5    1    3    3    0  502  0.43829498395E+03  0.23285787231E+03  0.66488109245E+03  0.82970732114E+03  0.46999998093E+01 0. -1.
</event>
<event>
 5   0  0.4295775E-05  0.2497016E+04  0.7818609E-02  0.8404049E-01
       -1   -1    0    0    0  501  0.00000000000E+00  0.00000000000E+00  0.52273876032E+03  0.52273876034E+03  0.50400001928E-02 0.  1.
        1   -1    0    0  501    0  0.00000000000E+00  0.00000000000E+00 -0.29819346742E+04  0.29819346742E+04  0.50400001928E-02 0. -1.
    10030    2    1    2    0    0  0.00000000000E+00  0.00000000000E+00 -0.24591959138E+04  0.35046734345E+04  0.24970164877E+04 0.  0.
        5    1    3    3  502    0 -0.86625719072E+03 -0.32640706551E+03 -0.24054026688E+04  0.25773876662E+04  0.46999998093E+01 0. -1.
       -5    1    3    3    0  502  0.86625719072E+03  0.32640706551E+03 -0.53793245061E+02  0.92728576831E+03  0.46999998093E+01 0.  1.
</event>
<event>
 5   0  0.9483073E-05  0.2335873E+04  0.7818609E-02  0.8463910E-01
        2   -1    0    0  501    0  0.00000000000E+00  0.00000000000E+00  0.11824925050E+04  0.11824925050E+04  0.25500000920E-02 0. -1.
       -2   -1    0    0    0  501  0.00000000000E+00  0.00000000000E+00 -0.11535592024E+04  0.11535592024E+04  0.25500000920E-02 0.  1.
    10030    2    1    2    0    0  0.00000000000E+00  0.00000000000E+00  0.28933302582E+02  0.23360517074E+04  0.23358725230E+04 0.  0.
        5    1    3    3  502    0  0.90962064064E+02  0.87075608120E+03  0.78754779341E+03  0.11776008946E+04  0.46999998093E+01 0. -1.
       -5    1    3    3    0  502 -0.90962064064E+02 -0.87075608120E+03 -0.75861449083E+03  0.11584508128E+04  0.46999998093E+01 0.  1.
</event>
<event>
 5   0  0.9535394E-05  0.2360104E+04  0.7818609E-02  0.8454593E-01
        2   -1    0    0  501    0  0.00000000000E+00  0.00000000000E+00  0.13570355376E+04  0.13570355376E+04  0.25500000920E-02 0.  1.
       -2   -1    0    0    0  501  0.00000000000E+00  0.00000000000E+00 -0.10261502709E+04  0.10261502709E+04  0.25500000920E-02 0. -1.
    10030    2    1    2    0    0  0.00000000000E+00  0.00000000000E+00  0.33088526672E+03  0.23831858084E+04  0.23601037133E+04 0.  0.
        2    1    3    3  502    0  0.41461555071E+03 -0.42338761908E+02  0.12802434330E+04  0.13463736010E+04  0.25500000920E-02 0.  1.
       -2    1    3    3    0  502 -0.41461555071E+03  0.42338761908E+02 -0.94935816628E+03  0.10368122075E+04  0.25500000920E-02 0. -1.
</event>
<event>
 5   0  0.4139830E-05  0.2307311E+04  0.7818609E-02  0.8475044E-01
       -1   -1    0    0    0  501  0.00000000000E+00  0.00000000000E+00  0.58327243613E+03  0.58327243615E+03  0.50400001928E-02 0. -1.
        1   -1    0    0  501    0  0.00000000000E+00  0.00000000000E+00 -0.22818164199E+04  0.22818164199E+04  0.50400001928E-02 0.  1.
    10030    2    1    2    0    0  0.00000000000E+00  0.00000000000E+00 -0.16985439838E+04  0.28650888561E+04  0.23073106614E+04 0.  0.
        1    1    3    3  502    0  0.97169600615E+03  0.62142667925E+03 -0.81998220430E+03  0.14151802223E+04  0.50400001928E-02 0.  1.
       -1    1    3    3    0  502 -0.97169600615E+03 -0.62142667925E+03 -0.87856177950E+03  0.14499086338E+04  0.50400001928E-02 0. -1.
</event>
<event>
 5   0  0.4095451E-05  0.2295180E+04  0.7818609E-02  0.8479824E-01
       -1   -1    0    0    0  501  0.00000000000E+00  0.00000000000E+00  0.81036832933E+03  0.81036832934E+03  0.50400001928E-02 0.  1.
        1   -1    0    0  501    0  0.00000000000E+00  0.00000000000E+00 -0.16251411489E+04  0.16251411489E+04  0.50400001928E-02 0. -1.
    10030    2    1    2    0    0  0.00000000000E+00  0.00000000000E+00 -0.81477281956E+03  0.24355094782E+04  0.22951800956E+04 0.  0.
        3    1    3    3  502    0  0.25828167216E+03 -0.49621451516E+02  0.77795652056E+03  0.82121134229E+03  0.10100000352E+00 0.  1.
       -3    1    3    3    0  502 -0.25828167216E+03  0.49621451516E+02 -0.15927293401E+04  0.16142981359E+04  0.10100000352E+00 0. -1.
</event>
<event>
 5   0  0.9312074E-05  0.1467476E+04  0.7818609E-02  0.8906374E-01
        2   -1    0    0  501    0  0.00000000000E+00  0.00000000000E+00  0.11156083261E+04  0.11156083261E+04  0.25500000920E-02 0.  1.
       -2   -1    0    0    0  501  0.00000000000E+00  0.00000000000E+00 -0.48258097679E+03  0.48258097680E+03  0.25500000920E-02 0. -1.
    10030    2    1    2    0    0  0.00000000000E+00  0.00000000000E+00  0.63302734928E+03  0.15981893029E+04  0.14674758679E+04 0.  0.
        4    1    3    3  502    0  0.15563547669E+03 -0.66630383810E+03  0.27988204505E+02  0.68481249899E+03  0.12699999809E+01 0.  1.
       -4    1    3    3    0  502 -0.15563547669E+03  0.66630383810E+03  0.60503914478E+03  0.91337680389E+03  0.12699999809E+01 0. -1.
</event>
<event>
 5   0  0.9312074E-05  0.2329377E+04  0.7818609E-02  0.8466427E-01
       -2   -1    0    0    0  501  0.00000000000E+00  0.00000000000E+00  0.76955702455E+03  0.76955702456E+03  0.25500000920E-02 0. -1.
        2   -1    0    0  501    0  0.00000000000E+00  0.00000000000E+00 -0.17627018352E+04  0.17627018352E+04  0.25500000920E-02 0.  1.
    10030    2    1    2    0    0  0.00000000000E+00  0.00000000000E+00 -0.99314481060E+03  0.25322588597E+04  0.23293772382E+04 0.  0.
        4    1    3    3  502    0  0.11603243455E+04 -0.10036056982E+03 -0.50586920733E+03  0.12697756095E+04  0.12699999809E+01 0. -1.
       -4    1    3    3    0  502 -0.11603243455E+04  0.10036056982E+03 -0.48727560327E+03  0.12624832502E+04  0.12699999809E+01 0.  1.
</event>
<event>
 5   0  0.9313463E-05  0.2271209E+04  0.7818609E-02  0.8489360E-01
        2   -1    0    0  501    0  0.00000000000E+00  0.00000000000E+00  0.59402798528E+03  0.59402798529E+03  0.25500000920E-02 0.  1.
       -2   -1    0    0    0  501  0.00000000000E+00  0.00000000000E+00 -0.21709371964E+04  0.21709371964E+04  0.25500000920E-02 0. -1.
    10030    2    1    2    0    0  0.00000000000E+00  0.00000000000E+00 -0.15769092111E+04  0.27649651817E+04  0.22712088842E+04 0.  0.
        1    1    3    3  502    0  0.69445716071E+03 -0.83903764415E+03 -0.39709847750E+03  0.11592851751E+04  0.50400001928E-02 0. -1.
       -1    1    3    3    0  502 -0.69445716071E+03  0.83903764415E+03 -0.11798107336E+04  0.16056800066E+04  0.50400001928E-02 0.  1.
</event>
<event>
 5   0  0.3261500E-05  0.2277619E+04  0.7818609E-02  0.8486798E-01
       -4   -1    0    0    0  501  0.00000000000E+00  0.00000000000E+00  0.10924505603E+04  0.10924512985E+04  0.12699999809E+01 0.  1.
        4   -1    0    0  501    0  0.00000000000E+00  0.00000000000E+00 -0.11871344623E+04  0.11871351417E+04  0.12699999809E+01 0. -1.
    10030    2    1    2    0    0  0.00000000000E+00  0.00000000000E+00 -0.94683902011E+02  0.22795864402E+04  0.22776192169E+04 0.  0.
        4    1    3    3  502    0 -0.10424177406E+04  0.19641510981E+03  0.36734920030E+03  0.11225687904E+04  0.12699999809E+01 0.  1.
       -4    1    3    3    0  502  0.10424177406E+04 -0.19641510981E+03 -0.46203310231E+03  0.11570176498E+04  0.12699999809E+01 0. -1.
</event>
<event>
 5   0  0.4095451E-05  0.2282319E+04  0.7818609E-02  0.8484925E-01
       -1   -1    0    0    0  501  0.00000000000E+00  0.00000000000E+00  0.94987308339E+03  0.94987308340E+03  0.50400001928E-02 0. -1.
        1   -1    0    0  501    0  0.00000000000E+00  0.00000000000E+00 -0.13709674853E+04  0.13709674853E+04  0.50400001928E-02 0.  1.
    10030    2    1    2    0    0  0.00000000000E+00  0.00000000000E+00 -0.42109440189E+03  0.23208405687E+04  0.22823190947E+04 0.  0.
        3    1    3    3  502    0 -0.28255058497E+03 -0.10882895259E+04 -0.12226808255E+02  0.11244369392E+04  0.10100000352E+00 0.  1.
       -3    1    3    3    0  502  0.28255058497E+03  0.10882895259E+04 -0.40886759364E+03  0.11964036295E+04  0.10100000352E+00 0. -1.
</event>
<event>
 5   0  0.4139830E-05  0.2268551E+04  0.7818609E-02  0.8490425E-01
        1   -1    0    0  501    0  0.00000000000E+00  0.00000000000E+00  0.78538809882E+03  0.78538809884E+03  0.50400001928E-02 0. -1.
       -1   -1    0    0    0  501  0.00000000000E+00  0.00000000000E+00 -0.16381471802E+04  0.16381471802E+04  0.50400001928E-02 0.  1.
    10030    2    1    2    0    0  0.00000000000E+00  0.00000000000E+00 -0.85275908135E+03  0.24235352790E+04  0.22685513434E+04 0.  0.
        1    1    3    3  502    0 -0.10522102871E+04 -0.94938923677E+02  0.14645057084E+02  0.10565861845E+04  0.50400001928E-02 0.  1.
       -1    1    3    3    0  502  0.10522102871E+04  0.94938923677E+02 -0.86740413843E+03  0.13669490945E+04  0.50400001928E-02 0. -1.
</event>
<event>
 5   0  0.9535394E-05  0.2299596E+04  0.7818609E-02  0.8478080E-01
       -2   -1    0    0    0  501  0.00000000000E+00  0.00000000000E+00  0.72200204591E+03  0.72200204591E+03  0.25500000920E-02 0.  1.
        2   -1    0    0  501    0  0.00000000000E+00  0.00000000000E+00 -0.18310695523E+04  0.18310695523E+04  0.25500000920E-02 0. -1.
    10030    2    1    2    0    0  0.00000000000E+00  0.00000000000E+00 -0.11090675064E+04  0.25530715983E+04  0.22995964542E+04 0.  0.
        2    1    3    3  502    0  0.75525428303E+02 -0.70395454864E+03 -0.15603640462E+04  0.17134736804E+04  0.25500000920E-02 0. -1.
       -2    1    3    3    0  502 -0.75525428303E+02  0.70395454864E+03  0.45129653973E+03  0.83959791785E+03  0.25500000920E-02 0.  1.
</event>
<event>
 5   0  0.4295775E-05  0.2318235E+04  0.7818609E-02  0.8470766E-01
       -1   -1    0    0    0  501  0.00000000000E+00  0.00000000000E+00  0.96803247999E+03  0.96803248000E+03  0.50400001928E-02 0.  1.
        1   -1    0    0  501    0  0.00000000000E+00  0.00000000000E+00 -0.13879221429E+04  0.13879221429E+04  0.50400001928E-02 0. -1.
    10030    2    1    2    0    0  0.00000000000E+00  0.00000000000E+00 -0.41988966286E+03  0.23559546229E+04  0.23182352892E+04 0.  0.
        5    1    3    3  502    0  0.93388944625E+03  0.63313897127E+03  0.59926557354E+02  0.11298795232E+04  0.46999998093E+01 0.  1.
       -5    1    3    3    0  502 -0.93388944625E+03 -0.63313897127E+03 -0.47981622022E+03  0.12260750996E+04  0.46999998093E+01 0. -1.
</event>
<event>
 5   0  0.4095451E-05  0.1868393E+04  0.7818609E-02  0.8670751E-01
       -1   -1    0    0    0  501  0.00000000000E+00  0.00000000000E+00  0.53554612090E+03  0.53554612092E+03  0.50400001928E-02 0. -1.
        1   -1    0    0  501    0  0.00000000000E+00  0.00000000000E+00 -0.16295953759E+04  0.16295953759E+04  0.50400001928E-02 0.  1.
    10030    2    1    2    0    0  0.00000000000E+00  0.00000000000E+00 -0.10940492550E+04  0.21651414968E+04  0.18683934085E+04 0.  0.
        3    1    3    3  502    0 -0.16167851848E+03 -0.98849669285E+02  0.51303910744E+03  0.54691894868E+03  0.10100000352E+00 0. -1.
       -3    1    3    3    0  502  0.16167851848E+03  0.98849669285E+02 -0.16070883624E+04  0.16182225482E+04  0.10100000352E+00 0.  1.
</event>
<event>
 5   0  0.3885219E-05  0.2421931E+04  0.7818609E-02  0.8431338E-01
        1   -1    0    0  501    0  0.00000000000E+00  0.00000000000E+00  0.14424852391E+04  0.14424852391E+04  0.50400001928E-02 0.  1.
       -1   -1    0    0    0  501  0.00000000000E+00  0.00000000000E+00 -0.10166048321E+04  0.10166048321E+04  0.50400001928E-02 0. -1.
    10030    2    1    2    0    0  0.00000000000E+00  0.00000000000E+00  0.42588040697E+03  0.24590900712E+04  0.24219310182E+04 0.  0.
        2    1    3    3  502    0  0.56951922072E+03  0.10333197147E+03 -0.86705606765E+03  0.10425046108E+04  0.25500000920E-02 0. -1.
       -2    1    3    3    0  502 -0.56951922072E+03 -0.10333197147E+03  0.12929364746E+04  0.14165854604E+04  0.25500000920E-02 0.  1.
</event>
<event>
 5   0  0.9535394E-05  0.2326737E+04  0.7818609E-02  0.8467453E-01
        2   -1    0    0  501    0  0.00000000000E+00  0.00000000000E+00  0.14677983623E+04  0.14677983623E+04  0.25500000920E-02 0.  1.
       -2   -1    0    0    0  501  0.00000000000E+00  0.00000000000E+00 -0.92207884958E+03  0.92207884959E+03  0.25500000920E-02 0. -1.
    10030    2    1    2    0    0  0.00000000000E+00  0.00000000000E+00  0.54571951275E+03  0.23898772119E+04  0.23267366206E+04 0.  0.
        2    1    3    3  502    0  0.34857570170E+03 -0.81307816250E+03  0.10488919605E+04  0.13721426540E+04  0.25500000920E-02 0.  1.
       -2    1    3    3    0  502 -0.34857570170E+03  0.81307816250E+03 -0.50317244776E+03  0.10177345579E+04  0.25500000920E-02 0. -1.
</event>
<event>
 5   0  0.9641157E-05  0.2282417E+04  0.7818609E-02  0.8484886E-01
       -2   -1    0    0    0  501  0.00000000000E+00  0.00000000000E+00  0.64482196845E+03  0.64482196845E+03  0.25500000920E-02 0.  1.
        2   -1    0    0  501    0  0.00000000000E+00  0.00000000000E+00 -0.20197150330E+04  0.20197150330E+04  0.25500000920E-02 0. -1.
    10030    2    1    2    0    0  0.00000000000E+00  0.00000000000E+00 -0.13748930646E+04  0.26645370015E+04  0.22824168097E+04 0.  0.
        3    1    3    3  502    0  0.50651522747E+03  0.16666911473E+03 -0.18653373242E+04  0.19400566004E+04  0.10100000352E+00 0. -1.
       -3    1    3    3    0  502 -0.50651522747E+03 -0.16666911473E+03  0.49044425967E+03  0.72448040105E+03  0.10100000352E+00 0.  1.
</event>
<event>
 5   0  0.4295775E-05  0.2232595E+04  0.7818609E-02  0.8504983E-01
        1   -1    0    0  501    0  0.00000000000E+00  0.00000000000E+00  0.12825470612E+04  0.12825470612E+04  0.50400001928E-02 0.  1.
       -1   -1    0    0    0  501  0.00000000000E+00  0.00000000000E+00 -0.97159800013E+03  0.97159800015E+03  0.50400001928E-02 0. -1.
    10030    2    1    2    0    0  0.00000000000E+00  0.00000000000E+00  0.31094906103E+03  0.22541450613E+04  0.22325950459E+04 0.  0.
        5    1    3    3  502    0 -0.41015909446E+03 -0.10048848148E+04 -0.10795402194E+03  0.10907337597E+04  0.46999998093E+01 0. -1.
       -5    1    3    3    0  502  0.41015909446E+03  0.10048848148E+04  0.41890308297E+03  0.11634113016E+04  0.46999998093E+01 0.  1.
</event>
<event>
 5   0  0.4139830E-05  0.2218424E+04  0.7818609E-02  0.8510798E-01
       -1   -1    0    0    0  501  0.00000000000E+00  0.00000000000E+00  0.85572778533E+03  0.85572778534E+03  0.50400001928E-02 0.  1.
        1   -1    0    0  501    0  0.00000000000E+00  0.00000000000E+00 -0.14377838471E+04  0.14377838471E+04  0.50400001928E-02 0. -1.
    10030    2    1    2    0    0  0.00000000000E+00  0.00000000000E+00 -0.58205606179E+03  0.22935116325E+04  0.22184242942E+04 0.  0.
        1    1    3    3  502    0  0.69352772286E+03 -0.71847818037E+03 -0.79023811305E+03  0.12734472401E+04  0.50400001928E-02 0. -1.
       -1    1    3    3    0  502 -0.69352772286E+03  0.71847818037E+03  0.20818205126E+03  0.10200643923E+04  0.50400001928E-02 0.  1.
</event>
<event>
 5   0  0.4095451E-05  0.2268546E+04  0.7818609E-02  0.8490427E-01
        1   -1    0    0  501    0  0.00000000000E+00  0.00000000000E+00  0.10648445718E+04  0.10648445719E+04  0.50400001928E-02 0. -1.
       -1   -1    0    0    0  501  0.00000000000E+00  0.00000000000E+00 -0.12082284764E+04  0.12082284764E+04  0.50400001928E-02 0.  1.
    10030    2    1    2    0    0  0.00000000000E+00  0.00000000000E+00 -0.14338390451E+03  0.22730730482E+04  0.22685462610E+04 0.  0.
        3    1    3    3  502    0  0.57704368171E+03  0.20787014891E+03 -0.10277374602E+04  0.11968432256E+04  0.10100000352E+00 0.  1.
       -3    1    3    3    0  502 -0.57704368171E+03 -0.20787014891E+03  0.88435355569E+03  0.10762298226E+04  0.10100000352E+00 0. -1.
</event>
<event>
 5   0  0.9483073E-05  0.2340592E+04  0.7818609E-02  0.8462086E-01
        2   -1    0    0  501    0  0.00000000000E+00  0.00000000000E+00  0.11192757233E+04  0.11192757233E+04  0.25500000920E-02 0. -1.
       -2   -1    0    0    0  501  0.00000000000E+00  0.00000000000E+00 -0.12236419366E+04  0.12236419366E+04  0.25500000920E-02 0.  1.
    10030    2    1    2    0    0  0.00000000000E+00  0.00000000000E+00 -0.10436621328E+03  0.23429176599E+04  0.23405919881E+04 0.  0.
        5    1    3    3  502    0  0.31960481738E+03  0.27061176144E+03 -0.11460601557E+04  0.12201860249E+04  0.46999998093E+01 0.  1.
       -5    1    3    3    0  502 -0.31960481738E+03 -0.27061176144E+03  0.10416939424E+04  0.11227316351E+04  0.46999998093E+01 0. -1.
</event>
<event>
 5   0  0.3261500E-05  0.2298823E+04  0.7818609E-02  0.8478385E-01
       -3   -1    0    0    0  501  0.00000000000E+00  0.00000000000E+00  0.11674023365E+04  0.11674023409E+04  0.10100000352E+00 0.  1.
        3   -1    0    0  501    0  0.00000000000E+00  0.00000000000E+00 -0.11316977951E+04  0.11316977997E+04  0.10100000352E+00 0. -1.
    10030    2    1    2    0    0  0.00000000000E+00  0.00000000000E+00  0.35704541344E+02  0.22991001405E+04  0.22988228818E+04 0.  0.
        1    1    3    3  502    0  0.10331061576E+04 -0.39696063657E+03 -0.29244404211E+03  0.11447312338E+04  0.50400001928E-02 0. -1.
       -1    1    3    3    0  502 -0.10331061576E+04  0.39696063657E+03  0.32814858345E+03  0.11543689067E+04  0.50400001928E-02 0.  1.
</event>
<event>
 5   0  0.9535394E-05  0.2379356E+04  0.7818609E-02  0.8447273E-01
       -2   -1    0    0    0  501  0.00000000000E+00  0.00000000000E+00  0.79420165737E+03  0.79420165737E+03  0.25500000920E-02 0. -1.
        2   -1    0    0  501    0  0.00000000000E+00  0.00000000000E+00 -0.17820839745E+04  0.17820839745E+04  0.25500000920E-02 0.  1.
    10030    2    1    2    0    0  0.00000000000E+00  0.00000000000E+00 -0.98788231714E+03  0.25762856319E+04  0.23793562542E+04 0.  0.
        2    1    3    3  502    0 -0.10662618312E+04 -0.70586068354E+02 -0.10601328152E+04  0.15052502356E+04  0.25500000920E-02 0.  1.
       -2    1    3    3    0  502  0.10662618312E+04  0.70586068354E+02  0.72250498085E+02  0.10710353963E+04  0.25500000920E-02 0. -1.
</event>
<event>
 5   0  0.9535394E-05  0.2325373E+04  0.7818609E-02  0.8467984E-01
       -2   -1    0    0    0  501  0.00000000000E+00  0.00000000000E+00  0.54389371592E+03  0.54389371593E+03  0.25500000920E-02 0. -1.
        2   -1    0    0  501    0  0.00000000000E+00  0.00000000000E+00 -0.24854854879E+04  0.24854854879E+04  0.25500000920E-02 0.  1.
    10030    2    1    2    0    0  0.00000000000E+00  0.00000000000E+00 -0.19415917720E+04  0.30293792039E+04  0.23253730349E+04 0.  0.
        2    1    3    3  502    0  0.62150514593E+03 -0.81096942143E+03 -0.16936751613E+04  0.19779978768E+04  0.25500000920E-02 0. -1.
       -2    1    3    3    0  502 -0.62150514593E+03  0.81096942143E+03 -0.24791661075E+03  0.10513813270E+04  0.25500000920E-02 0.  1.
</event>
<event>
 5   0  0.9483073E-05  0.2309990E+04  0.7818609E-02  0.8473992E-01
        2   -1    0    0  501    0  0.00000000000E+00  0.00000000000E+00  0.13418069764E+04  0.13418069764E+04  0.25500000920E-02 0.  1.
       -2   -1    0    0    0  501  0.00000000000E+00  0.00000000000E+00 -0.99419213390E+03  0.99419213390E+03  0.25500000920E-02 0. -1.
    10030    2    1    2    0    0  0.00000000000E+00  0.00000000000E+00  0.34761484248E+03  0.23359991103E+04  0.23099904252E+04 0.  0.
        5    1    3    3  502    0  0.39306038785E+03  0.55955587668E+03  0.11150896541E+04  0.13080696749E+04  0.46999998093E+01 0.  1.
       -5    1    3    3    0  502 -0.39306038785E+03 -0.55955587668E+03 -0.76747481165E+03  0.10279294354E+04  0.46999998093E+01 0. -1.
</event>
<event>
 5   0  0.9313463E-05  0.2305096E+04  0.7818609E-02  0.8475915E-01
        2   -1    0    0  501    0  0.00000000000E+00  0.00000000000E+00  0.15858406217E+04  0.15858406217E+04  0.25500000920E-02 0. -1.
       -2   -1    0    0    0  501  0.00000000000E+00  0.00000000000E+00 -0.83764199070E+03  0.83764199071E+03  0.25500000920E-02 0.  1.
    10030    2    1    2    0    0  0.00000000000E+00  0.00000000000E+00  0.74819863101E+03  0.24234826124E+04  0.23050958291E+04 0.  0.
        1    1    3    3  502    0 -0.25953693760E+03  0.10971158620E+04  0.62586418912E+03  0.12894683478E+04  0.50400001928E-02 0.  1.
       -1    1    3    3    0  502  0.25953693760E+03 -0.10971158620E+04  0.12233444189E+03  0.11340142646E+04  0.50400001928E-02 0. -1.
</event>
<event>
 5   0  0.9535394E-05  0.1430356E+04  0.7818609E-02  0.8932134E-01
        2   -1    0    0  501    0  0.00000000000E+00  0.00000000000E+00  0.95726145660E+03  0.95726145660E+03  0.25500000920E-02 0. -1.
       -2   -1    0    0    0  501  0.00000000000E+00  0.00000000000E+00 -0.53431509229E+03  0.53431509230E+03  0.25500000920E-02 0.  1.
    10030    2    1    2    0    0  0.00000000000E+00  0.00000000000E+00  0.42294636431E+03  0.14915765489E+04  0.14303555412E+04 0.  0.
        2    1    3    3  502    0 -0.19350858716E+03  0.67451523714E+03  0.67495349731E+02  0.70496241083E+03  0.25500000920E-02 0.  1.
       -2    1    3    3    0  502  0.19350858716E+03 -0.67451523714E+03  0.35545101457E+03  0.78661413807E+03  0.25500000920E-02 0. -1.
</event>
<event>
 5   0  0.9313463E-05  0.2454770E+04  0.7818609E-02  0.8419278E-01
        2   -1    0    0  501    0  0.00000000000E+00  0.00000000000E+00  0.12860682198E+04  0.12860682198E+04  0.25500000920E-02 0. -1.
       -2   -1    0    0    0  501  0.00000000000E+00  0.00000000000E+00 -0.11713798373E+04  0.11713798373E+04  0.25500000920E-02 0.  1.
    10030    2    1    2    0    0  0.00000000000E+00  0.00000000000E+00  0.11468838242E+03  0.24574480571E+04  0.24547703616E+04 0.  0.
        1    1    3    3  502    0  0.50809772903E+03 -0.23771969319E+03  0.11502311516E+04  0.12797287435E+04  0.50400001928E-02 0. -1.
       -1    1    3    3    0  502 -0.50809772903E+03  0.23771969319E+03 -0.10355427692E+04  0.11777193136E+04  0.50400001928E-02 0.  1.
</event>
<event>
 5   0  0.4005462E-05  0.2278566E+04  0.7818609E-02  0.8486421E-01
       -1   -1    0    0    0  501  0.00000000000E+00  0.00000000000E+00  0.11203783614E+04  0.11203783614E+04  0.50400001928E-02 0.  1.
        1   -1    0    0  501    0  0.00000000000E+00  0.00000000000E+00 -0.11585065053E+04  0.11585065053E+04  0.50400001928E-02 0. -1.
    10030    2    1    2    0    0  0.00000000000E+00  0.00000000000E+00 -0.38128143868E+02  0.22788848667E+04  0.22785658824E+04 0.  0.
        4    1    3    3  502    0  0.48475263615E+03 -0.10310070088E+04 -0.17209958878E+02  0.11394114121E+04  0.12699999809E+01 0. -1.
       -4    1    3    3    0  502 -0.48475263615E+03  0.10310070088E+04 -0.20918184990E+02  0.11394734546E+04  0.12699999809E+01 0.  1.
</event>
<event>
 5   0  0.4005462E-05  0.2323668E+04  0.7818609E-02  0.8468647E-01
        1   -1    0    0  501    0  0.00000000000E+00  0.00000000000E+00  0.18563451250E+04  0.18563451250E+04  0.50400001928E-02 0.  1.
       -1   -1    0    0    0  501  0.00000000000E+00  0.00000000000E+00 -0.72715934415E+03  0.72715934417E+03  0.50400001928E-02 0. -1.
    10030    2    1    2    0    0  0.00000000000E+00  0.00000000000E+00  0.11291857808E+04  0.25835044691E+04  0.23236683960E+04 0.  0.
        4    1    3    3  502    0  0.53158854122E+03  0.70019760650E+03  0.14091338630E+04  0.16608801648E+04  0.12699999809E+01 0.  1.
       -4    1    3    3    0  502 -0.53158854122E+03 -0.70019760650E+03 -0.27994808214E+03  0.92262430431E+03  0.12699999809E+01 0. -1.
</event>
<event>
 5   0  0.4005462E-05  0.2262431E+04  0.7818609E-02  0.8492883E-01
        1   -1    0    0  501    0  0.00000000000E+00  0.00000000000E+00  0.11684574503E+04  0.11684574503E+04  0.50400001928E-02 0. -1.
       -1   -1    0    0    0  501  0.00000000000E+00  0.00000000000E+00 -0.10951604961E+04  0.10951604961E+04  0.50400001928E-02 0.  1.
    10030    2    1    2    0    0  0.00000000000E+00  0.00000000000E+00  0.73296954242E+02  0.22636179464E+04  0.22624309412E+04 0.  0.
        4    1    3    3  502    0 -0.26210170999E+03  0.10404064993E+04  0.39531087357E+03  0.11434226209E+04  0.12699999809E+01 0. -1.
       -4    1    3    3    0  502  0.26210170999E+03 -0.10404064993E+04 -0.32201391933E+03  0.11201953255E+04  0.12699999809E+01 0.  1.
</event>
<event>
 5   0  0.9312074E-05  0.2268033E+04  0.7818609E-02  0.8490633E-01
       -2   -1    0    0    0  501  0.00000000000E+00  0.00000000000E+00  0.96722984804E+03  0.96722984804E+03  0.25500000920E-02 0. -1.
        2   -1    0    0  501    0  0.00000000000E+00  0.00000000000E+00 -0.13295632323E+04  0.13295632323E+04  0.25500000920E-02 0.  1.
    10030    2    1    2    0    0  0.00000000000E+00  0.00000000000E+00 -0.36233338424E+03  0.22967930803E+04  0.22680328420E+04 0.  0.
        4    1    3    3  502    0  0.33366521693E+03 -0.51803679876E+03 -0.11452350081E+04  0.13004843092E+04  0.12699999809E+01 0.  1.
       -4    1    3    3    0  502 -0.33366521693E+03  0.51803679876E+03  0.78290162385E+03  0.99630877110E+03  0.12699999809E+01 0. -1.
</event>
<event>
 5   0  0.4295775E-05  0.2341622E+04  0.7818609E-02  0.8461689E-01
       -1   -1    0    0    0  501  0.00000000000E+00  0.00000000000E+00  0.86330623747E+03  0.86330623748E+03  0.50400001928E-02 0.  1.
        1   -1    0    0  501    0  0.00000000000E+00  0.00000000000E+00 -0.15878468900E+04  0.15878468900E+04  0.50400001928E-02 0. -1.
    10030    2    1    2    0    0  0.00000000000E+00  0.00000000000E+00 -0.72454065255E+03  0.24511531275E+04  0.23416217665E+04 0.  0.
        5    1    3    3  502    0  0.26019456696E+03 -0.10732437814E+04 -0.76933372804E+03  0.13459011487E+04  0.46999998093E+01 0. -1.
       -5    1    3    3    0  502 -0.26019456696E+03  0.10732437814E+04  0.44793075496E+02  0.11052519788E+04  0.46999998093E+01 0.  1.
</event>
<event>
 5   0  0.3885219E-05  0.2312352E+04  0.7818609E-02  0.8473067E-01
        1   -1    0    0  501    0  0.00000000000E+00  0.00000000000E+00  0.14919137772E+04  0.14919137772E+04  0.50400001928E-02 0.  1.
       -1   -1    0    0    0  501  0.00000000000E+00  0.00000000000E+00 -0.89599186245E+03  0.89599186246E+03  0.50400001928E-02 0. -1.
    10030    2    1    2    0    0  0.00000000000E+00  0.00000000000E+00  0.59592191470E+03  0.23879056396E+04  0.23123517067E+04 0.  0.
        2    1    3    3  502    0 -0.10083316282E+04 -0.37598302434E+03  0.73443735658E+03  0.13028791724E+04  0.25500000920E-02 0. -1.
       -2    1    3    3    0  502  0.10083316282E+04  0.37598302434E+03 -0.13851544187E+03  0.10850264673E+04  0.25500000920E-02 0.  1.
</event>
<event>
 5   0  0.4005462E-05  0.2285906E+04  0.7818609E-02  0.8483499E-01
        1   -1    0    0  501    0  0.00000000000E+00  0.00000000000E+00  0.20326106790E+04  0.20326106790E+04  0.50400001928E-02 0.  1.
       -1   -1    0    0    0  501  0.00000000000E+00  0.00000000000E+00 -0.64269160575E+03  0.64269160577E+03  0.50400001928E-02 0. -1.
    10030    2    1    2    0    0  0.00000000000E+00  0.00000000000E+00  0.13899190733E+04  0.26753022848E+04  0.22859062284E+04 0.  0.
        4    1    3    3  502    0  0.49323123374E+03  0.10189101152E+04  0.87958270465E+03  0.14335697472E+04  0.12699999809E+01 0. -1.
       -4    1    3    3    0  502 -0.49323123374E+03 -0.10189101152E+04  0.51033636863E+03  0.12417325376E+04  0.12699999809E+01 0.  1.
</event>
<event>
 5   0  0.4005462E-05  0.2238031E+04  0.7818609E-02  0.8502764E-01
       -1   -1    0    0    0  501  0.00000000000E+00  0.00000000000E+00  0.93036065669E+03  0.93036065671E+03  0.50400001928E-02 0.  1.
        1   -1    0    0  501    0  0.00000000000E+00  0.00000000000E+00 -0.13459244886E+04  0.13459244886E+04  0.50400001928E-02 0. -1.
    10030    2    1    2    0    0  0.00000000000E+00  0.00000000000E+00 -0.41556383186E+03  0.22762851453E+04  0.22380305548E+04 0.  0.
        4    1    3    3  502    0  0.66446619968E+03  0.83882045199E+03  0.12500881664E+03  0.10773875340E+04  0.12699999809E+01 0.  1.
       -4    1    3    3    0  502 -0.66446619968E+03 -0.83882045199E+03 -0.54057264850E+03  0.11988976113E+04  0.12699999809E+01 0. -1.
</event>
<event>
 5   0  0.9641157E-05  0.2292338E+04  0.7818609E-02  0.8480948E-01
       -2   -1    0    0    0  501  0.00000000000E+00  0.00000000000E+00  0.81352706194E+03  0.81352706195E+03  0.25500000920E-02 0.  1.
        2   -1    0    0  501    0  0.00000000000E+00  0.00000000000E+00 -0.16148247492E+04  0.16148247492E+04  0.25500000920E-02 0. -1.
    10030    2    1    2    0    0  0.00000000000E+00  0.00000000000E+00 -0.80129768722E+03  0.24283518111E+04  0.22923382244E+04 0.  0.
        3    1    3    3  502    0  0.79940893130E+03  0.46709716360E+03  0.31506375260E+03  0.97800796423E+03  0.10100000352E+00 0.  1.
       -3    1    3    3    0  502 -0.79940893130E+03 -0.46709716360E+03 -0.11163614398E+04  0.14503438469E+04  0.10100000352E+00 0. -1.
</event>
<event>
 5   0  0.3885219E-05  0.2320069E+04  0.7818609E-02  0.8470050E-01
       -1   -1    0    0    0  501  0.00000000000E+00  0.00000000000E+00  0.11357832163E+04  0.11357832163E+04  0.50400001928E-02 0. -1.
        1   -1    0    0  501    0  0.00000000000E+00  0.00000000000E+00 -0.11848038497E+04  0.11848038497E+04  0.50400001928E-02 0.  1.
    10030    2    1    2    0    0  0.00000000000E+00  0.00000000000E+00 -0.49020633441E+02  0.23205870660E+04  0.23200692465E+04 0.  0.
        2    1    3    3  502    0  0.10255008939E+04  0.16731789289E+03 -0.54040927212E+03  0.11711915053E+04  0.25500000920E-02 0.  1.
       -2    1    3    3    0  502 -0.10255008939E+04 -0.16731789289E+03  0.49138863868E+03  0.11493955607E+04  0.25500000920E-02 0. -1.
</event>
<event>
 5   0  0.9641157E-05  0.2164061E+04  0.7818609E-02  0.8533537E-01
       -2   -1    0    0    0  501  0.00000000000E+00  0.00000000000E+00  0.62673531306E+03  0.62673531306E+03  0.25500000920E-02 0. -1.
        2   -1    0    0  501    0  0.00000000000E+00  0.00000000000E+00 -0.18680774607E+04  0.18680774607E+04  0.25500000920E-02 0.  1.
    10030    2    1    2    0    0  0.00000000000E+00  0.00000000000E+00 -0.12413421476E+04  0.24948127737E+04  0.21640611009E+04 0.  0.
        3    1    3    3  502    0 -0.36476002413E+03  0.22213470702E+02 -0.17947829738E+04  0.18316083770E+04  0.10100000352E+00 0.  1.
       -3    1    3    3    0  502  0.36476002413E+03 -0.22213470702E+02  0.55344082621E+03  0.66320439670E+03  0.10100000352E+00 0. -1.
</event>
<event>
 5   0  0.4295775E-05  0.2327607E+04  0.7818609E-02  0.8467115E-01
       -1   -1    0    0    0  501  0.00000000000E+00  0.00000000000E+00  0.12125645108E+04  0.12125645108E+04  0.50400001928E-02 0. -1.
        1   -1    0    0  501    0  0.00000000000E+00  0.00000000000E+00 -0.11170031649E+04  0.11170031650E+04  0.50400001928E-02 0.  1.
    10030    2    1    2    0    0  0.00000000000E+00  0.00000000000E+00  0.95561345886E+02  0.23295676758E+04  0.23276068365E+04 0.  0.
        5    1    3    3  502    0  0.93341212287E+03  0.86563472520E+02 -0.64248496003E+03  0.11364684068E+04  0.46999998093E+01 0.  1.
       -5    1    3    3    0  502 -0.93341212287E+03 -0.86563472520E+02  0.73804630591E+03  0.11930992690E+04  0.46999998093E+01 0. -1.
</event>
<event>
 5   0  0.9641157E-05  0.2296090E+04  0.7818609E-02  0.8479464E-01
        2   -1    0    0  501    0  0.00000000000E+00  0.00000000000E+00  0.20388293823E+04  0.20388293823E+04  0.25500000920E-02 0. -1.
       -2   -1    0    0    0  501  0.00000000000E+00  0.00000000000E+00 -0.64645311603E+03  0.64645311603E+03  0.25500000920E-02 0.  1.
    10030    2    1    2    0    0  0.00000000000E+00  0.00000000000E+00  0.13923762663E+04  0.26852824984E+04  0.22960902484E+04 0.  0.
        3    1    3    3  502    0  0.18939742115E+03 -0.21619316149E+03  0.19960710942E+04  0.20166582977E+04  0.10100000352E+00 0. -1.
       -3    1    3    3    0  502 -0.18939742115E+03  0.21619316149E+03 -0.60369482794E+03  0.66862420065E+03  0.10100000352E+00 0.  1.
</event>
<event>
 5   0  0.4095451E-05  0.2351175E+04  0.7818609E-02  0.8458013E-01
        1   -1    0    0  501    0  0.00000000000E+00  0.00000000000E+00  0.12212411224E+04  0.12212411224E+04  0.50400001928E-02 0. -1.
       -1   -1    0    0    0  501  0.00000000000E+00  0.00000000000E+00 -0.11316401745E+04  0.11316401745E+04  0.50400001928E-02 0.  1.
    10030    2    1    2    0    0  0.00000000000E+00  0.00000000000E+00  0.89600947867E+02  0.23528812969E+04  0.23511746144E+04 0.  0.
        3    1    3    3  502    0 -0.18153914315E+03  0.19605469693E+03  0.11904509439E+04  0.12200685901E+04  0.10100000352E+00 0. -1.
       -3    1    3    3    0  502  0.18153914315E+03 -0.19605469693E+03 -0.11008499960E+04  0.11328127067E+04  0.10100000352E+00 0.  1.
</event>
<event>
 5   0  0.4295775E-05  0.2346283E+04  0.7818609E-02  0.8459893E-01
        1   -1    0    0  501    0  0.00000000000E+00  0.00000000000E+00  0.16508509378E+04  0.16508509378E+04  0.50400001928E-02 0. -1.
       -1   -1    0    0    0  501  0.00000000000E+00  0.00000000000E+00 -0.83366789223E+03  0.83366789224E+03  0.50400001928E-02 0.  1.
    10030    2    1    2    0    0  0.00000000000E+00  0.00000000000E+00  0.81718304561E+03  0.24845188301E+04  0.23462833774E+04 0.  0.
        5    1    3    3  502    0  0.19457501785E+03  0.14845753668E+03 -0.80632352150E+03  0.84266172875E+03  0.46999998093E+01 0.  1.
       -5    1    3    3    0  502 -0.19457501785E+03 -0.14845753668E+03  0.16235065671E+04  0.16418571013E+04  0.46999998093E+01 0. -1.
</event>
<event>
 5   0  0.9483073E-05  0.2293509E+04  0.7818609E-02  0.8480485E-01
        2   -1    0    0  501    0  0.00000000000E+00  0.00000000000E+00  0.16263299492E+04  0.16263299492E+04  0.25500000920E-02 0. -1.
       -2   -1    0    0    0  501  0.00000000000E+00  0.00000000000E+00 -0.80859742003E+03  0.80859742003E+03  0.25500000920E-02 0.  1.
    10030    2    1    2    0    0  0.00000000000E+00  0.00000000000E+00  0.81773252917E+03  0.24349273692E+04  0.22935092771E+04 0.  0.
        5    1    3    3  502    0 -0.11088502641E+04 -0.45127695114E+02  0.71553482807E+03  0.13204535574E+04  0.46999998093E+01 0. -1.
       -5    1    3    3    0  502  0.11088502641E+04  0.45127695114E+02  0.10219770110E+03  0.11144738118E+04  0.46999998093E+01 0.  1.
</event>
<event>
 5   0  0.4095451E-05  0.2289478E+04  0.7818609E-02  0.8482082E-01
       -1   -1    0    0    0  501  0.00000000000E+00  0.00000000000E+00  0.89516027058E+03  0.89516027059E+03  0.50400001928E-02 0.  1.
        1   -1    0    0  501    0  0.00000000000E+00  0.00000000000E+00 -0.14639019222E+04  0.14639019222E+04  0.50400001928E-02 0. -1.
    10030    2    1    2    0    0  0.00000000000E+00  0.00000000000E+00 -0.56874165159E+03  0.23590621928E+04  0.22894775306E+04 0.  0.
        3    1    3    3  502    0  0.11188415616E+04 -0.30534561804E+02 -0.53185410589E+03  0.12391963523E+04  0.10100000352E+00 0. -1.
       -3    1    3    3    0  502 -0.11188415616E+04  0.30534561804E+02 -0.36887545695E+02  0.11198658405E+04  0.10100000352E+00 0.  1.
</event>
<event>
 5   0  0.3885219E-05  0.2303112E+04  0.7818609E-02  0.8476695E-01
        1   -1    0    0  501    0  0.00000000000E+00  0.00000000000E+00  0.17827338219E+04  0.17827338219E+04  0.50400001928E-02 0.  1.
       -1   -1    0    0    0  501  0.00000000000E+00  0.00000000000E+00 -0.74384691958E+03  0.74384691960E+03  0.50400001928E-02 0. -1.
    10030    2    1    2    0    0  0.00000000000E+00  0.00000000000E+00  0.10388869024E+04  0.25265807415E+04  0.23031118617E+04 0.  0.
        2    1    3    3  502    0 -0.72928101937E+03 -0.89072626521E+03  0.55118111470E+03  0.12763403566E+04  0.25500000920E-02 0.  1.
       -2    1    3    3    0  502  0.72928101937E+03  0.89072626521E+03  0.48770578766E+03  0.12502403849E+04  0.25500000920E-02 0. -1.
</event>
<event>
 5   0  0.9535394E-05  0.2291367E+04  0.7818609E-02  0.8481333E-01
        2   -1    0    0  501    0  0.00000000000E+00  0.00000000000E+00  0.25838722518E+04  0.25838722518E+04  0.25500000920E-02 0. -1.
       -2   -1    0    0    0  501  0.00000000000E+00  0.00000000000E+00 -0.50799380474E+03  0.50799380475E+03  0.25500000920E-02 0.  1.
    10030    2    1    2    0    0  0.00000000000E+00  0.00000000000E+00  0.20758784471E+04  0.30918660566E+04  0.22913673614E+04 0.  0.
        2    1    3    3  502    0 -0.10087789018E+03  0.10858790472E+04  0.56416131966E+03  0.12278386085E+04  0.25500000920E-02 0.  1.
       -2    1    3    3    0  502  0.10087789018E+03 -0.10858790472E+04  0.15117171274E+04  0.18640274481E+04  0.25500000920E-02 0. -1.
</event>
<event>
 5   0  0.9535394E-05  0.2242225E+04  0.7818609E-02  0.8501056E-01
        2   -1    0    0  501    0  0.00000000000E+00  0.00000000000E+00  0.12501430698E+04  0.12501430698E+04  0.25500000920E-02 0. -1.
       -2   -1    0    0    0  501  0.00000000000E+00  0.00000000000E+00 -0.10053998735E+04  0.10053998735E+04  0.25500000920E-02 0.  1.
    10030    2    1    2    0    0  0.00000000000E+00  0.00000000000E+00  0.24474319626E+03  0.22555429433E+04  0.22422253983E+04 0.  0.
        2    1    3    3  502    0 -0.68512776306E+03 -0.45406822940E+03  0.88934066676E+03  0.12109933238E+04  0.25500000920E-02 0. -1.
       -2    1    3    3    0  502  0.68512776306E+03  0.45406822940E+03 -0.64459747051E+03  0.10445496195E+04  0.25500000920E-02 0.  1.
</event>
<event>
 5   0  0.9312074E-05  0.2294669E+04  0.7818609E-02  0.8480026E-01
        2   -1    0    0  501    0  0.00000000000E+00  0.00000000000E+00  0.16023382879E+04  0.16023382879E+04  0.25500000920E-02 0.  1.
       -2   -1    0    0    0  501  0.00000000000E+00  0.00000000000E+00 -0.82153500080E+03  0.82153500080E+03  0.25500000920E-02 0. -1.
    10030    2    1    2    0    0  0.00000000000E+00  0.00000000000E+00  0.78080328710E+03  0.24238732887E+04  0.22946694635E+04 0.  0.
        4    1    3    3  502    0  0.97863842488E+03 -0.88268465798E+02 -0.23527661581E+03  0.10103866525E+04  0.12699999809E+01 0. -1.
       -4    1    3    3    0  502 -0.97863842488E+03  0.88268465798E+02  0.10160799029E+04  0.14134866362E+04  0.12699999809E+01 0.  1.
</event>
<event>
 5   0  0.9313463E-05  0.2354395E+04  0.7818609E-02  0.8456777E-01
        2   -1    0    0  501    0  0.00000000000E+00  0.00000000000E+00  0.67081292193E+03  0.67081292194E+03  0.25500000920E-02 0. -1.
       -2   -1    0    0    0  501  0.00000000000E+00  0.00000000000E+00 -0.20658427314E+04  0.20658427314E+04  0.25500000920E-02 0.  1.
    10030    2    1    2    0    0  0.00000000000E+00  0.00000000000E+00 -0.13950298095E+04  0.27366556533E+04  0.23543950381E+04 0.  0.
        1    1    3    3  502    0  0.34297560188E+03 -0.43019729324E+03  0.51217344957E+03  0.75168052859E+03  0.50400001928E-02 0. -1.
       -1    1    3    3    0  502 -0.34297560188E+03  0.43019729324E+03 -0.19072032590E+04  0.19849751248E+04  0.50400001928E-02 0.  1.
</event>
<event>
 5   0  0.3885219E-05  0.2178178E+04  0.7818609E-02  0.8527566E-01
       -1   -1    0    0    0  501  0.00000000000E+00  0.00000000000E+00  0.61296980433E+03  0.61296980435E+03  0.50400001928E-02 0. -1.
        1   -1    0    0  501    0  0.00000000000E+00  0.00000000000E+00 -0.19350298751E+04  0.19350298751E+04  0.50400001928E-02 0.  1.
    10030    2    1    2    0    0  0.00000000000E+00  0.00000000000E+00 -0.13220600707E+04  0.25479996794E+04  0.21781780312E+04 0.  0.
        2    1    3    3  502    0 -0.70057893642E+03 -0.26343795404E+02 -0.16359669719E+04  0.17798575153E+04  0.25500000920E-02 0.  1.
       -2    1    3    3    0  502  0.70057893642E+03  0.26343795404E+02  0.31390690115E+03  0.76814216412E+03  0.25500000920E-02 0. -1.
</event>
<event>
 5   0  0.9312074E-05  0.2366456E+04  0.7818609E-02  0.8452170E-01
        2   -1    0    0  501    0  0.00000000000E+00  0.00000000000E+00  0.31304196874E+04  0.31304196874E+04  0.25500000920E-02 0. -1.
       -2   -1    0    0    0  501  0.00000000000E+00  0.00000000000E+00 -0.44723352720E+03  0.44723352721E+03  0.25500000920E-02 0.  1.
    10030    2    1    2    0    0  0.00000000000E+00  0.00000000000E+00  0.26831861602E+04  0.35776532146E+04  0.23664561170E+04 0.  0.
        4    1    3    3  502    0  0.57130165440E+03 -0.37165639218E+03 -0.12066723299E+03  0.69215334153E+03  0.12699999809E+01 0.  1.
       -4    1    3    3    0  502 -0.57130165440E+03  0.37165639218E+03  0.28038533932E+04  0.28854998731E+04  0.12699999809E+01 0. -1.
</event>
<event>
 5   0  0.9641157E-05  0.2299567E+04  0.7818609E-02  0.8478092E-01
       -2   -1    0    0    0  501  0.00000000000E+00  0.00000000000E+00  0.50847967370E+03  0.50847967371E+03  0.25500000920E-02 0. -1.
        2   -1    0    0  501    0  0.00000000000E+00  0.00000000000E+00 -0.25999112702E+04  0.25999112702E+04  0.25500000920E-02 0.  1.
    10030    2    1    2    0    0  0.00000000000E+00  0.00000000000E+00 -0.20914315965E+04  0.31083909439E+04  0.22995669456E+04 0.  0.
        3    1    3    3  502    0 -0.71695348147E+03 -0.89259380836E+03 -0.11891266647E+04  0.16506872012E+04  0.10100000352E+00 0.  1.
       -3    1    3    3    0  502  0.71695348147E+03  0.89259380836E+03 -0.90230493180E+03  0.14577037427E+04  0.10100000352E+00 0. -1.
</event>
<event>
 5   0  0.3261500E-05  0.2285853E+04  0.7818609E-02  0.8483520E-01
        3   -1    0    0  501    0  0.00000000000E+00  0.00000000000E+00  0.15682557990E+04  0.15682558022E+04  0.10100000352E+00 0. -1.
       -3   -1    0    0    0  501  0.00000000000E+00  0.00000000000E+00 -0.83295172349E+03  0.83295172961E+03  0.10100000352E+00 0.  1.
    10030    2    1    2    0    0  0.00000000000E+00  0.00000000000E+00  0.73530407546E+03  0.24012075318E+04  0.22858533478E+04 0.  0.
        3    1    3    3  502    0 -0.25281914720E+03 -0.10973036591E+04  0.57320118522E+03  0.12635475656E+04  0.10100000352E+00 0. -1.
       -3    1    3    3    0  502  0.25281914720E+03  0.10973036591E+04  0.16210289025E+03  0.11376599662E+04  0.10100000352E+00 0.  1.
</event>
<event>
 5   0  0.3261500E-05  0.2278496E+04  0.7818609E-02  0.8486448E-01
        3   -1    0    0  501    0  0.00000000000E+00  0.00000000000E+00  0.80543822941E+03  0.80543823574E+03  0.10100000352E+00 0. -1.
       -3   -1    0    0    0  501  0.00000000000E+00  0.00000000000E+00 -0.16114033674E+04  0.16114033706E+04  0.10100000352E+00 0.  1.
    10030    2    1    2    0    0  0.00000000000E+00  0.00000000000E+00 -0.80596513802E+03  0.24168416063E+04  0.22784958956E+04 0.  0.
        3    1    3    3  502    0 -0.10051941809E+04 -0.51263985945E+03 -0.56958929101E+03  0.12639805922E+04  0.10100000352E+00 0.  1.
       -3    1    3    3    0  502  0.10051941809E+04  0.51263985945E+03 -0.23637584702E+03  0.11528610142E+04  0.10100000352E+00 0. -1.
</event>
<event>
 5   0  0.4095451E-05  0.1571376E+04  0.7818609E-02  0.8838328E-01
       -1   -1    0    0    0  501  0.00000000000E+00  0.00000000000E+00  0.52327309152E+03  0.52327309155E+03  0.50400001928E-02 0.  1.
        1   -1    0    0  501    0  0.00000000000E+00  0.00000000000E+00 -0.11797011178E+04  0.11797011178E+04  0.50400001928E-02 0. -1.
    10030    2    1    2    0    0  0.00000000000E+00  0.00000000000E+00 -0.65642802627E+03  0.17029742094E+04  0.15713762770E+04 0.  0.
        3    1    3    3  502    0 -0.24894396320E+03  0.61633704271E+03 -0.78217514057E+03  0.10264708509E+04  0.10100000352E+00 0.  1.
       -3    1    3    3    0  502  0.24894396320E+03 -0.61633704271E+03  0.12574711430E+03  0.67650335845E+03  0.10100000352E+00 0. -1.
</event>
<event>
 5   0  0.9483073E-05  0.2350950E+04  0.7818609E-02  0.8458099E-01
       -2   -1    0    0    0  501  0.00000000000E+00  0.00000000000E+00  0.19599767416E+04  0.19599767416E+04  0.25500000920E-02 0.  1.
        2   -1    0    0  501    0  0.00000000000E+00  0.00000000000E+00 -0.70497849910E+03  0.70497849910E+03  0.25500000920E-02 0. -1.
    10030    2    1    2    0    0  0.00000000000E+00  0.00000000000E+00  0.12549982425E+04  0.26649552407E+04  0.23509499880E+04 0.  0.
        5    1    3    3  502    0 -0.41397071595E+02  0.36915156056E+02  0.19584818717E+04  0.19592727676E+04  0.46999998093E+01 0.  1.
       -5    1    3    3    0  502  0.41397071595E+02 -0.36915156056E+02 -0.70348362918E+03  0.70568247307E+03  0.46999998093E+01 0. -1.
</event>
<event>
 5   0  0.4005462E-05  0.2272851E+04  0.7818609E-02  0.8488703E-01
       -1   -1    0    0    0  501  0.00000000000E+00  0.00000000000E+00  0.47358947870E+03  0.47358947873E+03  0.50400001928E-02 0.  1.
        1   -1    0    0  501    0  0.00000000000E+00  0.00000000000E+00 -0.27269668820E+04  0.27269668820E+04  0.50400001928E-02 0. -1.
    10030    2    1    2    0    0  0.00000000000E+00  0.00000000000E+00 -0.22533774033E+04  0.32005563608E+04  0.22728509183E+04 0.  0.
        4    1    3    3  502    0 -0.61480026462E+03 -0.40319701101E+03 -0.23469410005E+04  0.24594066089E+04  0.12699999809E+01 0. -1.
       -4    1    3    3    0  502  0.61480026462E+03  0.40319701101E+03  0.93563597205E+02  0.74114975186E+03  0.12699999809E+01 0.  1.
</event>
<event>
 5   0  0.9313463E-05  0.2324961E+04  0.7818609E-02  0.8468144E-01
        2   -1    0    0  501    0  0.00000000000E+00  0.00000000000E+00  0.15566502606E+04  0.15566502606E+04  0.25500000920E-02 0.  1.
       -2   -1    0    0    0  501  0.00000000000E+00  0.00000000000E+00 -0.86812094381E+03  0.86812094381E+03  0.25500000920E-02 0. -1.
    10030    2    1    2    0    0  0.00000000000E+00  0.00000000000E+00  0.68852931676E+03  0.24247712044E+04  0.23249608112E+04 0.  0.
        1    1    3    3  502    0  0.66266464246E+03  0.91032965735E+03  0.42830520975E+02  0.11267914479E+04  0.50400001928E-02 0. -1.
       -1    1    3    3    0  502 -0.66266464246E+03 -0.91032965735E+03  0.64569879578E+03  0.12979797565E+04  0.50400001928E-02 0.  1.
</event>
<event>
 5   0  0.9535394E-05  0.2134593E+04  0.7818609E-02  0.8546156E-01
        2   -1    0    0  501    0  0.00000000000E+00  0.00000000000E+00  0.13532340563E+04  0.13532340563E+04  0.25500000920E-02 0.  1.
       -2   -1    0    0    0  501  0.00000000000E+00  0.00000000000E+00 -0.84177752768E+03  0.84177752768E+03  0.25500000920E-02 0. -1.
    10030    2    1    2    0    0  0.00000000000E+00  0.00000000000E+00  0.51145652862E+03  0.21950115840E+04  0.21345931868E+04 0.  0.
        2    1    3    3  502    0 -0.85632579480E+03 -0.31286045719E+03  0.82636447068E+03  0.12304689232E+04  0.25500000920E-02 0.  1.
       -2    1    3    3    0  502  0.85632579480E+03  0.31286045719E+03 -0.31490794206E+03  0.96454266080E+03  0.25500000920E-02 0. -1.
</event>
<event>
 5   0  0.4295775E-05  0.1520609E+04  0.7818609E-02  0.8870863E-01
       -1   -1    0    0    0  501  0.00000000000E+00  0.00000000000E+00  0.71294803050E+03  0.71294803052E+03  0.50400001928E-02 0.  1.
        1   -1    0    0  501    0  0.00000000000E+00  0.00000000000E+00 -0.81080628741E+03  0.81080628742E+03  0.50400001928E-02 0. -1.
    10030    2    1    2    0    0  0.00000000000E+00  0.00000000000E+00 -0.97858256908E+02  0.15237543179E+04  0.15206087541E+04 0.  0.
        5    1    3    3  502    0 -0.78066192388E+02 -0.71419216360E+03 -0.29819232093E+03  0.77788529180E+03  0.46999998093E+01 0. -1.
       -5    1    3    3    0  502  0.78066192388E+02  0.71419216360E+03  0.20033406402E+03  0.74586902614E+03  0.46999998093E+01 0.  1.
</event>
<event>
 5   0  0.9312074E-05  0.2240374E+04  0.7818609E-02  0.8501809E-01
       -2   -1    0    0    0  501  0.00000000000E+00  0.00000000000E+00  0.48571043269E+03  0.48571043269E+03  0.25500000920E-02 0.  1.
        2   -1    0    0  501    0  0.00000000000E+00  0.00000000000E+00 -0.25834708020E+04  0.25834708020E+04  0.25500000920E-02 0. -1.
    10030    2    1    2    0    0  0.00000000000E+00  0.00000000000E+00 -0.20977603694E+04  0.30691812347E+04  0.22403738269E+04 0.  0.
        4    1    3    3  502    0  0.40618597117E+03 -0.60186219065E+03  0.11966629673E+03  0.73589861746E+03  0.12699999809E+01 0.  1.
       -4    1    3    3    0  502 -0.40618597117E+03  0.60186219065E+03 -0.22174266661E+04  0.23332826173E+04  0.12699999809E+01 0. -1.
</event>
<event>
 5   0  0.9483073E-05  0.2297319E+04  0.7818609E-02  0.8478979E-01
        2   -1    0    0  501    0  0.00000000000E+00  0.00000000000E+00  0.17839686483E+04  0.17839686483E+04  0.25500000920E-02 0.  1.
       -2   -1    0    0    0  501  0.00000000000E+00  0.00000000000E+00 -0.73959726836E+03  0.73959726836E+03  0.25500000920E-02 0. -1.
    10030    2    1    2    0    0  0.00000000000E+00  0.00000000000E+00  0.10443713799E+04  0.25235659166E+04  0.22973187320E+04 0.  0.
        5    1    3    3  502    0  0.74759848025E+03 -0.25734723771E+03  0.14374701430E+04  0.16405711171E+04  0.46999998093E+01 0.  1.
       -5    1    3    3    0  502 -0.74759848025E+03  0.25734723771E+03 -0.39309876306E+03  0.88299479950E+03  0.46999998093E+01 0. -1.
</event>
<event>
 5   0  0.4005462E-05  0.2253423E+04  0.7818609E-02  0.8496516E-01
       -1   -1    0    0    0  501  0.00000000000E+00  0.00000000000E+00  0.10498301737E+04  0.10498301737E+04  0.50400001928E-02 0.  1.
        1   -1    0    0  501    0  0.00000000000E+00  0.00000000000E+00 -0.12092228914E+04  0.12092228914E+04  0.50400001928E-02 0. -1.
    10030    2    1    2    0    0  0.00000000000E+00  0.00000000000E+00 -0.15939271768E+03  0.22590530651E+04  0.22534228881E+04 0.  0.
        4    1    3    3  502    0 -0.67940473564E+03  0.58250907946E+03  0.60653524152E+03  0.10811078737E+04  0.12699999809E+01 0.  1.
       -4    1    3    3    0  502  0.67940473564E+03 -0.58250907946E+03 -0.76592795920E+03  0.11779451914E+04  0.12699999809E+01 0. -1.
</event>
<event>
 5   0  0.9641157E-05  0.2318125E+04  0.7818609E-02  0.8470809E-01
       -2   -1    0    0    0  501  0.00000000000E+00  0.00000000000E+00  0.70089463023E+03  0.70089463024E+03  0.25500000920E-02 0.  1.
        2   -1    0    0  501    0  0.00000000000E+00  0.00000000000E+00 -0.19167308004E+04  0.19167308004E+04  0.25500000920E-02 0. -1.
    10030    2    1    2    0    0  0.00000000000E+00  0.00000000000E+00 -0.12158361701E+04  0.26176254306E+04  0.23181253854E+04 0.  0.
        3    1    3    3  502    0 -0.62614235331E+03  0.49339562765E+03 -0.15580121449E+04  0.17501129523E+04  0.10100000352E+00 0. -1.
       -3    1    3    3    0  502  0.62614235331E+03 -0.49339562765E+03  0.34217597481E+03  0.86751247826E+03  0.10100000352E+00 0.  1.
</event>
<event>
 5   0  0.4295775E-05  0.2328604E+04  0.7818609E-02  0.8466728E-01
       -1   -1    0    0    0  501  0.00000000000E+00  0.00000000000E+00  0.12444013538E+04  0.12444013539E+04  0.50400001928E-02 0. -1.
        1   -1    0    0  501    0  0.00000000000E+00  0.00000000000E+00 -0.10893586020E+04  0.10893586020E+04  0.50400001928E-02 0.  1.
    10030    2    1    2    0    0  0.00000000000E+00  0.00000000000E+00  0.15504275184E+03  0.23337599559E+04  0.23286041477E+04 0.  0.
        5    1    3    3  502    0  0.70422963796E+03  0.88846925048E+03  0.34317474169E+03  0.11845285920E+04  0.46999998093E+01 0.  1.
       -5    1    3    3    0  502 -0.70422963796E+03 -0.88846925048E+03 -0.18813198985E+03  0.11492313638E+04  0.46999998093E+01 0. -1.
</event>
<event>
 5   0  0.4095451E-05  0.2571983E+04  0.7818609E-02  0.8377781E-01
        1   -1    0    0  501    0  0.00000000000E+00  0.00000000000E+00  0.18516686476E+04  0.18516686476E+04  0.50400001928E-02 0.  1.
       -1   -1    0    0    0  501  0.00000000000E+00  0.00000000000E+00 -0.89312649082E+03  0.89312649083E+03  0.50400001928E-02 0. -1.
    10030    2    1    2    0    0  0.00000000000E+00  0.00000000000E+00  0.95854215673E+03  0.27447951384E+04  0.25719831425E+04 0.  0.
        3    1    3    3  502    0  0.81714920013E+03  0.61065028662E+03 -0.35637884574E+03  0.10805704418E+04  0.10100000352E+00 0. -1.
       -3    1    3    3    0  502 -0.81714920013E+03 -0.61065028662E+03  0.13149210025E+04  0.16642246966E+04  0.10100000352E+00 0.  1.
</event>
<event>
 5   0  0.4095451E-05  0.2253852E+04  0.7818609E-02  0.8496342E-01
        1   -1    0    0  501    0  0.00000000000E+00  0.00000000000E+00  0.15640613922E+04  0.15640613922E+04  0.50400001928E-02 0.  1.
       -1   -1    0    0    0  501  0.00000000000E+00  0.00000000000E+00 -0.81196462761E+03  0.81196462762E+03  0.50400001928E-02 0. -1.
    10030    2    1    2    0    0  0.00000000000E+00  0.00000000000E+00  0.75209676462E+03  0.23760260199E+04  0.22538522808E+04 0.  0.
        3    1    3    3  502    0 -0.69261193627E+03 -0.19327551979E+03  0.12907789230E+04  0.14775577685E+04  0.10100000352E+00 0.  1.
       -3    1    3    3    0  502  0.69261193627E+03  0.19327551979E+03 -0.53868215840E+03  0.89846825141E+03  0.10100000352E+00 0. -1.
</event>
<event>
 5   0  0.4139830E-05  0.2327932E+04  0.7818609E-02  0.8466989E-01
        1   -1    0    0  501    0  0.00000000000E+00  0.00000000000E+00  0.21094795223E+04  0.21094795223E+04  0.50400001928E-02 0.  1.
       -1   -1    0    0    0  501  0.00000000000E+00  0.00000000000E+00 -0.64225155817E+03  0.64225155819E+03  0.50400001928E-02 0. -1.
    10030    2    1    2    0    0  0.00000000000E+00  0.00000000000E+00  0.14672279641E+04  0.27517310805E+04  0.23279317088E+04 0.  0.
        1    1    3    3  502    0 -0.66120460675E+03 -0.66357463987E+03  0.15502501174E+04  0.18112973972E+04  0.50400001928E-02 0.  1.
       -1    1    3    3    0  502  0.66120460675E+03  0.66357463987E+03 -0.83022153277E+02  0.94043368327E+03  0.50400001928E-02 0. -1.
</event>
<event>
 5   0  0.9641157E-05  0.2311056E+04  0.7818609E-02  0.8473575E-01
        2   -1    0    0  501    0  0.00000000000E+00  0.00000000000E+00  0.20935718997E+04  0.20935718997E+04  0.25500000920E-02 0.  1.
       -2   -1    0    0    0  501  0.00000000000E+00  0.00000000000E+00 -0.63778328583E+03  0.63778328584E+03  0.25500000920E-02 0. -1.
    10030    2    1    2    0    0  0.00000000000E+00  0.00000000000E+00  0.14557886139E+04  0.27313551855E+04  0.23110561788E+04 0.  0.
        3    1    3    3  502    0 -0.84273577472E+03 -0.51341455517E+03  0.17351860034E+02  0.98696463397E+03  0.10100000352E+00 0. -1.
       -3    1    3    3    0  502  0.84273577472E+03  0.51341455517E+03  0.14384367538E+04  0.17443905516E+04  0.10100000352E+00 0.  1.
</event>
<event>
 5   0  0.3261500E-05  0.2312595E+04  0.7818609E-02  0.8472972E-01
        3   -1    0    0  501    0  0.00000000000E+00  0.00000000000E+00  0.11311794548E+04  0.11311794593E+04  0.10100000352E+00 0. -1.
       -3   -1    0    0    0  501  0.00000000000E+00  0.00000000000E+00 -0.11819733850E+04  0.11819733893E+04  0.10100000352E+00 0.  1.
    10030    2    1    2    0    0  0.00000000000E+00  0.00000000000E+00 -0.50793930173E+02  0.23131528486E+04  0.23125950959E+04 0.  0.
        4    1    3    3  502    0  0.53433201635E+03 -0.29696536877E+03 -0.10071240137E+04  0.11781339168E+04  0.12699999809E+01 0.  1.
       -4    1    3    3    0  502 -0.53433201635E+03  0.29696536877E+03  0.95633008356E+03  0.11350189318E+04  0.12699999809E+01 0. -1.
</event>
<event>
 5   0  0.9641157E-05  0.2309292E+04  0.7818609E-02  0.8474266E-01
       -2   -1    0    0    0  501  0.00000000000E+00  0.00000000000E+00  0.72768956675E+03  0.72768956675E+03  0.25500000920E-02 0.  1.
        2   -1    0    0  501    0  0.00000000000E+00  0.00000000000E+00 -0.18321103087E+04  0.18321103087E+04  0.25500000920E-02 0. -1.
    10030    2    1    2    0    0  0.00000000000E+00  0.00000000000E+00 -0.11044207420E+04  0.25597998755E+04  0.23092921485E+04 0.  0.
        3    1    3    3  502    0 -0.99237881719E+03  0.27850685902E+03 -0.11290726207E+04  0.15287860479E+04  0.10100000352E+00 0. -1.
       -3    1    3    3    0  502  0.99237881719E+03 -0.27850685902E+03  0.24651878686E+02  0.10310138276E+04  0.10100000352E+00 0.  1.
</event>
<event>
 5   0  0.9483073E-05  0.2281830E+04  0.7818609E-02  0.8485120E-01
        2   -1    0    0  501    0  0.00000000000E+00  0.00000000000E+00  0.10950218295E+04  0.10950218295E+04  0.25500000920E-02 0.  1.
       -2   -1    0    0    0  501  0.00000000000E+00  0.00000000000E+00 -0.11887312317E+04  0.11887312317E+04  0.25500000920E-02 0. -1.
    10030    2    1    2    0    0  0.00000000000E+00  0.00000000000E+00 -0.93709402174E+02  0.22837530613E+04  0.22818296590E+04 0.  0.
        5    1    3    3  502    0 -0.66757617486E+03 -0.78856971772E+02 -0.96947130587E+03  0.11797343235E+04  0.46999998093E+01 0. -1.
       -5    1    3    3    0  502  0.66757617486E+03  0.78856971772E+02  0.87576190370E+03  0.11040187377E+04  0.46999998093E+01 0.  1.
</event>
<event>
 5   0  0.3885219E-05  0.2285920E+04  0.7818609E-02  0.8483494E-01
       -1   -1    0    0    0  501  0.00000000000E+00  0.00000000000E+00  0.10852800570E+04  0.10852800570E+04  0.50400001928E-02 0. -1.
        1   -1    0    0  501    0  0.00000000000E+00  0.00000000000E+00 -0.12037050716E+04  0.12037050716E+04  0.50400001928E-02 0.  1.
    10030    2    1    2    0    0  0.00000000000E+00  0.00000000000E+00 -0.11842501455E+03  0.22889851286E+04  0.22859196038E+04 0.  0.
        2    1    3    3  502    0  0.30283298300E+03  0.36257875894E+03 -0.11013704082E+04  0.11984105924E+04  0.25500000920E-02 0.  1.
       -2    1    3    3    0  502 -0.30283298300E+03 -0.36257875894E+03  0.98294539365E+03  0.10905745362E+04  0.25500000920E-02 0. -1.
</event>
<event>
 5   0  0.4005462E-05  0.2269030E+04  0.7818609E-02  0.8490233E-01
        1   -1    0    0  501    0  0.00000000000E+00  0.00000000000E+00  0.27079036472E+04  0.27079036472E+04  0.50400001928E-02 0. -1.
       -1   -1    0    0    0  501  0.00000000000E+00  0.00000000000E+00 -0.47532136404E+03  0.47532136407E+03  0.50400001928E-02 0.  1.
    10030    2    1    2    0    0  0.00000000000E+00  0.00000000000E+00  0.22325822832E+04  0.31832250113E+04  0.22690301499E+04 0.  0.
        4    1    3    3  502    0 -0.69603886332E+02 -0.45977931376E+03  0.25680607602E+04  0.26098236337E+04  0.12699999809E+01 0. -1.
       -4    1    3    3    0  502  0.69603886332E+02  0.45977931376E+03 -0.33547847700E+03  0.57340137756E+03  0.12699999809E+01 0.  1.
</event>
<event>
 5   0  0.9535394E-05  0.2301572E+04  0.7818609E-02  0.8477302E-01
       -2   -1    0    0    0  501  0.00000000000E+00  0.00000000000E+00  0.17990826048E+04  0.17990826048E+04  0.25500000920E-02 0.  1.
        2   -1    0    0  501    0  0.00000000000E+00  0.00000000000E+00 -0.73610200260E+03  0.73610200260E+03  0.25500000920E-02 0. -1.
    10030    2    1    2    0    0  0.00000000000E+00  0.00000000000E+00  0.10629806022E+04  0.25351846074E+04  0.23015719048E+04 0.  0.
        2    1    3    3  502    0 -0.20351891580E+03 -0.91405861411E+03  0.12682499849E+04  0.15765091574E+04  0.25500000920E-02 0. -1.
       -2    1    3    3    0  502  0.20351891580E+03  0.91405861411E+03 -0.20526938264E+03  0.95867545007E+03  0.25500000920E-02 0.  1.
</event>
<event>
 5   0  0.9641157E-05  0.2297212E+04  0.7818609E-02  0.8479021E-01
        2   -1    0    0  501    0  0.00000000000E+00  0.00000000000E+00  0.17119749415E+04  0.17119749415E+04  0.25500000920E-02 0.  1.
       -2   -1    0    0    0  501  0.00000000000E+00  0.00000000000E+00 -0.77062805327E+03  0.77062805327E+03  0.25500000920E-02 0. -1.
    10030    2    1    2    0    0  0.00000000000E+00  0.00000000000E+00  0.94134688820E+03  0.24826029947E+04  0.22972121508E+04 0.  0.
        3    1    3    3  502    0  0.53501484105E+03  0.41442611139E+03 -0.53228955754E+03  0.86100061859E+03  0.10100000352E+00 0. -1.
       -3    1    3    3    0  502 -0.53501484105E+03 -0.41442611139E+03  0.14736364457E+04  0.16216023762E+04  0.10100000352E+00 0.  1.
</event>
<event>
 5   0  0.4139830E-05  0.2396194E+04  0.7818609E-02  0.8440930E-01
        1   -1    0    0  501    0  0.00000000000E+00  0.00000000000E+00  0.16426914622E+04  0.16426914622E+04  0.50400001928E-02 0. -1.
       -1   -1    0    0    0  501  0.00000000000E+00  0.00000000000E+00 -0.87383167098E+03  0.87383167100E+03  0.50400001928E-02 0.  1.
    10030    2    1    2    0    0  0.00000000000E+00  0.00000000000E+00  0.76885979119E+03  0.25165231332E+04  0.23961935025E+04 0.  0.
        1    1    3    3  502    0 -0.73718706285E+03 -0.32295816966E+03 -0.54765710964E+03  0.97348603213E+03  0.50400001928E-02 0.  1.
       -1    1    3    3    0  502  0.73718706285E+03  0.32295816966E+03  0.13165169008E+04  0.15430371010E+04  0.50400001928E-02 0. -1.
</event>
<event>
 5   0  0.9483073E-05  0.2210749E+04  0.7818609E-02  0.8513968E-01
        2   -1    0    0  501    0  0.00000000000E+00  0.00000000000E+00  0.24927253147E+04  0.24927253147E+04  0.25500000920E-02 0. -1.
       -2   -1    0    0    0  501  0.00000000000E+00  0.00000000000E+00 -0.49016735954E+03  0.49016735955E+03  0.25500000920E-02 0.  1.
    10030    2    1    2    0    0  0.00000000000E+00  0.00000000000E+00  0.20025579552E+04  0.29828926743E+04  0.22107488194E+04 0.  0.
        5    1    3    3  502    0  0.88367257035E+03 -0.66404258691E+03  0.10024292475E+04  0.14922185682E+04  0.46999998093E+01 0.  1.
       -5    1    3    3    0  502 -0.88367257035E+03  0.66404258691E+03  0.10001287076E+04  0.14906741061E+04  0.46999998093E+01 0. -1.
</event>
<event>
 5   0  0.4005462E-05  0.2294069E+04  0.7818609E-02  0.8480263E-01
       -1   -1    0    0    0  501  0.00000000000E+00  0.00000000000E+00  0.11288106725E+04  0.11288106725E+04  0.50400001928E-02 0. -1.
        1   -1    0    0  501    0  0.00000000000E+00  0.00000000000E+00 -0.11655521222E+04  0.11655521222E+04  0.50400001928E-02 0.  1.
    10030    2    1    2    0    0  0.00000000000E+00  0.00000000000E+00 -0.36741449680E+02  0.22943627947E+04  0.22940685909E+04 0.  0.
        4    1    3    3  502    0  0.80356779079E+03  0.81487698211E+03  0.58712966064E+02  0.11459469951E+04  0.12699999809E+01 0.  1.
       -4    1    3    3    0  502 -0.80356779079E+03 -0.81487698211E+03 -0.95454415744E+02  0.11484157996E+04  0.12699999809E+01 0. -1.
</event>
<event>
 5   0  0.4295775E-05  0.2302692E+04  0.7818609E-02  0.8476861E-01
       -1   -1    0    0    0  501  0.00000000000E+00  0.00000000000E+00  0.60779633830E+03  0.60779633832E+03  0.50400001928E-02 0. -1.
        1   -1    0    0  501    0  0.00000000000E+00  0.00000000000E+00 -0.21809895311E+04  0.21809895311E+04  0.50400001928E-02 0.  1.
    10030    2    1    2    0    0  0.00000000000E+00  0.00000000000E+00 -0.15731931928E+04  0.27887858694E+04  0.23026918603E+04 0.  0.
        5    1    3    3  502    0  0.72923532485E+02 -0.44538767643E+03  0.49618867983E+03  0.67075578261E+03  0.46999998093E+01 0. -1.
       -5    1    3    3    0  502 -0.72923532485E+02  0.44538767643E+03 -0.20693818726E+04  0.21180300868E+04  0.46999998093E+01 0.  1.
</event>
<event>
 5   0  0.9535394E-05  0.2160896E+04  0.7818609E-02  0.8534883E-01
       -2   -1    0    0    0  501  0.00000000000E+00  0.00000000000E+00  0.50539222806E+03  0.50539222807E+03  0.25500000920E-02 0. -1.
        2   -1    0    0  501    0  0.00000000000E+00  0.00000000000E+00 -0.23098253679E+04  0.23098253679E+04  0.25500000920E-02 0.  1.
    10030    2    1    2    0    0  0.00000000000E+00  0.00000000000E+00 -0.18044331399E+04  0.28152175960E+04  0.21608959152E+04 0.  0.
        2    1    3    3  502    0  0.22353138001E+03  0.60544429647E+03  0.22667296927E+03  0.68403925982E+03  0.25500000920E-02 0. -1.
       -2    1    3    3    0  502 -0.22353138001E+03 -0.60544429647E+03 -0.20311061091E+04  0.21311783362E+04  0.25500000920E-02 0.  1.
</event>
<event>
 5   0  0.4139830E-05  0.2397335E+04  0.7818609E-02  0.8440502E-01
        1   -1    0    0  501    0  0.00000000000E+00  0.00000000000E+00  0.17970000577E+04  0.17970000577E+04  0.50400001928E-02 0.  1.
       -1   -1    0    0    0  501  0.00000000000E+00  0.00000000000E+00 -0.79955670421E+03  0.79955670423E+03  0.50400001928E-02 0. -1.
    10030    2    1    2    0    0  0.00000000000E+00  0.00000000000E+00  0.99744335346E+03  0.25965567619E+04  0.23973347231E+04 0.  0.
        1    1    3    3  502    0  0.29735094808E+03  0.46105842137E+03 -0.65558757972E+03  0.85486111676E+03  0.50400001928E-02 0. -1.
       -1    1    3    3    0  502 -0.29735094808E+03 -0.46105842137E+03  0.16530309332E+04  0.17416956451E+04  0.50400001928E-02 0.  1.
</event>
<event>
 5   0  0.3885219E-05  0.2283345E+04  0.7818609E-02  0.8484517E-01
       -1   -1    0    0    0  501  0.00000000000E+00  0.00000000000E+00  0.13456453447E+04  0.13456453447E+04  0.50400001928E-02 0.  1.
        1   -1    0    0  501    0  0.00000000000E+00  0.00000000000E+00 -0.96861786028E+03  0.96861786029E+03  0.50400001928E-02 0. -1.
    10030    2    1    2    0    0  0.00000000000E+00  0.00000000000E+00  0.37702748438E+03  0.23142632050E+04  0.22833450151E+04 0.  0.
        2    1    3    3  502    0 -0.28385980754E+03  0.31190321124E+03  0.12638017118E+04  0.13323118142E+04  0.25500000920E-02 0.  1.
       -2    1    3    3    0  502  0.28385980754E+03 -0.31190321124E+03 -0.88677422738E+03  0.98195139079E+03  0.25500000920E-02 0. -1.
</event>
<event>
 5   0  0.9483073E-05  0.2337489E+04  0.7818609E-02  0.8463285E-01
       -2   -1    0    0    0  501  0.00000000000E+00  0.00000000000E+00  0.13457875419E+04  0.13457875419E+04  0.25500000920E-02 0.  1.
        2   -1    0    0  501    0  0.00000000000E+00  0.00000000000E+00 -0.10149920069E+04  0.10149920069E+04  0.25500000920E-02 0. -1.
    10030    2    1    2    0    0  0.00000000000E+00  0.00000000000E+00  0.33079553501E+03  0.23607795488E+04  0.23374889074E+04 0.  0.
        5    1    3    3  502    0 -0.94635589329E+03 -0.36992347092E+03  0.74865405800E+03  0.12621164129E+04  0.46999998093E+01 0.  1.
       -5    1    3    3    0  502  0.94635589329E+03  0.36992347092E+03 -0.41785852299E+03  0.10986631360E+04  0.46999998093E+01 0. -1.
</event>
<event>
 5   0  0.9312074E-05  0.2352911E+04  0.7818609E-02  0.8457347E-01
        2   -1    0    0  501    0  0.00000000000E+00  0.00000000000E+00  0.16755411676E+04  0.16755411676E+04  0.25500000920E-02 0. -1.
       -2   -1    0    0    0  501  0.00000000000E+00  0.00000000000E+00 -0.82602982681E+03  0.82602982682E+03  0.25500000920E-02 0.  1.
    10030    2    1    2    0    0  0.00000000000E+00  0.00000000000E+00  0.84951134082E+03  0.25015709945E+04  0.23529105215E+04 0.  0.
        4    1    3    3  502    0 -0.30025142478E+03 -0.10649102867E+04 -0.33154767789E+00  0.11064296451E+04  0.12699999809E+01 0.  1.
       -4    1    3    3    0  502  0.30025142478E+03  0.10649102867E+04  0.84984288849E+03  0.13951413494E+04  0.12699999809E+01 0. -1.
</event>
<event>
 5   0  0.3885219E-05  0.2297397E+04  0.7818609E-02  0.8478948E-01
        1   -1    0    0  501    0  0.00000000000E+00  0.00000000000E+00  0.16319360958E+04  0.16319360958E+04  0.50400001928E-02 0. -1.
       -1   -1    0    0    0  501  0.00000000000E+00  0.00000000000E+00 -0.80855413320E+03  0.80855413322E+03  0.50400001928E-02 0.  1.
    10030    2    1    2    0    0  0.00000000000E+00  0.00000000000E+00  0.82338196259E+03  0.24404902290E+04  0.22973973756E+04 0.  0.
        2    1    3    3  502    0  0.10661422614E+04  0.37939134933E+03  0.62123740916E+03  0.12909426928E+04  0.25500000920E-02 0.  1.
       -2    1    3    3    0  502 -0.10661422614E+04 -0.37939134933E+03  0.20214455343E+03  0.11495475362E+04  0.25500000920E-02 0. -1.
</event>
<event>
 5   0  0.4095451E-05  0.2256812E+04  0.7818609E-02  0.8495147E-01
        1   -1    0    0  501    0  0.00000000000E+00  0.00000000000E+00  0.17103730200E+04  0.17103730200E+04  0.50400001928E-02 0.  1.
       -1   -1    0    0    0  501  0.00000000000E+00  0.00000000000E+00 -0.74445780389E+03  0.74445780390E+03  0.50400001928E-02 0. -1.
    10030    2    1    2    0    0  0.00000000000E+00  0.00000000000E+00  0.96591521611E+03  0.24548308239E+04  0.22568123913E+04 0.  0.
        3    1    3    3  502    0 -0.58764580888E+03  0.57214070159E+03 -0.36004492630E+03  0.89571476390E+03  0.10100000352E+00 0. -1.
       -3    1    3    3    0  502  0.58764580888E+03 -0.57214070159E+03  0.13259601424E+04  0.15591160600E+04  0.10100000352E+00 0.  1.
</event>
<event>
 5   0  0.3885219E-05  0.2260905E+04  0.7818609E-02  0.8493497E-01
        1   -1    0    0  501    0  0.00000000000E+00  0.00000000000E+00  0.13548346824E+04  0.13548346824E+04  0.50400001928E-02 0.  1.
       -1   -1    0    0    0  501  0.00000000000E+00  0.00000000000E+00 -0.94323160421E+03  0.94323160422E+03  0.50400001928E-02 0. -1.
    10030    2    1    2    0    0  0.00000000000E+00  0.00000000000E+00  0.41160307823E+03  0.22980662867E+04  0.22609050320E+04 0.  0.
        2    1    3    3  502    0  0.82948920067E+03  0.19838855883E+03  0.95996213609E+03  0.12841096748E+04  0.25500000920E-02 0.  1.
       -2    1    3    3    0  502 -0.82948920067E+03 -0.19838855883E+03 -0.54835905786E+03  0.10139566118E+04  0.25500000920E-02 0. -1.
</event>
<event>
 5   0  0.9641157E-05  0.2304388E+04  0.7818609E-02  0.8476193E-01
       -2   -1    0    0    0  501  0.00000000000E+00  0.00000000000E+00  0.80805844729E+03  0.80805844729E+03  0.25500000920E-02 0.  1.
        2   -1    0    0  501    0  0.00000000000E+00  0.00000000000E+00 -0.16428894954E+04  0.16428894954E+04  0.25500000920E-02 0. -1.
    10030    2    1    2    0    0  0.00000000000E+00  0.00000000000E+00 -0.83483104814E+03  0.24509479427E+04  0.23043877580E+04 0.  0.
        3    1    3    3  502    0 -0.26375908091E+03  0.22942648474E+03  0.75029253592E+03  0.82773441654E+03  0.10100000352E+00 0.  1.
       -3    1    3    3    0  502  0.26375908091E+03 -0.22942648474E+03 -0.15851235841E+04  0.16232135262E+04  0.10100000352E+00 0. -1.
</event>
<event>
 5   0  0.4295775E-05  0.2279506E+04  0.7818609E-02  0.8486046E-01
       -1   -1    0    0    0  501  0.00000000000E+00  0.00000000000E+00  0.60398121775E+03  0.60398121778E+03  0.50400001928E-02 0.  1.
        1   -1    0    0  501    0  0.00000000000E+00  0.00000000000E+00 -0.21507901287E+04  0.21507901287E+04  0.50400001928E-02 0. -1.
    10030    2    1    2    0    0  0.00000000000E+00  0.00000000000E+00 -0.15468089109E+04  0.27547713464E+04  0.22795059474E+04 0.  0.
        5    1    3    3  502    0  0.31815373819E+03  0.10780950034E+04 -0.54569337488E+03  0.12495255047E+04  0.46999998093E+01 0.  1.
       -5    1    3    3    0  502 -0.31815373819E+03 -0.10780950034E+04 -0.10011155360E+04  0.15052458417E+04  0.46999998093E+01 0. -1.
</event>
<event>
 5   0  0.4005462E-05  0.2323956E+04  0.7818609E-02  0.8468535E-01
       -1   -1    0    0    0  501  0.00000000000E+00  0.00000000000E+00  0.76369585619E+03  0.76369585621E+03  0.50400001928E-02 0.  1.
        1   -1    0    0  501    0  0.00000000000E+00  0.00000000000E+00 -0.17679719410E+04  0.17679719410E+04  0.50400001928E-02 0. -1.
    10030    2    1    2    0    0  0.00000000000E+00  0.00000000000E+00 -0.10042760848E+04  0.25316677972E+04  0.23239559765E+04 0.  0.
        4    1    3    3  502    0 -0.44991151104E+03  0.68033068988E+02  0.66260193181E+03  0.80379835729E+03  0.12699999809E+01 0.  1.
       -4    1    3    3    0  502  0.44991151104E+03 -0.68033068988E+02 -0.16668780166E+04  0.17278694399E+04  0.12699999809E+01 0. -1.
</event>
<event>
 5   0  0.4095451E-05  0.2180384E+04  0.7818609E-02  0.8526637E-01
       -1   -1    0    0    0  501  0.00000000000E+00  0.00000000000E+00  0.74437564227E+03  0.74437564229E+03  0.50400001928E-02 0. -1.
        1   -1    0    0  501    0  0.00000000000E+00  0.00000000000E+00 -0.15966654307E+04  0.15966654307E+04  0.50400001928E-02 0.  1.
    10030    2    1    2    0    0  0.00000000000E+00  0.00000000000E+00 -0.85228978843E+03  0.23410410730E+04  0.21803842372E+04 0.  0.
        3    1    3    3  502    0 -0.10343374882E+04 -0.13232141756E+02 -0.56558198427E+02  0.10359671660E+04  0.10100000352E+00 0. -1.
       -3    1    3    3    0  502  0.10343374882E+04  0.13232141756E+02 -0.79573159000E+03  0.13050739070E+04  0.10100000352E+00 0.  1.
</event>
<event>
 5   0  0.9313463E-05  0.2272980E+04  0.7818609E-02  0.8488651E-01
        2   -1    0    0  501    0  0.00000000000E+00  0.00000000000E+00  0.27738445045E+04  0.27738445045E+04  0.25500000920E-02 0. -1.
       -2   -1    0    0    0  501  0.00000000000E+00  0.00000000000E+00 -0.46563879590E+03  0.46563879591E+03  0.25500000920E-02 0.  1.
    10030    2    1    2    0    0  0.00000000000E+00  0.00000000000E+00  0.23082057086E+04  0.32394833004E+04  0.22729800836E+04 0.  0.
        1    1    3    3  502    0 -0.11307570044E+04  0.11315747113E+03  0.11342724596E+04  0.16056120419E+04  0.50400001928E-02 0. -1.
       -1    1    3    3    0  502  0.11307570044E+04 -0.11315747113E+03  0.11739332490E+04  0.16338712585E+04  0.50400001928E-02 0.  1.
</event>
<event>
 5   0  0.4139830E-05  0.2319933E+04  0.7818609E-02  0.8470103E-01
       -1   -1    0    0    0  501  0.00000000000E+00  0.00000000000E+00  0.85367046544E+03  0.85367046545E+03  0.50400001928E-02 0.  1.
        1   -1    0    0  501    0  0.00000000000E+00  0.00000000000E+00 -0.15761607130E+04  0.15761607130E+04  0.50400001928E-02 0. -1.
    10030    2    1    2    0    0  0.00000000000E+00  0.00000000000E+00 -0.72249024756E+03  0.24298311785E+04  0.23199326279E+04 0.  0.
        1    1    3    3  502    0  0.12409816341E+03 -0.80855275153E+03 -0.12226175222E+04  0.14710375630E+04  0.50400001928E-02 0. -1.
       -1    1    3    3    0  502 -0.12409816341E+03  0.80855275153E+03  0.50012727463E+03  0.95879361545E+03  0.50400001928E-02 0.  1.
</event>
<event>
 5   0  0.9641157E-05  0.2304493E+04  0.7818609E-02  0.8476152E-01
        2   -1    0    0  501    0  0.00000000000E+00  0.00000000000E+00  0.12693070616E+04  0.12693070616E+04  0.25500000920E-02 0.  1.
       -2   -1    0    0    0  501  0.00000000000E+00  0.00000000000E+00 -0.10459818730E+04  0.10459818730E+04  0.25500000920E-02 0. -1.
    10030    2    1    2    0    0  0.00000000000E+00  0.00000000000E+00  0.22332518863E+03  0.23152889346E+04  0.23044931570E+04 0.  0.
        3    1    3    3  502    0 -0.62183604764E+02 -0.75075755564E+03  0.98762344429E+03  0.12421367823E+04  0.10100000352E+00 0.  1.
       -3    1    3    3    0  502  0.62183604764E+02  0.75075755564E+03 -0.76429825567E+03  0.10731521522E+04  0.10100000352E+00 0. -1.
</event>
<event>
 5   0  0.9641157E-05  0.2260981E+04  0.7818609E-02  0.8493467E-01
       -2   -1    0    0    0  501  0.00000000000E+00  0.00000000000E+00  0.93296227770E+03  0.93296227770E+03  0.25500000920E-02 0. -1.
        2   -1    0    0  501    0  0.00000000000E+00  0.00000000000E+00 -0.13698393152E+04  0.13698393152E+04  0.25500000920E-02 0.  1.
    10030    2    1    2    0    0  0.00000000000E+00  0.00000000000E+00 -0.43687703750E+03  0.23028015929E+04  0.22609806789E+04 0.  0.
        3    1    3    3  502    0 -0.70349592955E+03  0.58850724971E+03  0.45466465983E+03  0.10237027249E+04  0.10100000352E+00 0. -1.
       -3    1    3    3    0  502  0.70349592955E+03 -0.58850724971E+03 -0.89154169732E+03  0.12790988680E+04  0.10100000352E+00 0.  1.
</event>
<event>
 5   0  0.9312074E-05  0.2342222E+04  0.7818609E-02  0.8461457E-01
        2   -1    0    0  501    0  0.00000000000E+00  0.00000000000E+00  0.22971917234E+04  0.22971917234E+04  0.25500000920E-02 0. -1.
       -2   -1    0    0    0  501  0.00000000000E+00  0.00000000000E+00 -0.59703377203E+03  0.59703377203E+03  0.25500000920E-02 0.  1.
    10030    2    1    2    0    0  0.00000000000E+00  0.00000000000E+00  0.17001579514E+04  0.28942254955E+04  0.23422220559E+04 0.  0.
        4    1    3    3  502    0 -0.83384892991E+03  0.41818809356E+03 -0.24822727018E+02  0.93316831289E+03  0.12699999809E+01 0.  1.
       -4    1    3    3    0  502  0.83384892991E+03 -0.41818809356E+03  0.17249806784E+04  0.19610571826E+04  0.12699999809E+01 0. -1.
</event>
<event>
 5   0  0.4095451E-05  0.2287637E+04  0.7818609E-02  0.8482812E-01
        1   -1    0    0  501    0  0.00000000000E+00  0.00000000000E+00  0.19516690440E+04  0.19516690441E+04  0.50400001928E-02 0.  1.
       -1   -1    0    0    0  501  0.00000000000E+00  0.00000000000E+00 -0.67036013547E+03  0.67036013549E+03  0.50400001928E-02 0. -1.
    10030    2    1    2    0    0  0.00000000000E+00  0.00000000000E+00  0.12813089086E+04  0.26220291796E+04  0.22876373181E+04 0.  0.
        3    1    3    3  502    0  0.32596326875E+03 -0.18059215226E+03  0.18801421076E+04  0.19167159240E+04  0.10100000352E+00 0.  1.
       -3    1    3    3    0  502 -0.32596326875E+03  0.18059215226E+03 -0.59883319906E+03  0.70531325560E+03  0.10100000352E+00 0. -1.
</event>
<event>
 5   0  0.9312074E-05  0.1971136E+04  0.7818609E-02  0.8620236E-01
       -2   -1    0    0    0  501  0.00000000000E+00  0.00000000000E+00  0.10664809052E+04  0.10664809052E+04  0.25500000920E-02 0. -1.
        2   -1    0    0  501    0  0.00000000000E+00  0.00000000000E+00 -0.91079395852E+03  0.91079395853E+03  0.25500000920E-02 0.  1.
    10030    2    1    2    0    0  0.00000000000E+00  0.00000000000E+00  0.15568694670E+03  0.19772748638E+04  0.19711360840E+04 0.  0.
        4    1    3    3  502    0 -0.17439407991E+01 -0.77019789841E+03 -0.53899836553E+03  0.94006845229E+03  0.12699999809E+01 0.  1.
       -4    1    3    3    0  502  0.17439407991E+01  0.77019789841E+03  0.69468531223E+03  0.10372064115E+04  0.12699999809E+01 0. -1.
</event>
<event>
 5   0  0.4295775E-05  0.2275261E+04  0.7818609E-02  0.8487740E-01
       -1   -1    0    0    0  501  0.00000000000E+00  0.00000000000E+00  0.96661238944E+03  0.96661238946E+03  0.50400001928E-02 0.  1.
        1   -1    0    0  501    0  0.00000000000E+00  0.00000000000E+00 -0.13389058944E+04  0.13389058944E+04  0.50400001928E-02 0. -1.
    10030    2    1    2    0    0  0.00000000000E+00  0.00000000000E+00 -0.37229350494E+03  0.23055182838E+04  0.22752608869E+04 0.  0.
        5    1    3    3  502    0 -0.39428881519E+03  0.56220568434E+03  0.73291103237E+03  0.10043503237E+04  0.46999998093E+01 0.  1.
       -5    1    3    3    0  502  0.39428881519E+03 -0.56220568434E+03 -0.11052045373E+04  0.13011679602E+04  0.46999998093E+01 0. -1.
</event>
<event>
 5   0  0.9313463E-05  0.2314114E+04  0.7818609E-02  0.8472377E-01
       -2   -1    0    0    0  501  0.00000000000E+00  0.00000000000E+00  0.12287161758E+04  0.12287161758E+04  0.25500000920E-02 0.  1.
        2   -1    0    0  501    0  0.00000000000E+00  0.00000000000E+00 -0.10895770065E+04  0.10895770065E+04  0.25500000920E-02 0. -1.
    10030    2    1    2    0    0  0.00000000000E+00  0.00000000000E+00  0.13913916936E+03  0.23182931823E+04  0.23141139926E+04 0.  0.
        1    1    3    3  502    0 -0.64136383366E+03  0.93578280270E+03  0.29745318393E+03  0.11728236942E+04  0.50400001928E-02 0. -1.
       -1    1    3    3    0  502  0.64136383366E+03 -0.93578280270E+03 -0.15831401457E+03  0.11454694881E+04  0.50400001928E-02 0.  1.
</event>
<event>
 5   0  0.3885219E-05  0.1775717E+04  0.7818609E-02  0.8719321E-01
        1   -1    0    0  501    0  0.00000000000E+00  0.00000000000E+00  0.14358976183E+04  0.14358976183E+04  0.50400001928E-02 0.  1.
       -1   -1    0    0    0  501  0.00000000000E+00  0.00000000000E+00 -0.54898922239E+03  0.54898922242E+03  0.50400001928E-02 0. -1.
    10030    2    1    2    0    0  0.00000000000E+00  0.00000000000E+00  0.88690839587E+03  0.19848868407E+04  0.17757165505E+04 0.  0.
        2    1    3    3  502    0 -0.17386296305E+03  0.62809118153E+03 -0.23053574358E+03  0.69128401639E+03  0.25500000920E-02 0. -1.
       -2    1    3    3    0  502  0.17386296305E+03 -0.62809118153E+03  0.11174441395E+04  0.12936028243E+04  0.25500000920E-02 0.  1.
</event>
<event>
 5   0  0.9483073E-05  0.2344616E+04  0.7818609E-02  0.8460534E-01
       -2   -1    0    0    0  501  0.00000000000E+00  0.00000000000E+00  0.61252500175E+03  0.61252500175E+03  0.25500000920E-02 0.  1.
        2   -1    0    0  501    0  0.00000000000E+00  0.00000000000E+00 -0.22436741387E+04  0.22436741387E+04  0.25500000920E-02 0. -1.
    10030    2    1    2    0    0  0.00000000000E+00  0.00000000000E+00 -0.16311491369E+04  0.28561991404E+04  0.23446163914E+04 0.  0.
        5    1    3    3  502    0  0.51933743750E+03  0.10506348408E+04 -0.78244789068E+03  0.14091812283E+04  0.46999998093E+01 0. -1.
       -5    1    3    3    0  502 -0.51933743750E+03 -0.10506348408E+04 -0.84870124626E+03  0.14470179121E+04  0.46999998093E+01 0.  1.
</event>
<event>
 5   0  0.4095451E-05  0.2308874E+04  0.7818609E-02  0.8474431E-01
        1   -1    0    0  501    0  0.00000000000E+00  0.00000000000E+00  0.20516565529E+04  0.20516565529E+04  0.50400001928E-02 0. -1.
       -1   -1    0    0    0  501  0.00000000000E+00  0.00000000000E+00 -0.64958455694E+03  0.64958455696E+03  0.50400001928E-02 0.  1.
    10030    2    1    2    0    0  0.00000000000E+00  0.00000000000E+00  0.14020719960E+04  0.27012411099E+04  0.23088736760E+04 0.  0.
        3    1    3    3  502    0  0.37461330670E+03  0.10185681244E+04  0.11615050545E+04  0.15896257910E+04  0.10100000352E+00 0. -1.
       -3    1    3    3    0  502 -0.37461330670E+03 -0.10185681244E+04  0.24056694151E+03  0.11116153189E+04  0.10100000352E+00 0.  1.
</event>
<event>
 5   0  0.4095451E-05  0.2281823E+04  0.7818609E-02  0.8485123E-01
        1   -1    0    0  501    0  0.00000000000E+00  0.00000000000E+00  0.95691055944E+03  0.95691055946E+03  0.50400001928E-02 0.  1.
       -1   -1    0    0    0  501  0.00000000000E+00  0.00000000000E+00 -0.13602930857E+04  0.13602930857E+04  0.50400001928E-02 0. -1.
    10030    2    1    2    0    0  0.00000000000E+00  0.00000000000E+00 -0.40338252626E+03  0.23172036452E+04  0.22818227956E+04 0.  0.
        3    1    3    3  502    0 -0.16612010878E+03 -0.11612145291E+03  0.93848165261E+03  0.96011869311E+03  0.10100000352E+00 0.  1.
       -3    1    3    3    0  502  0.16612010878E+03  0.11612145291E+03 -0.13418641789E+04  0.13570849521E+04  0.10100000352E+00 0. -1.
</event>
<event>
 5   0  0.3261500E-05  0.2367322E+04  0.7818609E-02  0.8451840E-01
        3   -1    0    0  501    0  0.00000000000E+00  0.00000000000E+00  0.76850910750E+03  0.76850911414E+03  0.10100000352E+00 0.  1.
       -3   -1    0    0    0  501  0.00000000000E+00  0.00000000000E+00 -0.18230802295E+04  0.18230802323E+04  0.10100000352E+00 0. -1.
    10030    2    1    2    0    0  0.00000000000E+00  0.00000000000E+00 -0.10545711220E+04  0.25915893465E+04  0.23673223459E+04 0.  0.
        1    1    3    3  502    0  0.69817951476E+03  0.62797928483E+03 -0.13161335854E+04  0.16167931938E+04  0.50400001928E-02 0. -1.
       -1    1    3    3    0  502 -0.69817951476E+03 -0.62797928483E+03  0.26156246332E+03  0.97479615266E+03  0.50400001928E-02 0.  1.
</event>
<event>
 5   0  0.4139830E-05  0.2248389E+04  0.7818609E-02  0.8498553E-01
        1   -1    0    0  501    0  0.00000000000E+00  0.00000000000E+00  0.19868265355E+04  0.19868265355E+04  0.50400001928E-02 0. -1.
       -1   -1    0    0    0  501  0.00000000000E+00  0.00000000000E+00 -0.63609652558E+03  0.63609652560E+03  0.50400001928E-02 0.  1.
    10030    2    1    2    0    0  0.00000000000E+00  0.00000000000E+00  0.13507300099E+04  0.26229230611E+04  0.22483891622E+04 0.  0.
        1    1    3    3  502    0 -0.54484276409E+03  0.87259941920E+03  0.14649156694E+03  0.10391069065E+04  0.50400001928E-02 0.  1.
       -1    1    3    3    0  502  0.54484276409E+03 -0.87259941920E+03  0.12042384430E+04  0.15838161546E+04  0.50400001928E-02 0. -1.
</event>
<event>
 5   0  0.3885219E-05  0.1548857E+04  0.7818609E-02  0.8852598E-01
        1   -1    0    0  501    0  0.00000000000E+00  0.00000000000E+00  0.71123715529E+03  0.71123715531E+03  0.50400001928E-02 0.  1.
       -1   -1    0    0    0  501  0.00000000000E+00  0.00000000000E+00 -0.84323375930E+03  0.84323375932E+03  0.50400001928E-02 0. -1.
    10030    2    1    2    0    0  0.00000000000E+00  0.00000000000E+00 -0.13199660401E+03  0.15544709146E+04  0.15488565850E+04 0.  0.
        2    1    3    3  502    0 -0.82274394377E+02 -0.40835573068E+03  0.58922014545E+03  0.72159812815E+03  0.25500000920E-02 0.  1.
       -2    1    3    3    0  502  0.82274394377E+02  0.40835573068E+03 -0.72121674946E+03  0.83287278648E+03  0.25500000920E-02 0. -1.
</event>
<event>
 5   0  0.4295775E-05  0.2273485E+04  0.7818609E-02  0.8488450E-01
       -1   -1    0    0    0  501  0.00000000000E+00  0.00000000000E+00  0.55705652301E+03  0.55705652303E+03  0.50400001928E-02 0.  1.
        1   -1    0    0  501    0  0.00000000000E+00  0.00000000000E+00 -0.23196630258E+04  0.23196630258E+04  0.50400001928E-02 0. -1.
    10030    2    1    2    0    0  0.00000000000E+00  0.00000000000E+00 -0.17626065028E+04  0.28767195488E+04  0.22734849194E+04 0.  0.
        5    1    3    3  502    0 -0.76629939004E+03 -0.65341353293E+03 -0.21414976655E+03  0.10295854567E+04  0.46999998093E+01 0.  1.
       -5    1    3    3    0  502  0.76629939004E+03  0.65341353293E+03 -0.15484567362E+04  0.18471340921E+04  0.46999998093E+01 0. -1.
</event>
<event>
 5   0  0.9483073E-05  0.2090182E+04  0.7818609E-02  0.8565581E-01
       -2   -1    0    0    0  501  0.00000000000E+00  0.00000000000E+00  0.13464124931E+04  0.13464124931E+04  0.25500000920E-02 0. -1.
        2   -1    0    0  501    0  0.00000000000E+00  0.00000000000E+00 -0.81120381090E+03  0.81120381091E+03  0.25500000920E-02 0.  1.
    10030    2    1    2    0    0  0.00000000000E+00  0.00000000000E+00  0.53520868223E+03  0.21576163040E+04  0.20901817581E+04 0.  0.
        5    1    3    3  502    0 -0.10419049052E+03  0.10859754880E+03 -0.79994865350E+03  0.81399571508E+03  0.46999998093E+01 0.  1.
       -5    1    3    3    0  502  0.10419049052E+03 -0.10859754880E+03  0.13351573357E+04  0.13436205890E+04  0.46999998093E+01 0. -1.
</event>
<event>
 5   0  0.4295775E-05  0.2293737E+04  0.7818609E-02  0.8480395E-01
       -1   -1    0    0    0  501  0.00000000000E+00  0.00000000000E+00  0.10856194865E+04  0.10856194865E+04  0.50400001928E-02 0.  1.
        1   -1    0    0  501    0  0.00000000000E+00  0.00000000000E+00 -0.12115726083E+04  0.12115726083E+04  0.50400001928E-02 0. -1.
    10030    2    1    2    0    0  0.00000000000E+00  0.00000000000E+00 -0.12595312174E+03  0.22971920948E+04  0.22937365436E+04 0.  0.
        5    1    3    3  502    0 -0.76506034283E+03 -0.78244621761E+02 -0.91504921369E+03  0.11953144785E+04  0.46999998093E+01 0. -1.
       -5    1    3    3    0  502  0.76506034283E+03  0.78244621761E+02  0.78909609195E+03  0.11018776163E+04  0.46999998093E+01 0.  1.
</event>
<event>
 5   0  0.9313463E-05  0.2304195E+04  0.7818609E-02  0.8476269E-01
        2   -1    0    0  501    0  0.00000000000E+00  0.00000000000E+00  0.11820442995E+04  0.11820442995E+04  0.25500000920E-02 0. -1.
       -2   -1    0    0    0  501  0.00000000000E+00  0.00000000000E+00 -0.11229090609E+04  0.11229090609E+04  0.25500000920E-02 0.  1.
    10030    2    1    2    0    0  0.00000000000E+00  0.00000000000E+00  0.59135238525E+02  0.23049533604E+04  0.23041946570E+04 0.  0.
        1    1    3    3  502    0 -0.62042506024E+03  0.71571223039E+03  0.68564713035E+03  0.11693088726E+04  0.50400001928E-02 0. -1.
       -1    1    3    3    0  502  0.62042506024E+03 -0.71571223039E+03 -0.62651189182E+03  0.11356444878E+04  0.50400001928E-02 0.  1.
</event>
<event>
 5   0  0.4139830E-05  0.2327653E+04  0.7818609E-02  0.8467097E-01
       -1   -1    0    0    0  501  0.00000000000E+00  0.00000000000E+00  0.15793660698E+04  0.15793660698E+04  0.50400001928E-02 0. -1.
        1   -1    0    0  501    0  0.00000000000E+00  0.00000000000E+00 -0.85761773735E+03  0.85761773737E+03  0.50400001928E-02 0.  1.
    10030    2    1    2    0    0  0.00000000000E+00  0.00000000000E+00  0.72174833241E+03  0.24369838071E+04  0.23276532003E+04 0.  0.
        1    1    3    3  502    0  0.98851593039E+03 -0.36575005826E+03  0.87756807791E+03  0.13715183488E+04  0.50400001928E-02 0. -1.
       -1    1    3    3    0  502 -0.98851593039E+03  0.36575005826E+03 -0.15581974550E+03  0.10654654583E+04  0.50400001928E-02 0.  1.
</event>
<event>
 5   0  0.9312074E-05  0.2226992E+04  0.7818609E-02  0.8507277E-01
        2   -1    0    0  501    0  0.00000000000E+00  0.00000000000E+00  0.12592289013E+04  0.12592289013E+04  0.25500000920E-02 0.  1.
       -2   -1    0    0    0  501  0.00000000000E+00  0.00000000000E+00 -0.98462866314E+03  0.98462866314E+03  0.25500000920E-02 0. -1.
    10030    2    1    2    0    0  0.00000000000E+00  0.00000000000E+00  0.27460023811E+03  0.22438575644E+04  0.22269915758E+04 0.  0.
        4    1    3    3  502    0 -0.80625933182E+03  0.24458904681E+03 -0.59621981246E+03  0.10321616102E+04  0.12699999809E+01 0. -1.
       -4    1    3    3    0  502  0.80625933182E+03 -0.24458904681E+03  0.87082005057E+03  0.12116959542E+04  0.12699999809E+01 0.  1.
</event>
<event>
 5   0  0.9641157E-05  0.2173553E+04  0.7818609E-02  0.8529517E-01
       -2   -1    0    0    0  501  0.00000000000E+00  0.00000000000E+00  0.12102942062E+04  0.12102942062E+04  0.25500000920E-02 0. -1.
        2   -1    0    0  501    0  0.00000000000E+00  0.00000000000E+00 -0.97586465213E+03  0.97586465213E+03  0.25500000920E-02 0.  1.
    10030    2    1    2    0    0  0.00000000000E+00  0.00000000000E+00  0.23442955407E+03  0.21861588583E+04  0.21735531597E+04 0.  0.
        3    1    3    3  502    0 -0.63395795879E+03  0.30849575951E+02  0.10045038587E+04  0.11882265787E+04  0.10100000352E+00 0. -1.
       -3    1    3    3    0  502  0.63395795879E+03 -0.30849575951E+02 -0.77007430468E+03  0.99793227965E+03  0.10100000352E+00 0.  1.
</event>
<event>
 5   0  0.4095451E-05  0.2310507E+04  0.7818609E-02  0.8473790E-01
        1   -1    0    0  501    0  0.00000000000E+00  0.00000000000E+00  0.15594209001E+04  0.15594209001E+04  0.50400001928E-02 0. -1.
       -1   -1    0    0    0  501  0.00000000000E+00  0.00000000000E+00 -0.85583744758E+03  0.85583744759E+03  0.50400001928E-02 0.  1.
    10030    2    1    2    0    0  0.00000000000E+00  0.00000000000E+00  0.70358345248E+03  0.24152583477E+04  0.23105071329E+04 0.  0.
        3    1    3    3  502    0 -0.32206697623E+03  0.10931158795E+04  0.55007901797E+03  0.12653917968E+04  0.10100000352E+00 0. -1.
       -3    1    3    3    0  502  0.32206697623E+03 -0.10931158795E+04  0.15350443452E+03  0.11498665509E+04  0.10100000352E+00 0.  1.
</event>
<event>
 5   0  0.4295775E-05  0.2126926E+04  0.7818609E-02  0.8549474E-01
       -1   -1    0    0    0  501  0.00000000000E+00  0.00000000000E+00  0.96840055185E+03  0.96840055187E+03  0.50400001928E-02 0. -1.
        1   -1    0    0  501    0  0.00000000000E+00  0.00000000000E+00 -0.11678575177E+04  0.11678575177E+04  0.50400001928E-02 0.  1.
    10030    2    1    2    0    0  0.00000000000E+00  0.00000000000E+00 -0.19945696586E+03  0.21362580696E+04  0.21269262937E+04 0.  0.
        5    1    3    3  502    0  0.61435065870E+03  0.86639180896E+03 -0.15353849875E+03  0.10731531387E+04  0.46999998093E+01 0. -1.
       -5    1    3    3    0  502 -0.61435065870E+03 -0.86639180896E+03 -0.45918467112E+02  0.10631049309E+04  0.46999998093E+01 0.  1.
</event>
<event>
 5   0  0.3261500E-05  0.2328339E+04  0.7818609E-02  0.8466830E-01
        3   -1    0    0  501    0  0.00000000000E+00  0.00000000000E+00  0.92285080854E+03  0.92285081407E+03  0.10100000352E+00 0.  1.
       -3   -1    0    0    0  501  0.00000000000E+00  0.00000000000E+00 -0.14685917344E+04  0.14685917379E+04  0.10100000352E+00 0. -1.
    10030    2    1    2    0    0  0.00000000000E+00  0.00000000000E+00 -0.54574092585E+03  0.23914425519E+04  0.23283393913E+04 0.  0.
        5    1    3    3  502    0  0.83232752749E+03 -0.26862808929E+03 -0.10620291486E+04  0.13758118207E+04  0.46999998093E+01 0. -1.
       -5    1    3    3    0  502 -0.83232752749E+03  0.26862808929E+03  0.51628822275E+03  0.10156307313E+04  0.46999998093E+01 0.  1.
</event>
<event>
 5   0  0.4005462E-05  0.2257673E+04  0.7818609E-02  0.8494799E-01
       -1   -1    0    0    0  501  0.00000000000E+00  0.00000000000E+00  0.88838589510E+03  0.88838589512E+03  0.50400001928E-02 0.  1.
        1   -1    0    0  501    0  0.00000000000E+00  0.00000000000E+00 -0.14343676120E+04  0.14343676120E+04  0.50400001928E-02 0. -1.
    10030    2    1    2    0    0  0.00000000000E+00  0.00000000000E+00 -0.54598171692E+03  0.23227535071E+04  0.22576730985E+04 0.  0.
        4    1    3    3  502    0  0.75035277637E+01  0.81102387571E+03  0.53478805829E+03  0.97150188373E+03  0.12699999809E+01 0.  1.
       -4    1    3    3    0  502 -0.75035277637E+01 -0.81102387571E+03 -0.10807697752E+04  0.13512516234E+04  0.12699999809E+01 0. -1.
</event>
<event>
 5   0  0.9483073E-05  0.2313057E+04  0.7818609E-02  0.8472791E-01
       -2   -1    0    0    0  501  0.00000000000E+00  0.00000000000E+00  0.67620597110E+03  0.67620597110E+03  0.25500000920E-02 0.  1.
        2   -1    0    0  501    0  0.00000000000E+00  0.00000000000E+00 -0.19780334371E+04  0.19780334371E+04  0.25500000920E-02 0. -1.
    10030    2    1    2    0    0  0.00000000000E+00  0.00000000000E+00 -0.13018274660E+04  0.26542394082E+04  0.23130568702E+04 0.  0.
        5    1    3    3  502    0  0.55682896740E+03 -0.70341464349E+03 -0.14884220465E+04  0.17378932470E+04  0.46999998093E+01 0.  1.
       -5    1    3    3    0  502 -0.55682896740E+03  0.70341464349E+03  0.18659458049E+03  0.91634616116E+03  0.46999998093E+01 0. -1.
</event>
<event>
 5   0  0.9535394E-05  0.2343650E+04  0.7818609E-02  0.8460907E-01
       -2   -1    0    0    0  501  0.00000000000E+00  0.00000000000E+00  0.53616522379E+03  0.53616522379E+03  0.25500000920E-02 0.  1.
        2   -1    0    0  501    0  0.00000000000E+00  0.00000000000E+00 -0.25611021508E+04  0.25611021508E+04  0.25500000920E-02 0. -1.
    10030    2    1    2    0    0  0.00000000000E+00  0.00000000000E+00 -0.20249369270E+04  0.30972673745E+04  0.23436500659E+04 0.  0.
        2    1    3    3  502    0 -0.10486417855E+04  0.26020252379E+03 -0.16120228997E+04  0.19406114441E+04  0.25500000920E-02 0.  1.
       -2    1    3    3    0  502  0.10486417855E+04 -0.26020252379E+03 -0.41291402722E+03  0.11566559305E+04  0.25500000920E-02 0. -1.
</event>
<event>
 5   0  0.9641157E-05  0.2221190E+04  0.7818609E-02  0.8509660E-01
       -2   -1    0    0    0  501  0.00000000000E+00  0.00000000000E+00  0.82960554313E+03  0.82960554314E+03  0.25500000920E-02 0.  1.
        2   -1    0    0  501    0  0.00000000000E+00  0.00000000000E+00 -0.14867563662E+04  0.14867563662E+04  0.25500000920E-02 0. -1.
    10030    2    1    2    0    0  0.00000000000E+00  0.00000000000E+00 -0.65715082304E+03  0.23163619093E+04  0.22211900618E+04 0.  0.
        3    1    3    3  502    0 -0.90067810191E+03 -0.55941005043E+02  0.34651887352E+03  0.96665701219E+03  0.10100000352E+00 0.  1.
       -3    1    3    3    0  502  0.90067810191E+03  0.55941005043E+02 -0.10036696966E+04  0.13497048971E+04  0.10100000352E+00 0. -1.
</event>
<event>
 5   0  0.9535394E-05  0.2257991E+04  0.7818609E-02  0.8494671E-01
        2   -1    0    0  501    0  0.00000000000E+00  0.00000000000E+00  0.16108553632E+04  0.16108553632E+04  0.25500000920E-02 0.  1.
       -2   -1    0    0    0  501  0.00000000000E+00  0.00000000000E+00 -0.79127608095E+03  0.79127608096E+03  0.25500000920E-02 0. -1.
    10030    2    1    2    0    0  0.00000000000E+00  0.00000000000E+00  0.81957928223E+03  0.24021314441E+04  0.22579914249E+04 0.  0.
        2    1    3    3  502    0  0.24962849816E+03  0.68740235406E+03 -0.50522945308E+03  0.88887186013E+03  0.25500000920E-02 0. -1.
       -2    1    3    3    0  502 -0.24962849816E+03 -0.68740235406E+03  0.13248087353E+04  0.15132595840E+04  0.25500000920E-02 0.  1.
</event>
<event>
 5   0  0.9641157E-05  0.2296235E+04  0.7818609E-02  0.8479407E-01
       -2   -1    0    0    0  501  0.00000000000E+00  0.00000000000E+00  0.12534789113E+04  0.12534789113E+04  0.25500000920E-02 0. -1.
        2   -1    0    0  501    0  0.00000000000E+00  0.00000000000E+00 -0.10516121503E+04  0.10516121503E+04  0.25500000920E-02 0.  1.
    10030    2    1    2    0    0  0.00000000000E+00  0.00000000000E+00  0.20186676098E+03  0.23050910616E+04  0.22962348776E+04 0.  0.
        3    1    3    3  502    0  0.71664560400E+03 -0.21715359920E+03  0.97459859785E+03  0.12290561600E+04  0.10100000352E+00 0. -1.
       -3    1    3    3    0  502 -0.71664560400E+03  0.21715359920E+03 -0.77273183687E+03  0.10760349015E+04  0.10100000352E+00 0.  1.
</event>
<event>
 5   0  0.9483073E-05  0.2438105E+04  0.7818609E-02  0.8425374E-01
        2   -1    0    0  501    0  0.00000000000E+00  0.00000000000E+00  0.21858002537E+04  0.21858002537E+04  0.25500000920E-02 0.  1.
       -2   -1    0    0    0  501  0.00000000000E+00  0.00000000000E+00 -0.67988349587E+03  0.67988349587E+03  0.25500000920E-02 0. -1.
    10030    2    1    2    0    0  0.00000000000E+00  0.00000000000E+00  0.15059167579E+04  0.28656837496E+04  0.24381054266E+04 0.  0.
        5    1    3    3  502    0  0.31373825976E+03 -0.59377498201E+03  0.19487624063E+04  0.20612368693E+04  0.46999998093E+01 0.  1.
       -5    1    3    3    0  502 -0.31373825976E+03  0.59377498201E+03 -0.44284564847E+03  0.80444688033E+03  0.46999998093E+01 0. -1.
</event>
<event>
 5   0  0.9312074E-05  0.2236220E+04  0.7818609E-02  0.8503502E-01
       -2   -1    0    0    0  501  0.00000000000E+00  0.00000000000E+00  0.83406169617E+03  0.83406169617E+03  0.25500000920E-02 0. -1.
        2   -1    0    0  501    0  0.00000000000E+00  0.00000000000E+00 -0.14988934394E+04  0.14988934394E+04  0.25500000920E-02 0.  1.
    10030    2    1    2    0    0  0.00000000000E+00  0.00000000000E+00 -0.66483174320E+03  0.23329551355E+04  0.22362196712E+04 0.  0.
        4    1    3    3  502    0  0.69624314276E+03  0.82995298633E+03 -0.62113945729E+03  0.12487563060E+04  0.12699999809E+01 0. -1.
       -4    1    3    3    0  502 -0.69624314276E+03 -0.82995298633E+03 -0.43692285904E+02  0.10841988296E+04  0.12699999809E+01 0.  1.
</event>
<event>
 5   0  0.9312074E-05  0.2306687E+04  0.7818609E-02  0.8475289E-01
        2   -1    0    0  501    0  0.00000000000E+00  0.00000000000E+00  0.11105199859E+04  0.11105199859E+04  0.25500000920E-02 0. -1.
       -2   -1    0    0    0  501  0.00000000000E+00  0.00000000000E+00 -0.11978183019E+04  0.11978183019E+04  0.25500000920E-02 0.  1.
    10030    2    1    2    0    0  0.00000000000E+00  0.00000000000E+00 -0.87298315973E+02  0.23083382878E+04  0.23066869434E+04 0.  0.
        4    1    3    3  502    0  0.99306791412E+03 -0.39166911137E+03  0.39325356387E+03  0.11376460580E+04  0.12699999809E+01 0.  1.
       -4    1    3    3    0  502 -0.99306791412E+03  0.39166911137E+03 -0.48055187985E+03  0.11706922298E+04  0.12699999809E+01 0. -1.
</event>
<event>
 5   0  0.4139830E-05  0.2277634E+04  0.7818609E-02  0.8486792E-01
        1   -1    0    0  501    0  0.00000000000E+00  0.00000000000E+00  0.83212963873E+03  0.83212963874E+03  0.50400001928E-02 0. -1.
       -1   -1    0    0    0  501  0.00000000000E+00  0.00000000000E+00 -0.15585368463E+04  0.15585368463E+04  0.50400001928E-02 0.  1.
    10030    2    1    2    0    0  0.00000000000E+00  0.00000000000E+00 -0.72640720759E+03  0.23906664851E+04  0.22776344772E+04 0.  0.
        1    1    3    3  502    0 -0.81990256114E+03  0.73854699611E+03 -0.65861872619E+03  0.12850955224E+04  0.50400001928E-02 0.  1.
       -1    1    3    3    0  502  0.81990256114E+03 -0.73854699611E+03 -0.67788481401E+02  0.11055709627E+04  0.50400001928E-02 0. -1.
</event>
<event>
 5   0  0.9535394E-05  0.2479249E+04  0.7818609E-02  0.8410416E-01
        2   -1    0    0  501    0  0.00000000000E+00  0.00000000000E+00  0.10940027470E+04  0.10940027470E+04  0.25500000920E-02 0.  1.
       -2   -1    0    0    0  501  0.00000000000E+00  0.00000000000E+00 -0.14046295142E+04  0.14046295142E+04  0.25500000920E-02 0. -1.
    10030    2    1    2    0    0  0.00000000000E+00  0.00000000000E+00 -0.31062676725E+03  0.24986322612E+04  0.24792487145E+04 0.  0.
        2    1    3    3  502    0  0.61573233741E+03 -0.10601673660E+04 -0.34001486843E+03  0.12722779830E+04  0.25500000920E-02 0. -1.
       -2    1    3    3    0  502 -0.61573233741E+03  0.10601673660E+04  0.29388101180E+02  0.12263542782E+04  0.25500000920E-02 0.  1.
</event>
<event>
 5   0  0.4295775E-05  0.2235056E+04  0.7818609E-02  0.8503977E-01
        1   -1    0    0  501    0  0.00000000000E+00  0.00000000000E+00  0.64676059832E+03  0.64676059834E+03  0.50400001928E-02 0.  1.
       -1   -1    0    0    0  501  0.00000000000E+00  0.00000000000E+00 -0.19309603453E+04  0.19309603453E+04  0.50400001928E-02 0. -1.
    10030    2    1    2    0    0  0.00000000000E+00  0.00000000000E+00 -0.12841997470E+04  0.25777209437E+04  0.22350562126E+04 0.  0.
        5    1    3    3  502    0  0.10222457489E+04  0.43698011086E+03 -0.51106298283E+03  0.12235789516E+04  0.46999998093E+01 0. -1.
       -5    1    3    3    0  502 -0.10222457489E+04 -0.43698011086E+03 -0.77313676419E+03  0.13541419920E+04  0.46999998093E+01 0.  1.
</event>
<event>
 5   0  0.4005462E-05  0.2298868E+04  0.7818609E-02  0.8478368E-01
       -1   -1    0    0    0  501  0.00000000000E+00  0.00000000000E+00  0.78379606902E+03  0.78379606904E+03  0.50400001928E-02 0.  1.
        1   -1    0    0  501    0  0.00000000000E+00  0.00000000000E+00 -0.16856405031E+04  0.16856405031E+04  0.50400001928E-02 0. -1.
    10030    2    1    2    0    0  0.00000000000E+00  0.00000000000E+00 -0.90184443404E+03  0.24694365721E+04  0.22988678954E+04 0.  0.
        4    1    3    3  502    0  0.51456485780E+02  0.32312931487E+03 -0.16345567069E+04  0.16669845725E+04  0.12699999809E+01 0. -1.
       -4    1    3    3    0  502 -0.51456485780E+02 -0.32312931487E+03  0.73271227282E+03  0.80245199962E+03  0.12699999809E+01 0.  1.
</event>
<event>
 5   0  0.4295775E-05  0.1783711E+04  0.7818609E-02  0.8715010E-01
       -1   -1    0    0    0  501  0.00000000000E+00  0.00000000000E+00  0.45121749059E+03  0.45121749062E+03  0.50400001928E-02 0.  1.
        1   -1    0    0  501    0  0.00000000000E+00  0.00000000000E+00 -0.17628005190E+04  0.17628005190E+04  0.50400001928E-02 0. -1.
    10030    2    1    2    0    0  0.00000000000E+00  0.00000000000E+00 -0.13115830284E+04  0.22140180096E+04  0.17837112172E+04 0.  0.
        5    1    3    3  502    0 -0.18343217400E+02 -0.59029958825E+03 -0.14852853706E+04  0.15984007006E+04  0.46999998093E+01 0. -1.
       -5    1    3    3    0  502  0.18343217400E+02  0.59029958825E+03  0.17370234219E+03  0.61561730904E+03  0.46999998093E+01 0.  1.
</event>
<event>
 5   0  0.9313463E-05  0.2350494E+04  0.7818609E-02  0.8458274E-01
        2   -1    0    0  501    0  0.00000000000E+00  0.00000000000E+00  0.12130698626E+04  0.12130698626E+04  0.25500000920E-02 0. -1.
       -2   -1    0    0    0  501  0.00000000000E+00  0.00000000000E+00 -0.11386036643E+04  0.11386036643E+04  0.25500000920E-02 0.  1.
    10030    2    1    2    0    0  0.00000000000E+00  0.00000000000E+00  0.74466198324E+02  0.23516735268E+04  0.23504942378E+04 0.  0.
        1    1    3    3  502    0 -0.15752210904E+03 -0.56815578227E+03  0.10544002384E+04  0.12080455582E+04  0.50400001928E-02 0. -1.
       -1    1    3    3    0  502  0.15752210904E+03  0.56815578227E+03 -0.97993404010E+03  0.11436279687E+04  0.50400001928E-02 0.  1.
</event>
<event>
 5   0  0.9641157E-05  0.2266832E+04  0.7818609E-02  0.8491115E-01
       -2   -1    0    0    0  501  0.00000000000E+00  0.00000000000E+00  0.69375730810E+03  0.69375730810E+03  0.25500000920E-02 0. -1.
        2   -1    0    0  501    0  0.00000000000E+00  0.00000000000E+00 -0.18517025057E+04  0.18517025057E+04  0.25500000920E-02 0.  1.
    10030    2    1    2    0    0  0.00000000000E+00  0.00000000000E+00 -0.11579451976E+04  0.25454598138E+04  0.22668322794E+04 0.  0.
        3    1    3    3  502    0  0.99129042511E+02 -0.77372620009E+03  0.34438399356E+03  0.85268936020E+03  0.10100000352E+00 0. -1.
       -3    1    3    3    0  502 -0.99129042511E+02  0.77372620009E+03 -0.15023291912E+04  0.16927704536E+04  0.10100000352E+00 0.  1.
</event>
<event>
 5   0  0.9483073E-05  0.2329817E+04  0.7818609E-02  0.8466257E-01
       -2   -1    0    0    0  501  0.00000000000E+00  0.00000000000E+00  0.10697013922E+04  0.10697013922E+04  0.25500000920E-02 0.  1.
        2   -1    0    0  501    0  0.00000000000E+00  0.00000000000E+00 -0.12685891686E+04  0.12685891686E+04  0.25500000920E-02 0. -1.
    10030    2    1    2    0    0  0.00000000000E+00  0.00000000000E+00 -0.19888777642E+03  0.23382905608E+04  0.23298168166E+04 0.  0.
        5    1    3    3  502    0  0.30090178171E+03  0.53871942178E+03 -0.10910805071E+04  0.12534908299E+04  0.46999998093E+01 0. -1.
       -5    1    3    3    0  502 -0.30090178171E+03 -0.53871942178E+03  0.89219273064E+03  0.10847997309E+04  0.46999998093E+01 0.  1.
</event>
<event>
 5   0  0.4295775E-05  0.2091442E+04  0.7818609E-02  0.8565023E-01
       -1   -1    0    0    0  501  0.00000000000E+00  0.00000000000E+00  0.11929010330E+04  0.11929010330E+04  0.50400001928E-02 0.  1.
        1   -1    0    0  501    0  0.00000000000E+00  0.00000000000E+00 -0.91669998281E+03  0.91669998283E+03  0.50400001928E-02 0. -1.
    10030    2    1    2    0    0  0.00000000000E+00  0.00000000000E+00  0.27620105016E+03  0.21096010158E+04  0.20914419489E+04 0.  0.
        5    1    3    3  502    0 -0.23115110917E+01 -0.92774361920E+03 -0.34857882736E+03  0.99108165907E+03  0.46999998093E+01 0. -1.
       -5    1    3    3    0  502  0.23115110917E+01  0.92774361920E+03  0.62477987751E+03  0.11185193567E+04  0.46999998093E+01 0.  1.
</event>
<event>
 5   0  0.9641157E-05  0.2367132E+04  0.7818609E-02  0.8451912E-01
        2   -1    0    0  501    0  0.00000000000E+00  0.00000000000E+00  0.17682990654E+04  0.17682990654E+04  0.25500000920E-02 0. -1.
       -2   -1    0    0    0  501  0.00000000000E+00  0.00000000000E+00 -0.79218961604E+03  0.79218961605E+03  0.25500000920E-02 0.  1.
    10030    2    1    2    0    0  0.00000000000E+00  0.00000000000E+00  0.97610944931E+03  0.25604886814E+04  0.23671317307E+04 0.  0.
        3    1    3    3  502    0  0.49841841937E+03  0.29799253391E+02 -0.67268816238E+03  0.83774595807E+03  0.10100000352E+00 0.  1.
       -3    1    3    3    0  502 -0.49841841937E+03 -0.29799253391E+02  0.16487976117E+04  0.17227427233E+04  0.10100000352E+00 0. -1.
</event>
<event>
 5   0  0.9312074E-05  0.2285110E+04  0.7818609E-02  0.8483815E-01
       -2   -1    0    0    0  501  0.00000000000E+00  0.00000000000E+00  0.86781037664E+03  0.86781037664E+03  0.25500000920E-02 0. -1.
        2   -1    0    0  501    0  0.00000000000E+00  0.00000000000E+00 -0.15042823194E+04  0.15042823194E+04  0.25500000920E-02 0.  1.
    10030    2    1    2    0    0  0.00000000000E+00  0.00000000000E+00 -0.63647194272E+03  0.23720926960E+04  0.22851098933E+04 0.  0.
        4    1    3    3  502    0 -0.61606265249E+03 -0.77441814718E+03  0.27461962762E+03  0.10269733255E+04  0.12699999809E+01 0.  1.
       -4    1    3    3    0  502  0.61606265249E+03  0.77441814718E+03 -0.91109157035E+03  0.13451193705E+04  0.12699999809E+01 0. -1.
</event>
<event>
 5   0  0.9483073E-05  0.2296883E+04  0.7818609E-02  0.8479151E-01
       -2   -1    0    0    0  501  0.00000000000E+00  0.00000000000E+00  0.10212950565E+04  0.10212950565E+04  0.25500000920E-02 0. -1.
        2   -1    0    0  501    0  0.00000000000E+00  0.00000000000E+00 -0.12914168334E+04  0.12914168334E+04  0.25500000920E-02 0.  1.
    10030    2    1    2    0    0  0.00000000000E+00  0.00000000000E+00 -0.27012177692E+03  0.23127118899E+04  0.22968827813E+04 0.  0.
        5    1    3    3  502    0  0.70072297223E+03  0.72877188251E+03  0.41346346836E+03  0.10922890049E+04  0.46999998093E+01 0.  1.
       -5    1    3    3    0  502 -0.70072297223E+03 -0.72877188251E+03 -0.68358524529E+03  0.12204228850E+04  0.46999998093E+01 0. -1.
</event>
<event>
 5   0  0.4295775E-05  0.2358079E+04  0.7818609E-02  0.8455367E-01
       -1   -1    0    0    0  501  0.00000000000E+00  0.00000000000E+00  0.12468832963E+04  0.12468832963E+04  0.50400001928E-02 0. -1.
        1   -1    0    0  501    0  0.00000000000E+00  0.00000000000E+00 -0.11148871328E+04  0.11148871328E+04  0.50400001928E-02 0.  1.
    10030    2    1    2    0    0  0.00000000000E+00  0.00000000000E+00  0.13199616351E+03  0.23617704290E+04  0.23580790004E+04 0.  0.
        5    1    3    3  502    0 -0.66514639582E+01  0.92579865648E+03 -0.66518904345E+03  0.11400201524E+04  0.46999998093E+01 0.  1.
       -5    1    3    3    0  502  0.66514639582E+01 -0.92579865648E+03  0.79718520696E+03  0.12217502767E+04  0.46999998093E+01 0. -1.
</event>
<event>
 5   0  0.9641157E-05  0.2322242E+04  0.7818609E-02  0.8469203E-01
       -2   -1    0    0    0  501  0.00000000000E+00  0.00000000000E+00  0.95403710697E+03  0.95403710697E+03  0.25500000920E-02 0. -1.
        2   -1    0    0  501    0  0.00000000000E+00  0.00000000000E+00 -0.14131542324E+04  0.14131542324E+04  0.25500000920E-02 0.  1.
    10030    2    1    2    0    0  0.00000000000E+00  0.00000000000E+00 -0.45911712542E+03  0.23671913394E+04  0.23222416546E+04 0.  0.
        3    1    3    3  502    0  0.49249034419E+03  0.35139797607E+03  0.78067137131E+03  0.98766141814E+03  0.10100000352E+00 0. -1.
       -3    1    3    3    0  502 -0.49249034419E+03 -0.35139797607E+03 -0.12397884967E+04  0.13795299212E+04  0.10100000352E+00 0.  1.
</event>
<event>
 5   0  0.9313463E-05  0.2344276E+04  0.7818609E-02  0.8460666E-01
       -2   -1    0    0    0  501  0.00000000000E+00  0.00000000000E+00  0.17266951963E+04  0.17266951963E+04  0.25500000920E-02 0. -1.
        2   -1    0    0  501    0  0.00000000000E+00  0.00000000000E+00 -0.79568587450E+03  0.79568587451E+03  0.25500000920E-02 0.  1.
    10030    2    1    2    0    0  0.00000000000E+00  0.00000000000E+00  0.93100932179E+03  0.25223810708E+04  0.23442755617E+04 0.  0.
        1    1    3    3  502    0 -0.30373070078E+03  0.11286989586E+04  0.55987996324E+03  0.12960244022E+04  0.50400001928E-02 0. -1.
       -1    1    3    3    0  502  0.30373070078E+03 -0.11286989586E+04  0.37112935856E+03  0.12263566686E+04  0.50400001928E-02 0.  1.
</event>
<event>
 5   0  0.9312074E-05  0.2370480E+04  0.7818609E-02  0.8450639E-01
       -2   -1    0    0    0  501  0.00000000000E+00  0.00000000000E+00  0.90763514476E+03  0.90763514477E+03  0.25500000920E-02 0. -1.
        2   -1    0    0  501    0  0.00000000000E+00  0.00000000000E+00 -0.15477520632E+04  0.15477520632E+04  0.25500000920E-02 0.  1.
    10030    2    1    2    0    0  0.00000000000E+00  0.00000000000E+00 -0.64011691844E+03  0.24553872080E+04  0.23704802618E+04 0.  0.
        4    1    3    3  502    0 -0.46125626453E+03  0.10856537051E+04 -0.43992394255E+03  0.12589424121E+04  0.12699999809E+01 0.  1.
       -4    1    3    3    0  502  0.46125626453E+03 -0.10856537051E+04 -0.20019297588E+03  0.11964447958E+04  0.12699999809E+01 0. -1.
</event>
<event>
 5   0  0.9313463E-05  0.1951625E+04  0.7818609E-02  0.8629578E-01
        2   -1    0    0  501    0  0.00000000000E+00  0.00000000000E+00  0.18014755942E+04  0.18014755942E+04  0.25500000920E-02 0.  1.
       -2   -1    0    0    0  501  0.00000000000E+00  0.00000000000E+00 -0.52857229363E+03  0.52857229364E+03  0.25500000920E-02 0. -1.
    10030    2    1    2    0    0  0.00000000000E+00  0.00000000000E+00  0.12729033006E+04  0.23300478879E+04  0.19516250529E+04 0.  0.
        1    1    3    3  502    0  0.43424542241E+03 -0.29889792118E+03 -0.34393045314E+03  0.62944198366E+03  0.50400001928E-02 0. -1.
       -1    1    3    3    0  502 -0.43424542241E+03  0.29889792118E+03  0.16168337537E+04  0.17006059042E+04  0.50400001928E-02 0.  1.
</event>
<event>
 5   0  0.9641157E-05  0.2348441E+04  0.7818609E-02  0.8459063E-01
       -2   -1    0    0    0  501  0.00000000000E+00  0.00000000000E+00  0.79118823391E+03  0.79118823391E+03  0.25500000920E-02 0.  1.
        2   -1    0    0  501    0  0.00000000000E+00  0.00000000000E+00 -0.17426867202E+04  0.17426867202E+04  0.25500000920E-02 0. -1.
    10030    2    1    2    0    0  0.00000000000E+00  0.00000000000E+00 -0.95149848625E+03  0.25338749541E+04  0.23484405280E+04 0.  0.
        3    1    3    3  502    0 -0.62191190677E+03  0.68096152919E+03 -0.12599912620E+04  0.15614291577E+04  0.10100000352E+00 0. -1.
       -3    1    3    3    0  502  0.62191190677E+03 -0.68096152919E+03  0.30849277573E+03  0.97244579638E+03  0.10100000352E+00 0.  1.
</event>
<event>
 5   0  0.9535394E-05  0.2257130E+04  0.7818609E-02  0.8495019E-01
       -2   -1    0    0    0  501  0.00000000000E+00  0.00000000000E+00  0.92952532759E+03  0.92952532760E+03  0.25500000920E-02 0.  1.
        2   -1    0    0  501    0  0.00000000000E+00  0.00000000000E+00 -0.13702248118E+04  0.13702248118E+04  0.25500000920E-02 0. -1.
    10030    2    1    2    0    0  0.00000000000E+00  0.00000000000E+00 -0.44069948417E+03  0.22997501394E+04  0.22571297411E+04 0.  0.
        2    1    3    3  502    0  0.25905471381E+03 -0.81868400012E+03  0.52580755351E+03  0.10068894776E+04  0.25500000920E-02 0. -1.
       -2    1    3    3    0  502 -0.25905471381E+03  0.81868400012E+03 -0.96650703768E+03  0.12928606617E+04  0.25500000920E-02 0.  1.
</event>
<event>
 5   0  0.9313463E-05  0.1701594E+04  0.7818609E-02  0.8760456E-01
        2   -1    0    0  501    0  0.00000000000E+00  0.00000000000E+00  0.49295349252E+03  0.49295349253E+03  0.25500000920E-02 0.  1.
       -2   -1    0    0    0  501  0.00000000000E+00  0.00000000000E+00 -0.14684059921E+04  0.14684059921E+04  0.25500000920E-02 0. -1.
    10030    2    1    2    0    0  0.00000000000E+00  0.00000000000E+00 -0.97545249958E+03  0.19613594846E+04  0.17015943844E+04 0.  0.
        1    1    3    3  502    0 -0.48256377449E+03 -0.52344282545E+03  0.49214907474E+02  0.71364017202E+03  0.50400001928E-02 0.  1.
       -1    1    3    3    0  502  0.48256377449E+03  0.52344282545E+03 -0.10246674071E+04  0.12477193126E+04  0.50400001928E-02 0. -1.
</event>
<event>
 5   0  0.9535394E-05  0.2477037E+04  0.7818609E-02  0.8411212E-01
       -2   -1    0    0    0  501  0.00000000000E+00  0.00000000000E+00  0.10814552651E+04  0.10814552651E+04  0.25500000920E-02 0.  1.
        2   -1    0    0  501    0  0.00000000000E+00  0.00000000000E+00 -0.14183924927E+04  0.14183924927E+04  0.25500000920E-02 0. -1.
    10030    2    1    2    0    0  0.00000000000E+00  0.00000000000E+00 -0.33693722754E+03  0.24998477578E+04  0.24770369632E+04 0.  0.
        2    1    3    3  502    0  0.85594615161E+03  0.79817583426E+03 -0.57741564313E+03  0.13050430268E+04  0.25500000920E-02 0. -1.
       -2    1    3    3    0  502 -0.85594615161E+03 -0.79817583426E+03  0.24047841559E+03  0.11948047310E+04  0.25500000920E-02 0.  1.
</event>
<event>
 5   0  0.4139830E-05  0.2346698E+04  0.7818609E-02  0.8459733E-01
       -1   -1    0    0    0  501  0.00000000000E+00  0.00000000000E+00  0.63274336073E+03  0.63274336075E+03  0.50400001928E-02 0. -1.
        1   -1    0    0  501    0  0.00000000000E+00  0.00000000000E+00 -0.21758392067E+04  0.21758392068E+04  0.50400001928E-02 0.  1.
    10030    2    1    2    0    0  0.00000000000E+00  0.00000000000E+00 -0.15430958460E+04  0.28085825675E+04  0.23466979457E+04 0.  0.
        1    1    3    3  502    0  0.46442946995E+03 -0.86851628033E+03 -0.82668951181E+01  0.98492822243E+03  0.50400001928E-02 0. -1.
       -1    1    3    3    0  502 -0.46442946995E+03  0.86851628033E+03 -0.15348289509E+04  0.18236543451E+04  0.50400001928E-02 0.  1.
</event>
<event>
 5   0  0.3885219E-05  0.2196306E+04  0.7818609E-02  0.8519967E-01
        1   -1    0    0  501    0  0.00000000000E+00  0.00000000000E+00  0.82325271859E+03  0.82325271861E+03  0.50400001928E-02 0. -1.
       -1   -1    0    0    0  501  0.00000000000E+00  0.00000000000E+00 -0.14648472301E+04  0.14648472301E+04  0.50400001928E-02 0.  1.
    10030    2    1    2    0    0  0.00000000000E+00  0.00000000000E+00 -0.64159451150E+03  0.22880999487E+04  0.21963055020E+04 0.  0.
        2    1    3    3  502    0  0.24686384350E+03 -0.93357210379E+03 -0.86556818867E+03  0.12968064310E+04  0.25500000920E-02 0. -1.
       -2    1    3    3    0  502 -0.24686384350E+03  0.93357210379E+03  0.22397367718E+03  0.99129351772E+03  0.25500000920E-02 0.  1.
</event>
<event>
 5   0  0.4005462E-05  0.2201495E+04  0.7818609E-02  0.8517806E-01
        1   -1    0    0  501    0  0.00000000000E+00  0.00000000000E+00  0.78494348974E+03  0.78494348976E+03  0.50400001928E-02 0. -1.
       -1   -1    0    0    0  501  0.00000000000E+00  0.00000000000E+00 -0.15436085096E+04  0.15436085096E+04  0.50400001928E-02 0.  1.
    10030    2    1    2    0    0  0.00000000000E+00  0.00000000000E+00 -0.75866501984E+03  0.23285519994E+04  0.22014953557E+04 0.  0.
        4    1    3    3  502    0  0.52961993957E+03  0.42185436514E+02  0.64034250564E+03  0.83205590490E+03  0.12699999809E+01 0. -1.
       -4    1    3    3    0  502 -0.52961993957E+03 -0.42185436514E+02 -0.13990075255E+04  0.14964960945E+04  0.12699999809E+01 0.  1.
</event>
<event>
 5   0  0.4295775E-05  0.2295543E+04  0.7818609E-02  0.8479681E-01
        1   -1    0    0  501    0  0.00000000000E+00  0.00000000000E+00  0.10237756649E+04  0.10237756649E+04  0.50400001928E-02 0.  1.
       -1   -1    0    0    0  501  0.00000000000E+00  0.00000000000E+00 -0.12867847815E+04  0.12867847815E+04  0.50400001928E-02 0. -1.
    10030    2    1    2    0    0  0.00000000000E+00  0.00000000000E+00 -0.26300911661E+03  0.23105604465E+04  0.22955425898E+04 0.  0.
        5    1    3    3  502    0 -0.64419463205E+03 -0.38659907265E+03  0.74187673188E+03  0.10558639790E+04  0.46999998093E+01 0.  1.
       -5    1    3    3    0  502  0.64419463205E+03  0.38659907265E+03 -0.10048858485E+04  0.12546964674E+04  0.46999998093E+01 0. -1.
</event>
<event>
 5   0  0.9641157E-05  0.2289338E+04  0.7818609E-02  0.8482137E-01
        2   -1    0    0  501    0  0.00000000000E+00  0.00000000000E+00  0.19955761824E+04  0.19955761825E+04  0.25500000920E-02 0.  1.
       -2   -1    0    0    0  501  0.00000000000E+00  0.00000000000E+00 -0.65658592014E+03  0.65658592015E+03  0.25500000920E-02 0. -1.
    10030    2    1    2    0    0  0.00000000000E+00  0.00000000000E+00  0.13389902623E+04  0.26521621026E+04  0.22893380912E+04 0.  0.
        3    1    3    3  502    0  0.75532712027E+03  0.85560787218E+03  0.56794868913E+03  0.12748135602E+04  0.10100000352E+00 0.  1.
       -3    1    3    3    0  502 -0.75532712027E+03 -0.85560787218E+03  0.77104157317E+03  0.13773485424E+04  0.10100000352E+00 0. -1.
</event>
<event>
 5   0  0.9641157E-05  0.2291581E+04  0.7818609E-02  0.8481248E-01
       -2   -1    0    0    0  501  0.00000000000E+00  0.00000000000E+00  0.48733808800E+03  0.48733808800E+03  0.25500000920E-02 0. -1.
        2   -1    0    0  501    0  0.00000000000E+00  0.00000000000E+00 -0.26938917419E+04  0.26938917419E+04  0.25500000920E-02 0.  1.
    10030    2    1    2    0    0  0.00000000000E+00  0.00000000000E+00 -0.22065536539E+04  0.31812298299E+04  0.22915811579E+04 0.  0.
        3    1    3    3  502    0  0.22811836675E+03 -0.48634595479E+03 -0.25082437845E+04  0.25651232465E+04  0.10100000352E+00 0.  1.
       -3    1    3    3    0  502 -0.22811836675E+03  0.48634595479E+03  0.30169013062E+03  0.61610658339E+03  0.10100000352E+00 0. -1.
</event>
<event>
 5   0  0.4095451E-05  0.2252598E+04  0.7818609E-02  0.8496849E-01
        1   -1    0    0  501    0  0.00000000000E+00  0.00000000000E+00  0.10413099773E+04  0.10413099774E+04  0.50400001928E-02 0.  1.
       -1   -1    0    0    0  501  0.00000000000E+00  0.00000000000E+00 -0.12182243922E+04  0.12182243922E+04  0.50400001928E-02 0. -1.
    10030    2    1    2    0    0  0.00000000000E+00  0.00000000000E+00 -0.17691441485E+03  0.22595343696E+04  0.22525978019E+04 0.  0.
        3    1    3    3  502    0 -0.14111514209E+03  0.92411209270E+03  0.54169107719E+03  0.10804285615E+04  0.10100000352E+00 0.  1.
       -3    1    3    3    0  502  0.14111514209E+03 -0.92411209270E+03 -0.71860549205E+03  0.11791058081E+04  0.10100000352E+00 0. -1.
</event>
<event>
 5   0  0.4005462E-05  0.2295650E+04  0.7818609E-02  0.8479638E-01
       -1   -1    0    0    0  501  0.00000000000E+00  0.00000000000E+00  0.90520551552E+03  0.90520551553E+03  0.50400001928E-02 0. -1.
        1   -1    0    0  501    0  0.00000000000E+00  0.00000000000E+00 -0.14554734295E+04  0.14554734295E+04  0.50400001928E-02 0.  1.
    10030    2    1    2    0    0  0.00000000000E+00  0.00000000000E+00 -0.55026791398E+03  0.23606789450E+04  0.22956503010E+04 0.  0.
        4    1    3    3  502    0  0.25851232381E+03 -0.31966324065E+03 -0.13771663970E+04  0.14372202708E+04  0.12699999809E+01 0.  1.
       -4    1    3    3    0  502 -0.25851232381E+03  0.31966324065E+03  0.82689848298E+03  0.92345867424E+03  0.12699999809E+01 0. -1.
</event>
<event>
 5   0  0.4295775E-05  0.2281630E+04  0.7818609E-02  0.8485199E-01
        1   -1    0    0  501    0  0.00000000000E+00  0.00000000000E+00  0.14719190936E+04  0.14719190937E+04  0.50400001928E-02 0. -1.
       -1   -1    0    0    0  501  0.00000000000E+00  0.00000000000E+00 -0.88419213953E+03  0.88419213955E+03  0.50400001928E-02 0.  1.
    10030    2    1    2    0    0  0.00000000000E+00  0.00000000000E+00  0.58772695411E+03  0.23561112332E+04  0.22816303755E+04 0.  0.
        5    1    3    3  502    0  0.71825357733E+03 -0.83895378462E+03  0.58903623626E+03  0.12516858359E+04  0.46999998093E+01 0. -1.
       -5    1    3    3    0  502 -0.71825357733E+03  0.83895378462E+03 -0.13092821489E+01  0.11044253973E+04  0.46999998093E+01 0.  1.
</event>
<event>
 5   0  0.9312074E-05  0.2325010E+04  0.7818609E-02  0.8468125E-01
       -2   -1    0    0    0  501  0.00000000000E+00  0.00000000000E+00  0.13136406384E+04  0.13136406384E+04  0.25500000920E-02 0. -1.
        2   -1    0    0  501    0  0.00000000000E+00  0.00000000000E+00 -0.10287578859E+04  0.10287578859E+04  0.25500000920E-02 0.  1.
    10030    2    1    2    0    0  0.00000000000E+00  0.00000000000E+00  0.28488275253E+03  0.23423985243E+04  0.23250102503E+04 0.  0.
        4    1    3    3  502    0  0.92170022117E+03  0.31070977599E+03  0.78386973685E+03  0.12492098462E+04  0.12699999809E+01 0. -1.
       -4    1    3    3    0  502 -0.92170022117E+03 -0.31070977599E+03 -0.49898698432E+03  0.10931886781E+04  0.12699999809E+01 0.  1.
</event>
<event>
 5   0  0.9312074E-05  0.2607193E+04  0.7818609E-02  0.8365762E-01
       -2   -1    0    0    0  501  0.00000000000E+00  0.00000000000E+00  0.30399068017E+04  0.30399068017E+04  0.25500000920E-02 0.  1.
        2   -1    0    0  501    0  0.00000000000E+00  0.00000000000E+00 -0.55901821520E+03  0.55901821520E+03  0.25500000920E-02 0. -1.
    10030    2    1    2    0    0  0.00000000000E+00  0.00000000000E+00  0.24808885865E+04  0.35989250169E+04  0.26071925703E+04 0.  0.
        4    1    3    3  502    0 -0.44890058044E+03 -0.10912860458E+04  0.20052123779E+04  0.23266489332E+04  0.12699999809E+01 0.  1.
       -4    1    3    3    0  502  0.44890058044E+03  0.10912860458E+04  0.47567620859E+03  0.12722760837E+04  0.12699999809E+01 0. -1.
</event>
<event>
 5   0  0.9641157E-05  0.2285076E+04  0.7818609E-02  0.8483829E-01
       -2   -1    0    0    0  501  0.00000000000E+00  0.00000000000E+00  0.13574937046E+04  0.13574937046E+04  0.25500000920E-02 0. -1.
        2   -1    0    0  501    0  0.00000000000E+00  0.00000000000E+00 -0.96161975543E+03  0.96161975544E+03  0.25500000920E-02 0.  1.
    10030    2    1    2    0    0  0.00000000000E+00  0.00000000000E+00  0.39587394918E+03  0.23191134601E+04  0.22850757224E+04 0.  0.
        3    1    3    3  502    0  0.48525010760E+03 -0.10539741697E+03  0.12422525246E+04  0.13378219715E+04  0.10100000352E+00 0. -1.
       -3    1    3    3    0  502 -0.48525010760E+03  0.10539741697E+03 -0.84637857539E+03  0.98129148855E+03  0.10100000352E+00 0.  1.
</event>
<event>
 5   0  0.4139830E-05  0.2185375E+04  0.7818609E-02  0.8524540E-01
       -1   -1    0    0    0  501  0.00000000000E+00  0.00000000000E+00  0.43900517278E+03  0.43900517281E+03  0.50400001928E-02 0. -1.
        1   -1    0    0  501    0  0.00000000000E+00  0.00000000000E+00 -0.27197085806E+04  0.27197085806E+04  0.50400001928E-02 0.  1.
    10030    2    1    2    0    0  0.00000000000E+00  0.00000000000E+00 -0.22807034078E+04  0.31587137535E+04  0.21853751490E+04 0.  0.
        1    1    3    3  502    0 -0.76697470958E+03  0.29740082774E+03 -0.21798944731E+04  0.23299436413E+04  0.50400001928E-02 0.  1.
       -1    1    3    3    0  502  0.76697470958E+03 -0.29740082774E+03 -0.10080893470E+03  0.82877011217E+03  0.50400001928E-02 0. -1.
</event>
<event>
 5   0  0.9312074E-05  0.2323805E+04  0.7818609E-02  0.8468594E-01
        2   -1    0    0  501    0  0.00000000000E+00  0.00000000000E+00  0.16109518069E+04  0.16109518069E+04  0.25500000920E-02 0.  1.
       -2   -1    0    0    0  501  0.00000000000E+00  0.00000000000E+00 -0.83802463175E+03  0.83802463176E+03  0.25500000920E-02 0. -1.
    10030    2    1    2    0    0  0.00000000000E+00  0.00000000000E+00  0.77292717518E+03  0.24489764387E+04  0.23238048927E+04 0.  0.
        4    1    3    3  502    0 -0.19576195586E+03  0.58337014360E+03 -0.65220687940E+03  0.89667100669E+03  0.12699999809E+01 0. -1.
       -4    1    3    3    0  502  0.19576195586E+03 -0.58337014360E+03  0.14251340546E+04  0.15523054320E+04  0.12699999809E+01 0.  1.
</event>
<event>
 5   0  0.4005462E-05  0.2287912E+04  0.7818609E-02  0.8482702E-01
        1   -1    0    0  501    0  0.00000000000E+00  0.00000000000E+00  0.12207231779E+04  0.12207231779E+04  0.50400001928E-02 0. -1.
       -1   -1    0    0    0  501  0.00000000000E+00  0.00000000000E+00 -0.10720166563E+04  0.10720166563E+04  0.50400001928E-02 0.  1.
    10030    2    1    2    0    0  0.00000000000E+00  0.00000000000E+00  0.14870652166E+03  0.22927398342E+04  0.22879122181E+04 0.  0.
        4    1    3    3  502    0  0.97374242875E+02 -0.42965938056E+02 -0.10670435576E+04  0.10723392102E+04  0.12699999809E+01 0.  1.
       -4    1    3    3    0  502 -0.97374242875E+02  0.42965938056E+02  0.12157500793E+04  0.12204006240E+04  0.12699999809E+01 0. -1.
</event>
<event>
 5   0  0.9313463E-05  0.2285816E+04  0.7818609E-02  0.8483535E-01
        2   -1    0    0  501    0  0.00000000000E+00  0.00000000000E+00  0.26176295965E+04  0.26176295965E+04  0.25500000920E-02 0. -1.
       -2   -1    0    0    0  501  0.00000000000E+00  0.00000000000E+00 -0.49901587844E+03  0.49901587845E+03  0.25500000920E-02 0.  1.
    10030    2    1    2    0    0  0.00000000000E+00  0.00000000000E+00  0.21186137180E+04  0.31166454749E+04  0.22858160316E+04 0.  0.
        1    1    3    3  502    0 -0.67895348919E+03 -0.83890274019E+03  0.54641113039E+03  0.12096696952E+04  0.50400001928E-02 0. -1.
       -1    1    3    3    0  502  0.67895348919E+03  0.83890274019E+03  0.15722025876E+04  0.19069757797E+04  0.50400001928E-02 0.  1.
</event>
<event>
 5   0  0.9483073E-05  0.2266379E+04  0.7818609E-02  0.8491297E-01
        2   -1    0    0  501    0  0.00000000000E+00  0.00000000000E+00  0.20935335556E+04  0.20935335556E+04  0.25500000920E-02 0. -1.
       -2   -1    0    0    0  501  0.00000000000E+00  0.00000000000E+00 -0.61337367850E+03  0.61337367851E+03  0.25500000920E-02 0.  1.
    10030    2    1    2    0    0  0.00000000000E+00  0.00000000000E+00  0.14801598771E+04  0.27069072341E+04  0.22663789428E+04 0.  0.
        5    1    3    3  502    0 -0.70291976241E+03 -0.12691171161E+03 -0.31062663529E+03  0.77891833428E+03  0.46999998093E+01 0.  1.
       -5    1    3    3    0  502  0.70291976241E+03  0.12691171161E+03  0.17907865124E+04  0.19279888998E+04  0.46999998093E+01 0. -1.
</event>
<event>
 5   0  0.4139830E-05  0.2271735E+04  0.7818609E-02  0.8489150E-01
       -1   -1    0    0    0  501  0.00000000000E+00  0.00000000000E+00  0.12853694424E+04  0.12853694424E+04  0.50400001928E-02 0.  1.
        1   -1    0    0  501    0  0.00000000000E+00  0.00000000000E+00 -0.10037543392E+04  0.10037543392E+04  0.50400001928E-02 0. -1.
    10030    2    1    2    0    0  0.00000000000E+00  0.00000000000E+00  0.28161510320E+03  0.22891237816E+04  0.22717351565E+04 0.  0.
        1    1    3    3  502    0  0.10335276339E+04  0.32188400378E+03 -0.20592874094E+03  0.11019053173E+04  0.50400001928E-02 0. -1.
       -1    1    3    3    0  502 -0.10335276339E+04 -0.32188400378E+03  0.48754384415E+03  0.11872184643E+04  0.50400001928E-02 0.  1.
</event>
<event>
 5   0  0.4139830E-05  0.2439509E+04  0.7818609E-02  0.8424858E-01
       -1   -1    0    0    0  501  0.00000000000E+00  0.00000000000E+00  0.12498407266E+04  0.12498407267E+04  0.50400001928E-02 0.  1.
        1   -1    0    0  501    0  0.00000000000E+00  0.00000000000E+00 -0.11903923673E+04  0.11903923673E+04  0.50400001928E-02 0. -1.
    10030    2    1    2    0    0  0.00000000000E+00  0.00000000000E+00  0.59448359355E+02  0.24402330940E+04  0.24395088533E+04 0.  0.
        1    1    3    3  502    0 -0.66840164550E+03  0.22920188547E+03 -0.96480767979E+03  0.11958880061E+04  0.50400001928E-02 0. -1.
       -1    1    3    3    0  502  0.66840164550E+03 -0.22920188547E+03  0.10242560391E+04  0.12443450879E+04  0.50400001928E-02 0.  1.
</event>
<event>
 5   0  0.4005462E-05  0.2071730E+04  0.7818609E-02  0.8573800E-01
        1   -1    0    0  501    0  0.00000000000E+00  0.00000000000E+00  0.12091114569E+04  0.12091114569E+04  0.50400001928E-02 0. -1.
       -1   -1    0    0    0  501  0.00000000000E+00  0.00000000000E+00 -0.88744221262E+03  0.88744221264E+03  0.50400001928E-02 0.  1.
    10030    2    1    2    0    0  0.00000000000E+00  0.00000000000E+00  0.32166924425E+03  0.20965536695E+04  0.20717302398E+04 0.  0.
        4    1    3    3  502    0 -0.12936063551E+03  0.87783845749E+03 -0.38006042346E+03  0.96528859408E+03  0.12699999809E+01 0.  1.
       -4    1    3    3    0  502  0.12936063551E+03 -0.87783845749E+03  0.70172966770E+03  0.11312650754E+04  0.12699999809E+01 0. -1.
</event>
<event>
 5   0  0.9312074E-05  0.2303359E+04  0.7818609E-02  0.8476598E-01
       -2   -1    0    0    0  501  0.00000000000E+00  0.00000000000E+00  0.18336635490E+04  0.18336635490E+04  0.25500000920E-02 0.  1.
        2   -1    0    0  501    0  0.00000000000E+00  0.00000000000E+00 -0.72334218776E+03  0.72334218776E+03  0.25500000920E-02 0. -1.
    10030    2    1    2    0    0  0.00000000000E+00  0.00000000000E+00  0.11103213613E+04  0.25570057368E+04  0.23033594623E+04 0.  0.
        4    1    3    3  502    0 -0.48350986883E+03 -0.48738527695E+03 -0.47134838692E+03  0.83276474241E+03  0.12699999809E+01 0. -1.
       -4    1    3    3    0  502  0.48350986883E+03  0.48738527695E+03  0.15816697482E+04  0.17242409944E+04  0.12699999809E+01 0.  1.
</event>
<event>
 5   0  0.4139830E-05  0.2318427E+04  0.7818609E-02  0.8470691E-01
        1   -1    0    0  501    0  0.00000000000E+00  0.00000000000E+00  0.18011704072E+04  0.18011704072E+04  0.50400001928E-02 0. -1.
       -1   -1    0    0    0  501  0.00000000000E+00  0.00000000000E+00 -0.74605705724E+03  0.74605705725E+03  0.50400001928E-02 0.  1.
    10030    2    1    2    0    0  0.00000000000E+00  0.00000000000E+00  0.10551133500E+04  0.25472274644E+04  0.23184269612E+04 0.  0.
        1    1    3    3  502    0  0.74528776520E+03 -0.28833756630E+03 -0.39506866328E+03  0.89144357860E+03  0.50400001928E-02 0.  1.
       -1    1    3    3    0  502 -0.74528776520E+03  0.28833756630E+03  0.14501820132E+04  0.16557838858E+04  0.50400001928E-02 0. -1.
</event>
<event>
 5   0  0.9313463E-05  0.2316981E+04  0.7818609E-02  0.8471256E-01
        2   -1    0    0  501    0  0.00000000000E+00  0.00000000000E+00  0.20954061452E+04  0.20954061452E+04  0.25500000920E-02 0. -1.
       -2   -1    0    0    0  501  0.00000000000E+00  0.00000000000E+00 -0.64049647490E+03  0.64049647491E+03  0.25500000920E-02 0.  1.
    10030    2    1    2    0    0  0.00000000000E+00  0.00000000000E+00  0.14549096703E+04  0.27359026201E+04  0.23169810094E+04 0.  0.
        1    1    3    3  502    0 -0.45745375471E+03  0.97238224513E+03  0.21641167762E+03  0.10961866550E+04  0.50400001928E-02 0.  1.
       -1    1    3    3    0  502  0.45745375471E+03 -0.97238224513E+03  0.12384979927E+04  0.16397159651E+04  0.50400001928E-02 0. -1.
</event>
<event>
 5   0  0.3261500E-05  0.2308749E+04  0.7818609E-02  0.8474479E-01
        3   -1    0    0  501    0  0.00000000000E+00  0.00000000000E+00  0.10187862051E+04  0.10187862101E+04  0.10100000352E+00 0.  1.
       -3   -1    0    0    0  501  0.00000000000E+00  0.00000000000E+00 -0.13080083452E+04  0.13080083491E+04  0.10100000352E+00 0. -1.
    10030    2    1    2    0    0  0.00000000000E+00  0.00000000000E+00 -0.28922214004E+03  0.23267945592E+04  0.23087493312E+04 0.  0.
        3    1    3    3  502    0  0.70878645087E+03 -0.84687941442E+03 -0.48339001433E+03  0.12055077319E+04  0.10100000352E+00 0.  1.
       -3    1    3    3    0  502 -0.70878645087E+03  0.84687941442E+03  0.19416787429E+03  0.11212868273E+04  0.10100000352E+00 0. -1.
</event>
<event>
 5   0  0.4295775E-05  0.2323445E+04  0.7818609E-02  0.8468734E-01
        1   -1    0    0  501    0  0.00000000000E+00  0.00000000000E+00  0.15788180241E+04  0.15788180241E+04  0.50400001928E-02 0.  1.
       -1   -1    0    0    0  501  0.00000000000E+00  0.00000000000E+00 -0.85481629831E+03  0.85481629832E+03  0.50400001928E-02 0. -1.
    10030    2    1    2    0    0  0.00000000000E+00  0.00000000000E+00  0.72400172578E+03  0.24336343224E+04  0.23234451826E+04 0.  0.
        5    1    3    3  502    0  0.26316728688E+03  0.62264639380E+03  0.13515994191E+04  0.15112209079E+04  0.46999998093E+01 0.  1.
       -5    1    3    3    0  502 -0.26316728688E+03 -0.62264639380E+03 -0.62759769337E+03  0.92241341453E+03  0.46999998093E+01 0. -1.
</event>
<event>
 5   0  0.9641157E-05  0.2148777E+04  0.7818609E-02  0.8540056E-01
       -2   -1    0    0    0  501  0.00000000000E+00  0.00000000000E+00  0.79882731418E+03  0.79882731419E+03  0.25500000920E-02 0. -1.
        2   -1    0    0  501    0  0.00000000000E+00  0.00000000000E+00 -0.14450062136E+04  0.14450062136E+04  0.25500000920E-02 0.  1.
    10030    2    1    2    0    0  0.00000000000E+00  0.00000000000E+00 -0.64617889944E+03  0.22438335278E+04  0.21487767987E+04 0.  0.
        3    1    3    3  502    0 -0.87390978775E+03  0.57905148927E+03 -0.56863294112E+03  0.11926283479E+04  0.10100000352E+00 0.  1.
       -3    1    3    3    0  502  0.87390978775E+03 -0.57905148927E+03 -0.77545958322E+02  0.10512051799E+04  0.10100000352E+00 0. -1.
</event>
<event>
 5   0  0.4139830E-05  0.2361103E+04  0.7818609E-02  0.8454211E-01
       -1   -1    0    0    0  501  0.00000000000E+00  0.00000000000E+00  0.92442142142E+03  0.92442142143E+03  0.50400001928E-02 0.  1.
        1   -1    0    0  501    0  0.00000000000E+00  0.00000000000E+00 -0.15076479328E+04  0.15076479328E+04  0.50400001928E-02 0. -1.
    10030    2    1    2    0    0  0.00000000000E+00  0.00000000000E+00 -0.58322651138E+03  0.24320693542E+04  0.23611031702E+04 0.  0.
        1    1    3    3  502    0  0.11186729357E+03  0.57618769569E+03 -0.13467025083E+04  0.14690521426E+04  0.50400001928E-02 0. -1.
       -1    1    3    3    0  502 -0.11186729357E+03 -0.57618769569E+03  0.76347599687E+03  0.96301721161E+03  0.50400001928E-02 0.  1.
</event>
<event>
 5   0  0.4295775E-05  0.2271837E+04  0.7818609E-02  0.8489109E-01
       -1   -1    0    0    0  501  0.00000000000E+00  0.00000000000E+00  0.11009918308E+04  0.11009918308E+04  0.50400001928E-02 0. -1.
        1   -1    0    0  501    0  0.00000000000E+00  0.00000000000E+00 -0.11719534172E+04  0.11719534173E+04  0.50400001928E-02 0.  1.
    10030    2    1    2    0    0  0.00000000000E+00  0.00000000000E+00 -0.70961586410E+02  0.22729452481E+04  0.22718372640E+04 0.  0.
        5    1    3    3  502    0  0.33420979949E+03  0.98854962373E+03  0.41347238740E+03  0.11224562592E+04  0.46999998093E+01 0. -1.
       -5    1    3    3    0  502 -0.33420979949E+03 -0.98854962373E+03 -0.48443397381E+03  0.11504889889E+04  0.46999998093E+01 0.  1.
</event>
<event>
 5   0  0.9483073E-05  0.2259344E+04  0.7818609E-02  0.8494126E-01
       -2   -1    0    0    0  501  0.00000000000E+00  0.00000000000E+00  0.66831101224E+03  0.66831101224E+03  0.25500000920E-02 0. -1.
        2   -1    0    0  501    0  0.00000000000E+00  0.00000000000E+00 -0.19095285006E+04  0.19095285006E+04  0.25500000920E-02 0.  1.
    10030    2    1    2    0    0  0.00000000000E+00  0.00000000000E+00 -0.12412174883E+04  0.25778395128E+04  0.22593440863E+04 0.  0.
        5    1    3    3  502    0  0.85260447147E+03  0.21253089176E+03  0.18942482197E+03  0.89889243956E+03  0.46999998093E+01 0. -1.
       -5    1    3    3    0  502 -0.85260447147E+03 -0.21253089176E+03 -0.14306423103E+04  0.16789470732E+04  0.46999998093E+01 0.  1.
</event>
<event>
 5   0  0.4139830E-05  0.1825881E+04  0.7818609E-02  0.8692656E-01
       -1   -1    0    0    0  501  0.00000000000E+00  0.00000000000E+00  0.49740185520E+03  0.49740185523E+03  0.50400001928E-02 0.  1.
        1   -1    0    0  501    0  0.00000000000E+00  0.00000000000E+00 -0.16756286089E+04  0.16756286090E+04  0.50400001928E-02 0. -1.
    10030    2    1    2    0    0  0.00000000000E+00  0.00000000000E+00 -0.11782267537E+04  0.21730304642E+04  0.18258814625E+04 0.  0.
        1    1    3    3  502    0 -0.59679135701E+03  0.68068099521E+03 -0.72980145543E+03  0.11627969321E+04  0.50400001928E-02 0. -1.
       -1    1    3    3    0  502  0.59679135701E+03 -0.68068099521E+03 -0.44842529831E+03  0.10102335320E+04  0.50400001928E-02 0.  1.
</event>
<event>
 5   0  0.4295775E-05  0.2299300E+04  0.7818609E-02  0.8478197E-01
       -1   -1    0    0    0  501  0.00000000000E+00  0.00000000000E+00  0.17521713274E+04  0.17521713274E+04  0.50400001928E-02 0.  1.
        1   -1    0    0  501    0  0.00000000000E+00  0.00000000000E+00 -0.75431861732E+03  0.75431861734E+03  0.50400001928E-02 0. -1.
    10030    2    1    2    0    0  0.00000000000E+00  0.00000000000E+00  0.99785271006E+03  0.25064899447E+04  0.22993002875E+04 0.  0.
        5    1    3    3  502    0  0.36524833748E+03 -0.84878629944E+03  0.12445398594E+04  0.15500793792E+04  0.46999998093E+01 0.  1.
       -5    1    3    3    0  502 -0.36524833748E+03  0.84878629944E+03 -0.24668714937E+03  0.95641056551E+03  0.46999998093E+01 0. -1.
</event>
<event>
 5   0  0.4095451E-05  0.2313150E+04  0.7818609E-02  0.8472754E-01
       -1   -1    0    0    0  501  0.00000000000E+00  0.00000000000E+00  0.80729121471E+03  0.80729121473E+03  0.50400001928E-02 0.  1.
        1   -1    0    0  501    0  0.00000000000E+00  0.00000000000E+00 -0.16569800489E+04  0.16569800489E+04  0.50400001928E-02 0. -1.
    10030    2    1    2    0    0  0.00000000000E+00  0.00000000000E+00 -0.84968883421E+03  0.24642712637E+04  0.23131497457E+04 0.  0.
        3    1    3    3  502    0 -0.58886853037E+03  0.64541998195E+03 -0.12322028672E+04  0.15105154800E+04  0.10100000352E+00 0. -1.
       -3    1    3    3    0  502  0.58886853037E+03 -0.64541998195E+03  0.38251403303E+03  0.95375578364E+03  0.10100000352E+00 0.  1.
</event>
<event>
 5   0  0.9312074E-05  0.2236896E+04  0.7818609E-02  0.8503226E-01
       -2   -1    0    0    0  501  0.00000000000E+00  0.00000000000E+00  0.68686036447E+03  0.68686036447E+03  0.25500000920E-02 0.  1.
        2   -1    0    0  501    0  0.00000000000E+00  0.00000000000E+00 -0.18212222773E+04  0.18212222773E+04  0.25500000920E-02 0. -1.
    10030    2    1    2    0    0  0.00000000000E+00  0.00000000000E+00 -0.11343619129E+04  0.25080826418E+04  0.22368955248E+04 0.  0.
        4    1    3    3  502    0 -0.68656605119E+03  0.12279170617E+03 -0.15475220971E+04  0.16974324728E+04  0.12699999809E+01 0. -1.
       -4    1    3    3    0  502  0.68656605119E+03 -0.12279170617E+03  0.41316018426E+03  0.81065016900E+03  0.12699999809E+01 0.  1.
</event>
<event>
 5   0  0.3885219E-05  0.2213782E+04  0.7818609E-02  0.8512713E-01
       -1   -1    0    0    0  501  0.00000000000E+00  0.00000000000E+00  0.94451259327E+03  0.94451259329E+03  0.50400001928E-02 0. -1.
        1   -1    0    0  501    0  0.00000000000E+00  0.00000000000E+00 -0.12971856004E+04  0.12971856005E+04  0.50400001928E-02 0.  1.
    10030    2    1    2    0    0  0.00000000000E+00  0.00000000000E+00 -0.35267300717E+03  0.22416981937E+04  0.22137824062E+04 0.  0.
        2    1    3    3  502    0 -0.47867705790E+03 -0.99490076402E+03 -0.25638317609E+03  0.11334423625E+04  0.25500000920E-02 0. -1.
       -2    1    3    3    0  502  0.47867705790E+03  0.99490076402E+03 -0.96289831084E+02  0.11082558313E+04  0.25500000920E-02 0.  1.
</event>
<event>
 5   0  0.3261500E-05  0.2299200E+04  0.7818609E-02  0.8478237E-01
        3   -1    0    0  501    0  0.00000000000E+00  0.00000000000E+00  0.64143546314E+03  0.64143547109E+03  0.10100000352E+00 0.  1.
       -3   -1    0    0    0  501  0.00000000000E+00  0.00000000000E+00 -0.20603481206E+04  0.20603481231E+04  0.10100000352E+00 0. -1.
    10030    2    1    2    0    0  0.00000000000E+00  0.00000000000E+00 -0.14189126575E+04  0.27017835942E+04  0.22992001784E+04 0.  0.
        1    1    3    3  502    0  0.49478870545E+03  0.21806940019E+03  0.48267973103E+03  0.72481021592E+03  0.50400001928E-02 0.  1.
       -1    1    3    3    0  502 -0.49478870545E+03 -0.21806940019E+03 -0.19015923885E+04  0.19769733783E+04  0.50400001928E-02 0. -1.
</event>
<event>
 5   0  0.9313463E-05  0.2336179E+04  0.7818609E-02  0.8463791E-01
        2   -1    0    0  501    0  0.00000000000E+00  0.00000000000E+00  0.27568426234E+04  0.27568426234E+04  0.25500000920E-02 0.  1.
       -2   -1    0    0    0  501  0.00000000000E+00  0.00000000000E+00 -0.49492619149E+03  0.49492619149E+03  0.25500000920E-02 0. -1.
    10030    2    1    2    0    0  0.00000000000E+00  0.00000000000E+00  0.22619164319E+04  0.32517688149E+04  0.23361794624E+04 0.  0.
        1    1    3    3  502    0 -0.95631650176E+03 -0.53372120546E+03  0.16964160564E+04  0.20192144545E+04  0.50400001928E-02 0.  1.
       -1    1    3    3    0  502  0.95631650176E+03  0.53372120546E+03  0.56550037553E+03  0.12325543604E+04  0.50400001928E-02 0. -1.
</event>
<event>
 5   0  0.9312074E-05  0.2269537E+04  0.7818609E-02  0.8490030E-01
       -2   -1    0    0    0  501  0.00000000000E+00  0.00000000000E+00  0.43049976741E+03  0.43049976742E+03  0.25500000920E-02 0. -1.
        2   -1    0    0  501    0  0.00000000000E+00  0.00000000000E+00 -0.29911723898E+04  0.29911723898E+04  0.25500000920E-02 0.  1.
    10030    2    1    2    0    0  0.00000000000E+00  0.00000000000E+00 -0.25606726224E+04  0.34216721572E+04  0.22695365325E+04 0.  0.
        4    1    3    3  502    0  0.46437061334E+03 -0.69894878966E+03 -0.12865573774E+03  0.84895429139E+03  0.12699999809E+01 0. -1.
       -4    1    3    3    0  502 -0.46437061334E+03  0.69894878966E+03 -0.24320168846E+04  0.25727178658E+04  0.12699999809E+01 0.  1.
</event>
<event>
 5   0  0.9312074E-05  0.2202397E+04  0.7818609E-02  0.8517431E-01
        2   -1    0    0  501    0  0.00000000000E+00  0.00000000000E+00  0.15421580879E+04  0.15421580879E+04  0.25500000920E-02 0.  1.
       -2   -1    0    0    0  501  0.00000000000E+00  0.00000000000E+00 -0.78632525300E+03  0.78632525301E+03  0.25500000920E-02 0. -1.
    10030    2    1    2    0    0  0.00000000000E+00  0.00000000000E+00  0.75583283489E+03  0.23284833409E+04  0.22023967387E+04 0.  0.
        4    1    3    3  502    0 -0.39786497330E+03 -0.37596955189E+03  0.13881220376E+04  0.14921575135E+04  0.12699999809E+01 0.  1.
       -4    1    3    3    0  502  0.39786497330E+03  0.37596955189E+03 -0.63228920267E+03  0.83632582744E+03  0.12699999809E+01 0. -1.
</event>
<event>
 5   0  0.9312074E-05  0.2256200E+04  0.7818609E-02  0.8495394E-01
        2   -1    0    0  501    0  0.00000000000E+00  0.00000000000E+00  0.96454099751E+03  0.96454099751E+03  0.25500000920E-02 0. -1.
       -2   -1    0    0    0  501  0.00000000000E+00  0.00000000000E+00 -0.13193938105E+04  0.13193938105E+04  0.25500000920E-02 0.  1.
    10030    2    1    2    0    0  0.00000000000E+00  0.00000000000E+00 -0.35485281302E+03  0.22839348080E+04  0.22561998334E+04 0.  0.
        4    1    3    3  502    0  0.49680005405E+03 -0.24209540879E+03  0.81811984065E+03  0.98729031558E+03  0.12699999809E+01 0. -1.
       -4    1    3    3    0  502 -0.49680005405E+03  0.24209540879E+03 -0.11729726537E+04  0.12966444925E+04  0.12699999809E+01 0.  1.
</event>
<event>
 5   0  0.9641157E-05  0.2292608E+04  0.7818609E-02  0.8480841E-01
       -2   -1    0    0    0  501  0.00000000000E+00  0.00000000000E+00  0.15009100699E+04  0.15009100699E+04  0.25500000920E-02 0. -1.
        2   -1    0    0  501    0  0.00000000000E+00  0.00000000000E+00 -0.87547747335E+03  0.87547747335E+03  0.25500000920E-02 0.  1.
    10030    2    1    2    0    0  0.00000000000E+00  0.00000000000E+00  0.62543259651E+03  0.23763875432E+04  0.22926080831E+04 0.  0.
        3    1    3    3  502    0  0.11526991231E+02 -0.76766103880E+03  0.11950433632E+04  0.14204101493E+04  0.10100000352E+00 0. -1.
       -3    1    3    3    0  502 -0.11526991231E+02  0.76766103880E+03 -0.56961076668E+03  0.95597739395E+03  0.10100000352E+00 0.  1.
</event>
<event>
 5   0  0.4095451E-05  0.2272788E+04  0.7818609E-02  0.8488728E-01
        1   -1    0    0  501    0  0.00000000000E+00  0.00000000000E+00  0.30758007329E+04  0.30758007329E+04  0.50400001928E-02 0. -1.
       -1   -1    0    0    0  501  0.00000000000E+00  0.00000000000E+00 -0.41985523941E+03  0.41985523944E+03  0.50400001928E-02 0.  1.
    10030    2    1    2    0    0  0.00000000000E+00  0.00000000000E+00  0.26559454935E+04  0.34956559723E+04  0.22727877623E+04 0.  0.
        3    1    3    3  502    0  0.97094286648E+02 -0.20582255421E+03  0.30403944740E+04  0.30488996035E+04  0.10100000352E+00 0. -1.
       -3    1    3    3    0  502 -0.97094286648E+02  0.20582255421E+03 -0.38444898051E+03  0.44675636888E+03  0.10100000352E+00 0.  1.
</event>
<event>
 5   0  0.4005462E-05  0.2304902E+04  0.7818609E-02  0.8475991E-01
       -1   -1    0    0    0  501  0.00000000000E+00  0.00000000000E+00  0.11516635466E+04  0.11516635466E+04  0.50400001928E-02 0.  1.
        1   -1    0    0  501    0  0.00000000000E+00  0.00000000000E+00 -0.11532391636E+04  0.11532391637E+04  0.50400001928E-02 0. -1.
    10030    2    1    2    0    0  0.00000000000E+00  0.00000000000E+00 -0.15756170061E+01  0.23049027103E+04  0.23049021718E+04 0.  0.
        4    1    3    3  502    0 -0.72786131961E+03 -0.19318555969E+03  0.87158796318E+03  0.11518550046E+04  0.12699999809E+01 0.  1.
       -4    1    3    3    0  502  0.72786131961E+03  0.19318555969E+03 -0.87316358019E+03  0.11530477057E+04  0.12699999809E+01 0. -1.
</event>
<event>
 5   0  0.9641157E-05  0.2218691E+04  0.7818609E-02  0.8510689E-01
       -2   -1    0    0    0  501  0.00000000000E+00  0.00000000000E+00  0.78569144606E+03  0.78569144607E+03  0.25500000920E-02 0. -1.
        2   -1    0    0  501    0  0.00000000000E+00  0.00000000000E+00 -0.15663238590E+04  0.15663238590E+04  0.25500000920E-02 0.  1.
    10030    2    1    2    0    0  0.00000000000E+00  0.00000000000E+00 -0.78063241298E+03  0.23520153051E+04  0.22186908373E+04 0.  0.
        3    1    3    3  502    0  0.10599336624E+04  0.30113579403E+03 -0.52650852014E+03  0.12212097965E+04  0.10100000352E+00 0. -1.
       -3    1    3    3    0  502 -0.10599336624E+04 -0.30113579403E+03 -0.25412389284E+03  0.11308055086E+04  0.10100000352E+00 0.  1.
</event>
<event>
 5   0  0.9535394E-05  0.2277209E+04  0.7818609E-02  0.8486962E-01
        2   -1    0    0  501    0  0.00000000000E+00  0.00000000000E+00  0.13075766184E+04  0.13075766184E+04  0.25500000920E-02 0.  1.
       -2   -1    0    0    0  501  0.00000000000E+00  0.00000000000E+00 -0.99146808264E+03  0.99146808264E+03  0.25500000920E-02 0. -1.
    10030    2    1    2    0    0  0.00000000000E+00  0.00000000000E+00  0.31610853576E+03  0.22990447011E+04  0.22772092418E+04 0.  0.
        2    1    3    3  502    0  0.70851376352E+03 -0.17833523430E+03 -0.72360357417E+03  0.10282982746E+04  0.25500000920E-02 0. -1.
       -2    1    3    3    0  502 -0.70851376352E+03  0.17833523430E+03  0.10397121099E+04  0.12707464265E+04  0.25500000920E-02 0.  1.
</event>
<event>
 5   0  0.4139830E-05  0.2308966E+04  0.7818609E-02  0.8474394E-01
       -1   -1    0    0    0  501  0.00000000000E+00  0.00000000000E+00  0.60282821861E+03  0.60282821864E+03  0.50400001928E-02 0.  1.
        1   -1    0    0  501    0  0.00000000000E+00  0.00000000000E+00 -0.22109638625E+04  0.22109638625E+04  0.50400001928E-02 0. -1.
    10030    2    1    2    0    0  0.00000000000E+00  0.00000000000E+00 -0.16081356439E+04  0.28137920811E+04  0.23089663546E+04 0.  0.
        1    1    3    3  502    0 -0.57674119721E+02 -0.94455606243E+03  0.18180563217E+01  0.94631694717E+03  0.50400001928E-02 0.  1.
       -1    1    3    3    0  502  0.57674119721E+02  0.94455606243E+03 -0.16099537002E+04  0.18674751340E+04  0.50400001928E-02 0. -1.
</event>
<event>
 5   0  0.9313463E-05  0.2234853E+04  0.7818609E-02  0.8504060E-01
       -2   -1    0    0    0  501  0.00000000000E+00  0.00000000000E+00  0.12416088216E+04  0.12416088216E+04  0.25500000920E-02 0.  1.
        2   -1    0    0  501    0  0.00000000000E+00  0.00000000000E+00 -0.10056649489E+04  0.10056649489E+04  0.25500000920E-02 0. -1.
    10030    2    1    2    0    0  0.00000000000E+00  0.00000000000E+00  0.23594387270E+03  0.22472737705E+04  0.22348534378E+04 0.  0.
        1    1    3    3  502    0 -0.72928378655E+03 -0.25938599782E+03  0.92837056625E+03  0.12087215748E+04  0.50400001928E-02 0.  1.
       -1    1    3    3    0  502  0.72928378655E+03  0.25938599782E+03 -0.69242669355E+03  0.10385521957E+04  0.50400001928E-02 0. -1.
</event>
<event>
 5   0  0.3885219E-05  0.2264956E+04  0.7818609E-02  0.8491868E-01
       -1   -1    0    0    0  501  0.00000000000E+00  0.00000000000E+00  0.13619982406E+04  0.13619982406E+04  0.50400001928E-02 0.  1.
        1   -1    0    0  501    0  0.00000000000E+00  0.00000000000E+00 -0.94163582280E+03  0.94163582282E+03  0.50400001928E-02 0. -1.
    10030    2    1    2    0    0  0.00000000000E+00  0.00000000000E+00  0.42036241782E+03  0.23036340635E+04  0.22649559236E+04 0.  0.
        2    1    3    3  502    0 -0.29282548235E+03  0.47300676941E+02  0.13217871328E+04  0.13546606002E+04  0.25500000920E-02 0.  1.
       -2    1    3    3    0  502  0.29282548235E+03 -0.47300676941E+02 -0.90142471501E+03  0.94897346327E+03  0.25500000920E-02 0. -1.
</event>
<event>
 5   0  0.9483073E-05  0.2531571E+04  0.7818609E-02  0.8391824E-01
        2   -1    0    0  501    0  0.00000000000E+00  0.00000000000E+00  0.16837690836E+04  0.16837690836E+04  0.25500000920E-02 0.  1.
       -2   -1    0    0    0  501  0.00000000000E+00  0.00000000000E+00 -0.95156326983E+03  0.95156326983E+03  0.25500000920E-02 0. -1.
    10030    2    1    2    0    0  0.00000000000E+00  0.00000000000E+00  0.73220581380E+03  0.26353323535E+04  0.25315709074E+04 0.  0.
        5    1    3    3  502    0  0.62417753889E+03  0.88681799715E+03 -0.31345269574E+03  0.11288571400E+04  0.46999998093E+01 0. -1.
       -5    1    3    3    0  502 -0.62417753889E+03 -0.88681799715E+03  0.10456585095E+04  0.15064752134E+04  0.46999998093E+01 0.  1.
</event>
<event>
 5   0  0.3885219E-05  0.2134513E+04  0.7818609E-02  0.8546191E-01
        1   -1    0    0  501    0  0.00000000000E+00  0.00000000000E+00  0.13113734270E+04  0.13113734270E+04  0.50400001928E-02 0.  1.
       -1   -1    0    0    0  501  0.00000000000E+00  0.00000000000E+00 -0.86858260437E+03  0.86858260439E+03  0.50400001928E-02 0. -1.
    10030    2    1    2    0    0  0.00000000000E+00  0.00000000000E+00  0.44279082266E+03  0.21799560314E+04  0.21345127281E+04 0.  0.
        2    1    3    3  502    0 -0.21471355966E+03 -0.45224799676E+03  0.11840150615E+04  0.12855045037E+04  0.25500000920E-02 0.  1.
       -2    1    3    3    0  502  0.21471355966E+03  0.45224799676E+03 -0.74122423880E+03  0.89445152773E+03  0.25500000920E-02 0. -1.
</event>
<event>
 5   0  0.4095451E-05  0.2189470E+04  0.7818609E-02  0.8522824E-01
       -1   -1    0    0    0  501  0.00000000000E+00  0.00000000000E+00  0.66546678705E+03  0.66546678707E+03  0.50400001928E-02 0. -1.
        1   -1    0    0  501    0  0.00000000000E+00  0.00000000000E+00 -0.18009078948E+04  0.18009078948E+04  0.50400001928E-02 0.  1.
    10030    2    1    2    0    0  0.00000000000E+00  0.00000000000E+00 -0.11354411078E+04  0.24663746819E+04  0.21894696989E+04 0.  0.
        3    1    3    3  502    0  0.99091156241E+03  0.41075393435E+03 -0.32138660418E+03  0.11197829605E+04  0.10100000352E+00 0.  1.
       -3    1    3    3    0  502 -0.99091156241E+03 -0.41075393435E+03 -0.81405450360E+03  0.13465917214E+04  0.10100000352E+00 0. -1.
</event>
<event>
 5   0  0.4295775E-05  0.2325837E+04  0.7818609E-02  0.8467803E-01
       -1   -1    0    0    0  501  0.00000000000E+00  0.00000000000E+00  0.10759837385E+04  0.10759837385E+04  0.50400001928E-02 0. -1.
        1   -1    0    0  501    0  0.00000000000E+00  0.00000000000E+00 -0.12568767973E+04  0.12568767973E+04  0.50400001928E-02 0.  1.
    10030    2    1    2    0    0  0.00000000000E+00  0.00000000000E+00 -0.18089305881E+03  0.23328605357E+04  0.23258366195E+04 0.  0.
        5    1    3    3  502    0 -0.11176797589E+04 -0.29955837060E+03 -0.20661358075E+03  0.11754380131E+04  0.46999998093E+01 0.  1.
       -5    1    3    3    0  502  0.11176797589E+04  0.29955837060E+03  0.25720521935E+02  0.11574225227E+04  0.46999998093E+01 0. -1.
</event>
<event>
 5   0  0.9313463E-05  0.2324582E+04  0.7818609E-02  0.8468291E-01
       -2   -1    0    0    0  501  0.00000000000E+00  0.00000000000E+00  0.77345299764E+03  0.77345299764E+03  0.25500000920E-02 0.  1.
        2   -1    0    0  501    0  0.00000000000E+00  0.00000000000E+00 -0.17466093210E+04  0.17466093210E+04  0.25500000920E-02 0. -1.
    10030    2    1    2    0    0  0.00000000000E+00  0.00000000000E+00 -0.97315632337E+03  0.25200623187E+04  0.23245818678E+04 0.  0.
        1    1    3    3  502    0  0.44178904948E+03 -0.89441580749E+03 -0.11331947363E+04  0.15097309401E+04  0.50400001928E-02 0. -1.
       -1    1    3    3    0  502 -0.44178904948E+03  0.89441580749E+03  0.16003841294E+03  0.10103313786E+04  0.50400001928E-02 0.  1.
</event>
<event>
 5   0  0.4095451E-05  0.2296551E+04  0.7818609E-02  0.8479282E-01
       -1   -1    0    0    0  501  0.00000000000E+00  0.00000000000E+00  0.60488066415E+03  0.60488066417E+03  0.50400001928E-02 0.  1.
        1   -1    0    0  501    0  0.00000000000E+00  0.00000000000E+00 -0.21798293063E+04  0.21798293063E+04  0.50400001928E-02 0. -1.
    10030    2    1    2    0    0  0.00000000000E+00  0.00000000000E+00 -0.15749486421E+04  0.27847099705E+04  0.22965509779E+04 0.  0.
        3    1    3    3  502    0 -0.66765557031E+03  0.66622967778E+03 -0.15815964382E+04  0.18414866949E+04  0.10100000352E+00 0. -1.
       -3    1    3    3    0  502  0.66765557031E+03 -0.66622967778E+03  0.66477960466E+01  0.94322327553E+03  0.10100000352E+00 0.  1.
</event>
<event>
 5   0  0.9535394E-05  0.2243532E+04  0.7818609E-02  0.8500524E-01
        2   -1    0    0  501    0  0.00000000000E+00  0.00000000000E+00  0.15694866208E+04  0.15694866208E+04  0.25500000920E-02 0. -1.
       -2   -1    0    0    0  501  0.00000000000E+00  0.00000000000E+00 -0.80176486186E+03  0.80176486186E+03  0.25500000920E-02 0.  1.
    10030    2    1    2    0    0  0.00000000000E+00  0.00000000000E+00  0.76772175893E+03  0.23712514827E+04  0.22435322362E+04 0.  0.
        2    1    3    3  502    0  0.10222210133E+04 -0.15523701746E+03 -0.76024031403E+02  0.10367323594E+04  0.25500000920E-02 0.  1.
       -2    1    3    3    0  502 -0.10222210133E+04  0.15523701746E+03  0.84374579034E+03  0.13345191233E+04  0.25500000920E-02 0. -1.
</event>
<event>
 5   0  0.4005462E-05  0.2298362E+04  0.7818609E-02  0.8478567E-01
        1   -1    0    0  501    0  0.00000000000E+00  0.00000000000E+00  0.23290761359E+04  0.23290761359E+04  0.50400001928E-02 0. -1.
       -1   -1    0    0    0  501  0.00000000000E+00  0.00000000000E+00 -0.56701345240E+03  0.56701345243E+03  0.50400001928E-02 0.  1.
    10030    2    1    2    0    0  0.00000000000E+00  0.00000000000E+00  0.17620626834E+04  0.28960895883E+04  0.22983624612E+04 0.  0.
        4    1    3    3  502    0  0.10884286074E+03 -0.10976725247E+03 -0.55385209465E+03  0.57502119413E+03  0.12699999809E+01 0.  1.
       -4    1    3    3    0  502 -0.10884286074E+03  0.10976725247E+03  0.23159147781E+04  0.23210683942E+04  0.12699999809E+01 0. -1.
</event>
<event>
 5   0  0.4295775E-05  0.2408310E+04  0.7818609E-02  0.8436399E-01
       -1   -1    0    0    0  501  0.00000000000E+00  0.00000000000E+00  0.96081591729E+03  0.96081591731E+03  0.50400001928E-02 0.  1.
        1   -1    0    0  501    0  0.00000000000E+00  0.00000000000E+00 -0.15091233183E+04  0.15091233183E+04  0.50400001928E-02 0. -1.
    10030    2    1    2    0    0  0.00000000000E+00  0.00000000000E+00 -0.54830740099E+03  0.24699392356E+04  0.24083103665E+04 0.  0.
        5    1    3    3  502    0  0.29367391913E+03 -0.64439850896E+02 -0.14699982276E+04  0.15004378509E+04  0.46999998093E+01 0. -1.
       -5    1    3    3    0  502 -0.29367391913E+03  0.64439850896E+02  0.92169082661E+03  0.96950138474E+03  0.46999998093E+01 0.  1.
</event>
<event>
 5   0  0.9483073E-05  0.2350105E+04  0.7818609E-02  0.8458423E-01
       -2   -1    0    0    0  501  0.00000000000E+00  0.00000000000E+00  0.94925473244E+03  0.94925473244E+03  0.25500000920E-02 0.  1.
        2   -1    0    0  501    0  0.00000000000E+00  0.00000000000E+00 -0.14545603132E+04  0.14545603132E+04  0.25500000920E-02 0. -1.
    10030    2    1    2    0    0  0.00000000000E+00  0.00000000000E+00 -0.50530558077E+03  0.24038150457E+04  0.23501049006E+04 0.  0.
        5    1    3    3  502    0  0.67364155978E+03  0.58294937448E+03 -0.10363910389E+04  0.13666570162E+04  0.46999998093E+01 0.  1.
       -5    1    3    3    0  502 -0.67364155978E+03 -0.58294937448E+03  0.53108545816E+03  0.10371580295E+04  0.46999998093E+01 0. -1.
</event>
<event>
 5   0  0.4295775E-05  0.2268090E+04  0.7818609E-02  0.8490610E-01
       -1   -1    0    0    0  501  0.00000000000E+00  0.00000000000E+00  0.11573832644E+04  0.11573832644E+04  0.50400001928E-02 0. -1.
        1   -1    0    0  501    0  0.00000000000E+00  0.00000000000E+00 -0.11111776297E+04  0.11111776297E+04  0.50400001928E-02 0.  1.
    10030    2    1    2    0    0  0.00000000000E+00  0.00000000000E+00  0.46205634717E+02  0.22685608942E+04  0.22680902914E+04 0.  0.
        5    1    3    3  502    0  0.55240610554E+03  0.99037570284E+03  0.29410017247E+02  0.11344089110E+04  0.46999998093E+01 0.  1.
       -5    1    3    3    0  502 -0.55240610554E+03 -0.99037570284E+03  0.16795617471E+02  0.11341519832E+04  0.46999998093E+01 0. -1.
</event>
<event>
 5   0  0.3885219E-05  0.2307863E+04  0.7818609E-02  0.8474827E-01
        1   -1    0    0  501    0  0.00000000000E+00  0.00000000000E+00  0.18093829841E+04  0.18093829841E+04  0.50400001928E-02 0.  1.
       -1   -1    0    0    0  501  0.00000000000E+00  0.00000000000E+00 -0.73591809643E+03  0.73591809644E+03  0.50400001928E-02 0. -1.
    10030    2    1    2    0    0  0.00000000000E+00  0.00000000000E+00  0.10734648876E+04  0.25453010805E+04  0.23078628047E+04 0.  0.
        2    1    3    3  502    0  0.36043395043E+03 -0.68020112558E+03 -0.41134324898E+03  0.87280551806E+03  0.25500000920E-02 0. -1.
       -2    1    3    3    0  502 -0.36043395043E+03  0.68020112558E+03  0.14848081366E+04  0.16724955624E+04  0.25500000920E-02 0.  1.
</event>
<event>
 5   0  0.9313463E-05  0.2367868E+04  0.7818609E-02  0.8451632E-01
       -2   -1    0    0    0  501  0.00000000000E+00  0.00000000000E+00  0.98551250736E+03  0.98551250737E+03  0.25500000920E-02 0.  1.
        2   -1    0    0  501    0  0.00000000000E+00  0.00000000000E+00 -0.14223052300E+04  0.14223052300E+04  0.25500000920E-02 0. -1.
    10030    2    1    2    0    0  0.00000000000E+00  0.00000000000E+00 -0.43679272267E+03  0.24078177374E+04  0.23678678962E+04 0.  0.
        1    1    3    3  502    0 -0.10690712610E+04 -0.13698487321E+03 -0.71658188258E+03  0.12942827400E+04  0.50400001928E-02 0. -1.
       -1    1    3    3    0  502  0.10690712610E+04  0.13698487321E+03  0.27978915991E+03  0.11135349974E+04  0.50400001928E-02 0.  1.
</event>
<event>
 5   0  0.4005462E-05  0.1996111E+04  0.7818609E-02  0.8608441E-01
        1   -1    0    0  501    0  0.00000000000E+00  0.00000000000E+00  0.17534831857E+04  0.17534831857E+04  0.50400001928E-02 0.  1.
       -1   -1    0    0    0  501  0.00000000000E+00  0.00000000000E+00 -0.56807764003E+03  0.56807764005E+03  0.50400001928E-02 0. -1.
    10030    2    1    2    0    0  0.00000000000E+00  0.00000000000E+00  0.11854055456E+04  0.23215608257E+04  0.19961108085E+04 0.  0.
        4    1    3    3  502    0 -0.50795182059E+03 -0.81647691470E+03  0.90361455145E+03  0.13195341886E+04  0.12699999809E+01 0.  1.
       -4    1    3    3    0  502  0.50795182059E+03  0.81647691470E+03  0.28179099419E+03  0.10020266372E+04  0.12699999809E+01 0. -1.
</event>
<event>
 5   0  0.9313463E-05  0.2375327E+04  0.7818609E-02  0.8448799E-01
       -2   -1    0    0    0  501  0.00000000000E+00  0.00000000000E+00  0.10985471463E+04  0.10985471463E+04  0.25500000920E-02 0. -1.
        2   -1    0    0  501    0  0.00000000000E+00  0.00000000000E+00 -0.12840091322E+04  0.12840091322E+04  0.25500000920E-02 0.  1.
    10030    2    1    2    0    0  0.00000000000E+00  0.00000000000E+00 -0.18546198591E+03  0.23825562785E+04  0.23753269821E+04 0.  0.
        1    1    3    3  502    0  0.80909787744E+03  0.61397204125E+03 -0.71018840926E+03  0.12393420107E+04  0.50400001928E-02 0.  1.
       -1    1    3    3    0  502 -0.80909787744E+03 -0.61397204125E+03  0.52472642335E+03  0.11432142678E+04  0.50400001928E-02 0. -1.
</event>
<event>
 5   0  0.9313463E-05  0.1869219E+04  0.7818609E-02  0.8670332E-01
        2   -1    0    0  501    0  0.00000000000E+00  0.00000000000E+00  0.86765256917E+03  0.86765256917E+03  0.25500000920E-02 0.  1.
       -2   -1    0    0    0  501  0.00000000000E+00  0.00000000000E+00 -0.10067330356E+04  0.10067330356E+04  0.25500000920E-02 0. -1.
    10030    2    1    2    0    0  0.00000000000E+00  0.00000000000E+00 -0.13908046642E+03  0.18743856048E+04  0.18692185584E+04 0.  0.
        1    1    3    3  502    0 -0.77741662135E+03  0.16341034475E+03  0.42417731723E+03  0.90055868237E+03  0.50400001928E-02 0.  1.
       -1    1    3    3    0  502  0.77741662135E+03 -0.16341034475E+03 -0.56325778365E+03  0.97382692240E+03  0.50400001928E-02 0. -1.
</event>
<event>
 5   0  0.4005462E-05  0.2397629E+04  0.7818609E-02  0.8440392E-01
        1   -1    0    0  501    0  0.00000000000E+00  0.00000000000E+00  0.13510292684E+04  0.13510292684E+04  0.50400001928E-02 0.  1.
       -1   -1    0    0    0  501  0.00000000000E+00  0.00000000000E+00 -0.10637487781E+04  0.10637487781E+04  0.50400001928E-02 0. -1.
    10030    2    1    2    0    0  0.00000000000E+00  0.00000000000E+00  0.28728049035E+03  0.24147780465E+04  0.23976286063E+04 0.  0.
        4    1    3    3  502    0 -0.42481637360E+03 -0.10951838932E+04  0.38463697758E+03  0.12360598403E+04  0.12699999809E+01 0.  1.
       -4    1    3    3    0  502  0.42481637360E+03  0.10951838932E+04 -0.97356487229E+02  0.11787182063E+04  0.12699999809E+01 0. -1.
</event>
<event>
 5   0  0.4095451E-05  0.2330969E+04  0.7818609E-02  0.8465810E-01
       -1   -1    0    0    0  501  0.00000000000E+00  0.00000000000E+00  0.61493848916E+03  0.61493848918E+03  0.50400001928E-02 0. -1.
        1   -1    0    0  501    0  0.00000000000E+00  0.00000000000E+00 -0.22089262514E+04  0.22089262514E+04  0.50400001928E-02 0.  1.
    10030    2    1    2    0    0  0.00000000000E+00  0.00000000000E+00 -0.15939877622E+04  0.28238647406E+04  0.23309687014E+04 0.  0.
        3    1    3    3  502    0  0.66459148342E+03  0.31504263801E+03 -0.18922863303E+04  0.20301924219E+04  0.10100000352E+00 0.  1.
       -3    1    3    3    0  502 -0.66459148342E+03 -0.31504263801E+03  0.29829856809E+03  0.79367231874E+03  0.10100000352E+00 0. -1.
</event>
<event>
 5   0  0.9312074E-05  0.2389426E+04  0.7818609E-02  0.8443473E-01
       -2   -1    0    0    0  501  0.00000000000E+00  0.00000000000E+00  0.76060014313E+03  0.76060014314E+03  0.25500000920E-02 0. -1.
        2   -1    0    0  501    0  0.00000000000E+00  0.00000000000E+00 -0.18765962493E+04  0.18765962493E+04  0.25500000920E-02 0.  1.
    10030    2    1    2    0    0  0.00000000000E+00  0.00000000000E+00 -0.11159961062E+04  0.26371963925E+04  0.23894261871E+04 0.  0.
        4    1    3    3  502    0  0.22778889909E+03  0.51971037537E+02  0.73513859684E+03  0.77137483804E+03  0.12699999809E+01 0. -1.
       -4    1    3    3    0  502 -0.22778889909E+03 -0.51971037537E+02 -0.18511347030E+04  0.18658215544E+04  0.12699999809E+01 0.  1.
</event>
<event>
 5   0  0.4005462E-05  0.2332312E+04  0.7818609E-02  0.8465289E-01
        1   -1    0    0  501    0  0.00000000000E+00  0.00000000000E+00  0.15761998320E+04  0.15761998320E+04  0.50400001928E-02 0.  1.
       -1   -1    0    0    0  501  0.00000000000E+00  0.00000000000E+00 -0.86278360173E+03  0.86278360175E+03  0.50400001928E-02 0. -1.
    10030    2    1    2    0    0  0.00000000000E+00  0.00000000000E+00  0.71341623030E+03  0.24389834338E+04  0.23323116157E+04 0.  0.
        4    1    3    3  502    0  0.15854482279E+03 -0.11058066505E+04  0.70663622251E+03  0.13218476361E+04  0.12699999809E+01 0.  1.
       -4    1    3    3    0  502 -0.15854482279E+03  0.11058066505E+04  0.67800077838E+01  0.11171357977E+04  0.12699999809E+01 0. -1.
</event>
<event>
 5   0  0.4139830E-05  0.1965262E+04  0.7818609E-02  0.8623036E-01
       -1   -1    0    0    0  501  0.00000000000E+00  0.00000000000E+00  0.12630815082E+04  0.12630815082E+04  0.50400001928E-02 0.  1.
        1   -1    0    0  501    0  0.00000000000E+00  0.00000000000E+00 -0.76445075617E+03  0.76445075619E+03  0.50400001928E-02 0. -1.
    10030    2    1    2    0    0  0.00000000000E+00  0.00000000000E+00  0.49863075201E+03  0.20275322644E+04  0.19652619307E+04 0.  0.
        1    1    3    3  502    0  0.45516873275E+03  0.59819184890E+03 -0.40362953465E+03  0.85318747333E+03  0.50400001928E-02 0. -1.
       -1    1    3    3    0  502 -0.45516873275E+03 -0.59819184890E+03  0.90226028666E+03  0.11743447911E+04  0.50400001928E-02 0.  1.
</event>
<event>
 5   0  0.4295775E-05  0.2361382E+04  0.7818609E-02  0.8454105E-01
        1   -1    0    0  501    0  0.00000000000E+00  0.00000000000E+00  0.10105356559E+04  0.10105356559E+04  0.50400001928E-02 0. -1.
       -1   -1    0    0    0  501  0.00000000000E+00  0.00000000000E+00 -0.13794975421E+04  0.13794975421E+04  0.50400001928E-02 0.  1.
    10030    2    1    2    0    0  0.00000000000E+00  0.00000000000E+00 -0.36896188620E+03  0.23900331979E+04  0.23613821829E+04 0.  0.
        5    1    3    3  502    0  0.60826107373E+03 -0.64910530890E+03 -0.97023148662E+03  0.13163170072E+04  0.46999998093E+01 0. -1.
       -5    1    3    3    0  502 -0.60826107373E+03  0.64910530890E+03  0.60126960042E+03  0.10737161907E+04  0.46999998093E+01 0.  1.
</event>
<event>
 5   0  0.9312074E-05  0.2266408E+04  0.7818609E-02  0.8491285E-01
        2   -1    0    0  501    0  0.00000000000E+00  0.00000000000E+00  0.16557689253E+04  0.16557689253E+04  0.25500000920E-02 0. -1.
       -2   -1    0    0    0  501  0.00000000000E+00  0.00000000000E+00 -0.77556168427E+03  0.77556168427E+03  0.25500000920E-02 0.  1.
    10030    2    1    2    0    0  0.00000000000E+00  0.00000000000E+00  0.88020724106E+03  0.24313306096E+04  0.22664076743E+04 0.  0.
        4    1    3    3  502    0  0.79224387783E+03 -0.53224620604E+03  0.10954702607E+04  0.14529257004E+04  0.12699999809E+01 0. -1.
       -4    1    3    3    0  502 -0.79224387783E+03  0.53224620604E+03 -0.21526301968E+03  0.97840490920E+03  0.12699999809E+01 0.  1.
</event>
<event>
 5   0  0.9535394E-05  0.2254887E+04  0.7818609E-02  0.8495924E-01
       -2   -1    0    0    0  501  0.00000000000E+00  0.00000000000E+00  0.10811383212E+04  0.10811383212E+04  0.25500000920E-02 0. -1.
        2   -1    0    0  501    0  0.00000000000E+00  0.00000000000E+00 -0.11757319907E+04  0.11757319907E+04  0.25500000920E-02 0.  1.
    10030    2    1    2    0    0  0.00000000000E+00  0.00000000000E+00 -0.94593669593E+02  0.22568703119E+04  0.22548870576E+04 0.  0.
        2    1    3    3  502    0  0.53813743348E+03  0.42968324482E+03 -0.94077977238E+03  0.11658842860E+04  0.25500000920E-02 0.  1.
       -2    1    3    3    0  502 -0.53813743348E+03 -0.42968324482E+03  0.84618610279E+03  0.10909860259E+04  0.25500000920E-02 0. -1.
</event>
<event>
 5   0  0.4295775E-05  0.2272799E+04  0.7818609E-02  0.8488724E-01
        1   -1    0    0  501    0  0.00000000000E+00  0.00000000000E+00  0.15496792336E+04  0.15496792336E+04  0.50400001928E-02 0.  1.
       -1   -1    0    0    0  501  0.00000000000E+00  0.00000000000E+00 -0.83333604952E+03  0.83333604953E+03  0.50400001928E-02 0. -1.
    10030    2    1    2    0    0  0.00000000000E+00  0.00000000000E+00  0.71634318409E+03  0.23830152831E+04  0.22727987773E+04 0.  0.
        5    1    3    3  502    0  0.43629153256E+03  0.28005448871E+03  0.14184474564E+04  0.15102304773E+04  0.46999998093E+01 0.  1.
       -5    1    3    3    0  502 -0.43629153256E+03 -0.28005448871E+03 -0.70210427233E+03  0.87278480581E+03  0.46999998093E+01 0. -1.
</event>
<event>
 5   0  0.4139830E-05  0.2315090E+04  0.7818609E-02  0.8471995E-01
       -1   -1    0    0    0  501  0.00000000000E+00  0.00000000000E+00  0.26456791803E+04  0.26456791803E+04  0.50400001928E-02 0. -1.
        1   -1    0    0  501    0  0.00000000000E+00  0.00000000000E+00 -0.50645220422E+03  0.50645220425E+03  0.50400001928E-02 0.  1.
    10030    2    1    2    0    0  0.00000000000E+00  0.00000000000E+00  0.21392269761E+04  0.31521313846E+04  0.23150896765E+04 0.  0.
        1    1    3    3  502    0  0.89909673828E+03 -0.70416812000E+03  0.13268089598E+04  0.17506140928E+04  0.50400001928E-02 0.  1.
       -1    1    3    3    0  502 -0.89909673828E+03  0.70416812000E+03  0.81241801635E+03  0.14015172918E+04  0.50400001928E-02 0. -1.
</event>
<event>
 5   0  0.9641157E-05  0.2331835E+04  0.7818609E-02  0.8465474E-01
        2   -1    0    0  501    0  0.00000000000E+00  0.00000000000E+00  0.22217305379E+04  0.22217305379E+04  0.25500000920E-02 0.  1.
       -2   -1    0    0    0  501  0.00000000000E+00  0.00000000000E+00 -0.61184922598E+03  0.61184922598E+03  0.25500000920E-02 0. -1.
    10030    2    1    2    0    0  0.00000000000E+00  0.00000000000E+00  0.16098813119E+04  0.28335797639E+04  0.23318354230E+04 0.  0.
        3    1    3    3  502    0  0.79992192531E+03 -0.45226712038E+03 -0.67061025609E+02  0.92136736763E+03  0.10100000352E+00 0. -1.
       -3    1    3    3    0  502 -0.79992192531E+03  0.45226712038E+03  0.16769423375E+04  0.19122123963E+04  0.10100000352E+00 0.  1.
</event>
<event>
 5   0  0.9312074E-05  0.1721415E+04  0.7818609E-02  0.8749244E-01
       -2   -1    0    0    0  501  0.00000000000E+00  0.00000000000E+00  0.38548227214E+03  0.38548227215E+03  0.25500000920E-02 0.  1.
        2   -1    0    0  501    0  0.00000000000E+00  0.00000000000E+00 -0.19217938597E+04  0.19217938597E+04  0.25500000920E-02 0. -1.
    10030    2    1    2    0    0  0.00000000000E+00  0.00000000000E+00 -0.15363115876E+04  0.23072761319E+04  0.17214150733E+04 0.  0.
        4    1    3    3  502    0  0.32487756851E+03 -0.78018789376E+03 -0.54964689474E+03  0.10081428003E+04  0.12699999809E+01 0.  1.
       -4    1    3    3    0  502 -0.32487756851E+03  0.78018789376E+03 -0.98666469285E+03  0.12991333315E+04  0.12699999809E+01 0. -1.
</event>
<event>
 5   0  0.9312074E-05  0.2323209E+04  0.7818609E-02  0.8468826E-01
       -2   -1    0    0    0  501  0.00000000000E+00  0.00000000000E+00  0.11030681999E+04  0.11030681999E+04  0.25500000920E-02 0.  1.
        2   -1    0    0  501    0  0.00000000000E+00  0.00000000000E+00 -0.12232470881E+04  0.12232470881E+04  0.25500000920E-02 0. -1.
    10030    2    1    2    0    0  0.00000000000E+00  0.00000000000E+00 -0.12017888818E+03  0.23263152880E+04  0.23232089561E+04 0.  0.
        4    1    3    3  502    0 -0.26821958634E+03 -0.22955266389E+03 -0.11682249927E+04  0.12204046126E+04  0.12699999809E+01 0. -1.
       -4    1    3    3    0  502  0.26821958634E+03  0.22955266389E+03  0.10480461045E+04  0.11059106754E+04  0.12699999809E+01 0.  1.
</event>
<event>
 5   0  0.4095451E-05  0.2247177E+04  0.7818609E-02  0.8499045E-01
       -1   -1    0    0    0  501  0.00000000000E+00  0.00000000000E+00  0.72365840817E+03  0.72365840819E+03  0.50400001928E-02 0. -1.
        1   -1    0    0  501    0  0.00000000000E+00  0.00000000000E+00 -0.17445405798E+04  0.17445405798E+04  0.50400001928E-02 0.  1.
    10030    2    1    2    0    0  0.00000000000E+00  0.00000000000E+00 -0.10208821716E+04  0.24681989880E+04  0.22471773041E+04 0.  0.
        3    1    3    3  502    0 -0.29622080398E+03 -0.75560305259E+03 -0.13638911814E+04  0.15870985800E+04  0.10100000352E+00 0.  1.
       -3    1    3    3    0  502  0.29622080398E+03  0.75560305259E+03  0.34300900983E+03  0.88110040792E+03  0.10100000352E+00 0. -1.
</event>
<event>
 5   0  0.4095451E-05  0.1925019E+04  0.7818609E-02  0.8642502E-01
        1   -1    0    0  501    0  0.00000000000E+00  0.00000000000E+00  0.14007444821E+04  0.14007444821E+04  0.50400001928E-02 0.  1.
       -1   -1    0    0    0  501  0.00000000000E+00  0.00000000000E+00 -0.66138019401E+03  0.66138019403E+03  0.50400001928E-02 0. -1.
    10030    2    1    2    0    0  0.00000000000E+00  0.00000000000E+00  0.73936428809E+03  0.20621246761E+04  0.19250191244E+04 0.  0.
        3    1    3    3  502    0  0.86288029606E+02  0.90148840087E+03  0.20427832321E+02  0.90583898541E+03  0.10100000352E+00 0. -1.
       -3    1    3    3    0  502 -0.86288029606E+02 -0.90148840087E+03  0.71893645577E+03  0.11562856907E+04  0.10100000352E+00 0.  1.
</event>
<event>
 5   0  0.4139830E-05  0.2271969E+04  0.7818609E-02  0.8489056E-01
        1   -1    0    0  501    0  0.00000000000E+00  0.00000000000E+00  0.11623419323E+04  0.11623419323E+04  0.50400001928E-02 0. -1.
       -1   -1    0    0    0  501  0.00000000000E+00  0.00000000000E+00 -0.11102247461E+04  0.11102247461E+04  0.50400001928E-02 0.  1.
    10030    2    1    2    0    0  0.00000000000E+00  0.00000000000E+00  0.52117186216E+02  0.22725666784E+04  0.22719689933E+04 0.  0.
        1    1    3    3  502    0 -0.10756701980E+04  0.17051090639E+03 -0.29701311210E+03  0.11288742768E+04  0.50400001928E-02 0.  1.
       -1    1    3    3    0  502  0.10756701980E+04 -0.17051090639E+03  0.34913029831E+03  0.11436924015E+04  0.50400001928E-02 0. -1.
</event>
<event>
 5   0  0.3885219E-05  0.1708587E+04  0.7818609E-02  0.8756482E-01
        1   -1    0    0  501    0  0.00000000000E+00  0.00000000000E+00  0.62258379545E+03  0.62258379547E+03  0.50400001928E-02 0.  1.
       -1   -1    0    0    0  501  0.00000000000E+00  0.00000000000E+00 -0.11722394594E+04  0.11722394594E+04  0.50400001928E-02 0. -1.
    10030    2    1    2    0    0  0.00000000000E+00  0.00000000000E+00 -0.54965566392E+03  0.17948232549E+04  0.17085868919E+04 0.  0.
        2    1    3    3  502    0 -0.43576621685E+02 -0.11608233299E+03 -0.11627368972E+04  0.11693293471E+04  0.25500000920E-02 0. -1.
       -2    1    3    3    0  502  0.43576621685E+02  0.11608233299E+03  0.61308123327E+03  0.62549390771E+03  0.25500000920E-02 0.  1.
</event>
<event>
 5   0  0.9641157E-05  0.2413721E+04  0.7818609E-02  0.8434384E-01
       -2   -1    0    0    0  501  0.00000000000E+00  0.00000000000E+00  0.71929988333E+03  0.71929988334E+03  0.25500000920E-02 0. -1.
        2   -1    0    0  501    0  0.00000000000E+00  0.00000000000E+00 -0.20249030329E+04  0.20249030329E+04  0.25500000920E-02 0.  1.
    10030    2    1    2    0    0  0.00000000000E+00  0.00000000000E+00 -0.13056031496E+04  0.27442029163E+04  0.24137212062E+04 0.  0.
        3    1    3    3  502    0 -0.32614928826E+03  0.99519875005E+03 -0.13346856682E+04  0.16965198948E+04  0.10100000352E+00 0.  1.
       -3    1    3    3    0  502  0.32614928826E+03 -0.99519875005E+03  0.29082518634E+02  0.10476830214E+04  0.10100000352E+00 0. -1.
</event>
<event>
 5   0  0.9641157E-05  0.2285695E+04  0.7818609E-02  0.8483583E-01
        2   -1    0    0  501    0  0.00000000000E+00  0.00000000000E+00  0.27983881495E+04  0.27983881495E+04  0.25500000920E-02 0.  1.
       -2   -1    0    0    0  501  0.00000000000E+00  0.00000000000E+00 -0.46673308480E+03  0.46673308480E+03  0.25500000920E-02 0. -1.
    10030    2    1    2    0    0  0.00000000000E+00  0.00000000000E+00  0.23316550647E+04  0.32651212343E+04  0.22856949346E+04 0.  0.
        3    1    3    3  502    0  0.73963751311E+03  0.55432972816E+03  0.21259632756E+04  0.23182029587E+04  0.10100000352E+00 0.  1.
       -3    1    3    3    0  502 -0.73963751311E+03 -0.55432972816E+03  0.20569178907E+03  0.94691827557E+03  0.10100000352E+00 0. -1.
</event>
<event>
 5   0  0.4095451E-05  0.2290958E+04  0.7818609E-02  0.8481495E-01
       -1   -1    0    0    0  501  0.00000000000E+00  0.00000000000E+00  0.14114672669E+04  0.14114672669E+04  0.50400001928E-02 0.  1.
        1   -1    0    0  501    0  0.00000000000E+00  0.00000000000E+00 -0.92961533926E+03  0.92961533927E+03  0.50400001928E-02 0. -1.
    10030    2    1    2    0    0  0.00000000000E+00  0.00000000000E+00  0.48185192762E+03  0.23410826062E+04  0.22909575484E+04 0.  0.
        3    1    3    3  502    0 -0.63918514560E+03 -0.63891210791E+03  0.96013990101E+03  0.13185730817E+04  0.10100000352E+00 0.  1.
       -3    1    3    3    0  502  0.63918514560E+03  0.63891210791E+03 -0.47828797339E+03  0.10225095245E+04  0.10100000352E+00 0. -1.
</event>
<event>
 5   0  0.9535394E-05  0.2379629E+04  0.7818609E-02  0.8447170E-01
       -2   -1    0    0    0  501  0.00000000000E+00  0.00000000000E+00  0.56832264220E+03  0.56832264221E+03  0.25500000920E-02 0.  1.
        2   -1    0    0  501    0  0.00000000000E+00  0.00000000000E+00 -0.24909424710E+04  0.24909424710E+04  0.25500000920E-02 0. -1.
    10030    2    1    2    0    0  0.00000000000E+00  0.00000000000E+00 -0.19226198288E+04  0.30592651132E+04  0.23796293886E+04 0.  0.
        2    1    3    3  502    0 -0.59202646180E+03  0.51073760175E+03 -0.21142844998E+04  0.22542287318E+04  0.25500000920E-02 0. -1.
       -2    1    3    3    0  502  0.59202646180E+03 -0.51073760175E+03  0.19166467096E+03  0.80503638142E+03  0.25500000920E-02 0.  1.
</event>
<event>
 5   0  0.9313463E-05  0.2397288E+04  0.7818609E-02  0.8440520E-01
       -2   -1    0    0    0  501  0.00000000000E+00  0.00000000000E+00  0.62180643198E+03  0.62180643199E+03  0.25500000920E-02 0. -1.
        2   -1    0    0  501    0  0.00000000000E+00  0.00000000000E+00 -0.23106025138E+04  0.23106025138E+04  0.25500000920E-02 0.  1.
    10030    2    1    2    0    0  0.00000000000E+00  0.00000000000E+00 -0.16887960818E+04  0.29324089458E+04  0.23972880551E+04 0.  0.
        1    1    3    3  502    0  0.26332286473E+03  0.32881580218E+03 -0.22170706721E+04  0.22567368318E+04  0.50400001928E-02 0.  1.
       -1    1    3    3    0  502 -0.26332286473E+03 -0.32881580218E+03  0.52827459029E+03  0.67567211399E+03  0.50400001928E-02 0. -1.
</event>
<event>
 5   0  0.9312074E-05  0.2281896E+04  0.7818609E-02  0.8485093E-01
        2   -1    0    0  501    0  0.00000000000E+00  0.00000000000E+00  0.12173519701E+04  0.12173519701E+04  0.25500000920E-02 0. -1.
       -2   -1    0    0    0  501  0.00000000000E+00  0.00000000000E+00 -0.10693396419E+04  0.10693396419E+04  0.25500000920E-02 0.  1.
    10030    2    1    2    0    0  0.00000000000E+00  0.00000000000E+00  0.14801232819E+03  0.22866916120E+04  0.22818963340E+04 0.  0.
        4    1    3    3  502    0  0.43780845633E+03 -0.10402834991E+04  0.24137541774E+03  0.11541792357E+04  0.12699999809E+01 0. -1.
       -4    1    3    3    0  502 -0.43780845633E+03  0.10402834991E+04 -0.93363089551E+02  0.11325123763E+04  0.12699999809E+01 0.  1.
</event>
<event>
 5   0  0.4295775E-05  0.2347336E+04  0.7818609E-02  0.8459487E-01
       -1   -1    0    0    0  501  0.00000000000E+00  0.00000000000E+00  0.66000932399E+03  0.66000932401E+03  0.50400001928E-02 0. -1.
        1   -1    0    0  501    0  0.00000000000E+00  0.00000000000E+00 -0.20870869281E+04  0.20870869281E+04  0.50400001928E-02 0.  1.
    10030    2    1    2    0    0  0.00000000000E+00  0.00000000000E+00 -0.14270776041E+04  0.27470962521E+04  0.23473362201E+04 0.  0.
        5    1    3    3  502    0  0.37881475521E+03 -0.10781737538E+04 -0.40057175917E+03  0.12109661789E+04  0.46999998093E+01 0. -1.
       -5    1    3    3    0  502 -0.37881475521E+03  0.10781737538E+04 -0.10265058449E+04  0.15361300732E+04  0.46999998093E+01 0.  1.
</event>
<event>
 5   0  0.9313463E-05  0.2430161E+04  0.7818609E-02  0.8428297E-01
       -2   -1    0    0    0  501  0.00000000000E+00  0.00000000000E+00  0.16482117899E+04  0.16482117899E+04  0.25500000920E-02 0. -1.
        2   -1    0    0  501    0  0.00000000000E+00  0.00000000000E+00 -0.89577107416E+03  0.89577107416E+03  0.25500000920E-02 0.  1.
    10030    2    1    2    0    0  0.00000000000E+00  0.00000000000E+00  0.75244071570E+03  0.25439828640E+04  0.24301608551E+04 0.  0.
        1    1    3    3  502    0  0.39434664627E+03 -0.55744202008E+03 -0.67592634820E+03  0.96079514538E+03  0.50400001928E-02 0.  1.
       -1    1    3    3    0  502 -0.39434664627E+03  0.55744202008E+03  0.14283670639E+04  0.15831877186E+04  0.50400001928E-02 0. -1.
</event>
<event>
 5   0  0.9641157E-05  0.2300657E+04  0.7818609E-02  0.8477662E-01
       -2   -1    0    0    0  501  0.00000000000E+00  0.00000000000E+00  0.82473552851E+03  0.82473552851E+03  0.25500000920E-02 0. -1.
        2   -1    0    0  501    0  0.00000000000E+00  0.00000000000E+00 -0.16044600496E+04  0.16044600496E+04  0.25500000920E-02 0.  1.
    10030    2    1    2    0    0  0.00000000000E+00  0.00000000000E+00 -0.77972452108E+03  0.24291955781E+04  0.23006566080E+04 0.  0.
        3    1    3    3  502    0 -0.55933370847E+03 -0.10050795891E+04 -0.37434351484E+03  0.12096165736E+04  0.10100000352E+00 0.  1.
       -3    1    3    3    0  502  0.55933370847E+03  0.10050795891E+04 -0.40538100624E+03  0.12195790045E+04  0.10100000352E+00 0. -1.
</event>
<event>
 5   0  0.4005462E-05  0.2340278E+04  0.7818609E-02  0.8462207E-01
        1   -1    0    0  501    0  0.00000000000E+00  0.00000000000E+00  0.15917344321E+04  0.15917344321E+04  0.50400001928E-02 0. -1.
       -1   -1    0    0    0  501  0.00000000000E+00  0.00000000000E+00 -0.86020985566E+03  0.86020985568E+03  0.50400001928E-02 0.  1.
    10030    2    1    2    0    0  0.00000000000E+00  0.00000000000E+00  0.73152457645E+03  0.24519442878E+04  0.23402783135E+04 0.  0.
        4    1    3    3  502    0 -0.49293410559E+03 -0.41554213082E+03  0.13888625161E+04  0.15312086717E+04  0.12699999809E+01 0. -1.
       -4    1    3    3    0  502  0.49293410559E+03  0.41554213082E+03 -0.65733793962E+03  0.92073561607E+03  0.12699999809E+01 0.  1.
</event>
<event>
 5   0  0.9483073E-05  0.2294460E+04  0.7818609E-02  0.8480108E-01
        2   -1    0    0  501    0  0.00000000000E+00  0.00000000000E+00  0.11687512245E+04  0.11687512245E+04  0.25500000920E-02 0. -1.
       -2   -1    0    0    0  501  0.00000000000E+00  0.00000000000E+00 -0.11261054832E+04  0.11261054832E+04  0.25500000920E-02 0.  1.
    10030    2    1    2    0    0  0.00000000000E+00  0.00000000000E+00  0.42645741352E+02  0.22948567077E+04  0.22944604267E+04 0.  0.
        5    1    3    3  502    0  0.87555598047E+03  0.34096135103E+03 -0.63701733519E+03  0.11351942975E+04  0.46999998093E+01 0.  1.
       -5    1    3    3    0  502 -0.87555598047E+03 -0.34096135103E+03  0.67966307654E+03  0.11596624101E+04  0.46999998093E+01 0. -1.
</event>
<event>
 5   0  0.9535394E-05  0.2267634E+04  0.7818609E-02  0.8490793E-01
       -2   -1    0    0    0  501  0.00000000000E+00  0.00000000000E+00  0.12017964011E+04  0.12017964011E+04  0.25500000920E-02 0.  1.
        2   -1    0    0  501    0  0.00000000000E+00  0.00000000000E+00 -0.10696827985E+04  0.10696827985E+04  0.25500000920E-02 0. -1.
    10030    2    1    2    0    0  0.00000000000E+00  0.00000000000E+00  0.13211360264E+03  0.22714791996E+04  0.22676339542E+04 0.  0.
        2    1    3    3  502    0 -0.95799114955E+03  0.60638956602E+03  0.75323929835E+02  0.11362785938E+04  0.25500000920E-02 0.  1.
       -2    1    3    3    0  502  0.95799114955E+03 -0.60638956602E+03  0.56789672801E+02  0.11352006058E+04  0.25500000920E-02 0. -1.
</event>
<event>
 5   0  0.9535394E-05  0.2250549E+04  0.7818609E-02  0.8497678E-01
        2   -1    0    0  501    0  0.00000000000E+00  0.00000000000E+00  0.21741396875E+04  0.21741396875E+04  0.25500000920E-02 0.  1.
       -2   -1    0    0    0  501  0.00000000000E+00  0.00000000000E+00 -0.58241102517E+03  0.58241102517E+03  0.25500000920E-02 0. -1.
    10030    2    1    2    0    0  0.00000000000E+00  0.00000000000E+00  0.15917286623E+04  0.27565507126E+04  0.22505491990E+04 0.  0.
        2    1    3    3  502    0 -0.51030919440E+03  0.69192289042E+03 -0.93360725123E+02  0.86480574997E+03  0.25500000920E-02 0. -1.
       -2    1    3    3    0  502  0.51030919440E+03 -0.69192289042E+03  0.16850893874E+04  0.18917449627E+04  0.25500000920E-02 0.  1.
</event>
<event>
 5   0  0.4095451E-05  0.2322630E+04  0.7818609E-02  0.8469051E-01
       -1   -1    0    0    0  501  0.00000000000E+00  0.00000000000E+00  0.13192308524E+04  0.13192308524E+04  0.50400001928E-02 0. -1.
        1   -1    0    0  501    0  0.00000000000E+00  0.00000000000E+00 -0.10223022825E+04  0.10223022825E+04  0.50400001928E-02 0.  1.
    10030    2    1    2    0    0  0.00000000000E+00  0.00000000000E+00  0.29692856990E+03  0.23415331348E+04  0.23226301569E+04 0.  0.
        3    1    3    3  502    0  0.11308800124E+04 -0.30401770191E+02 -0.11604260629E+03  0.11372245894E+04  0.10100000352E+00 0.  1.
       -3    1    3    3    0  502 -0.11308800124E+04  0.30401770191E+02  0.41297117620E+03  0.12043085454E+04  0.10100000352E+00 0. -1.
</event>
<event>
 5   0  0.3885219E-05  0.2300307E+04  0.7818609E-02  0.8477800E-01
        1   -1    0    0  501    0  0.00000000000E+00  0.00000000000E+00  0.18237806259E+04  0.18237806259E+04  0.50400001928E-02 0.  1.
       -1   -1    0    0    0  501  0.00000000000E+00  0.00000000000E+00 -0.72533551791E+03  0.72533551793E+03  0.50400001928E-02 0. -1.
    10030    2    1    2    0    0  0.00000000000E+00  0.00000000000E+00  0.10984451080E+04  0.25491161438E+04  0.23003068185E+04 0.  0.
        2    1    3    3  502    0  0.54609038187E+03  0.64962217068E+03 -0.31103588272E+03  0.90386226282E+03  0.25500000920E-02 0. -1.
       -2    1    3    3    0  502 -0.54609038187E+03 -0.64962217068E+03  0.14094809907E+04  0.16452538810E+04  0.25500000920E-02 0.  1.
</event>
<event>
 5   0  0.9313463E-05  0.2336470E+04  0.7818609E-02  0.8463679E-01
       -2   -1    0    0    0  501  0.00000000000E+00  0.00000000000E+00  0.12776607162E+04  0.12776607162E+04  0.25500000920E-02 0.  1.
        2   -1    0    0  501    0  0.00000000000E+00  0.00000000000E+00 -0.10681811248E+04  0.10681811248E+04  0.25500000920E-02 0. -1.
    10030    2    1    2    0    0  0.00000000000E+00  0.00000000000E+00  0.20947959146E+03  0.23458418410E+04  0.23364700391E+04 0.  0.
        1    1    3    3  502    0  0.33157164403E+03  0.79341040674E+03 -0.68921223959E+03  0.11020223863E+04  0.50400001928E-02 0. -1.
       -1    1    3    3    0  502 -0.33157164403E+03 -0.79341040674E+03  0.89869183105E+03  0.12438194547E+04  0.50400001928E-02 0.  1.
</event>
<event>
 5   0  0.3885219E-05  0.2002444E+04  0.7818609E-02  0.8605479E-01
        1   -1    0    0  501    0  0.00000000000E+00  0.00000000000E+00  0.16328886914E+04  0.16328886914E+04  0.50400001928E-02 0.  1.
       -1   -1    0    0    0  501  0.00000000000E+00  0.00000000000E+00 -0.61390902674E+03  0.61390902676E+03  0.50400001928E-02 0. -1.
    10030    2    1    2    0    0  0.00000000000E+00  0.00000000000E+00  0.10189796647E+04  0.22467977182E+04  0.20024436145E+04 0.  0.
        2    1    3    3  502    0 -0.25841987899E+03 -0.95233772368E+03  0.69963015299E+03  0.12096323098E+04  0.25500000920E-02 0.  1.
       -2    1    3    3    0  502  0.25841987899E+03  0.95233772368E+03  0.31934951167E+03  0.10371654084E+04  0.25500000920E-02 0. -1.
</event>
<event>
 5   0  0.4295775E-05  0.1900702E+04  0.7818609E-02  0.8654507E-01
        1   -1    0    0  501    0  0.00000000000E+00  0.00000000000E+00  0.49112860080E+03  0.49112860083E+03  0.50400001928E-02 0.  1.
       -1   -1    0    0    0  501  0.00000000000E+00  0.00000000000E+00 -0.18389627988E+04  0.18389627988E+04  0.50400001928E-02 0. -1.
    10030    2    1    2    0    0  0.00000000000E+00  0.00000000000E+00 -0.13478341980E+04  0.23300913997E+04  0.19007022138E+04 0.  0.
        5    1    3    3  502    0 -0.62337333990E+03  0.17315567055E+03 -0.15272848172E+04  0.16586736297E+04  0.46999998093E+01 0. -1.
       -5    1    3    3    0  502  0.62337333990E+03 -0.17315567055E+03  0.17945061912E+03  0.67141776998E+03  0.46999998093E+01 0.  1.
</event>
<event>
 5   0  0.9483073E-05  0.2176819E+04  0.7818609E-02  0.8528139E-01
        2   -1    0    0  501    0  0.00000000000E+00  0.00000000000E+00  0.16218303250E+04  0.16218303250E+04  0.25500000920E-02 0. -1.
       -2   -1    0    0    0  501  0.00000000000E+00  0.00000000000E+00 -0.73043075841E+03  0.73043075842E+03  0.25500000920E-02 0.  1.
    10030    2    1    2    0    0  0.00000000000E+00  0.00000000000E+00  0.89139956654E+03  0.23522610834E+04  0.21768185540E+04 0.  0.
        5    1    3    3  502    0 -0.74744997083E+03 -0.43140123446E+03  0.11623427517E+04  0.14477055110E+04  0.46999998093E+01 0. -1.
       -5    1    3    3    0  502  0.74744997083E+03  0.43140123446E+03 -0.27094318518E+03  0.90455557241E+03  0.46999998093E+01 0.  1.
</event>
<event>
 5   0  0.3885219E-05  0.2298635E+04  0.7818609E-02  0.8478459E-01
        1   -1    0    0  501    0  0.00000000000E+00  0.00000000000E+00  0.88151968528E+03  0.88151968529E+03  0.50400001928E-02 0. -1.
       -1   -1    0    0    0  501  0.00000000000E+00  0.00000000000E+00 -0.14984702270E+04  0.14984702270E+04  0.50400001928E-02 0.  1.
    10030    2    1    2    0    0  0.00000000000E+00  0.00000000000E+00 -0.61695054173E+03  0.23799899123E+04  0.22986352498E+04 0.  0.
        2    1    3    3  502    0  0.75330704011E+03  0.85605284426E+03 -0.15974937224E+03  0.11514416315E+04  0.25500000920E-02 0. -1.
       -2    1    3    3    0  502 -0.75330704011E+03 -0.85605284426E+03 -0.45720116950E+03  0.12285482808E+04  0.25500000920E-02 0.  1.
</event>
<event>
 5   0  0.4095451E-05  0.2278118E+04  0.7818609E-02  0.8486599E-01
        1   -1    0    0  501    0  0.00000000000E+00  0.00000000000E+00  0.14524610050E+04  0.14524610050E+04  0.50400001928E-02 0. -1.
       -1   -1    0    0    0  501  0.00000000000E+00  0.00000000000E+00 -0.89328041583E+03  0.89328041585E+03  0.50400001928E-02 0.  1.
    10030    2    1    2    0    0  0.00000000000E+00  0.00000000000E+00  0.55918058919E+03  0.23457414209E+04  0.22781176182E+04 0.  0.
        3    1    3    3  502    0 -0.10306974489E+04  0.41217356740E+03  0.54257466897E+03  0.12355612338E+04  0.10100000352E+00 0. -1.
       -3    1    3    3    0  502  0.10306974489E+04 -0.41217356740E+03  0.16605920221E+02  0.11101801870E+04  0.10100000352E+00 0.  1.
</event>
<event>
 5   0  0.4295775E-05  0.2226248E+04  0.7818609E-02  0.8507582E-01
       -1   -1    0    0    0  501  0.00000000000E+00  0.00000000000E+00  0.12606370797E+04  0.12606370797E+04  0.50400001928E-02 0. -1.
        1   -1    0    0  501    0  0.00000000000E+00  0.00000000000E+00 -0.98287241237E+03  0.98287241238E+03  0.50400001928E-02 0.  1.
    10030    2    1    2    0    0  0.00000000000E+00  0.00000000000E+00  0.27776466737E+03  0.22435094921E+04  0.22262483309E+04 0.  0.
        5    1    3    3  502    0 -0.79755567057E+03  0.40644091708E+03  0.80562687711E+03  0.12043031271E+04  0.46999998093E+01 0. -1.
       -5    1    3    3    0  502  0.79755567057E+03 -0.40644091708E+03 -0.52786220974E+03  0.10392063651E+04  0.46999998093E+01 0.  1.
</event>
<event>
 5   0  0.9535394E-05  0.2223500E+04  0.7818609E-02  0.8508710E-01
       -2   -1    0    0    0  501  0.00000000000E+00  0.00000000000E+00  0.11646975995E+04  0.11646975995E+04  0.25500000920E-02 0. -1.
        2   -1    0    0  501    0  0.00000000000E+00  0.00000000000E+00 -0.10612090602E+04  0.10612090603E+04  0.25500000920E-02 0.  1.
    10030    2    1    2    0    0  0.00000000000E+00  0.00000000000E+00  0.10348853920E+03  0.22259066597E+04  0.22234996245E+04 0.  0.
        2    1    3    3  502    0 -0.22701077832E+03  0.10643083400E+04  0.27937007623E+03  0.11235362813E+04  0.25500000920E-02 0. -1.
       -2    1    3    3    0  502  0.22701077832E+03 -0.10643083400E+04 -0.17588153703E+03  0.11023703784E+04  0.25500000920E-02 0.  1.
</event>
<event>
 5   0  0.9313463E-05  0.2275512E+04  0.7818609E-02  0.8487639E-01
        2   -1    0    0  501    0  0.00000000000E+00  0.00000000000E+00  0.16007282409E+04  0.16007282409E+04  0.25500000920E-02 0.  1.
       -2   -1    0    0    0  501  0.00000000000E+00  0.00000000000E+00 -0.80868737329E+03  0.80868737330E+03  0.25500000920E-02 0. -1.
    10030    2    1    2    0    0  0.00000000000E+00  0.00000000000E+00  0.79204086758E+03  0.24094156142E+04  0.22755120008E+04 0.  0.
        1    1    3    3  502    0 -0.80244223808E+03  0.17972532665E+02  0.12498545262E+04  0.14853864461E+04  0.50400001928E-02 0.  1.
       -1    1    3    3    0  502  0.80244223808E+03 -0.17972532665E+02 -0.45781365867E+03  0.92402916809E+03  0.50400001928E-02 0. -1.
</event>
<event>
 5   0  0.4095451E-05  0.2332477E+04  0.7818609E-02  0.8465225E-01
        1   -1    0    0  501    0  0.00000000000E+00  0.00000000000E+00  0.96394057559E+03  0.96394057560E+03  0.50400001928E-02 0.  1.
       -1   -1    0    0    0  501  0.00000000000E+00  0.00000000000E+00 -0.14109921547E+04  0.14109921547E+04  0.50400001928E-02 0. -1.
    10030    2    1    2    0    0  0.00000000000E+00  0.00000000000E+00 -0.44705157909E+03  0.23749327303E+04  0.23324773009E+04 0.  0.
        3    1    3    3  502    0  0.44635140237E+03 -0.67359326483E+03 -0.10797573495E+04  0.13486413180E+04  0.10100000352E+00 0. -1.
       -3    1    3    3    0  502 -0.44635140237E+03  0.67359326483E+03  0.63270577036E+03  0.10262914123E+04  0.10100000352E+00 0.  1.
</event>
<event>
 5   0  0.9313463E-05  0.2285873E+04  0.7818609E-02  0.8483512E-01
        2   -1    0    0  501    0  0.00000000000E+00  0.00000000000E+00  0.14249965188E+04  0.14249965188E+04  0.25500000920E-02 0.  1.
       -2   -1    0    0    0  501  0.00000000000E+00  0.00000000000E+00 -0.91670640115E+03  0.91670640115E+03  0.25500000920E-02 0. -1.
    10030    2    1    2    0    0  0.00000000000E+00  0.00000000000E+00  0.50829011769E+03  0.23417029200E+04  0.22858726390E+04 0.  0.
        1    1    3    3  502    0 -0.87724599426E+03 -0.53527776719E+03  0.76658303300E+03  0.12820812646E+04  0.50400001928E-02 0.  1.
       -1    1    3    3    0  502  0.87724599426E+03  0.53527776719E+03 -0.25829291531E+03  0.10596216554E+04  0.50400001928E-02 0. -1.
</event>
<event>
 5   0  0.9313463E-05  0.2290871E+04  0.7818609E-02  0.8481529E-01
        2   -1    0    0  501    0  0.00000000000E+00  0.00000000000E+00  0.18302129372E+04  0.18302129372E+04  0.25500000920E-02 0.  1.
       -2   -1    0    0    0  501  0.00000000000E+00  0.00000000000E+00 -0.71686848891E+03  0.71686848892E+03  0.25500000920E-02 0. -1.
    10030    2    1    2    0    0  0.00000000000E+00  0.00000000000E+00  0.11133444483E+04  0.25470814261E+04  0.22908705618E+04 0.  0.
        1    1    3    3  502    0  0.11343836178E+04 -0.24196615693E+02  0.73109406098E+03  0.13497815359E+04  0.50400001928E-02 0.  1.
       -1    1    3    3    0  502 -0.11343836178E+04  0.24196615693E+02  0.38225038733E+03  0.11972998903E+04  0.50400001928E-02 0. -1.
</event>
<event>
 5   0  0.9483073E-05  0.2226384E+04  0.7818609E-02  0.8507526E-01
        2   -1    0    0  501    0  0.00000000000E+00  0.00000000000E+00  0.87064426588E+03  0.87064426588E+03  0.25500000920E-02 0. -1.
       -2   -1    0    0    0  501  0.00000000000E+00  0.00000000000E+00 -0.14233092320E+04  0.14233092320E+04  0.25500000920E-02 0.  1.
    10030    2    1    2    0    0  0.00000000000E+00  0.00000000000E+00 -0.55266496608E+03  0.22939534978E+04  0.22263836340E+04 0.  0.
        5    1    3    3  502    0  0.56548134925E+03  0.66107060869E+03 -0.99195491996E+03  0.13193862813E+04  0.46999998093E+01 0.  1.
       -5    1    3    3    0  502 -0.56548134925E+03 -0.66107060869E+03  0.43928995388E+03  0.97456721656E+03  0.46999998093E+01 0. -1.
</event>
<event>
 5   0  0.9641157E-05  0.2235951E+04  0.7818609E-02  0.8503612E-01
       -2   -1    0    0    0  501  0.00000000000E+00  0.00000000000E+00  0.10530617553E+04  0.10530617553E+04  0.25500000920E-02 0. -1.
        2   -1    0    0  501    0  0.00000000000E+00  0.00000000000E+00 -0.11868902958E+04  0.11868902958E+04  0.25500000920E-02 0.  1.
    10030    2    1    2    0    0  0.00000000000E+00  0.00000000000E+00 -0.13382854047E+03  0.22399520511E+04  0.22359506061E+04 0.  0.
        3    1    3    3  502    0  0.89931633972E+03  0.12883931923E+03 -0.71961637823E+03  0.11589724721E+04  0.10100000352E+00 0.  1.
       -3    1    3    3    0  502 -0.89931633972E+03 -0.12883931923E+03  0.58578783777E+03  0.10809795790E+04  0.10100000352E+00 0. -1.
</event>
<event>
 5   0  0.4139830E-05  0.2305621E+04  0.7818609E-02  0.8475708E-01
       -1   -1    0    0    0  501  0.00000000000E+00  0.00000000000E+00  0.85006412458E+03  0.85006412460E+03  0.50400001928E-02 0. -1.
        1   -1    0    0  501    0  0.00000000000E+00  0.00000000000E+00 -0.15633784241E+04  0.15633784241E+04  0.50400001928E-02 0.  1.
    10030    2    1    2    0    0  0.00000000000E+00  0.00000000000E+00 -0.71331429947E+03  0.24134425487E+04  0.23056208808E+04 0.  0.
        1    1    3    3  502    0 -0.82848609147E+03 -0.35817608524E+03  0.39402174505E+03  0.98485148495E+03  0.50400001928E-02 0. -1.
       -1    1    3    3    0  502  0.82848609147E+03  0.35817608524E+03 -0.11073360445E+04  0.14285910637E+04  0.50400001928E-02 0.  1.
</event>
<event>
 5   0  0.4139830E-05  0.2385864E+04  0.7818609E-02  0.8444815E-01
        1   -1    0    0  501    0  0.00000000000E+00  0.00000000000E+00  0.18504261359E+04  0.18504261359E+04  0.50400001928E-02 0. -1.
       -1   -1    0    0    0  501  0.00000000000E+00  0.00000000000E+00 -0.76905893805E+03  0.76905893807E+03  0.50400001928E-02 0.  1.
    10030    2    1    2    0    0  0.00000000000E+00  0.00000000000E+00  0.10813671979E+04  0.26194850740E+04  0.23858640020E+04 0.  0.
        1    1    3    3  502    0  0.70482856831E+03  0.89907289438E+02 -0.51138400521E+03  0.87543145489E+03  0.50400001928E-02 0.  1.
       -1    1    3    3    0  502 -0.70482856831E+03 -0.89907289438E+02  0.15927512031E+04  0.17440536191E+04  0.50400001928E-02 0. -1.
</event>
<event>
 5   0  0.4139830E-05  0.2396021E+04  0.7818609E-02  0.8440995E-01
       -1   -1    0    0    0  501  0.00000000000E+00  0.00000000000E+00  0.19199987969E+04  0.19199987969E+04  0.50400001928E-02 0.  1.
        1   -1    0    0  501    0  0.00000000000E+00  0.00000000000E+00 -0.74751552098E+03  0.74751552099E+03  0.50400001928E-02 0. -1.
    10030    2    1    2    0    0  0.00000000000E+00  0.00000000000E+00  0.11724832759E+04  0.26675143179E+04  0.23960207853E+04 0.  0.
        1    1    3    3  502    0  0.44583924684E+03 -0.11034712479E+04  0.43356190556E+03  0.12666480785E+04  0.50400001928E-02 0.  1.
       -1    1    3    3    0  502 -0.44583924684E+03  0.11034712479E+04  0.73892137033E+03  0.14008662393E+04  0.50400001928E-02 0. -1.
</event>
<event>
 5   0  0.9483073E-05  0.2293445E+04  0.7818609E-02  0.8480510E-01
        2   -1    0    0  501    0  0.00000000000E+00  0.00000000000E+00  0.17375635132E+04  0.17375635132E+04  0.25500000920E-02 0. -1.
       -2   -1    0    0    0  501  0.00000000000E+00  0.00000000000E+00 -0.75679082487E+03  0.75679082487E+03  0.25500000920E-02 0.  1.
    10030    2    1    2    0    0  0.00000000000E+00  0.00000000000E+00  0.98077268831E+03  0.24943543380E+04  0.22934446794E+04 0.  0.
        5    1    3    3  502    0 -0.47153381400E+03 -0.91341705131E+03  0.10431140331E+04  0.14645080482E+04  0.46999998093E+01 0. -1.
       -5    1    3    3    0  502  0.47153381400E+03  0.91341705131E+03 -0.62341344762E+02  0.10298462898E+04  0.46999998093E+01 0.  1.
</event>
<event>
 5   0  0.9313463E-05  0.2271019E+04  0.7818609E-02  0.8489436E-01
        2   -1    0    0  501    0  0.00000000000E+00  0.00000000000E+00  0.19848428770E+04  0.19848428770E+04  0.25500000920E-02 0.  1.
       -2   -1    0    0    0  501  0.00000000000E+00  0.00000000000E+00 -0.64961389879E+03  0.64961389880E+03  0.25500000920E-02 0. -1.
    10030    2    1    2    0    0  0.00000000000E+00  0.00000000000E+00  0.13352289782E+04  0.26344567758E+04  0.22710187316E+04 0.  0.
        1    1    3    3  502    0  0.40552692492E+03 -0.84312828302E+03 -0.78841430638E+02  0.93890007971E+03  0.50400001928E-02 0. -1.
       -1    1    3    3    0  502 -0.40552692492E+03  0.84312828302E+03  0.14140704089E+04  0.16955566961E+04  0.50400001928E-02 0.  1.
</event>
<event>
 5   0  0.4295775E-05  0.1677298E+04  0.7818609E-02  0.8774419E-01
        1   -1    0    0  501    0  0.00000000000E+00  0.00000000000E+00  0.16690548078E+04  0.16690548078E+04  0.50400001928E-02 0. -1.
       -1   -1    0    0    0  501  0.00000000000E+00  0.00000000000E+00 -0.42139554483E+03  0.42139554486E+03  0.50400001928E-02 0.  1.
    10030    2    1    2    0    0  0.00000000000E+00  0.00000000000E+00  0.12476592629E+04  0.20904503526E+04  0.16772981370E+04 0.  0.
        5    1    3    3  502    0 -0.85515445000E+02 -0.38671168958E+03  0.15451386955E+04  0.15950970192E+04  0.46999998093E+01 0. -1.
       -5    1    3    3    0  502  0.85515445000E+02  0.38671168958E+03 -0.29747943256E+03  0.49535333348E+03  0.46999998093E+01 0.  1.
</event>
<event>
 5   0  0.4095451E-05  0.2270753E+04  0.7818609E-02  0.8489543E-01
       -1   -1    0    0    0  501  0.00000000000E+00  0.00000000000E+00  0.14661955726E+04  0.14661955726E+04  0.50400001928E-02 0.  1.
        1   -1    0    0  501    0  0.00000000000E+00  0.00000000000E+00 -0.87920058576E+03  0.87920058577E+03  0.50400001928E-02 0. -1.
    10030    2    1    2    0    0  0.00000000000E+00  0.00000000000E+00  0.58699498686E+03  0.23453961584E+04  0.22707531846E+04 0.  0.
        3    1    3    3  502    0 -0.10819558892E+04 -0.14882997831E+03 -0.27027480202E+02  0.10924785598E+04  0.10100000352E+00 0. -1.
       -3    1    3    3    0  502  0.10819558892E+04  0.14882997831E+03  0.61402246706E+03  0.12529175986E+04  0.10100000352E+00 0.  1.
</event>
<event>
 5   0  0.9313463E-05  0.2290628E+04  0.7818609E-02  0.8481626E-01
        2   -1    0    0  501    0  0.00000000000E+00  0.00000000000E+00  0.85741833831E+03  0.85741833831E+03  0.25500000920E-02 0.  1.
       -2   -1    0    0    0  501  0.00000000000E+00  0.00000000000E+00 -0.15298763057E+04  0.15298763058E+04  0.25500000920E-02 0. -1.
    10030    2    1    2    0    0  0.00000000000E+00  0.00000000000E+00 -0.67245796744E+03  0.23872946441E+04  0.22906278614E+04 0.  0.
        1    1    3    3  502    0  0.90369714256E+03 -0.43272956798E+03  0.24200061899E+03  0.10307704420E+04  0.50400001928E-02 0.  1.
       -1    1    3    3    0  502 -0.90369714256E+03  0.43272956798E+03 -0.91445858643E+03  0.13565242021E+04  0.50400001928E-02 0. -1.
</event>
<event>
 5   0  0.4139830E-05  0.2311706E+04  0.7818609E-02  0.8473320E-01
        1   -1    0    0  501    0  0.00000000000E+00  0.00000000000E+00  0.10476287607E+04  0.10476287607E+04  0.50400001928E-02 0.  1.
       -1   -1    0    0    0  501  0.00000000000E+00  0.00000000000E+00 -0.12752569973E+04  0.12752569973E+04  0.50400001928E-02 0. -1.
    10030    2    1    2    0    0  0.00000000000E+00  0.00000000000E+00 -0.22762823665E+03  0.23228857580E+04  0.23117057838E+04 0.  0.
        1    1    3    3  502    0  0.18495242025E+03  0.96640047430E+03  0.49563263542E+03  0.11017209192E+04  0.50400001928E-02 0.  1.
       -1    1    3    3    0  502 -0.18495242025E+03 -0.96640047430E+03 -0.72326087207E+03  0.12211648388E+04  0.50400001928E-02 0. -1.
</event>
<event>
 5   0  0.3885219E-05  0.2322285E+04  0.7818609E-02  0.8469186E-01
        1   -1    0    0  501    0  0.00000000000E+00  0.00000000000E+00  0.16099981158E+04  0.16099981158E+04  0.50400001928E-02 0.  1.
       -1   -1    0    0    0  501  0.00000000000E+00  0.00000000000E+00 -0.83742481794E+03  0.83742481796E+03  0.50400001928E-02 0. -1.
    10030    2    1    2    0    0  0.00000000000E+00  0.00000000000E+00  0.77257329782E+03  0.24474229337E+04  0.23222854080E+04 0.  0.
        2    1    3    3  502    0  0.47840879046E+03  0.23584494117E+03  0.14732481242E+04  0.15668305085E+04  0.25500000920E-02 0. -1.
       -2    1    3    3    0  502 -0.47840879046E+03 -0.23584494117E+03 -0.70067482634E+03  0.88059242521E+03  0.25500000920E-02 0.  1.
</event>
<event>
 5   0  0.4005462E-05  0.2272882E+04  0.7818609E-02  0.8488691E-01
       -1   -1    0    0    0  501  0.00000000000E+00  0.00000000000E+00  0.18683204277E+04  0.18683204277E+04  0.50400001928E-02 0. -1.
        1   -1    0    0  501    0  0.00000000000E+00  0.00000000000E+00 -0.69126134373E+03  0.69126134375E+03  0.50400001928E-02 0.  1.
    10030    2    1    2    0    0  0.00000000000E+00  0.00000000000E+00  0.11770590839E+04  0.25595817714E+04  0.22728815978E+04 0.  0.
        4    1    3    3  502    0  0.42710346096E+03  0.57379364116E+03 -0.40594765533E+03  0.82246679007E+03  0.12699999809E+01 0.  1.
       -4    1    3    3    0  502 -0.42710346096E+03 -0.57379364116E+03  0.15830067393E+04  0.17371149814E+04  0.12699999809E+01 0. -1.
</event>
<event>
 5   0  0.4005462E-05  0.2286706E+04  0.7818609E-02  0.8483181E-01
        1   -1    0    0  501    0  0.00000000000E+00  0.00000000000E+00  0.14244750786E+04  0.14244750786E+04  0.50400001928E-02 0. -1.
       -1   -1    0    0    0  501  0.00000000000E+00  0.00000000000E+00 -0.91771092947E+03  0.91771092949E+03  0.50400001928E-02 0.  1.
    10030    2    1    2    0    0  0.00000000000E+00  0.00000000000E+00  0.50676414917E+03  0.23421860081E+04  0.22867062325E+04 0.  0.
        4    1    3    3  502    0 -0.26210508475E+03  0.10607225063E+04 -0.91572878422E+02  0.10964572567E+04  0.12699999809E+01 0.  1.
       -4    1    3    3    0  502  0.26210508475E+03 -0.10607225063E+04  0.59833702759E+03  0.12457287515E+04  0.12699999809E+01 0. -1.
</event>
<event>
 5   0  0.4139830E-05  0.2275127E+04  0.7818609E-02  0.8487793E-01
       -1   -1    0    0    0  501  0.00000000000E+00  0.00000000000E+00  0.12716046242E+04  0.12716046242E+04  0.50400001928E-02 0. -1.
        1   -1    0    0  501    0  0.00000000000E+00  0.00000000000E+00 -0.10176514106E+04  0.10176514106E+04  0.50400001928E-02 0.  1.
    10030    2    1    2    0    0  0.00000000000E+00  0.00000000000E+00  0.25395321357E+03  0.22892560348E+04  0.22751265807E+04 0.  0.
        1    1    3    3  502    0  0.77194703733E+03  0.61713345671E+03 -0.43981047563E+03  0.10817528305E+04  0.50400001928E-02 0.  1.
       -1    1    3    3    0  502 -0.77194703733E+03 -0.61713345671E+03  0.69376368920E+03  0.12075032043E+04  0.50400001928E-02 0. -1.
</event>
<event>
 5   0  0.4095451E-05  0.2010864E+04  0.7818609E-02  0.8601558E-01
       -1   -1    0    0    0  501  0.00000000000E+00  0.00000000000E+00  0.12602131954E+04  0.12602131954E+04  0.50400001928E-02 0.  1.
        1   -1    0    0  501    0  0.00000000000E+00  0.00000000000E+00 -0.80216066109E+03  0.80216066111E+03  0.50400001928E-02 0. -1.
    10030    2    1    2    0    0  0.00000000000E+00  0.00000000000E+00  0.45805253433E+03  0.20623738565E+04  0.20108639437E+04 0.  0.
        3    1    3    3  502    0  0.29062899325E+03  0.91970177117E+03 -0.62105724780E+02  0.96652661156E+03  0.10100000352E+00 0. -1.
       -3    1    3    3    0  502 -0.29062899325E+03 -0.91970177117E+03  0.52015825911E+03  0.10958472450E+04  0.10100000352E+00 0.  1.
</event>
<event>
 5   0  0.4005462E-05  0.2288499E+04  0.7818609E-02  0.8482470E-01
       -1   -1    0    0    0  501  0.00000000000E+00  0.00000000000E+00  0.89595016622E+03  0.89595016624E+03  0.50400001928E-02 0. -1.
        1   -1    0    0  501    0  0.00000000000E+00  0.00000000000E+00 -0.14613610852E+04  0.14613610852E+04  0.50400001928E-02 0.  1.
    10030    2    1    2    0    0  0.00000000000E+00  0.00000000000E+00 -0.56541091900E+03  0.23573112515E+04  0.22884988156E+04 0.  0.
        4    1    3    3  502    0 -0.43027052166E+02 -0.39797202183E+03 -0.13868854306E+04  0.14434977894E+04  0.12699999809E+01 0.  1.
       -4    1    3    3    0  502  0.43027052166E+02  0.39797202183E+03  0.82147451161E+03  0.91381346210E+03  0.12699999809E+01 0. -1.
</event>
<event>
 5   0  0.9483073E-05  0.2347251E+04  0.7818609E-02  0.8459520E-01
        2   -1    0    0  501    0  0.00000000000E+00  0.00000000000E+00  0.13920122952E+04  0.13920122952E+04  0.25500000920E-02 0. -1.
       -2   -1    0    0    0  501  0.00000000000E+00  0.00000000000E+00 -0.98950085817E+03  0.98950085818E+03  0.25500000920E-02 0.  1.
    10030    2    1    2    0    0  0.00000000000E+00  0.00000000000E+00  0.40251143706E+03  0.23815131534E+04  0.23472514656E+04 0.  0.
        5    1    3    3  502    0 -0.32750127492E+03  0.18921628843E+03  0.13284698797E+04  0.13812726741E+04  0.46999998093E+01 0. -1.
       -5    1    3    3    0  502  0.32750127492E+03 -0.18921628843E+03 -0.92595844267E+03  0.10002404793E+04  0.46999998093E+01 0.  1.
</event>
<event>
 5   0  0.3885219E-05  0.2185955E+04  0.7818609E-02  0.8524297E-01
       -1   -1    0    0    0  501  0.00000000000E+00  0.00000000000E+00  0.16536801693E+04  0.16536801693E+04  0.50400001928E-02 0.  1.
        1   -1    0    0  501    0  0.00000000000E+00  0.00000000000E+00 -0.72238898832E+03  0.72238898834E+03  0.50400001928E-02 0. -1.
    10030    2    1    2    0    0  0.00000000000E+00  0.00000000000E+00  0.93129118098E+03  0.23760691576E+04  0.21859554840E+04 0.  0.
        2    1    3    3  502    0 -0.33625994001E+03  0.95968295170E+03  0.30126699105E+02  0.10173346220E+04  0.25500000920E-02 0. -1.
       -2    1    3    3    0  502  0.33625994001E+03 -0.95968295170E+03  0.90116448188E+03  0.13587345357E+04  0.25500000920E-02 0.  1.
</event>
<event>
 5   0  0.4095451E-05  0.2273644E+04  0.7818609E-02  0.8488386E-01
       -1   -1    0    0    0  501  0.00000000000E+00  0.00000000000E+00  0.77024386289E+03  0.77024386291E+03  0.50400001928E-02 0.  1.
        1   -1    0    0  501    0  0.00000000000E+00  0.00000000000E+00 -0.16778643474E+04  0.16778643474E+04  0.50400001928E-02 0. -1.
    10030    2    1    2    0    0  0.00000000000E+00  0.00000000000E+00 -0.90762048447E+03  0.24481082103E+04  0.22736444017E+04 0.  0.
        3    1    3    3  502    0 -0.51620173115E+03  0.95823380606E+03 -0.80715010431E+03  0.13550526024E+04  0.10100000352E+00 0. -1.
       -3    1    3    3    0  502  0.51620173115E+03 -0.95823380606E+03 -0.10047038016E+03  0.10930556078E+04  0.10100000352E+00 0.  1.
</event>
<event>
 5   0  0.3885219E-05  0.2290207E+04  0.7818609E-02  0.8481792E-01
       -1   -1    0    0    0  501  0.00000000000E+00  0.00000000000E+00  0.88295931386E+03  0.88295931387E+03  0.50400001928E-02 0.  1.
        1   -1    0    0  501    0  0.00000000000E+00  0.00000000000E+00 -0.14850759871E+04  0.14850759871E+04  0.50400001928E-02 0. -1.
    10030    2    1    2    0    0  0.00000000000E+00  0.00000000000E+00 -0.60211667328E+03  0.23680353010E+04  0.22902066934E+04 0.  0.
        2    1    3    3  502    0  0.69753540568E+03  0.20114997477E+03 -0.12167289876E+04  0.14168438106E+04  0.25500000920E-02 0. -1.
       -2    1    3    3    0  502 -0.69753540568E+03 -0.20114997477E+03  0.61461231428E+03  0.95119149039E+03  0.25500000920E-02 0.  1.
</event>
<event>
 5   0  0.9313463E-05  0.2053025E+04  0.7818609E-02  0.8582223E-01
       -2   -1    0    0    0  501  0.00000000000E+00  0.00000000000E+00  0.42422066832E+03  0.42422066832E+03  0.25500000920E-02 0.  1.
        2   -1    0    0  501    0  0.00000000000E+00  0.00000000000E+00 -0.24839141274E+04  0.24839141274E+04  0.25500000920E-02 0. -1.
    10030    2    1    2    0    0  0.00000000000E+00  0.00000000000E+00 -0.20596934591E+04  0.29081347958E+04  0.20530248037E+04 0.  0.
        1    1    3    3  502    0  0.43287965686E+03 -0.60275636839E+03 -0.25193289465E+02  0.74251918414E+03  0.50400001928E-02 0.  1.
       -1    1    3    3    0  502 -0.43287965686E+03  0.60275636839E+03 -0.20345001697E+04  0.21656156116E+04  0.50400001928E-02 0. -1.
</event>
<event>
 5   0  0.4139830E-05  0.2288601E+04  0.7818609E-02  0.8482429E-01
        1   -1    0    0  501    0  0.00000000000E+00  0.00000000000E+00  0.96558472763E+03  0.96558472764E+03  0.50400001928E-02 0. -1.
       -1   -1    0    0    0  501  0.00000000000E+00  0.00000000000E+00 -0.13560944501E+04  0.13560944501E+04  0.50400001928E-02 0.  1.
    10030    2    1    2    0    0  0.00000000000E+00  0.00000000000E+00 -0.39050972247E+03  0.23216791777E+04  0.22886013985E+04 0.  0.
        1    1    3    3  502    0  0.13452466139E+03  0.69283096198E+03  0.71849246961E+03  0.10071459950E+04  0.50400001928E-02 0. -1.
       -1    1    3    3    0  502 -0.13452466139E+03 -0.69283096198E+03 -0.11090021921E+04  0.13145331827E+04  0.50400001928E-02 0.  1.
</event>
<event>
 5   0  0.9535394E-05  0.2213403E+04  0.7818609E-02  0.8512870E-01
        2   -1    0    0  501    0  0.00000000000E+00  0.00000000000E+00  0.15352884698E+04  0.15352884698E+04  0.25500000920E-02 0.  1.
       -2   -1    0    0    0  501  0.00000000000E+00  0.00000000000E+00 -0.79775759837E+03  0.79775759838E+03  0.25500000920E-02 0. -1.
    10030    2    1    2    0    0  0.00000000000E+00  0.00000000000E+00  0.73753087145E+03  0.23330460682E+04  0.22134028486E+04 0.  0.
        2    1    3    3  502    0  0.16933580214E+03 -0.10933546181E+04  0.39643526172E+03  0.11752701185E+04  0.25500000920E-02 0. -1.
       -2    1    3    3    0  502 -0.16933580214E+03  0.10933546181E+04  0.34109560974E+03  0.11577759497E+04  0.25500000920E-02 0.  1.
</event>
<event>
 5   0  0.4295775E-05  0.2321502E+04  0.7818609E-02  0.8469491E-01
        1   -1    0    0  501    0  0.00000000000E+00  0.00000000000E+00  0.14889580513E+04  0.14889580513E+04  0.50400001928E-02 0. -1.
       -1   -1    0    0    0  501  0.00000000000E+00  0.00000000000E+00 -0.90488971398E+03  0.90488971400E+03  0.50400001928E-02 0.  1.
    10030    2    1    2    0    0  0.00000000000E+00  0.00000000000E+00  0.58406833733E+03  0.23938477653E+04  0.23215019494E+04 0.  0.
        5    1    3    3  502    0 -0.73296617822E+03  0.49204067720E+03  0.10691628914E+04  0.13865333840E+04  0.46999998093E+01 0. -1.
       -5    1    3    3    0  502  0.73296617822E+03 -0.49204067720E+03 -0.48509455412E+03  0.10073143813E+04  0.46999998093E+01 0.  1.
</event>
<event>
 5   0  0.4139830E-05  0.2245518E+04  0.7818609E-02  0.8499718E-01
        1   -1    0    0  501    0  0.00000000000E+00  0.00000000000E+00  0.17965425335E+04  0.17965425335E+04  0.50400001928E-02 0. -1.
       -1   -1    0    0    0  501  0.00000000000E+00  0.00000000000E+00 -0.70167432071E+03  0.70167432073E+03  0.50400001928E-02 0.  1.
    10030    2    1    2    0    0  0.00000000000E+00  0.00000000000E+00  0.10948682128E+04  0.24982168542E+04  0.22455179909E+04 0.  0.
        1    1    3    3  502    0 -0.15703384451E+03  0.17180219776E+03  0.17694066395E+04  0.17846499599E+04  0.50400001928E-02 0. -1.
       -1    1    3    3    0  502  0.15703384451E+03 -0.17180219776E+03 -0.67453842673E+03  0.71356689430E+03  0.50400001928E-02 0.  1.
</event>
<event>
 5   0  0.4095451E-05  0.2289381E+04  0.7818609E-02  0.8482120E-01
        1   -1    0    0  501    0  0.00000000000E+00  0.00000000000E+00  0.16632127361E+04  0.16632127361E+04  0.50400001928E-02 0. -1.
       -1   -1    0    0    0  501  0.00000000000E+00  0.00000000000E+00 -0.78782234116E+03  0.78782234117E+03  0.50400001928E-02 0.  1.
    10030    2    1    2    0    0  0.00000000000E+00  0.00000000000E+00  0.87539039492E+03  0.24510350773E+04  0.22893808347E+04 0.  0.
        3    1    3    3  502    0 -0.71011755831E+03  0.48518733637E+03  0.12464437549E+04  0.15143631474E+04  0.10100000352E+00 0. -1.
       -3    1    3    3    0  502  0.71011755831E+03 -0.48518733637E+03 -0.37105335996E+03  0.93667192983E+03  0.10100000352E+00 0.  1.
</event>
<event>
 5   0  0.9641157E-05  0.2363831E+04  0.7818609E-02  0.8453170E-01
        2   -1    0    0  501    0  0.00000000000E+00  0.00000000000E+00  0.22826928793E+04  0.22826928793E+04  0.25500000920E-02 0. -1.
       -2   -1    0    0    0  501  0.00000000000E+00  0.00000000000E+00 -0.61196321421E+03  0.61196321421E+03  0.25500000920E-02 0.  1.
    10030    2    1    2    0    0  0.00000000000E+00  0.00000000000E+00  0.16707296651E+04  0.28946560935E+04  0.23638308497E+04 0.  0.
        3    1    3    3  502    0 -0.19236820602E+03  0.23046969088E+03 -0.56449810480E+03  0.63935899588E+03  0.10100000352E+00 0.  1.
       -3    1    3    3    0  502  0.19236820602E+03 -0.23046969088E+03  0.22352277699E+04  0.22552970976E+04  0.10100000352E+00 0. -1.
</event>
<event>
 5   0  0.9312074E-05  0.2345038E+04  0.7818609E-02  0.8460372E-01
       -2   -1    0    0    0  501  0.00000000000E+00  0.00000000000E+00  0.90205830968E+03  0.90205830968E+03  0.25500000920E-02 0. -1.
        2   -1    0    0  501    0  0.00000000000E+00  0.00000000000E+00 -0.15240707943E+04  0.15240707943E+04  0.25500000920E-02 0.  1.
    10030    2    1    2    0    0  0.00000000000E+00  0.00000000000E+00 -0.62201248465E+03  0.24261291040E+04  0.23450379311E+04 0.  0.
        4    1    3    3  502    0 -0.71663580794E+03  0.66236520260E+03 -0.98348681215E+03  0.13854755376E+04  0.12699999809E+01 0. -1.
       -4    1    3    3    0  502  0.71663580794E+03 -0.66236520260E+03  0.36147432750E+03  0.10406535664E+04  0.12699999809E+01 0.  1.
</event>
<event>
 5   0  0.4139830E-05  0.2408976E+04  0.7818609E-02  0.8436151E-01
       -1   -1    0    0    0  501  0.00000000000E+00  0.00000000000E+00  0.79834106207E+03  0.79834106209E+03  0.50400001928E-02 0.  1.
        1   -1    0    0  501    0  0.00000000000E+00  0.00000000000E+00 -0.18172572564E+04  0.18172572564E+04  0.50400001928E-02 0. -1.
    10030    2    1    2    0    0  0.00000000000E+00  0.00000000000E+00 -0.10189161943E+04  0.26155983185E+04  0.24089757891E+04 0.  0.
        1    1    3    3  502    0  0.49143381538E+02  0.11676531751E+04 -0.82594167471E+03  0.14310865311E+04  0.50400001928E-02 0.  1.
       -1    1    3    3    0  502 -0.49143381538E+02 -0.11676531751E+04 -0.19297451962E+03  0.11845117874E+04  0.50400001928E-02 0. -1.
</event>
<event>
 5   0  0.4295775E-05  0.2341479E+04  0.7818609E-02  0.8461744E-01
        1   -1    0    0  501    0  0.00000000000E+00  0.00000000000E+00  0.12350403263E+04  0.12350403263E+04  0.50400001928E-02 0. -1.
       -1   -1    0    0    0  501  0.00000000000E+00  0.00000000000E+00 -0.11097861219E+04  0.11097861220E+04  0.50400001928E-02 0.  1.
    10030    2    1    2    0    0  0.00000000000E+00  0.00000000000E+00  0.12525420438E+03  0.23448264483E+04  0.23414786903E+04 0.  0.
        5    1    3    3  502    0  0.18363854978E+03  0.51169632249E+03 -0.97570262240E+03  0.11169484951E+04  0.46999998093E+01 0.  1.
       -5    1    3    3    0  502 -0.18363854978E+03 -0.51169632249E+03  0.11009568268E+04  0.12278779532E+04  0.46999998093E+01 0. -1.
</event>
<event>
 5   0  0.9641157E-05  0.2294976E+04  0.7818609E-02  0.8479905E-01
       -2   -1    0    0    0  501  0.00000000000E+00  0.00000000000E+00  0.10777301713E+04  0.10777301713E+04  0.25500000920E-02 0. -1.
        2   -1    0    0  501    0  0.00000000000E+00  0.00000000000E+00 -0.12217609244E+04  0.12217609244E+04  0.25500000920E-02 0.  1.
    10030    2    1    2    0    0  0.00000000000E+00  0.00000000000E+00 -0.14403075310E+03  0.22994910956E+04  0.22949759130E+04 0.  0.
        3    1    3    3  502    0 -0.10742572274E+04 -0.12662670734E+03  0.31170764892E+03  0.11257107010E+04  0.10100000352E+00 0.  1.
       -3    1    3    3    0  502  0.10742572274E+04  0.12662670734E+03 -0.45573840202E+03  0.11737803947E+04  0.10100000352E+00 0. -1.
</event>
<event>
 5   0  0.4005462E-05  0.2173778E+04  0.7818609E-02  0.8529422E-01
       -1   -1    0    0    0  501  0.00000000000E+00  0.00000000000E+00  0.15595149275E+04  0.15595149276E+04  0.50400001928E-02 0.  1.
        1   -1    0    0  501    0  0.00000000000E+00  0.00000000000E+00 -0.75749661291E+03  0.75749661293E+03  0.50400001928E-02 0. -1.
    10030    2    1    2    0    0  0.00000000000E+00  0.00000000000E+00  0.80201831463E+03  0.23170115405E+04  0.21737776109E+04 0.  0.
        4    1    3    3  502    0 -0.69060738204E+02  0.70515343485E+03  0.12795231012E+04  0.14625975973E+04  0.12699999809E+01 0.  1.
       -4    1    3    3    0  502  0.69060738204E+02 -0.70515343485E+03 -0.47750478655E+03  0.85441394319E+03  0.12699999809E+01 0. -1.
</event>
<event>
 5   0  0.9641157E-05  0.1994149E+04  0.7818609E-02  0.8609361E-01
       -2   -1    0    0    0  501  0.00000000000E+00  0.00000000000E+00  0.41492447713E+03  0.41492447714E+03  0.25500000920E-02 0. -1.
        2   -1    0    0  501    0  0.00000000000E+00  0.00000000000E+00 -0.23959972079E+04  0.23959972079E+04  0.25500000920E-02 0.  1.
    10030    2    1    2    0    0  0.00000000000E+00  0.00000000000E+00 -0.19810727307E+04  0.28109216850E+04  0.19941493311E+04 0.  0.
        3    1    3    3  502    0 -0.28047031731E+03 -0.95634905225E+03 -0.94846623843E+03  0.13758107880E+04  0.10100000352E+00 0. -1.
       -3    1    3    3    0  502  0.28047031731E+03  0.95634905225E+03 -0.10326064923E+04  0.14351108970E+04  0.10100000352E+00 0.  1.
</event>
<event>
 5   0  0.4295775E-05  0.2278558E+04  0.7818609E-02  0.8486424E-01
        1   -1    0    0  501    0  0.00000000000E+00  0.00000000000E+00  0.11840332595E+04  0.11840332596E+04  0.50400001928E-02 0.  1.
       -1   -1    0    0    0  501  0.00000000000E+00  0.00000000000E+00 -0.10962161685E+04  0.10962161685E+04  0.50400001928E-02 0. -1.
    10030    2    1    2    0    0  0.00000000000E+00  0.00000000000E+00  0.87817091053E+02  0.22802494281E+04  0.22785577923E+04 0.  0.
        5    1    3    3  502    0 -0.39631964635E+02 -0.66737014063E+03 -0.87926248246E+03  0.11045715008E+04  0.46999998093E+01 0. -1.
       -5    1    3    3    0  502  0.39631964635E+02  0.66737014063E+03  0.96707957351E+03  0.11756779273E+04  0.46999998093E+01 0.  1.
</event>
<event>
 5   0  0.3885219E-05  0.2382832E+04  0.7818609E-02  0.8445959E-01
        1   -1    0    0  501    0  0.00000000000E+00  0.00000000000E+00  0.98142053132E+03  0.98142053133E+03  0.50400001928E-02 0.  1.
       -1   -1    0    0    0  501  0.00000000000E+00  0.00000000000E+00 -0.14463440441E+04  0.14463440441E+04  0.50400001928E-02 0. -1.
    10030    2    1    2    0    0  0.00000000000E+00  0.00000000000E+00 -0.46492351274E+03  0.24277645754E+04  0.23828317106E+04 0.  0.
        2    1    3    3  502    0 -0.29858307369E+03  0.64793573961E+03  0.73973233036E+03  0.10277044785E+04  0.25500000920E-02 0.  1.
       -2    1    3    3    0  502  0.29858307369E+03 -0.64793573961E+03 -0.12046558431E+04  0.14000600969E+04  0.25500000920E-02 0. -1.
</event>
<event>
 5   0  0.9483073E-05  0.2102621E+04  0.7818609E-02  0.8560090E-01
       -2   -1    0    0    0  501  0.00000000000E+00  0.00000000000E+00  0.41399723133E+03  0.41399723134E+03  0.25500000920E-02 0. -1.
        2   -1    0    0  501    0  0.00000000000E+00  0.00000000000E+00 -0.26697118118E+04  0.26697118118E+04  0.25500000920E-02 0.  1.
    10030    2    1    2    0    0  0.00000000000E+00  0.00000000000E+00 -0.22557145805E+04  0.30837090432E+04  0.21026205540E+04 0.  0.
        5    1    3    3  502    0  0.38183782790E+03  0.67174226970E+03 -0.21733644257E+04  0.23066366902E+04  0.46999998093E+01 0.  1.
       -5    1    3    3    0  502 -0.38183782790E+03 -0.67174226970E+03 -0.82350154786E+02  0.77707235294E+03  0.46999998093E+01 0. -1.
</event>
<event>
 5   0  0.4139830E-05  0.2317743E+04  0.7818609E-02  0.8470958E-01
        1   -1    0    0  501    0  0.00000000000E+00  0.00000000000E+00  0.16597673622E+04  0.16597673622E+04  0.50400001928E-02 0. -1.
       -1   -1    0    0    0  501  0.00000000000E+00  0.00000000000E+00 -0.80913945363E+03  0.80913945365E+03  0.50400001928E-02 0.  1.
    10030    2    1    2    0    0  0.00000000000E+00  0.00000000000E+00  0.85062790856E+03  0.24689068158E+04  0.23177430890E+04 0.  0.
        1    1    3    3  502    0 -0.36568108590E+03 -0.93113026555E+03 -0.19786903720E+03  0.10197442738E+04  0.50400001928E-02 0.  1.
       -1    1    3    3    0  502  0.36568108590E+03  0.93113026555E+03  0.10484969458E+04  0.14491625421E+04  0.50400001928E-02 0. -1.
</event>
<event>
 5   0  0.4139830E-05  0.2458469E+04  0.7818609E-02  0.8417932E-01
       -1   -1    0    0    0  501  0.00000000000E+00  0.00000000000E+00  0.87331066834E+03  0.87331066835E+03  0.50400001928E-02 0.  1.
        1   -1    0    0  501    0  0.00000000000E+00  0.00000000000E+00 -0.17302172740E+04  0.17302172740E+04  0.50400001928E-02 0. -1.
    10030    2    1    2    0    0  0.00000000000E+00  0.00000000000E+00 -0.85690660570E+03  0.26035279424E+04  0.24584687950E+04 0.  0.
        1    1    3    3  502    0 -0.13840083512E+03 -0.49883300086E+02 -0.17208607058E+04  0.17271377200E+04  0.50400001928E-02 0. -1.
       -1    1    3    3    0  502  0.13840083512E+03  0.49883300086E+02  0.86395410014E+03  0.87639022243E+03  0.50400001928E-02 0.  1.
</event>
<event>
 5   0  0.9641157E-05  0.2291398E+04  0.7818609E-02  0.8481320E-01
        2   -1    0    0  501    0  0.00000000000E+00  0.00000000000E+00  0.13476070358E+04  0.13476070358E+04  0.25500000920E-02 0. -1.
       -2   -1    0    0    0  501  0.00000000000E+00  0.00000000000E+00 -0.97404235185E+03  0.97404235186E+03  0.25500000920E-02 0.  1.
    10030    2    1    2    0    0  0.00000000000E+00  0.00000000000E+00  0.37356468390E+03  0.23216493876E+04  0.22913981116E+04 0.  0.
        3    1    3    3  502    0 -0.11022112621E+04  0.21437101842E+03 -0.43822359938E+02  0.11237192751E+04  0.10100000352E+00 0.  1.
       -3    1    3    3    0  502  0.11022112621E+04 -0.21437101842E+03  0.41738704384E+03  0.11979301125E+04  0.10100000352E+00 0. -1.
</event>
<event>
 5   0  0.4005462E-05  0.2285331E+04  0.7818609E-02  0.8483728E-01
       -1   -1    0    0    0  501  0.00000000000E+00  0.00000000000E+00  0.96150300327E+03  0.96150300328E+03  0.50400001928E-02 0.  1.
        1   -1    0    0  501    0  0.00000000000E+00  0.00000000000E+00 -0.13579615529E+04  0.13579615529E+04  0.50400001928E-02 0. -1.
    10030    2    1    2    0    0  0.00000000000E+00  0.00000000000E+00 -0.39645854959E+03  0.23194645562E+04  0.22853307082E+04 0.  0.
        4    1    3    3  502    0 -0.18791699450E+03  0.96439148085E+03 -0.79031097554E+03  0.12609348818E+04  0.12699999809E+01 0.  1.
       -4    1    3    3    0  502  0.18791699450E+03 -0.96439148085E+03  0.39385242595E+03  0.10585296744E+04  0.12699999809E+01 0. -1.
</event>
<event>
 5   0  0.4139830E-05  0.2485994E+04  0.7818609E-02  0.8407992E-01
       -1   -1    0    0    0  501  0.00000000000E+00  0.00000000000E+00  0.94602564698E+03  0.94602564700E+03  0.50400001928E-02 0. -1.
        1   -1    0    0  501    0  0.00000000000E+00  0.00000000000E+00 -0.16331914984E+04  0.16331914984E+04  0.50400001928E-02 0.  1.
    10030    2    1    2    0    0  0.00000000000E+00  0.00000000000E+00 -0.68716585141E+03  0.25792171454E+04  0.24859935993E+04 0.  0.
        1    1    3    3  502    0  0.61253838474E+03  0.11117298847E+03  0.77262303390E+03  0.99222429858E+03  0.50400001928E-02 0. -1.
       -1    1    3    3    0  502 -0.61253838474E+03 -0.11117298847E+03 -0.14597888853E+04  0.15869928468E+04  0.50400001928E-02 0.  1.
</event>
<event>
 5   0  0.9483073E-05  0.2308086E+04  0.7818609E-02  0.8474740E-01
        2   -1    0    0  501    0  0.00000000000E+00  0.00000000000E+00  0.10200877796E+04  0.10200877796E+04  0.25500000920E-02 0.  1.
       -2   -1    0    0    0  501  0.00000000000E+00  0.00000000000E+00 -0.13055883840E+04  0.13055883840E+04  0.25500000920E-02 0. -1.
    10030    2    1    2    0    0  0.00000000000E+00  0.00000000000E+00 -0.28550060440E+03  0.23256761636E+04  0.23080855753E+04 0.  0.
        5    1    3    3  502    0 -0.55453701161E+03  0.84847517365E+03 -0.69865346827E+03  0.12310808975E+04  0.46999998093E+01 0. -1.
       -5    1    3    3    0  502  0.55453701161E+03 -0.84847517365E+03  0.41315286387E+03  0.10945952661E+04  0.46999998093E+01 0.  1.
</event>
<event>
 5   0  0.4295775E-05  0.2310081E+04  0.7818609E-02  0.8473957E-01
       -1   -1    0    0    0  501  0.00000000000E+00  0.00000000000E+00  0.89742310062E+03  0.89742310063E+03  0.50400001928E-02 0.  1.
        1   -1    0    0  501    0  0.00000000000E+00  0.00000000000E+00 -0.14866098931E+04  0.14866098931E+04  0.50400001928E-02 0. -1.
    10030    2    1    2    0    0  0.00000000000E+00  0.00000000000E+00 -0.58918679246E+03  0.23840329937E+04  0.23100805698E+04 0.  0.
        5    1    3    3  502    0  0.54767824586E+03  0.60173534976E+03 -0.11406294289E+04  0.14011047342E+04  0.46999998093E+01 0. -1.
       -5    1    3    3    0  502 -0.54767824586E+03 -0.60173534976E+03  0.55144263642E+03  0.98292825954E+03  0.46999998093E+01 0.  1.
</event>
<event>
 5   0  0.9641157E-05  0.2270098E+04  0.7818609E-02  0.8489805E-01
       -2   -1    0    0    0  501  0.00000000000E+00  0.00000000000E+00  0.10352652241E+04  0.10352652241E+04  0.25500000920E-02 0.  1.
        2   -1    0    0  501    0  0.00000000000E+00  0.00000000000E+00 -0.12444500161E+04  0.12444500161E+04  0.25500000920E-02 0. -1.
    10030    2    1    2    0    0  0.00000000000E+00  0.00000000000E+00 -0.20918479201E+03  0.22797152403E+04  0.22700976410E+04 0.  0.
        3    1    3    3  502    0  0.40147192998E+03  0.44271204403E+03 -0.10736480559E+04  0.12287773690E+04  0.10100000352E+00 0. -1.
       -3    1    3    3    0  502 -0.40147192998E+03 -0.44271204403E+03  0.86446326386E+03  0.10509378713E+04  0.10100000352E+00 0.  1.
</event>
<event>
 5   0  0.3885219E-05  0.2298152E+04  0.7818609E-02  0.8478650E-01
       -1   -1    0    0    0  501  0.00000000000E+00  0.00000000000E+00  0.48435125732E+03  0.48435125734E+03  0.50400001928E-02 0. -1.
        1   -1    0    0  501    0  0.00000000000E+00  0.00000000000E+00 -0.27260715143E+04  0.27260715143E+04  0.50400001928E-02 0.  1.
    10030    2    1    2    0    0  0.00000000000E+00  0.00000000000E+00 -0.22417202570E+04  0.32104227716E+04  0.22981524454E+04 0.  0.
        2    1    3    3  502    0  0.10250303585E+04  0.49686522007E+03 -0.90985986548E+03  0.14578776552E+04  0.25500000920E-02 0. -1.
       -2    1    3    3    0  502 -0.10250303585E+04 -0.49686522007E+03 -0.13318603915E+04  0.17525451164E+04  0.25500000920E-02 0.  1.
</event>
<event>
 5   0  0.4005462E-05  0.2304591E+04  0.7818609E-02  0.8476113E-01
       -1   -1    0    0    0  501  0.00000000000E+00  0.00000000000E+00  0.16465972371E+04  0.16465972371E+04  0.50400001928E-02 0. -1.
        1   -1    0    0  501    0  0.00000000000E+00  0.00000000000E+00 -0.80638079774E+03  0.80638079775E+03  0.50400001928E-02 0.  1.
    10030    2    1    2    0    0  0.00000000000E+00  0.00000000000E+00  0.84021643941E+03  0.24529780349E+04  0.23045905438E+04 0.  0.
        4    1    3    3  502    0 -0.29804796862E+03  0.62701193471E+02  0.16029772444E+04  0.16316561189E+04  0.12699999809E+01 0. -1.
       -4    1    3    3    0  502  0.29804796862E+03 -0.62701193471E+02 -0.76276080498E+03  0.82132191605E+03  0.12699999809E+01 0.  1.
</event>
<event>
 5   0  0.4139830E-05  0.2296033E+04  0.7818609E-02  0.8479487E-01
       -1   -1    0    0    0  501  0.00000000000E+00  0.00000000000E+00  0.74035458829E+03  0.74035458831E+03  0.50400001928E-02 0.  1.
        1   -1    0    0  501    0  0.00000000000E+00  0.00000000000E+00 -0.17801497127E+04  0.17801497128E+04  0.50400001928E-02 0. -1.
    10030    2    1    2    0    0  0.00000000000E+00  0.00000000000E+00 -0.10397951244E+04  0.25205043011E+04  0.22960331075E+04 0.  0.
        1    1    3    3  502    0  0.41894345331E+03  0.58179794108E+03 -0.15041828485E+04  0.16663038447E+04  0.50400001928E-02 0. -1.
       -1    1    3    3    0  502 -0.41894345331E+03 -0.58179794108E+03  0.46438772403E+03  0.85420045632E+03  0.50400001928E-02 0.  1.
</event>
<event>
 5   0  0.4005462E-05  0.2345882E+04  0.7818609E-02  0.8460047E-01
        1   -1    0    0  501    0  0.00000000000E+00  0.00000000000E+00  0.19479969602E+04  0.19479969602E+04  0.50400001928E-02 0. -1.
       -1   -1    0    0    0  501  0.00000000000E+00  0.00000000000E+00 -0.70625908503E+03  0.70625908505E+03  0.50400001928E-02 0.  1.
    10030    2    1    2    0    0  0.00000000000E+00  0.00000000000E+00  0.12417378752E+04  0.26542560452E+04  0.23458819670E+04 0.  0.
        4    1    3    3  502    0 -0.13039977599E+03 -0.72187767852E+01 -0.69800618432E+03  0.71012003110E+03  0.12699999809E+01 0.  1.
       -4    1    3    3    0  502  0.13039977599E+03  0.72187767852E+01  0.19397440595E+04  0.19441360141E+04  0.12699999809E+01 0. -1.
</event>
<event>
 5   0  0.9535394E-05  0.1688572E+04  0.7818609E-02  0.8767909E-01
       -2   -1    0    0    0  501  0.00000000000E+00  0.00000000000E+00  0.12258341982E+04  0.12258341982E+04  0.25500000920E-02 0.  1.
        2   -1    0    0  501    0  0.00000000000E+00  0.00000000000E+00 -0.58149692143E+03  0.58149692144E+03  0.25500000920E-02 0. -1.
    10030    2    1    2    0    0  0.00000000000E+00  0.00000000000E+00  0.64433727681E+03  0.18073311197E+04  0.16885719558E+04 0.  0.
        2    1    3    3  502    0  0.36527115983E+03 -0.29266357355E+03 -0.42991993952E+03  0.63553610589E+03  0.25500000920E-02 0. -1.
       -2    1    3    3    0  502 -0.36527115983E+03  0.29266357355E+03  0.10742572163E+04  0.11717950138E+04  0.25500000920E-02 0.  1.
</event>
<event>
 5   0  0.9313463E-05  0.2287296E+04  0.7818609E-02  0.8482947E-01
        2   -1    0    0  501    0  0.00000000000E+00  0.00000000000E+00  0.23589222054E+04  0.23589222054E+04  0.25500000920E-02 0.  1.
       -2   -1    0    0    0  501  0.00000000000E+00  0.00000000000E+00 -0.55446121415E+03  0.55446121416E+03  0.25500000920E-02 0. -1.
    10030    2    1    2    0    0  0.00000000000E+00  0.00000000000E+00  0.18044609913E+04  0.29133834196E+04  0.22872961069E+04 0.  0.
        1    1    3    3  502    0 -0.64452586714E+03  0.60571824697E+03  0.18256781924E+04  0.20286470985E+04  0.50400001928E-02 0.  1.
       -1    1    3    3    0  502  0.64452586714E+03 -0.60571824697E+03 -0.21217201141E+02  0.88473632105E+03  0.50400001928E-02 0. -1.
</event>
<event>
 5   0  0.9641157E-05  0.2255519E+04  0.7818609E-02  0.8495669E-01
       -2   -1    0    0    0  501  0.00000000000E+00  0.00000000000E+00  0.11012300578E+04  0.11012300578E+04  0.25500000920E-02 0.  1.
        2   -1    0    0  501    0  0.00000000000E+00  0.00000000000E+00 -0.11549285176E+04  0.11549285176E+04  0.25500000920E-02 0. -1.
    10030    2    1    2    0    0  0.00000000000E+00  0.00000000000E+00 -0.53698459787E+02  0.22561585754E+04  0.22555194507E+04 0.  0.
        3    1    3    3  502    0 -0.46628128227E+03 -0.48120281170E+03  0.88052831548E+03  0.11064829437E+04  0.10100000352E+00 0.  1.
       -3    1    3    3    0  502  0.46628128227E+03  0.48120281170E+03 -0.93422677526E+03  0.11496756316E+04  0.10100000352E+00 0. -1.
</event>
<event>
 5   0  0.9313463E-05  0.2153384E+04  0.7818609E-02  0.8538085E-01
        2   -1    0    0  501    0  0.00000000000E+00  0.00000000000E+00  0.11239157726E+04  0.11239157726E+04  0.25500000920E-02 0. -1.
       -2   -1    0    0    0  501  0.00000000000E+00  0.00000000000E+00 -0.10314523049E+04  0.10314523049E+04  0.25500000920E-02 0.  1.
    10030    2    1    2    0    0  0.00000000000E+00  0.00000000000E+00  0.92463467669E+02  0.21553680775E+04  0.21533838619E+04 0.  0.
        1    1    3    3  502    0  0.87417051033E+03 -0.57303896309E+03  0.30476759093E+03  0.10887750084E+04  0.50400001928E-02 0. -1.
       -1    1    3    3    0  502 -0.87417051033E+03  0.57303896309E+03 -0.21230412326E+03  0.10665930691E+04  0.50400001928E-02 0.  1.
</event>
<event>
 5   0  0.9312074E-05  0.2284385E+04  0.7818609E-02  0.8484104E-01
        2   -1    0    0  501    0  0.00000000000E+00  0.00000000000E+00  0.16387040678E+04  0.16387040678E+04  0.25500000920E-02 0.  1.
       -2   -1    0    0    0  501  0.00000000000E+00  0.00000000000E+00 -0.79611891689E+03  0.79611891689E+03  0.25500000920E-02 0. -1.
    10030    2    1    2    0    0  0.00000000000E+00  0.00000000000E+00  0.84258515092E+03  0.24348229847E+04  0.22843846502E+04 0.  0.
        4    1    3    3  502    0 -0.61320755209E+03  0.95300110322E+03  0.57340428618E+03  0.12700506655E+04  0.12699999809E+01 0. -1.
       -4    1    3    3    0  502  0.61320755209E+03 -0.95300110322E+03  0.26918086473E+03  0.11647723192E+04  0.12699999809E+01 0.  1.
</event>
<event>
 5   0  0.4095451E-05  0.2286955E+04  0.7818609E-02  0.8483082E-01
        1   -1    0    0  501    0  0.00000000000E+00  0.00000000000E+00  0.19709970713E+04  0.19709970713E+04  0.50400001928E-02 0.  1.
       -1   -1    0    0    0  501  0.00000000000E+00  0.00000000000E+00 -0.66339058348E+03  0.66339058350E+03  0.50400001928E-02 0. -1.
    10030    2    1    2    0    0  0.00000000000E+00  0.00000000000E+00  0.13076064878E+04  0.26343876548E+04  0.22869550911E+04 0.  0.
        3    1    3    3  502    0 -0.87644903126E+03 -0.36506311803E+03  0.13878812827E+04  0.16815613131E+04  0.10100000352E+00 0. -1.
       -3    1    3    3    0  502  0.87644903126E+03  0.36506311803E+03 -0.80274794928E+02  0.95282634170E+03  0.10100000352E+00 0.  1.
</event>
<event>
 5   0  0.4139830E-05  0.2271987E+04  0.7818609E-02  0.8489049E-01
        1   -1    0    0  501    0  0.00000000000E+00  0.00000000000E+00  0.14933599191E+04  0.14933599191E+04  0.50400001928E-02 0.  1.
       -1   -1    0    0    0  501  0.00000000000E+00  0.00000000000E+00 -0.86414622773E+03  0.86414622774E+03  0.50400001928E-02 0. -1.
    10030    2    1    2    0    0  0.00000000000E+00  0.00000000000E+00  0.62921369133E+03  0.23575061468E+04  0.22719870957E+04 0.  0.
        1    1    3    3  502    0 -0.10058259706E+03  0.41407230555E+03 -0.77807782581E+03  0.88711771265E+03  0.50400001928E-02 0. -1.
       -1    1    3    3    0  502  0.10058259706E+03 -0.41407230555E+03  0.14072915171E+04  0.14703884342E+04  0.50400001928E-02 0.  1.
</event>
<event>
 5   0  0.3261500E-05  0.2329230E+04  0.7818609E-02  0.8466484E-01
       -3   -1    0    0    0  501  0.00000000000E+00  0.00000000000E+00  0.10324150036E+04  0.10324150085E+04  0.10100000352E+00 0. -1.
        3   -1    0    0  501    0  0.00000000000E+00  0.00000000000E+00 -0.13137433079E+04  0.13137433118E+04  0.10100000352E+00 0.  1.
    10030    2    1    2    0    0  0.00000000000E+00  0.00000000000E+00 -0.28132830430E+03  0.23461583203E+04  0.23292301838E+04 0.  0.
        2    1    3    3  502    0 -0.16987925580E+03 -0.37250805813E+03 -0.12388664137E+04  0.13047648087E+04  0.25500000920E-02 0.  1.
       -2    1    3    3    0  502  0.16987925580E+03  0.37250805813E+03  0.95753810943E+03  0.10413935116E+04  0.25500000920E-02 0. -1.
</event>
<event>
 5   0  0.4139830E-05  0.2415628E+04  0.7818609E-02  0.8433676E-01
       -1   -1    0    0    0  501  0.00000000000E+00  0.00000000000E+00  0.23941602849E+04  0.23941602849E+04  0.50400001928E-02 0.  1.
        1   -1    0    0  501    0  0.00000000000E+00  0.00000000000E+00 -0.60932183923E+03  0.60932183925E+03  0.50400001928E-02 0. -1.
    10030    2    1    2    0    0  0.00000000000E+00  0.00000000000E+00  0.17848384457E+04  0.30034821242E+04  0.24156275775E+04 0.  0.
        1    1    3    3  502    0  0.40140968210E+03  0.10466563437E+04  0.33333120389E+03  0.11694994340E+04  0.50400001928E-02 0. -1.
       -1    1    3    3    0  502 -0.40140968210E+03 -0.10466563437E+04  0.14515072418E+04  0.18339826901E+04  0.50400001928E-02 0.  1.
</event>
<event>
 5   0  0.4005462E-05  0.2425397E+04  0.7818609E-02  0.8430056E-01
       -1   -1    0    0    0  501  0.00000000000E+00  0.00000000000E+00  0.75386744659E+03  0.75386744661E+03  0.50400001928E-02 0. -1.
        1   -1    0    0  501    0  0.00000000000E+00  0.00000000000E+00 -0.19507900286E+04  0.19507900286E+04  0.50400001928E-02 0.  1.
    10030    2    1    2    0    0  0.00000000000E+00  0.00000000000E+00 -0.11969225820E+04  0.27046574752E+04  0.24253965430E+04 0.  0.
        4    1    3    3  502    0  0.90384367239E+03 -0.13898281265E+03 -0.14866520944E+04  0.17453898329E+04  0.12699999809E+01 0.  1.
       -4    1    3    3    0  502 -0.90384367239E+03  0.13898281265E+03  0.28972951234E+03  0.95926764230E+03  0.12699999809E+01 0. -1.
</event>
<event>
 5   0  0.4095451E-05  0.2319786E+04  0.7818609E-02  0.8470160E-01
       -1   -1    0    0    0  501  0.00000000000E+00  0.00000000000E+00  0.10678788536E+04  0.10678788536E+04  0.50400001928E-02 0. -1.
        1   -1    0    0  501    0  0.00000000000E+00  0.00000000000E+00 -0.12598356657E+04  0.12598356657E+04  0.50400001928E-02 0.  1.
    10030    2    1    2    0    0  0.00000000000E+00  0.00000000000E+00 -0.19195681206E+03  0.23277145193E+04  0.23197860819E+04 0.  0.
        3    1    3    3  502    0 -0.38669104344E+03  0.34667948903E+03  0.94469458941E+03  0.10780373410E+04  0.10100000352E+00 0. -1.
       -3    1    3    3    0  502  0.38669104344E+03 -0.34667948903E+03 -0.11366514015E+04  0.12496771783E+04  0.10100000352E+00 0.  1.
</event>
<event>
 5   0  0.9312074E-05  0.2511467E+04  0.7818609E-02  0.8398912E-01
       -2   -1    0    0    0  501  0.00000000000E+00  0.00000000000E+00  0.10434024455E+04  0.10434024455E+04  0.25500000920E-02 0.  1.
        2   -1    0    0  501    0  0.00000000000E+00  0.00000000000E+00 -0.15112741549E+04  0.15112741549E+04  0.25500000920E-02 0. -1.
    10030    2    1    2    0    0  0.00000000000E+00  0.00000000000E+00 -0.46787170939E+03  0.25546766005E+04  0.25114674190E+04 0.  0.
        4    1    3    3  502    0 -0.24008542808E+03 -0.42419660375E+03 -0.14111198786E+04  0.14929315778E+04  0.12699999809E+01 0. -1.
       -4    1    3    3    0  502  0.24008542808E+03  0.42419660375E+03  0.94324816922E+03  0.10617450226E+04  0.12699999809E+01 0.  1.
</event>
<event>
 5   0  0.3885219E-05  0.2253303E+04  0.7818609E-02  0.8496564E-01
       -1   -1    0    0    0  501  0.00000000000E+00  0.00000000000E+00  0.79321136156E+03  0.79321136158E+03  0.50400001928E-02 0. -1.
        1   -1    0    0  501    0  0.00000000000E+00  0.00000000000E+00 -0.16002592755E+04  0.16002592755E+04  0.50400001928E-02 0.  1.
    10030    2    1    2    0    0  0.00000000000E+00  0.00000000000E+00 -0.80704791391E+03  0.23934706371E+04  0.22533032098E+04 0.  0.
        2    1    3    3  502    0 -0.53236999724E+03  0.57398309122E+03  0.45710454351E+03  0.90654231378E+03  0.25500000920E-02 0. -1.
       -2    1    3    3    0  502  0.53236999724E+03 -0.57398309122E+03 -0.12641524574E+04  0.14869283233E+04  0.25500000920E-02 0.  1.
</event>
<event>
 5   0  0.4095451E-05  0.2315708E+04  0.7818609E-02  0.8471753E-01
        1   -1    0    0  501    0  0.00000000000E+00  0.00000000000E+00  0.14676139314E+04  0.14676139314E+04  0.50400001928E-02 0. -1.
       -1   -1    0    0    0  501  0.00000000000E+00  0.00000000000E+00 -0.91347289795E+03  0.91347289797E+03  0.50400001928E-02 0.  1.
    10030    2    1    2    0    0  0.00000000000E+00  0.00000000000E+00  0.55414103341E+03  0.23810868293E+04  0.23157077112E+04 0.  0.
        3    1    3    3  502    0  0.87774563833E+02  0.25660125825E+03  0.14344958614E+04  0.14599064924E+04  0.10100000352E+00 0. -1.
       -3    1    3    3    0  502 -0.87774563833E+02 -0.25660125825E+03 -0.88035482802E+03  0.92118033697E+03  0.10100000352E+00 0.  1.
</event>
<event>
 5   0  0.9483073E-05  0.2507267E+04  0.7818609E-02  0.8400401E-01
        2   -1    0    0  501    0  0.00000000000E+00  0.00000000000E+00  0.19228039406E+04  0.19228039406E+04  0.25500000920E-02 0.  1.
       -2   -1    0    0    0  501  0.00000000000E+00  0.00000000000E+00 -0.81734644110E+03  0.81734644110E+03  0.25500000920E-02 0. -1.
    10030    2    1    2    0    0  0.00000000000E+00  0.00000000000E+00  0.11054574995E+04  0.27401503817E+04  0.25072670043E+04 0.  0.
        5    1    3    3  502    0  0.87858482025E+03 -0.45036077637E+03 -0.29158200147E+03  0.10294553263E+04  0.46999998093E+01 0. -1.
       -5    1    3    3    0  502 -0.87858482025E+03  0.45036077637E+03  0.13970395010E+04  0.17106950554E+04  0.46999998093E+01 0.  1.
</event>
<event>
 5   0  0.3885219E-05  0.2327188E+04  0.7818609E-02  0.8467278E-01
        1   -1    0    0  501    0  0.00000000000E+00  0.00000000000E+00  0.21465713589E+04  0.21465713589E+04  0.50400001928E-02 0. -1.
       -1   -1    0    0    0  501  0.00000000000E+00  0.00000000000E+00 -0.63075052207E+03  0.63075052209E+03  0.50400001928E-02 0.  1.
    10030    2    1    2    0    0  0.00000000000E+00  0.00000000000E+00  0.15158208368E+04  0.27773218810E+04  0.23271880073E+04 0.  0.
        2    1    3    3  502    0  0.95208373598E+03  0.27761563305E+03  0.31569896050E+02  0.99223512253E+03  0.25500000920E-02 0. -1.
       -2    1    3    3    0  502 -0.95208373598E+03 -0.27761563305E+03  0.14842509407E+04  0.17850867584E+04  0.25500000920E-02 0.  1.
</event>
<event>
 5   0  0.4295775E-05  0.2342926E+04  0.7818609E-02  0.8461186E-01
       -1   -1    0    0    0  501  0.00000000000E+00  0.00000000000E+00  0.11998613642E+04  0.11998613642E+04  0.50400001928E-02 0. -1.
        1   -1    0    0  501    0  0.00000000000E+00  0.00000000000E+00 -0.11437362966E+04  0.11437362966E+04  0.50400001928E-02 0.  1.
    10030    2    1    2    0    0  0.00000000000E+00  0.00000000000E+00  0.56125067560E+02  0.23435976608E+04  0.23429255158E+04 0.  0.
        5    1    3    3  502    0  0.44043204886E+03  0.15054270328E+03 -0.10472618734E+04  0.11460466904E+04  0.46999998093E+01 0.  1.
       -5    1    3    3    0  502 -0.44043204886E+03 -0.15054270328E+03  0.11033869409E+04  0.11975509704E+04  0.46999998093E+01 0. -1.
</event>
<event>
 5   0  0.4295775E-05  0.2340947E+04  0.7818609E-02  0.8461949E-01
       -1   -1    0    0    0  501  0.00000000000E+00  0.00000000000E+00  0.10865299836E+04  0.10865299837E+04  0.50400001928E-02 0.  1.
        1   -1    0    0  501    0  0.00000000000E+00  0.00000000000E+00 -0.12609028623E+04  0.12609028623E+04  0.50400001928E-02 0. -1.
    10030    2    1    2    0    0  0.00000000000E+00  0.00000000000E+00 -0.17437287862E+03  0.23474328459E+04  0.23409474717E+04 0.  0.
        5    1    3    3  502    0 -0.52970198556E+03 -0.67843548950E+03 -0.88255960733E+03  0.12327986281E+04  0.46999998093E+01 0. -1.
       -5    1    3    3    0  502  0.52970198556E+03  0.67843548950E+03  0.70818672871E+03  0.11146342179E+04  0.46999998093E+01 0.  1.
</event>
<event>
 5   0  0.9535394E-05  0.1909507E+04  0.7818609E-02  0.8650138E-01
        2   -1    0    0  501    0  0.00000000000E+00  0.00000000000E+00  0.14423036295E+04  0.14423036295E+04  0.25500000920E-02 0.  1.
       -2   -1    0    0    0  501  0.00000000000E+00  0.00000000000E+00 -0.63201300835E+03  0.63201300836E+03  0.25500000920E-02 0. -1.
    10030    2    1    2    0    0  0.00000000000E+00  0.00000000000E+00  0.81029062116E+03  0.20743166379E+04  0.19095074295E+04 0.  0.
        2    1    3    3  502    0 -0.73774536723E+03  0.19342328291E+01  0.10634908953E+04  0.12943279540E+04  0.25500000920E-02 0.  1.
       -2    1    3    3    0  502  0.73774536723E+03 -0.19342328291E+01 -0.25320027414E+03  0.77998868387E+03  0.25500000920E-02 0. -1.
</event>
<event>
 5   0  0.9535394E-05  0.2225905E+04  0.7818609E-02  0.8507723E-01
       -2   -1    0    0    0  501  0.00000000000E+00  0.00000000000E+00  0.66082764357E+03  0.66082764358E+03  0.25500000920E-02 0.  1.
        2   -1    0    0  501    0  0.00000000000E+00  0.00000000000E+00 -0.18744117877E+04  0.18744117877E+04  0.25500000920E-02 0. -1.
    10030    2    1    2    0    0  0.00000000000E+00  0.00000000000E+00 -0.12135841441E+04  0.25352394313E+04  0.22259048720E+04 0.  0.
        2    1    3    3  502    0 -0.36304343826E+03 -0.76392735240E+03 -0.14306995557E+04  0.16620128629E+04  0.25500000920E-02 0. -1.
       -2    1    3    3    0  502  0.36304343826E+03  0.76392735240E+03  0.21711541154E+03  0.87322656839E+03  0.25500000920E-02 0.  1.
</event>
<event>
 5   0  0.9483073E-05  0.1820924E+04  0.7818609E-02  0.8695251E-01
       -2   -1    0    0    0  501  0.00000000000E+00  0.00000000000E+00  0.12436535756E+04  0.12436535756E+04  0.25500000920E-02 0. -1.
        2   -1    0    0  501    0  0.00000000000E+00  0.00000000000E+00 -0.66653716588E+03  0.66653716589E+03  0.25500000920E-02 0.  1.
    10030    2    1    2    0    0  0.00000000000E+00  0.00000000000E+00  0.57711640968E+03  0.19101907414E+04  0.18209243033E+04 0.  0.
        5    1    3    3  502    0 -0.50698655183E+03 -0.53470803496E+02 -0.50275865943E+03  0.71601874989E+03  0.46999998093E+01 0. -1.
       -5    1    3    3    0  502  0.50698655183E+03  0.53470803496E+02  0.10798750691E+04  0.11941719916E+04  0.46999998093E+01 0.  1.
</event>
<event>
 5   0  0.9312074E-05  0.2213975E+04  0.7818609E-02  0.8512634E-01
        2   -1    0    0  501    0  0.00000000000E+00  0.00000000000E+00  0.14028251687E+04  0.14028251687E+04  0.25500000920E-02 0. -1.
       -2   -1    0    0    0  501  0.00000000000E+00  0.00000000000E+00 -0.87353819763E+03  0.87353819763E+03  0.25500000920E-02 0.  1.
    10030    2    1    2    0    0  0.00000000000E+00  0.00000000000E+00  0.52928697103E+03  0.22763633663E+04  0.22139750400E+04 0.  0.
        4    1    3    3  502    0  0.23456101144E+02  0.78110602231E+03 -0.54150612000E+03  0.95074039446E+03  0.12699999809E+01 0.  1.
       -4    1    3    3    0  502 -0.23456101144E+02 -0.78110602231E+03  0.10707930910E+04  0.13256229718E+04  0.12699999809E+01 0. -1.
</event>
<event>
 5   0  0.4139830E-05  0.2370022E+04  0.7818609E-02  0.8450813E-01
       -1   -1    0    0    0  501  0.00000000000E+00  0.00000000000E+00  0.15858687695E+04  0.15858687695E+04  0.50400001928E-02 0.  1.
        1   -1    0    0  501    0  0.00000000000E+00  0.00000000000E+00 -0.88547719481E+03  0.88547719482E+03  0.50400001928E-02 0. -1.
    10030    2    1    2    0    0  0.00000000000E+00  0.00000000000E+00  0.70039157469E+03  0.24713459643E+04  0.23700216281E+04 0.  0.
        1    1    3    3  502    0 -0.78521959434E+03 -0.87292584861E+03  0.18309073626E+03  0.11883145906E+04  0.50400001928E-02 0.  1.
       -1    1    3    3    0  502  0.78521959434E+03  0.87292584861E+03  0.51730083843E+03  0.12830313737E+04  0.50400001928E-02 0. -1.
</event>
<event>
 5   0  0.9312074E-05  0.2316499E+04  0.7818609E-02  0.8471444E-01
        2   -1    0    0  501    0  0.00000000000E+00  0.00000000000E+00  0.11244042355E+04  0.11244042355E+04  0.25500000920E-02 0. -1.
       -2   -1    0    0    0  501  0.00000000000E+00  0.00000000000E+00 -0.11931139130E+04  0.11931139130E+04  0.25500000920E-02 0.  1.
    10030    2    1    2    0    0  0.00000000000E+00  0.00000000000E+00 -0.68709677493E+02  0.23175181485E+04  0.23164993738E+04 0.  0.
        4    1    3    3  502    0  0.10421394107E+03 -0.54947678362E+03  0.98036705224E+03  0.11286746437E+04  0.12699999809E+01 0. -1.
       -4    1    3    3    0  502 -0.10421394107E+03  0.54947678362E+03 -0.10490767297E+04  0.11888435048E+04  0.12699999809E+01 0.  1.
</event>
<event>
 5   0  0.4005462E-05  0.2380971E+04  0.7818609E-02  0.8446662E-01
        1   -1    0    0  501    0  0.00000000000E+00  0.00000000000E+00  0.11124242365E+04  0.11124242365E+04  0.50400001928E-02 0.  1.
       -1   -1    0    0    0  501  0.00000000000E+00  0.00000000000E+00 -0.12740242130E+04  0.12740242130E+04  0.50400001928E-02 0. -1.
    10030    2    1    2    0    0  0.00000000000E+00  0.00000000000E+00 -0.16159997646E+03  0.23864484495E+04  0.23809707369E+04 0.  0.
        4    1    3    3  502    0 -0.54363471384E+03 -0.10461706470E+04 -0.24623144357E+03  0.12044265281E+04  0.12699999809E+01 0. -1.
       -4    1    3    3    0  502  0.54363471384E+03  0.10461706470E+04  0.84631467105E+02  0.11820219215E+04  0.12699999809E+01 0.  1.
</event>
<event>
 5   0  0.9313463E-05  0.2248509E+04  0.7818609E-02  0.8498505E-01
        2   -1    0    0  501    0  0.00000000000E+00  0.00000000000E+00  0.17066312144E+04  0.17066312144E+04  0.25500000920E-02 0. -1.
       -2   -1    0    0    0  501  0.00000000000E+00  0.00000000000E+00 -0.74060969935E+03  0.74060969935E+03  0.25500000920E-02 0.  1.
    10030    2    1    2    0    0  0.00000000000E+00  0.00000000000E+00  0.96602151502E+03  0.24472409137E+04  0.22485085106E+04 0.  0.
        1    1    3    3  502    0 -0.80186447939E+03 -0.71056522361E+03  0.85379376612E+03  0.13699829836E+04  0.50400001928E-02 0.  1.
       -1    1    3    3    0  502  0.80186447939E+03  0.71056522361E+03  0.11222774890E+03  0.10772579301E+04  0.50400001928E-02 0. -1.
</event>
<event>
 5   0  0.4095451E-05  0.2092736E+04  0.7818609E-02  0.8564450E-01
       -1   -1    0    0    0  501  0.00000000000E+00  0.00000000000E+00  0.11206834112E+04  0.11206834112E+04  0.50400001928E-02 0. -1.
        1   -1    0    0  501    0  0.00000000000E+00  0.00000000000E+00 -0.97698037825E+03  0.97698037826E+03  0.50400001928E-02 0.  1.
    10030    2    1    2    0    0  0.00000000000E+00  0.00000000000E+00  0.14370303295E+03  0.20976637895E+04  0.20927357244E+04 0.  0.
        3    1    3    3  502    0 -0.58386795745E+03 -0.73090290418E+03  0.54174627918E+03  0.10810226123E+04  0.10100000352E+00 0. -1.
       -3    1    3    3    0  502  0.58386795745E+03  0.73090290418E+03 -0.39804324623E+03  0.10166411772E+04  0.10100000352E+00 0.  1.
</event>
<event>
 5   0  0.9641157E-05  0.2256892E+04  0.7818609E-02  0.8495114E-01
       -2   -1    0    0    0  501  0.00000000000E+00  0.00000000000E+00  0.97410130543E+03  0.97410130543E+03  0.25500000920E-02 0.  1.
        2   -1    0    0  501    0  0.00000000000E+00  0.00000000000E+00 -0.13072466380E+04  0.13072466380E+04  0.25500000920E-02 0. -1.
    10030    2    1    2    0    0  0.00000000000E+00  0.00000000000E+00 -0.33314533256E+03  0.22813479434E+04  0.22568922496E+04 0.  0.
        3    1    3    3  502    0  0.34261222624E+03 -0.35788819261E+03 -0.11914245658E+04  0.12903331361E+04  0.10100000352E+00 0. -1.
       -3    1    3    3    0  502 -0.34261222624E+03  0.35788819261E+03  0.85827923321E+03  0.99101480733E+03  0.10100000352E+00 0.  1.
</event>
<event>
 5   0  0.4295775E-05  0.2293068E+04  0.7818609E-02  0.8480659E-01
       -1   -1    0    0    0  501  0.00000000000E+00  0.00000000000E+00  0.15543446985E+04  0.15543446985E+04  0.50400001928E-02 0.  1.
        1   -1    0    0  501    0  0.00000000000E+00  0.00000000000E+00 -0.84571958997E+03  0.84571958998E+03  0.50400001928E-02 0. -1.
    10030    2    1    2    0    0  0.00000000000E+00  0.00000000000E+00  0.70862510850E+03  0.24000642885E+04  0.22930676057E+04 0.  0.
        5    1    3    3  502    0  0.89876781624E+03 -0.60906237056E+03  0.73998561093E+03  0.13139030988E+04  0.46999998093E+01 0.  1.
       -5    1    3    3    0  502 -0.89876781624E+03  0.60906237056E+03 -0.31360502431E+02  0.10861611896E+04  0.46999998093E+01 0. -1.
</event>
<event>
 5   0  0.9313463E-05  0.2275744E+04  0.7818609E-02  0.8487547E-01
        2   -1    0    0  501    0  0.00000000000E+00  0.00000000000E+00  0.11430474197E+04  0.11430474197E+04  0.25500000920E-02 0.  1.
       -2   -1    0    0    0  501  0.00000000000E+00  0.00000000000E+00 -0.11327196791E+04  0.11327196791E+04  0.25500000920E-02 0. -1.
    10030    2    1    2    0    0  0.00000000000E+00  0.00000000000E+00  0.10327740683E+02  0.22757670988E+04  0.22757436643E+04 0.  0.
        1    1    3    3  502    0 -0.46301274337E+03  0.35298243246E+03 -0.97248360833E+03  0.11334468521E+04  0.50400001928E-02 0. -1.
       -1    1    3    3    0  502  0.46301274337E+03 -0.35298243246E+03  0.98281134901E+03  0.11423202467E+04  0.50400001928E-02 0.  1.
</event>
<event>
 5   0  0.9641157E-05  0.2293212E+04  0.7818609E-02  0.8480602E-01
        2   -1    0    0  501    0  0.00000000000E+00  0.00000000000E+00  0.14585122360E+04  0.14585122360E+04  0.25500000920E-02 0.  1.
       -2   -1    0    0    0  501  0.00000000000E+00  0.00000000000E+00 -0.90140153419E+03  0.90140153419E+03  0.25500000920E-02 0. -1.
    10030    2    1    2    0    0  0.00000000000E+00  0.00000000000E+00  0.55711070180E+03  0.23599137702E+04  0.22932118674E+04 0.  0.
        3    1    3    3  502    0  0.11227536872E+04 -0.21504666765E+03  0.18717937498E+03  0.11583855316E+04  0.10100000352E+00 0. -1.
       -3    1    3    3    0  502 -0.11227536872E+04  0.21504666765E+03  0.36993132682E+03  0.12015282386E+04  0.10100000352E+00 0.  1.
</event>
<event>
 5   0  0.3261500E-05  0.2295530E+04  0.7818609E-02  0.8479685E-01
        3   -1    0    0  501    0  0.00000000000E+00  0.00000000000E+00  0.10551785362E+04  0.10551785410E+04  0.10100000352E+00 0.  1.
       -3   -1    0    0    0  501  0.00000000000E+00  0.00000000000E+00 -0.12484759794E+04  0.12484759835E+04  0.10100000352E+00 0. -1.
    10030    2    1    2    0    0  0.00000000000E+00  0.00000000000E+00 -0.19329744321E+03  0.23036545245E+04  0.22955304979E+04 0.  0.
        2    1    3    3  502    0  0.10060155614E+04  0.33384768025E+03 -0.53848348685E+03  0.11889011939E+04  0.25500000920E-02 0. -1.
       -2    1    3    3    0  502 -0.10060155614E+04 -0.33384768025E+03  0.34518604363E+03  0.11147533306E+04  0.25500000920E-02 0.  1.
</event>
<event>
 5   0  0.4005462E-05  0.2320433E+04  0.7818609E-02  0.8469908E-01
       -1   -1    0    0    0  501  0.00000000000E+00  0.00000000000E+00  0.89319780128E+03  0.89319780129E+03  0.50400001928E-02 0. -1.
        1   -1    0    0  501    0  0.00000000000E+00  0.00000000000E+00 -0.15070593602E+04  0.15070593602E+04  0.50400001928E-02 0.  1.
    10030    2    1    2    0    0  0.00000000000E+00  0.00000000000E+00 -0.61386155896E+03  0.24002571615E+04  0.23204328105E+04 0.  0.
        4    1    3    3  502    0 -0.90169123469E+03 -0.61807051400E+03  0.95080280371E+02  0.10973149573E+04  0.12699999809E+01 0. -1.
       -4    1    3    3    0  502  0.90169123469E+03  0.61807051400E+03 -0.70894183933E+03  0.13029422042E+04  0.12699999809E+01 0.  1.
</event>
<event>
 5   0  0.3885219E-05  0.2299925E+04  0.7818609E-02  0.8477951E-01
       -1   -1    0    0    0  501  0.00000000000E+00  0.00000000000E+00  0.65656884119E+03  0.65656884121E+03  0.50400001928E-02 0.  1.
        1   -1    0    0  501    0  0.00000000000E+00  0.00000000000E+00 -0.20141273844E+04  0.20141273844E+04  0.50400001928E-02 0. -1.
    10030    2    1    2    0    0  0.00000000000E+00  0.00000000000E+00 -0.13575585432E+04  0.26706962256E+04  0.22999245925E+04 0.  0.
        2    1    3    3  502    0 -0.34481051683E+03  0.56070247986E+03  0.41616987004E+03  0.77876756749E+03  0.25500000920E-02 0.  1.
       -2    1    3    3    0  502  0.34481051683E+03 -0.56070247986E+03 -0.17737284132E+04  0.18919286581E+04  0.25500000920E-02 0. -1.
</event>
<event>
 5   0  0.9312074E-05  0.2283184E+04  0.7818609E-02  0.8484581E-01
        2   -1    0    0  501    0  0.00000000000E+00  0.00000000000E+00  0.17567544385E+04  0.17567544385E+04  0.25500000920E-02 0. -1.
       -2   -1    0    0    0  501  0.00000000000E+00  0.00000000000E+00 -0.74184087484E+03  0.74184087485E+03  0.25500000920E-02 0.  1.
    10030    2    1    2    0    0  0.00000000000E+00  0.00000000000E+00  0.10149135636E+04  0.24985953133E+04  0.22831839606E+04 0.  0.
        4    1    3    3  502    0  0.98302599687E+03  0.44454631643E+03  0.91585364587E+03  0.14151858717E+04  0.12699999809E+01 0.  1.
       -4    1    3    3    0  502 -0.98302599687E+03 -0.44454631643E+03  0.99059917774E+02  0.10834094416E+04  0.12699999809E+01 0. -1.
</event>
<event>
 5   0  0.9313463E-05  0.2329241E+04  0.7818609E-02  0.8466480E-01
        2   -1    0    0  501    0  0.00000000000E+00  0.00000000000E+00  0.14513698477E+04  0.14513698477E+04  0.25500000920E-02 0.  1.
       -2   -1    0    0    0  501  0.00000000000E+00  0.00000000000E+00 -0.93452476683E+03  0.93452476684E+03  0.25500000920E-02 0. -1.
    10030    2    1    2    0    0  0.00000000000E+00  0.00000000000E+00  0.51684508082E+03  0.23858946145E+04  0.23292411369E+04 0.  0.
        1    1    3    3  502    0  0.54563567355E+03  0.48103155553E+03  0.11900672384E+04  0.13947650977E+04  0.50400001928E-02 0.  1.
       -1    1    3    3    0  502 -0.54563567355E+03 -0.48103155553E+03 -0.67322215759E+03  0.99112951684E+03  0.50400001928E-02 0. -1.
</event>
<event>
 5   0  0.4139830E-05  0.2358858E+04  0.7818609E-02  0.8455069E-01
       -1   -1    0    0    0  501  0.00000000000E+00  0.00000000000E+00  0.10426642045E+04  0.10426642045E+04  0.50400001928E-02 0.  1.
        1   -1    0    0  501    0  0.00000000000E+00  0.00000000000E+00 -0.13341325314E+04  0.13341325314E+04  0.50400001928E-02 0. -1.
    10030    2    1    2    0    0  0.00000000000E+00  0.00000000000E+00 -0.29146832693E+03  0.23767967360E+04  0.23588575494E+04 0.  0.
        1    1    3    3  502    0  0.37838027305E+03  0.11158093517E+04 -0.19952644159E+03  0.11949949545E+04  0.50400001928E-02 0.  1.
       -1    1    3    3    0  502 -0.37838027305E+03 -0.11158093517E+04 -0.91941885342E+02  0.11818017815E+04  0.50400001928E-02 0. -1.
</event>
<event>
 5   0  0.9483073E-05  0.2279612E+04  0.7818609E-02  0.8486004E-01
        2   -1    0    0  501    0  0.00000000000E+00  0.00000000000E+00  0.91124458187E+03  0.91124458188E+03  0.25500000920E-02 0.  1.
       -2   -1    0    0    0  501  0.00000000000E+00  0.00000000000E+00 -0.14256955626E+04  0.14256955626E+04  0.25500000920E-02 0. -1.
    10030    2    1    2    0    0  0.00000000000E+00  0.00000000000E+00 -0.51445098068E+03  0.23369401444E+04  0.22796116834E+04 0.  0.
        5    1    3    3  502    0 -0.55267196856E+02 -0.11364784342E+04 -0.32597598008E+03  0.11836047161E+04  0.46999998093E+01 0.  1.
       -5    1    3    3    0  502  0.55267196856E+02  0.11364784342E+04 -0.18847500060E+03  0.11533354283E+04  0.46999998093E+01 0. -1.
</event>
<event>
 5   0  0.4005462E-05  0.2318747E+04  0.7818609E-02  0.8470566E-01
       -1   -1    0    0    0  501  0.00000000000E+00  0.00000000000E+00  0.13867517816E+04  0.13867517816E+04  0.50400001928E-02 0.  1.
        1   -1    0    0  501    0  0.00000000000E+00  0.00000000000E+00 -0.96927696581E+03  0.96927696582E+03  0.50400001928E-02 0. -1.
    10030    2    1    2    0    0  0.00000000000E+00  0.00000000000E+00  0.41747481576E+03  0.23560287474E+04  0.23187466953E+04 0.  0.
        4    1    3    3  502    0 -0.29982775936E+03  0.35453824484E+02 -0.92863137170E+03  0.97647913258E+03  0.12699999809E+01 0. -1.
       -4    1    3    3    0  502  0.29982775936E+03 -0.35453824484E+02  0.13461061875E+04  0.13795496148E+04  0.12699999809E+01 0.  1.
</event>
<event>
 5   0  0.4095451E-05  0.2303528E+04  0.7818609E-02  0.8476531E-01
       -1   -1    0    0    0  501  0.00000000000E+00  0.00000000000E+00  0.12976835510E+04  0.12976835510E+04  0.50400001928E-02 0. -1.
        1   -1    0    0  501    0  0.00000000000E+00  0.00000000000E+00 -0.10222526149E+04  0.10222526149E+04  0.50400001928E-02 0.  1.
    10030    2    1    2    0    0  0.00000000000E+00  0.00000000000E+00  0.27543093612E+03  0.23199361659E+04  0.23035280796E+04 0.  0.
        3    1    3    3  502    0  0.33675717991E+03 -0.45989732147E+03  0.11456687489E+04  0.12796358220E+04  0.10100000352E+00 0. -1.
       -3    1    3    3    0  502 -0.33675717991E+03  0.45989732147E+03 -0.87023781279E+03  0.10403003439E+04  0.10100000352E+00 0.  1.
</event>
<event>
 5   0  0.3885219E-05  0.2463474E+04  0.7818609E-02  0.8416115E-01
        1   -1    0    0  501    0  0.00000000000E+00  0.00000000000E+00  0.86312606798E+03  0.86312606800E+03  0.50400001928E-02 0.  1.
       -1   -1    0    0    0  501  0.00000000000E+00  0.00000000000E+00 -0.17577687387E+04  0.17577687388E+04  0.50400001928E-02 0. -1.
    10030    2    1    2    0    0  0.00000000000E+00  0.00000000000E+00 -0.89464267076E+03  0.26208948068E+04  0.24634739860E+04 0.  0.
        2    1    3    3  502    0 -0.98164915459E+03  0.89179951259E+02  0.33851837715E+03  0.10422009490E+04  0.25500000920E-02 0.  1.
       -2    1    3    3    0  502  0.98164915459E+03 -0.89179951259E+02 -0.12331610479E+04  0.15786938578E+04  0.25500000920E-02 0. -1.
</event>
<event>
 5   0  0.9312074E-05  0.2166181E+04  0.7818609E-02  0.8532637E-01
       -2   -1    0    0    0  501  0.00000000000E+00  0.00000000000E+00  0.95813182508E+03  0.95813182508E+03  0.25500000920E-02 0.  1.
        2   -1    0    0  501    0  0.00000000000E+00  0.00000000000E+00 -0.12243467200E+04  0.12243467200E+04  0.25500000920E-02 0. -1.
    10030    2    1    2    0    0  0.00000000000E+00  0.00000000000E+00 -0.26621489490E+03  0.21824785451E+04  0.21661814858E+04 0.  0.
        4    1    3    3  502    0  0.79045928859E+02  0.14186311682E+03 -0.12120095661E+04  0.12228418556E+04  0.12699999809E+01 0. -1.
       -4    1    3    3    0  502 -0.79045928859E+02 -0.14186311682E+03  0.94579467116E+03  0.95963668942E+03  0.12699999809E+01 0.  1.
</event>
<event>
 5   0  0.4139830E-05  0.2296303E+04  0.7818609E-02  0.8479380E-01
        1   -1    0    0  501    0  0.00000000000E+00  0.00000000000E+00  0.18431525200E+04  0.18431525200E+04  0.50400001928E-02 0.  1.
       -1   -1    0    0    0  501  0.00000000000E+00  0.00000000000E+00 -0.71521565535E+03  0.71521565537E+03  0.50400001928E-02 0. -1.
    10030    2    1    2    0    0  0.00000000000E+00  0.00000000000E+00  0.11279368646E+04  0.25583681753E+04  0.22963027131E+04 0.  0.
        1    1    3    3  502    0 -0.30541546648E+03  0.42854453512E+03  0.17008796033E+04  0.17804270416E+04  0.50400001928E-02 0.  1.
       -1    1    3    3    0  502  0.30541546648E+03 -0.42854453512E+03 -0.57294273864E+03  0.77794113372E+03  0.50400001928E-02 0. -1.
</event>
<event>
 5   0  0.4095451E-05  0.2164700E+04  0.7818609E-02  0.8533266E-01
        1   -1    0    0  501    0  0.00000000000E+00  0.00000000000E+00  0.10691137842E+04  0.10691137842E+04  0.50400001928E-02 0. -1.
       -1   -1    0    0    0  501  0.00000000000E+00  0.00000000000E+00 -0.10957500750E+04  0.10957500750E+04  0.50400001928E-02 0.  1.
    10030    2    1    2    0    0  0.00000000000E+00  0.00000000000E+00 -0.26636290774E+02  0.21648638592E+04  0.21646999877E+04 0.  0.
        3    1    3    3  502    0  0.81628994479E+03 -0.69091678233E+02  0.69410982051E+03  0.10737277994E+04  0.10100000352E+00 0. -1.
       -3    1    3    3    0  502 -0.81628994479E+03  0.69091678233E+02 -0.72074611129E+03  0.10911360599E+04  0.10100000352E+00 0.  1.
</event>
<event>
 5   0  0.9535394E-05  0.2287199E+04  0.7818609E-02  0.8482985E-01
       -2   -1    0    0    0  501  0.00000000000E+00  0.00000000000E+00  0.99333178300E+03  0.99333178301E+03  0.25500000920E-02 0. -1.
        2   -1    0    0  501    0  0.00000000000E+00  0.00000000000E+00 -0.13165992306E+04  0.13165992306E+04  0.25500000920E-02 0.  1.
    10030    2    1    2    0    0  0.00000000000E+00  0.00000000000E+00 -0.32326744760E+03  0.23099310136E+04  0.22871990392E+04 0.  0.
        2    1    3    3  502    0 -0.97732446020E+03 -0.15419212757E+03  0.41754794008E+03  0.10739108878E+04  0.25500000920E-02 0. -1.
       -2    1    3    3    0  502  0.97732446020E+03  0.15419212757E+03 -0.74081538768E+03  0.12360201258E+04  0.25500000920E-02 0.  1.
</event>
<event>
 5   0  0.9312074E-05  0.2271294E+04  0.7818609E-02  0.8489326E-01
       -2   -1    0    0    0  501  0.00000000000E+00  0.00000000000E+00  0.18149104184E+04  0.18149104184E+04  0.25500000920E-02 0.  1.
        2   -1    0    0  501    0  0.00000000000E+00  0.00000000000E+00 -0.71061009858E+03  0.71061009859E+03  0.25500000920E-02 0. -1.
    10030    2    1    2    0    0  0.00000000000E+00  0.00000000000E+00  0.11043003198E+04  0.25255205170E+04  0.22712936150E+04 0.  0.
        4    1    3    3  502    0  0.23998439002E+03  0.10883966258E+04  0.30983008937E+03  0.11568042270E+04  0.12699999809E+01 0.  1.
       -4    1    3    3    0  502 -0.23998439002E+03 -0.10883966258E+04  0.79447023047E+03  0.13687162900E+04  0.12699999809E+01 0. -1.
</event>
<event>
 5   0  0.4295775E-05  0.2313732E+04  0.7818609E-02  0.8472526E-01
       -1   -1    0    0    0  501  0.00000000000E+00  0.00000000000E+00  0.13194472011E+04  0.13194472012E+04  0.50400001928E-02 0.  1.
        1   -1    0    0  501    0  0.00000000000E+00  0.00000000000E+00 -0.10143178031E+04  0.10143178031E+04  0.50400001928E-02 0. -1.
    10030    2    1    2    0    0  0.00000000000E+00  0.00000000000E+00  0.30512939802E+03  0.23337650043E+04  0.23137318656E+04 0.  0.
        5    1    3    3  502    0  0.35510207329E+03 -0.22723232038E+03  0.12391967563E+04  0.13089548123E+04  0.46999998093E+01 0.  1.
       -5    1    3    3    0  502 -0.35510207329E+03  0.22723232038E+03 -0.93406735825E+03  0.10248101920E+04  0.46999998093E+01 0. -1.
</event>
<event>
 5   0  0.9312074E-05  0.2480995E+04  0.7818609E-02  0.8409788E-01
        2   -1    0    0  501    0  0.00000000000E+00  0.00000000000E+00  0.21934545322E+04  0.21934545322E+04  0.25500000920E-02 0. -1.
       -2   -1    0    0    0  501  0.00000000000E+00  0.00000000000E+00 -0.70155728729E+03  0.70155728729E+03  0.25500000920E-02 0.  1.
    10030    2    1    2    0    0  0.00000000000E+00  0.00000000000E+00  0.14918972449E+04  0.28950118194E+04  0.24809949709E+04 0.  0.
        4    1    3    3  502    0 -0.37088506614E+03 -0.37754666191E+03  0.20551053539E+04  0.21221585338E+04  0.12699999809E+01 0. -1.
       -4    1    3    3    0  502  0.37088506614E+03  0.37754666191E+03 -0.56320810899E+03  0.77285328565E+03  0.12699999809E+01 0.  1.
</event>
<event>
 5   0  0.3885219E-05  0.2317156E+04  0.7818609E-02  0.8471187E-01
       -1   -1    0    0    0  501  0.00000000000E+00  0.00000000000E+00  0.10010890832E+04  0.10010890832E+04  0.50400001928E-02 0. -1.
        1   -1    0    0  501    0  0.00000000000E+00  0.00000000000E+00 -0.13408426704E+04  0.13408426704E+04  0.50400001928E-02 0.  1.
    10030    2    1    2    0    0  0.00000000000E+00  0.00000000000E+00 -0.33975358719E+03  0.23419317537E+04  0.23171559807E+04 0.  0.
        2    1    3    3  502    0 -0.65170143057E+03  0.43887607460E+02 -0.11370106367E+04  0.13112719263E+04  0.25500000920E-02 0.  1.
       -2    1    3    3    0  502  0.65170143057E+03 -0.43887607460E+02  0.79725704953E+03  0.10306598274E+04  0.25500000920E-02 0. -1.
</event>
<event>
 5   0  0.9483073E-05  0.2373886E+04  0.7818609E-02  0.8449346E-01
        2   -1    0    0  501    0  0.00000000000E+00  0.00000000000E+00  0.66100814314E+03  0.66100814314E+03  0.25500000920E-02 0. -1.
       -2   -1    0    0    0  501  0.00000000000E+00  0.00000000000E+00 -0.21313402413E+04  0.21313402413E+04  0.25500000920E-02 0.  1.
    10030    2    1    2    0    0  0.00000000000E+00  0.00000000000E+00 -0.14703320982E+04  0.27923483845E+04  0.23738856378E+04 0.  0.
        5    1    3    3  502    0 -0.72209355891E+03 -0.11239712003E+03  0.36498927479E+03  0.81687911047E+03  0.46999998093E+01 0. -1.
       -5    1    3    3    0  502  0.72209355891E+03  0.11239712003E+03 -0.18353213730E+04  0.19754692740E+04  0.46999998093E+01 0.  1.
</event>
<event>
 5   0  0.4005462E-05  0.2300984E+04  0.7818609E-02  0.8477533E-01
        1   -1    0    0  501    0  0.00000000000E+00  0.00000000000E+00  0.10701378656E+04  0.10701378657E+04  0.50400001928E-02 0.  1.
       -1   -1    0    0    0  501  0.00000000000E+00  0.00000000000E+00 -0.12368801650E+04  0.12368801650E+04  0.50400001928E-02 0. -1.
    10030    2    1    2    0    0  0.00000000000E+00  0.00000000000E+00 -0.16674229933E+03  0.23070180306E+04  0.23009843979E+04 0.  0.
        4    1    3    3  502    0  0.28521444766E+03 -0.63984843142E+03 -0.99838538638E+03  0.12196426891E+04  0.12699999809E+01 0. -1.
       -4    1    3    3    0  502 -0.28521444766E+03  0.63984843142E+03  0.83164308704E+03  0.10873753416E+04  0.12699999809E+01 0.  1.
</event>
<event>
 5   0  0.9641157E-05  0.2314192E+04  0.7818609E-02  0.8472347E-01
        2   -1    0    0  501    0  0.00000000000E+00  0.00000000000E+00  0.13040290660E+04  0.13040290660E+04  0.25500000920E-02 0.  1.
       -2   -1    0    0    0  501  0.00000000000E+00  0.00000000000E+00 -0.10267184055E+04  0.10267184055E+04  0.25500000920E-02 0. -1.
    10030    2    1    2    0    0  0.00000000000E+00  0.00000000000E+00  0.27731066046E+03  0.23307474715E+04  0.23141915594E+04 0.  0.
        3    1    3    3  502    0 -0.24674723633E+03  0.97578770723E+03 -0.43623893334E+03  0.10969732291E+04  0.10100000352E+00 0.  1.
       -3    1    3    3    0  502  0.24674723633E+03 -0.97578770723E+03  0.71354959381E+03  0.12337742424E+04  0.10100000352E+00 0. -1.
</event>
<event>
 5   0  0.3885219E-05  0.2331481E+04  0.7818609E-02  0.8465611E-01
        1   -1    0    0  501    0  0.00000000000E+00  0.00000000000E+00  0.22522816316E+04  0.22522816316E+04  0.50400001928E-02 0. -1.
       -1   -1    0    0    0  501  0.00000000000E+00  0.00000000000E+00 -0.60336619795E+03  0.60336619797E+03  0.50400001928E-02 0.  1.
    10030    2    1    2    0    0  0.00000000000E+00  0.00000000000E+00  0.16489154336E+04  0.28556478296E+04  0.23314807353E+04 0.  0.
        2    1    3    3  502    0  0.30038827843E+02 -0.99970641851E+03  0.15579564427E+04  0.18513626149E+04  0.25500000920E-02 0. -1.
       -2    1    3    3    0  502 -0.30038827843E+02  0.99970641851E+03  0.90958990919E+02  0.10042852147E+04  0.25500000920E-02 0.  1.
</event>
<event>
 5   0  0.9535394E-05  0.2259824E+04  0.7818609E-02  0.8493933E-01
        2   -1    0    0  501    0  0.00000000000E+00  0.00000000000E+00  0.13506878911E+04  0.13506878911E+04  0.25500000920E-02 0. -1.
       -2   -1    0    0    0  501  0.00000000000E+00  0.00000000000E+00 -0.94522255538E+03  0.94522255538E+03  0.25500000920E-02 0.  1.
    10030    2    1    2    0    0  0.00000000000E+00  0.00000000000E+00  0.40546533573E+03  0.22959104465E+04  0.22598235860E+04 0.  0.
        2    1    3    3  502    0  0.36878345285E+03 -0.98467474823E+03 -0.21753359714E+03  0.10737348187E+04  0.25500000920E-02 0.  1.
       -2    1    3    3    0  502 -0.36878345285E+03  0.98467474823E+03  0.62299893288E+03  0.12221756278E+04  0.25500000920E-02 0. -1.
</event>
<event>
 5   0  0.3261500E-05  0.2345407E+04  0.7818609E-02  0.8460230E-01
        3   -1    0    0  501    0  0.00000000000E+00  0.00000000000E+00  0.19495513119E+04  0.19495513145E+04  0.10100000352E+00 0. -1.
       -3   -1    0    0    0  501  0.00000000000E+00  0.00000000000E+00 -0.70541037089E+03  0.70541037812E+03  0.10100000352E+00 0.  1.
    10030    2    1    2    0    0  0.00000000000E+00  0.00000000000E+00  0.12441409410E+04  0.26549616927E+04  0.23454071946E+04 0.  0.
        4    1    3    3  502    0 -0.27132648519E+03 -0.44562995364E+03  0.18109374755E+04  0.18845955190E+04  0.12699999809E+01 0. -1.
       -4    1    3    3    0  502  0.27132648519E+03  0.44562995364E+03 -0.56679653447E+03  0.77036617367E+03  0.12699999809E+01 0.  1.
</event>
<event>
 5   0  0.9312074E-05  0.2178785E+04  0.7818609E-02  0.8527310E-01
        2   -1    0    0  501    0  0.00000000000E+00  0.00000000000E+00  0.22451213590E+04  0.22451213590E+04  0.25500000920E-02 0.  1.
       -2   -1    0    0    0  501  0.00000000000E+00  0.00000000000E+00 -0.52860218150E+03  0.52860218150E+03  0.25500000920E-02 0. -1.
    10030    2    1    2    0    0  0.00000000000E+00  0.00000000000E+00  0.17165191775E+04  0.27737235405E+04  0.21787850267E+04 0.  0.
        4    1    3    3  502    0 -0.72735552975E+03  0.63840833725E+03  0.14949971511E+04  0.17809068944E+04  0.12699999809E+01 0.  1.
       -4    1    3    3    0  502  0.72735552975E+03 -0.63840833725E+03  0.22152202638E+03  0.99281664611E+03  0.12699999809E+01 0. -1.
</event>
<event>
 5   0  0.9483073E-05  0.2298014E+04  0.7818609E-02  0.8478704E-01
       -2   -1    0    0    0  501  0.00000000000E+00  0.00000000000E+00  0.79868949228E+03  0.79868949228E+03  0.25500000920E-02 0.  1.
        2   -1    0    0  501    0  0.00000000000E+00  0.00000000000E+00 -0.16529796154E+04  0.16529796154E+04  0.25500000920E-02 0. -1.
    10030    2    1    2    0    0  0.00000000000E+00  0.00000000000E+00 -0.85429012310E+03  0.24516691077E+04  0.22980143165E+04 0.  0.
        5    1    3    3  502    0 -0.51644953011E+03 -0.26292394252E+03  0.63133594344E+03  0.85700424747E+03  0.46999998093E+01 0.  1.
       -5    1    3    3    0  502  0.51644953011E+03  0.26292394252E+03 -0.14856260665E+04  0.15946648602E+04  0.46999998093E+01 0. -1.
</event>
<event>
 5   0  0.4005462E-05  0.2249569E+04  0.7818609E-02  0.8498075E-01
       -1   -1    0    0    0  501  0.00000000000E+00  0.00000000000E+00  0.83816844153E+03  0.83816844155E+03  0.50400001928E-02 0.  1.
        1   -1    0    0  501    0  0.00000000000E+00  0.00000000000E+00 -0.15094109026E+04  0.15094109026E+04  0.50400001928E-02 0. -1.
    10030    2    1    2    0    0  0.00000000000E+00  0.00000000000E+00 -0.67124246103E+03  0.23475793441E+04  0.22495693667E+04 0.  0.
        4    1    3    3  502    0 -0.31691171702E+03 -0.55012281034E+03 -0.13045511457E+04  0.14508354309E+04  0.12699999809E+01 0. -1.
       -4    1    3    3    0  502  0.31691171702E+03  0.55012281034E+03  0.63330868471E+03  0.89674391320E+03  0.12699999809E+01 0.  1.
</event>
<event>
 5   0  0.3885219E-05  0.2328788E+04  0.7818609E-02  0.8466656E-01
        1   -1    0    0  501    0  0.00000000000E+00  0.00000000000E+00  0.19973725208E+04  0.19973725208E+04  0.50400001928E-02 0.  1.
       -1   -1    0    0    0  501  0.00000000000E+00  0.00000000000E+00 -0.67879856563E+03  0.67879856565E+03  0.50400001928E-02 0. -1.
    10030    2    1    2    0    0  0.00000000000E+00  0.00000000000E+00  0.13185739552E+04  0.26761710864E+04  0.23287881846E+04 0.  0.
        2    1    3    3  502    0  0.14585951164E+03 -0.68025093859E+03 -0.41369304607E+03  0.80941847827E+03  0.25500000920E-02 0. -1.
       -2    1    3    3    0  502 -0.14585951164E+03  0.68025093859E+03  0.17322670012E+04  0.18667526082E+04  0.25500000920E-02 0.  1.
</event>
<event>
 5   0  0.9483073E-05  0.2255808E+04  0.7818609E-02  0.8495552E-01
        2   -1    0    0  501    0  0.00000000000E+00  0.00000000000E+00  0.16207797372E+04  0.16207797372E+04  0.25500000920E-02 0.  1.
       -2   -1    0    0    0  501  0.00000000000E+00  0.00000000000E+00 -0.78491095108E+03  0.78491095109E+03  0.25500000920E-02 0. -1.
    10030    2    1    2    0    0  0.00000000000E+00  0.00000000000E+00  0.83586878613E+03  0.24056906883E+04  0.22558082942E+04 0.  0.
        5    1    3    3  502    0 -0.44204625353E+03 -0.18705383684E+03 -0.67054370782E+03  0.82464839916E+03  0.46999998093E+01 0. -1.
       -5    1    3    3    0  502  0.44204625353E+03  0.18705383684E+03  0.15064124939E+04  0.15810422891E+04  0.46999998093E+01 0.  1.
</event>
<event>
 5   0  0.4095451E-05  0.2295451E+04  0.7818609E-02  0.8479717E-01
       -1   -1    0    0    0  501  0.00000000000E+00  0.00000000000E+00  0.84178535360E+03  0.84178535362E+03  0.50400001928E-02 0.  1.
        1   -1    0    0  501    0  0.00000000000E+00  0.00000000000E+00 -0.15648567045E+04  0.15648567045E+04  0.50400001928E-02 0. -1.
    10030    2    1    2    0    0  0.00000000000E+00  0.00000000000E+00 -0.72307135090E+03  0.24066420581E+04  0.22954506785E+04 0.  0.
        3    1    3    3  502    0  0.15561362612E+03  0.84127803272E+03  0.44057847908E+03  0.96232724964E+03  0.10100000352E+00 0.  1.
       -3    1    3    3    0  502 -0.15561362612E+03 -0.84127803272E+03 -0.11636498300E+04  0.14443148085E+04  0.10100000352E+00 0. -1.
</event>
<event>
 5   0  0.9313463E-05  0.2275906E+04  0.7818609E-02  0.8487482E-01
       -2   -1    0    0    0  501  0.00000000000E+00  0.00000000000E+00  0.82904784905E+03  0.82904784906E+03  0.25500000920E-02 0. -1.
        2   -1    0    0  501    0  0.00000000000E+00  0.00000000000E+00 -0.15619564083E+04  0.15619564083E+04  0.25500000920E-02 0.  1.
    10030    2    1    2    0    0  0.00000000000E+00  0.00000000000E+00 -0.73290855928E+03  0.23910042574E+04  0.22759056225E+04 0.  0.
        1    1    3    3  502    0  0.69107926216E+02 -0.31319752291E+03  0.78058058022E+03  0.84390439984E+03  0.50400001928E-02 0. -1.
       -1    1    3    3    0  502 -0.69107926216E+02  0.31319752291E+03 -0.15134891395E+04  0.15470998575E+04  0.50400001928E-02 0.  1.
</event>
<event>
 5   0  0.4139830E-05  0.2306616E+04  0.7818609E-02  0.8475317E-01
       -1   -1    0    0    0  501  0.00000000000E+00  0.00000000000E+00  0.98218711273E+03  0.98218711274E+03  0.50400001928E-02 0.  1.
        1   -1    0    0  501    0  0.00000000000E+00  0.00000000000E+00 -0.13542424878E+04  0.13542424878E+04  0.50400001928E-02 0. -1.
    10030    2    1    2    0    0  0.00000000000E+00  0.00000000000E+00 -0.37205537508E+03  0.23364296006E+04  0.23066161528E+04 0.  0.
        1    1    3    3  502    0 -0.30197750862E+03 -0.77114251501E+03  0.62701015617E+03  0.10387458448E+04  0.50400001928E-02 0.  1.
       -1    1    3    3    0  502  0.30197750862E+03  0.77114251501E+03 -0.99906553126E+03  0.12976837557E+04  0.50400001928E-02 0. -1.
</event>
<event>
 5   0  0.9313463E-05  0.1461200E+04  0.7818609E-02  0.8910673E-01
        2   -1    0    0  501    0  0.00000000000E+00  0.00000000000E+00  0.59664125824E+03  0.59664125824E+03  0.25500000920E-02 0. -1.
       -2   -1    0    0    0  501  0.00000000000E+00  0.00000000000E+00 -0.89463497361E+03  0.89463497361E+03  0.25500000920E-02 0.  1.
    10030    2    1    2    0    0  0.00000000000E+00  0.00000000000E+00 -0.29799371537E+03  0.14912762319E+04  0.14611996938E+04 0.  0.
        1    1    3    3  502    0 -0.60724105476E+03 -0.33630066581E+03  0.83589386878E+02  0.69916165658E+03  0.50400001928E-02 0. -1.
       -1    1    3    3    0  502  0.60724105476E+03  0.33630066581E+03 -0.38158310225E+03  0.79211457527E+03  0.50400001928E-02 0.  1.
</event>
<event>
 5   0  0.9313463E-05  0.2296214E+04  0.7818609E-02  0.8479416E-01
        2   -1    0    0  501    0  0.00000000000E+00  0.00000000000E+00  0.29161638600E+04  0.29161638600E+04  0.25500000920E-02 0. -1.
       -2   -1    0    0    0  501  0.00000000000E+00  0.00000000000E+00 -0.45201476713E+03  0.45201476714E+03  0.25500000920E-02 0.  1.
    10030    2    1    2    0    0  0.00000000000E+00  0.00000000000E+00  0.24641490928E+04  0.33681786271E+04  0.22962135163E+04 0.  0.
        1    1    3    3  502    0 -0.10481474717E+04  0.28108387585E+03  0.68219943438E+03  0.12818023779E+04  0.50400001928E-02 0.  1.
       -1    1    3    3    0  502  0.10481474717E+04 -0.28108387585E+03  0.17819496585E+04  0.20863762492E+04  0.50400001928E-02 0. -1.
</event>
<event>
 5   0  0.9483073E-05  0.1782311E+04  0.7818609E-02  0.8715763E-01
        2   -1    0    0  501    0  0.00000000000E+00  0.00000000000E+00  0.12381849578E+04  0.12381849578E+04  0.25500000920E-02 0. -1.
       -2   -1    0    0    0  501  0.00000000000E+00  0.00000000000E+00 -0.64138914967E+03  0.64138914968E+03  0.25500000920E-02 0.  1.
    10030    2    1    2    0    0  0.00000000000E+00  0.00000000000E+00  0.59679580809E+03  0.18795741074E+04  0.17823113052E+04 0.  0.
        5    1    3    3  502    0  0.83339524069E+03 -0.29038434909E+03  0.16810133788E+03  0.89841574296E+03  0.46999998093E+01 0. -1.
       -5    1    3    3    0  502 -0.83339524069E+03  0.29038434909E+03  0.42869447021E+03  0.98115836448E+03  0.46999998093E+01 0.  1.
</event>
<event>
 5   0  0.9641157E-05  0.2262341E+04  0.7818609E-02  0.8492919E-01
       -2   -1    0    0    0  501  0.00000000000E+00  0.00000000000E+00  0.46655091528E+03  0.46655091528E+03  0.25500000920E-02 0.  1.
        2   -1    0    0  501    0  0.00000000000E+00  0.00000000000E+00 -0.27425662116E+04  0.27425662116E+04  0.25500000920E-02 0. -1.
    10030    2    1    2    0    0  0.00000000000E+00  0.00000000000E+00 -0.22760152963E+04  0.32091171269E+04  0.22623410673E+04 0.  0.
        3    1    3    3  502    0 -0.60759536048E+03  0.38143901403E+02 -0.24903611946E+04  0.25636938134E+04  0.10100000352E+00 0. -1.
       -3    1    3    3    0  502  0.60759536048E+03 -0.38143901403E+02  0.21434589824E+03  0.64542331348E+03  0.10100000352E+00 0.  1.
</event>
<event>
 5   0  0.3885219E-05  0.2293892E+04  0.7818609E-02  0.8480333E-01
        1   -1    0    0  501    0  0.00000000000E+00  0.00000000000E+00  0.13555426166E+04  0.13555426167E+04  0.50400001928E-02 0. -1.
       -1   -1    0    0    0  501  0.00000000000E+00  0.00000000000E+00 -0.97044943431E+03  0.97044943433E+03  0.50400001928E-02 0.  1.
    10030    2    1    2    0    0  0.00000000000E+00  0.00000000000E+00  0.38509318233E+03  0.23259920510E+04  0.22938923824E+04 0.  0.
        2    1    3    3  502    0  0.82934850555E+03  0.16567543906E+03  0.97812545955E+03  0.12930571176E+04  0.25500000920E-02 0. -1.
       -2    1    3    3    0  502 -0.82934850555E+03 -0.16567543906E+03 -0.59303227722E+03  0.10329349334E+04  0.25500000920E-02 0.  1.
</event>
<event>
 5   0  0.4095451E-05  0.2329363E+04  0.7818609E-02  0.8466433E-01
        1   -1    0    0  501    0  0.00000000000E+00  0.00000000000E+00  0.13035864346E+04  0.13035864346E+04  0.50400001928E-02 0. -1.
       -1   -1    0    0    0  501  0.00000000000E+00  0.00000000000E+00 -0.10405776538E+04  0.10405776538E+04  0.50400001928E-02 0.  1.
    10030    2    1    2    0    0  0.00000000000E+00  0.00000000000E+00  0.26300878085E+03  0.23441640884E+04  0.23293629289E+04 0.  0.
        3    1    3    3  502    0 -0.74498000520E+03 -0.52838086695E+03  0.85880076900E+03  0.12536827030E+04  0.10100000352E+00 0. -1.
       -3    1    3    3    0  502  0.74498000520E+03  0.52838086695E+03 -0.59579198815E+03  0.10904813855E+04  0.10100000352E+00 0.  1.
</event>
<event>
 5   0  0.3261500E-05  0.2261182E+04  0.7818609E-02  0.8493386E-01
       -3   -1    0    0    0  501  0.00000000000E+00  0.00000000000E+00  0.58486991028E+03  0.58486991900E+03  0.10100000352E+00 0.  1.
        3   -1    0    0  501    0  0.00000000000E+00  0.00000000000E+00 -0.21855048963E+04  0.21855048986E+04  0.10100000352E+00 0. -1.
    10030    2    1    2    0    0  0.00000000000E+00  0.00000000000E+00 -0.16006349860E+04  0.27703748176E+04  0.22611820519E+04 0.  0.
        3    1    3    3  502    0 -0.86410659721E+03 -0.29117229806E+02 -0.16928639535E+04  0.19008725364E+04  0.10100000352E+00 0. -1.
       -3    1    3    3    0  502  0.86410659721E+03  0.29117229806E+02  0.92228967490E+02  0.86950228122E+03  0.10100000352E+00 0.  1.
</event>
<event>
 5   0  0.3885219E-05  0.2197119E+04  0.7818609E-02  0.8519628E-01
        1   -1    0    0  501    0  0.00000000000E+00  0.00000000000E+00  0.19055232459E+04  0.19055232459E+04  0.50400001928E-02 0.  1.
       -1   -1    0    0    0  501  0.00000000000E+00  0.00000000000E+00 -0.63333433912E+03  0.63333433914E+03  0.50400001928E-02 0. -1.
    10030    2    1    2    0    0  0.00000000000E+00  0.00000000000E+00  0.12721889067E+04  0.25388575850E+04  0.21971193009E+04 0.  0.
        2    1    3    3  502    0  0.10669007564E+04 -0.22035346996E+03  0.47267476950E+03  0.11875412892E+04  0.25500000920E-02 0.  1.
       -2    1    3    3    0  502 -0.10669007564E+04  0.22035346996E+03  0.79951413724E+03  0.13513162958E+04  0.25500000920E-02 0. -1.
</event>
<event>
 5   0  0.4139830E-05  0.2119713E+04  0.7818609E-02  0.8552609E-01
       -1   -1    0    0    0  501  0.00000000000E+00  0.00000000000E+00  0.21969234884E+04  0.21969234884E+04  0.50400001928E-02 0.  1.
        1   -1    0    0  501    0  0.00000000000E+00  0.00000000000E+00 -0.51130423153E+03  0.51130423156E+03  0.50400001928E-02 0. -1.
    10030    2    1    2    0    0  0.00000000000E+00  0.00000000000E+00  0.16856192569E+04  0.27082277200E+04  0.21197134486E+04 0.  0.
        1    1    3    3  502    0  0.20070946240E+02  0.10586492017E+04  0.78349497735E+03  0.13171960198E+04  0.50400001928E-02 0. -1.
       -1    1    3    3    0  502 -0.20070946240E+02 -0.10586492017E+04  0.90212427956E+03  0.13910317002E+04  0.50400001928E-02 0.  1.
</event>
<event>
 5   0  0.9313463E-05  0.2294455E+04  0.7818609E-02  0.8480111E-01
        2   -1    0    0  501    0  0.00000000000E+00  0.00000000000E+00  0.13412954328E+04  0.13412954328E+04  0.25500000920E-02 0. -1.
       -2   -1    0    0    0  501  0.00000000000E+00  0.00000000000E+00 -0.98123887795E+03  0.98123887796E+03  0.25500000920E-02 0.  1.
    10030    2    1    2    0    0  0.00000000000E+00  0.00000000000E+00  0.36005655485E+03  0.23225343108E+04  0.22944552517E+04 0.  0.
        1    1    3    3  502    0 -0.59350603084E+03  0.87218245158E+03  0.63629898073E+03  0.12320016357E+04  0.50400001928E-02 0. -1.
       -1    1    3    3    0  502  0.59350603084E+03 -0.87218245158E+03 -0.27624242589E+03  0.10905326751E+04  0.50400001928E-02 0.  1.
</event>
<event>
 5   0  0.4095451E-05  0.1725244E+04  0.7818609E-02  0.8747097E-01
       -1   -1    0    0    0  501  0.00000000000E+00  0.00000000000E+00  0.94888617919E+03  0.94888617921E+03  0.50400001928E-02 0.  1.
        1   -1    0    0  501    0  0.00000000000E+00  0.00000000000E+00 -0.78419985466E+03  0.78419985468E+03  0.50400001928E-02 0. -1.
    10030    2    1    2    0    0  0.00000000000E+00  0.00000000000E+00  0.16468632453E+03  0.17330860339E+04  0.17252436394E+04 0.  0.
        3    1    3    3  502    0  0.15444552825E+01 -0.38447666203E+03 -0.69336626840E+03  0.79283130699E+03  0.10100000352E+00 0. -1.
       -3    1    3    3    0  502 -0.15444552825E+01  0.38447666203E+03  0.85805259294E+03  0.94025472689E+03  0.10100000352E+00 0.  1.
</event>
<event>
 5   0  0.9535394E-05  0.2298962E+04  0.7818609E-02  0.8478331E-01
        2   -1    0    0  501    0  0.00000000000E+00  0.00000000000E+00  0.97736939557E+03  0.97736939558E+03  0.25500000920E-02 0. -1.
       -2   -1    0    0    0  501  0.00000000000E+00  0.00000000000E+00 -0.13519003246E+04  0.13519003246E+04  0.25500000920E-02 0.  1.
    10030    2    1    2    0    0  0.00000000000E+00  0.00000000000E+00 -0.37453092902E+03  0.23292697202E+04  0.22989615074E+04 0.  0.
        2    1    3    3  502    0 -0.10951644811E+04 -0.28302429094E+03  0.19925007340E+02  0.11313200236E+04  0.25500000920E-02 0. -1.
       -2    1    3    3    0  502  0.10951644811E+04  0.28302429094E+03 -0.39445593636E+03  0.11979496966E+04  0.25500000920E-02 0.  1.
</event>
<event>
 5   0  0.4295775E-05  0.2294278E+04  0.7818609E-02  0.8480181E-01
        1   -1    0    0  501    0  0.00000000000E+00  0.00000000000E+00  0.20973179078E+04  0.20973179079E+04  0.50400001928E-02 0.  1.
       -1   -1    0    0    0  501  0.00000000000E+00  0.00000000000E+00 -0.62743353489E+03  0.62743353491E+03  0.50400001928E-02 0. -1.
    10030    2    1    2    0    0  0.00000000000E+00  0.00000000000E+00  0.14698843730E+04  0.27247514428E+04  0.22942777415E+04 0.  0.
        5    1    3    3  502    0 -0.78714487354E+03 -0.66570197603E+03  0.13739901588E+03  0.10400272844E+04  0.46999998093E+01 0.  1.
       -5    1    3    3    0  502  0.78714487354E+03  0.66570197603E+03  0.13324853571E+04  0.16847241583E+04  0.46999998093E+01 0. -1.
</event>
<event>
 5   0  0.9312074E-05  0.2287218E+04  0.7818609E-02  0.8482978E-01
       -2   -1    0    0    0  501  0.00000000000E+00  0.00000000000E+00  0.86559840696E+03  0.86559840696E+03  0.25500000920E-02 0.  1.
        2   -1    0    0  501    0  0.00000000000E+00  0.00000000000E+00 -0.15109104447E+04  0.15109104447E+04  0.25500000920E-02 0. -1.
    10030    2    1    2    0    0  0.00000000000E+00  0.00000000000E+00 -0.64531203777E+03  0.23765088517E+04  0.22872181129E+04 0.  0.
        4    1    3    3  502    0  0.38419987245E+03  0.81882528833E+03 -0.10498019684E+04  0.13857020533E+04  0.12699999809E+01 0. -1.
       -4    1    3    3    0  502 -0.38419987245E+03 -0.81882528833E+03  0.40448993064E+03  0.99080679837E+03  0.12699999809E+01 0.  1.
</event>
<event>
 5   0  0.9313463E-05  0.2119369E+04  0.7818609E-02  0.8552759E-01
       -2   -1    0    0    0  501  0.00000000000E+00  0.00000000000E+00  0.61612610282E+03  0.61612610283E+03  0.25500000920E-02 0.  1.
        2   -1    0    0  501    0  0.00000000000E+00  0.00000000000E+00 -0.18225677839E+04  0.18225677839E+04  0.25500000920E-02 0. -1.
    10030    2    1    2    0    0  0.00000000000E+00  0.00000000000E+00 -0.12064416810E+04  0.24386938867E+04  0.21193693268E+04 0.  0.
        1    1    3    3  502    0  0.41978528414E+03 -0.93036676863E+03 -0.27547268946E+03  0.10572072699E+04  0.50400001928E-02 0.  1.
       -1    1    3    3    0  502 -0.41978528414E+03  0.93036676863E+03 -0.93096899157E+03  0.13814866167E+04  0.50400001928E-02 0. -1.
</event>
<event>
 5   0  0.9313463E-05  0.2249425E+04  0.7818609E-02  0.8498133E-01
        2   -1    0    0  501    0  0.00000000000E+00  0.00000000000E+00  0.15304053844E+04  0.15304053844E+04  0.25500000920E-02 0. -1.
       -2   -1    0    0    0  501  0.00000000000E+00  0.00000000000E+00 -0.82656427554E+03  0.82656427554E+03  0.25500000920E-02 0.  1.
    10030    2    1    2    0    0  0.00000000000E+00  0.00000000000E+00  0.70384110884E+03  0.23569696599E+04  0.22494251869E+04 0.  0.
        1    1    3    3  502    0  0.19731074688E+02  0.50228309608E+03 -0.70231395218E+03  0.86366805624E+03  0.50400001928E-02 0.  1.
       -1    1    3    3    0  502 -0.19731074688E+02 -0.50228309608E+03  0.14061550610E+04  0.14933016037E+04  0.50400001928E-02 0. -1.
</event>
<event>
 5   0  0.4005462E-05  0.2360832E+04  0.7818609E-02  0.8454315E-01
        1   -1    0    0  501    0  0.00000000000E+00  0.00000000000E+00  0.13676233844E+04  0.13676233844E+04  0.50400001928E-02 0. -1.
       -1   -1    0    0    0  501  0.00000000000E+00  0.00000000000E+00 -0.10188348306E+04  0.10188348306E+04  0.50400001928E-02 0.  1.
    10030    2    1    2    0    0  0.00000000000E+00  0.00000000000E+00  0.34878855384E+03  0.23864582150E+04  0.23608323441E+04 0.  0.
        4    1    3    3  502    0  0.84956500110E+03  0.31832750625E+03 -0.58897673723E+03  0.10816599753E+04  0.12699999809E+01 0.  1.
       -4    1    3    3    0  502 -0.84956500110E+03 -0.31832750625E+03  0.93776529107E+03  0.13047982397E+04  0.12699999809E+01 0. -1.
</event>
<event>
 5   0  0.9312074E-05  0.2318938E+04  0.7818609E-02  0.8470492E-01
       -2   -1    0    0    0  501  0.00000000000E+00  0.00000000000E+00  0.48629907222E+03  0.48629907223E+03  0.25500000920E-02 0. -1.
        2   -1    0    0  501    0  0.00000000000E+00  0.00000000000E+00 -0.27644877036E+04  0.27644877036E+04  0.25500000920E-02 0.  1.
    10030    2    1    2    0    0  0.00000000000E+00  0.00000000000E+00 -0.22781886313E+04  0.32507867758E+04  0.23189375200E+04 0.  0.
        4    1    3    3  502    0 -0.91281198047E+03  0.23334938720E+03 -0.20864422137E+04  0.22893056528E+04  0.12699999809E+01 0.  1.
       -4    1    3    3    0  502  0.91281198047E+03 -0.23334938720E+03 -0.19174641766E+03  0.96148112295E+03  0.12699999809E+01 0. -1.
</event>
<event>
 5   0  0.9312074E-05  0.2198800E+04  0.7818609E-02  0.8518928E-01
        2   -1    0    0  501    0  0.00000000000E+00  0.00000000000E+00  0.15284494916E+04  0.15284494917E+04  0.25500000920E-02 0. -1.
       -2   -1    0    0    0  501  0.00000000000E+00  0.00000000000E+00 -0.79078844867E+03  0.79078844867E+03  0.25500000920E-02 0.  1.
    10030    2    1    2    0    0  0.00000000000E+00  0.00000000000E+00  0.73766104298E+03  0.23192379403E+04  0.21987998566E+04 0.  0.
        4    1    3    3  502    0  0.96283220193E+03  0.43882248118E+03  0.68361942144E+03  0.12597413010E+04  0.12699999809E+01 0.  1.
       -4    1    3    3    0  502 -0.96283220193E+03 -0.43882248118E+03  0.54041621547E+02  0.10594966394E+04  0.12699999809E+01 0. -1.
</event>
<event>
 5   0  0.3885219E-05  0.2327626E+04  0.7818609E-02  0.8467108E-01
        1   -1    0    0  501    0  0.00000000000E+00  0.00000000000E+00  0.83065225774E+03  0.83065225775E+03  0.50400001928E-02 0.  1.
       -1   -1    0    0    0  501  0.00000000000E+00  0.00000000000E+00 -0.16305985633E+04  0.16305985633E+04  0.50400001928E-02 0. -1.
    10030    2    1    2    0    0  0.00000000000E+00  0.00000000000E+00 -0.79994630560E+03  0.24612508211E+04  0.23276257243E+04 0.  0.
        2    1    3    3  502    0 -0.23508572772E+02  0.92012932391E+03  0.35314342796E+03  0.98585034687E+03  0.25500000920E-02 0.  1.
       -2    1    3    3    0  502  0.23508572772E+02 -0.92012932391E+03 -0.11530897336E+04  0.14754004742E+04  0.25500000920E-02 0. -1.
</event>
<event>
 5   0  0.9313463E-05  0.2271575E+04  0.7818609E-02  0.8489214E-01
        2   -1    0    0  501    0  0.00000000000E+00  0.00000000000E+00  0.12124471004E+04  0.12124471004E+04  0.25500000920E-02 0.  1.
       -2   -1    0    0    0  501  0.00000000000E+00  0.00000000000E+00 -0.10639746719E+04  0.10639746719E+04  0.25500000920E-02 0. -1.
    10030    2    1    2    0    0  0.00000000000E+00  0.00000000000E+00  0.14847242850E+03  0.22764217722E+04  0.22715747892E+04 0.  0.
        1    1    3    3  502    0  0.36783619082E+03 -0.90715697917E+03 -0.50299261751E+03  0.11005629566E+04  0.50400001928E-02 0. -1.
       -1    1    3    3    0  502 -0.36783619082E+03  0.90715697917E+03  0.65146504601E+03  0.11758588156E+04  0.50400001928E-02 0.  1.
</event>
<event>
 5   0  0.4295775E-05  0.2320061E+04  0.7818609E-02  0.8470053E-01
       -1   -1    0    0    0  501  0.00000000000E+00  0.00000000000E+00  0.12628481853E+04  0.12628481853E+04  0.50400001928E-02 0. -1.
        1   -1    0    0  501    0  0.00000000000E+00  0.00000000000E+00 -0.10655842653E+04  0.10655842653E+04  0.50400001928E-02 0.  1.
    10030    2    1    2    0    0  0.00000000000E+00  0.00000000000E+00  0.19726391996E+03  0.23284324506E+04  0.23200613404E+04 0.  0.
        5    1    3    3  502    0  0.78805863610E+03 -0.23535201020E+03  0.91964358709E+03  0.12337720210E+04  0.46999998093E+01 0. -1.
       -5    1    3    3    0  502 -0.78805863610E+03  0.23535201020E+03 -0.72237966713E+03  0.10946604296E+04  0.46999998093E+01 0.  1.
</event>
<event>
 5   0  0.4295775E-05  0.2129923E+04  0.7818609E-02  0.8548175E-01
        1   -1    0    0  501    0  0.00000000000E+00  0.00000000000E+00  0.11757792197E+04  0.11757792197E+04  0.50400001928E-02 0. -1.
       -1   -1    0    0    0  501  0.00000000000E+00  0.00000000000E+00 -0.96458863293E+03  0.96458863294E+03  0.50400001928E-02 0.  1.
    10030    2    1    2    0    0  0.00000000000E+00  0.00000000000E+00  0.21119058675E+03  0.21403678526E+04  0.21299232570E+04 0.  0.
        5    1    3    3  502    0 -0.42322090903E+03  0.97242909225E+03  0.20295642788E+03  0.10797905718E+04  0.46999998093E+01 0.  1.
       -5    1    3    3    0  502  0.42322090903E+03 -0.97242909225E+03  0.82341588772E+01  0.10605772809E+04  0.46999998093E+01 0. -1.
</event>
<event>
 5   0  0.4295775E-05  0.2270185E+04  0.7818609E-02  0.8489770E-01
       -1   -1    0    0    0  501  0.00000000000E+00  0.00000000000E+00  0.93826478161E+03  0.93826478163E+03  0.50400001928E-02 0. -1.
        1   -1    0    0  501    0  0.00000000000E+00  0.00000000000E+00 -0.13732101171E+04  0.13732101171E+04  0.50400001928E-02 0.  1.
    10030    2    1    2    0    0  0.00000000000E+00  0.00000000000E+00 -0.43494533551E+03  0.23114748988E+04  0.22701847420E+04 0.  0.
        5    1    3    3  502    0 -0.49232833244E+03  0.30825252357E+03  0.77545945957E+03  0.96889951422E+03  0.46999998093E+01 0. -1.
       -5    1    3    3    0  502  0.49232833244E+03 -0.30825252357E+03 -0.12104047951E+04  0.13425753845E+04  0.46999998093E+01 0.  1.
</event>
<event>
 5   0  0.3885219E-05  0.2332253E+04  0.7818609E-02  0.8465312E-01
        1   -1    0    0  501    0  0.00000000000E+00  0.00000000000E+00  0.18571627028E+04  0.18571627028E+04  0.50400001928E-02 0. -1.
       -1   -1    0    0    0  501  0.00000000000E+00  0.00000000000E+00 -0.73221938416E+03  0.73221938418E+03  0.50400001928E-02 0.  1.
    10030    2    1    2    0    0  0.00000000000E+00  0.00000000000E+00  0.11249433186E+04  0.25893820870E+04  0.23322525854E+04 0.  0.
        2    1    3    3  502    0 -0.99884981261E+03  0.60155091087E+03  0.54369288013E+03  0.12865327024E+04  0.25500000920E-02 0.  1.
       -2    1    3    3    0  502  0.99884981261E+03 -0.60155091087E+03  0.58125043849E+03  0.13028493845E+04  0.25500000920E-02 0. -1.
</event>
<event>
 5   0  0.9641157E-05  0.2329509E+04  0.7818609E-02  0.8466376E-01
       -2   -1    0    0    0  501  0.00000000000E+00  0.00000000000E+00  0.12072201789E+04  0.12072201789E+04  0.25500000920E-02 0. -1.
        2   -1    0    0  501    0  0.00000000000E+00  0.00000000000E+00 -0.11237825922E+04  0.11237825922E+04  0.25500000920E-02 0.  1.
    10030    2    1    2    0    0  0.00000000000E+00  0.00000000000E+00  0.83437586762E+02  0.23310027711E+04  0.23295089800E+04 0.  0.
        3    1    3    3  502    0  0.27434391701E+03 -0.85849940352E+03  0.78000435659E+03  0.11919281090E+04  0.10100000352E+00 0.  1.
       -3    1    3    3    0  502 -0.27434391701E+03  0.85849940352E+03 -0.69656676983E+03  0.11390746620E+04  0.10100000352E+00 0. -1.
</event>
<event>
 5   0  0.9483073E-05  0.2305251E+04  0.7818609E-02  0.8475854E-01
       -2   -1    0    0    0  501  0.00000000000E+00  0.00000000000E+00  0.10426065471E+04  0.10426065471E+04  0.25500000920E-02 0. -1.
        2   -1    0    0  501    0  0.00000000000E+00  0.00000000000E+00 -0.12742538040E+04  0.12742538040E+04  0.25500000920E-02 0.  1.
    10030    2    1    2    0    0  0.00000000000E+00  0.00000000000E+00 -0.23164725694E+03  0.23168603511E+04  0.23052508399E+04 0.  0.
        5    1    3    3  502    0 -0.76548410030E+03  0.19223749682E+03 -0.96005522586E+03  0.12428392051E+04  0.46999998093E+01 0.  1.
       -5    1    3    3    0  502  0.76548410030E+03 -0.19223749682E+03  0.72840796892E+03  0.10740211461E+04  0.46999998093E+01 0. -1.
</event>
<event>
 5   0  0.9535394E-05  0.1902527E+04  0.7818609E-02  0.8653599E-01
       -2   -1    0    0    0  501  0.00000000000E+00  0.00000000000E+00  0.16059528241E+04  0.16059528241E+04  0.25500000920E-02 0. -1.
        2   -1    0    0  501    0  0.00000000000E+00  0.00000000000E+00 -0.56346768842E+03  0.56346768842E+03  0.25500000920E-02 0.  1.
    10030    2    1    2    0    0  0.00000000000E+00  0.00000000000E+00  0.10424851357E+04  0.21694205126E+04  0.19025272934E+04 0.  0.
        2    1    3    3  502    0  0.50991155907E+03  0.77893859914E+03  0.29852973624E+03  0.97768867372E+03  0.25500000920E-02 0. -1.
       -2    1    3    3    0  502 -0.50991155907E+03 -0.77893859914E+03  0.74395539949E+03  0.11917318389E+04  0.25500000920E-02 0.  1.
</event>
<event>
 5   0  0.3885219E-05  0.2342412E+04  0.7818609E-02  0.8461384E-01
       -1   -1    0    0    0  501  0.00000000000E+00  0.00000000000E+00  0.15220741682E+04  0.15220741682E+04  0.50400001928E-02 0. -1.
        1   -1    0    0  501    0  0.00000000000E+00  0.00000000000E+00 -0.90121993644E+03  0.90121993646E+03  0.50400001928E-02 0.  1.
    10030    2    1    2    0    0  0.00000000000E+00  0.00000000000E+00  0.62085423174E+03  0.24232941046E+04  0.23424120774E+04 0.  0.
        2    1    3    3  502    0  0.43313407203E+03  0.86180178789E+03  0.99775969726E+03  0.13877434415E+04  0.25500000920E-02 0. -1.
       -2    1    3    3    0  502 -0.43313407203E+03 -0.86180178789E+03 -0.37690546552E+03  0.10355506631E+04  0.25500000920E-02 0.  1.
</event>
<event>
 5   0  0.9313463E-05  0.2317716E+04  0.7818609E-02  0.8470968E-01
        2   -1    0    0  501    0  0.00000000000E+00  0.00000000000E+00  0.19878391245E+04  0.19878391245E+04  0.25500000920E-02 0.  1.
       -2   -1    0    0    0  501  0.00000000000E+00  0.00000000000E+00 -0.67558385777E+03  0.67558385777E+03  0.25500000920E-02 0. -1.
    10030    2    1    2    0    0  0.00000000000E+00  0.00000000000E+00  0.13122552668E+04  0.26634229823E+04  0.23177161383E+04 0.  0.
        1    1    3    3  502    0 -0.10632572512E+04  0.43489836237E+03  0.83153700524E+03  0.14181348169E+04  0.50400001928E-02 0. -1.
       -1    1    3    3    0  502  0.10632572512E+04 -0.43489836237E+03  0.48071826154E+03  0.12452881654E+04  0.50400001928E-02 0.  1.
</event>
<event>
 5   0  0.3261500E-05  0.2334574E+04  0.7818609E-02  0.8464412E-01
        3   -1    0    0  501    0  0.00000000000E+00  0.00000000000E+00  0.87919260121E+03  0.87919260702E+03  0.10100000352E+00 0.  1.
       -3   -1    0    0    0  501  0.00000000000E+00  0.00000000000E+00 -0.15497849254E+04  0.15497849287E+04  0.10100000352E+00 0. -1.
    10030    2    1    2    0    0  0.00000000000E+00  0.00000000000E+00 -0.67059232417E+03  0.24289775357E+04  0.23345744374E+04 0.  0.
        5    1    3    3  502    0  0.10288970475E+04 -0.41963616484E+03  0.36670915499E+02  0.11117960655E+04  0.46999998093E+01 0.  1.
       -5    1    3    3    0  502 -0.10288970475E+04  0.41963616484E+03 -0.70726323967E+03  0.13171814702E+04  0.46999998093E+01 0. -1.
</event>
<event>
 5   0  0.3885219E-05  0.2254710E+04  0.7818609E-02  0.8495996E-01
        1   -1    0    0  501    0  0.00000000000E+00  0.00000000000E+00  0.10597541044E+04  0.10597541044E+04  0.50400001928E-02 0.  1.
       -1   -1    0    0    0  501  0.00000000000E+00  0.00000000000E+00 -0.11992677998E+04  0.11992677998E+04  0.50400001928E-02 0. -1.
    10030    2    1    2    0    0  0.00000000000E+00  0.00000000000E+00 -0.13951369545E+03  0.22590219042E+04  0.22547097136E+04 0.  0.
        2    1    3    3  502    0 -0.60507296989E+03 -0.14338539633E+03 -0.10119043218E+04  0.11876965215E+04  0.25500000920E-02 0. -1.
       -2    1    3    3    0  502  0.60507296989E+03  0.14338539633E+03  0.87239062632E+03  0.10713253827E+04  0.25500000920E-02 0.  1.
</event>
<event>
 5   0  0.4139830E-05  0.2301550E+04  0.7818609E-02  0.8477310E-01
        1   -1    0    0  501    0  0.00000000000E+00  0.00000000000E+00  0.14491685948E+04  0.14491685948E+04  0.50400001928E-02 0.  1.
       -1   -1    0    0    0  501  0.00000000000E+00  0.00000000000E+00 -0.91382301243E+03  0.91382301245E+03  0.50400001928E-02 0. -1.
    10030    2    1    2    0    0  0.00000000000E+00  0.00000000000E+00  0.53534558240E+03  0.23629916073E+04  0.23015504434E+04 0.  0.
        1    1    3    3  502    0  0.91111516731E+03  0.70038892264E+03  0.32934395660E+03  0.11954676628E+04  0.50400001928E-02 0.  1.
       -1    1    3    3    0  502 -0.91111516731E+03 -0.70038892264E+03  0.20600162580E+03  0.11675239445E+04  0.50400001928E-02 0. -1.
</event>
<event>
 5   0  0.4095451E-05  0.2301217E+04  0.7818609E-02  0.8477441E-01
        1   -1    0    0  501    0  0.00000000000E+00  0.00000000000E+00  0.15776524945E+04  0.15776524945E+04  0.50400001928E-02 0. -1.
       -1   -1    0    0    0  501  0.00000000000E+00  0.00000000000E+00 -0.83915824216E+03  0.83915824217E+03  0.50400001928E-02 0.  1.
    10030    2    1    2    0    0  0.00000000000E+00  0.00000000000E+00  0.73849425233E+03  0.24168107367E+04  0.23012171510E+04 0.  0.
        3    1    3    3  502    0 -0.61192075054E+03  0.51009984662E+03 -0.50266719881E+03  0.94197833384E+03  0.10100000352E+00 0.  1.
       -3    1    3    3    0  502  0.61192075054E+03 -0.51009984662E+03  0.12411614511E+04  0.14748324028E+04  0.10100000352E+00 0. -1.
</event>
<event>
 5   0  0.3885219E-05  0.1941791E+04  0.7818609E-02  0.8634330E-01
       -1   -1    0    0    0  501  0.00000000000E+00  0.00000000000E+00  0.12721618726E+04  0.12721618726E+04  0.50400001928E-02 0.  1.
        1   -1    0    0  501    0  0.00000000000E+00  0.00000000000E+00 -0.74097303892E+03  0.74097303893E+03  0.50400001928E-02 0. -1.
    10030    2    1    2    0    0  0.00000000000E+00  0.00000000000E+00  0.53118883365E+03  0.20131349115E+04  0.19417905641E+04 0.  0.
        2    1    3    3  502    0 -0.52466832979E+03  0.74742761072E+03 -0.76236038298E+02  0.91637155297E+03  0.25500000920E-02 0. -1.
       -2    1    3    3    0  502  0.52466832979E+03 -0.74742761072E+03  0.60742487195E+03  0.10967633585E+04  0.25500000920E-02 0.  1.
</event>
<event>
 5   0  0.4095451E-05  0.2299073E+04  0.7818609E-02  0.8478287E-01
        1   -1    0    0  501    0  0.00000000000E+00  0.00000000000E+00  0.17819472908E+04  0.17819472908E+04  0.50400001928E-02 0. -1.
       -1   -1    0    0    0  501  0.00000000000E+00  0.00000000000E+00 -0.74156752307E+03  0.74156752308E+03  0.50400001928E-02 0.  1.
    10030    2    1    2    0    0  0.00000000000E+00  0.00000000000E+00  0.10403797677E+04  0.25235148139E+04  0.22990730643E+04 0.  0.
        3    1    3    3  502    0  0.22843725895E+03 -0.29047369242E+02  0.17563717904E+04  0.17714031747E+04  0.10100000352E+00 0. -1.
       -3    1    3    3    0  502 -0.22843725895E+03  0.29047369242E+02 -0.71599202273E+03  0.75211163915E+03  0.10100000352E+00 0.  1.
</event>
<event>
 5   0  0.4005462E-05  0.2191192E+04  0.7818609E-02  0.8522103E-01
       -1   -1    0    0    0  501  0.00000000000E+00  0.00000000000E+00  0.13412802811E+04  0.13412802811E+04  0.50400001928E-02 0. -1.
        1   -1    0    0  501    0  0.00000000000E+00  0.00000000000E+00 -0.89491382086E+03  0.89491382087E+03  0.50400001928E-02 0.  1.
    10030    2    1    2    0    0  0.00000000000E+00  0.00000000000E+00  0.44636646022E+03  0.22361941020E+04  0.21911916951E+04 0.  0.
        4    1    3    3  502    0  0.97646208818E+03  0.49664387470E+03  0.23744523765E+03  0.11209438887E+04  0.12699999809E+01 0.  1.
       -4    1    3    3    0  502 -0.97646208818E+03 -0.49664387470E+03  0.20892122257E+03  0.11152502132E+04  0.12699999809E+01 0. -1.
</event>
<event>
 5   0  0.3885219E-05  0.2260475E+04  0.7818609E-02  0.8493670E-01
        1   -1    0    0  501    0  0.00000000000E+00  0.00000000000E+00  0.71705559393E+03  0.71705559395E+03  0.50400001928E-02 0. -1.
       -1   -1    0    0    0  501  0.00000000000E+00  0.00000000000E+00 -0.17815037345E+04  0.17815037345E+04  0.50400001928E-02 0.  1.
    10030    2    1    2    0    0  0.00000000000E+00  0.00000000000E+00 -0.10644481406E+04  0.24985593285E+04  0.22604753646E+04 0.  0.
        2    1    3    3  502    0  0.41862468000E+03  0.24557787336E+03  0.59600991362E+03  0.76862405097E+03  0.25500000920E-02 0. -1.
       -2    1    3    3    0  502 -0.41862468000E+03 -0.24557787336E+03 -0.16604580542E+04  0.17299352775E+04  0.25500000920E-02 0.  1.
</event>
<event>
 5   0  0.9535394E-05  0.2200988E+04  0.7818609E-02  0.8518017E-01
       -2   -1    0    0    0  501  0.00000000000E+00  0.00000000000E+00  0.42449628860E+03  0.42449628861E+03  0.25500000920E-02 0.  1.
        2   -1    0    0  501    0  0.00000000000E+00  0.00000000000E+00 -0.28529978671E+04  0.28529978671E+04  0.25500000920E-02 0. -1.
    10030    2    1    2    0    0  0.00000000000E+00  0.00000000000E+00 -0.24285015786E+04  0.32774941558E+04  0.22009879654E+04 0.  0.
        2    1    3    3  502    0  0.39315247326E+02  0.66642083019E+03  0.88542354704E+02  0.67342569016E+03  0.25500000920E-02 0.  1.
       -2    1    3    3    0  502 -0.39315247326E+02 -0.66642083019E+03 -0.25170439333E+04  0.26040684656E+04  0.25500000920E-02 0. -1.
</event>
<event>
 5   0  0.3885219E-05  0.2271500E+04  0.7818609E-02  0.8489244E-01
        1   -1    0    0  501    0  0.00000000000E+00  0.00000000000E+00  0.10013601273E+04  0.10013601273E+04  0.50400001928E-02 0. -1.
       -1   -1    0    0    0  501  0.00000000000E+00  0.00000000000E+00 -0.12881761461E+04  0.12881761461E+04  0.50400001928E-02 0.  1.
    10030    2    1    2    0    0  0.00000000000E+00  0.00000000000E+00 -0.28681601879E+03  0.22895362734E+04  0.22715001472E+04 0.  0.
        2    1    3    3  502    0 -0.15313703211E+03 -0.55441225906E+03 -0.11305228565E+04  0.12684265185E+04  0.25500000920E-02 0.  1.
       -2    1    3    3    0  502  0.15313703211E+03  0.55441225906E+03  0.84370683772E+03  0.10211097549E+04  0.25500000920E-02 0. -1.
</event>
<event>
 5   0  0.4295775E-05  0.2300471E+04  0.7818609E-02  0.8477735E-01
        1   -1    0    0  501    0  0.00000000000E+00  0.00000000000E+00  0.18115921161E+04  0.18115921161E+04  0.50400001928E-02 0. -1.
       -1   -1    0    0    0  501  0.00000000000E+00  0.00000000000E+00 -0.73032007691E+03  0.73032007693E+03  0.50400001928E-02 0.  1.
    10030    2    1    2    0    0  0.00000000000E+00  0.00000000000E+00  0.10812720392E+04  0.25419121930E+04  0.23004713374E+04 0.  0.
        5    1    3    3  502    0  0.25106169075E+03  0.10108648968E+04  0.10798486631E+04  0.15003249772E+04  0.46999998093E+01 0. -1.
       -5    1    3    3    0  502 -0.25106169075E+03 -0.10108648968E+04  0.14233760530E+01  0.10415872158E+04  0.46999998093E+01 0.  1.
</event>
<event>
 5   0  0.3261500E-05  0.2302946E+04  0.7818609E-02  0.8476760E-01
        3   -1    0    0  501    0  0.00000000000E+00  0.00000000000E+00  0.12310029657E+04  0.12310029698E+04  0.10100000352E+00 0.  1.
       -3   -1    0    0    0  501  0.00000000000E+00  0.00000000000E+00 -0.10770811369E+04  0.10770811416E+04  0.10100000352E+00 0. -1.
    10030    2    1    2    0    0  0.00000000000E+00  0.00000000000E+00  0.15392182883E+03  0.23080841114E+04  0.23029460124E+04 0.  0.
        3    1    3    3  502    0 -0.53421041048E+03 -0.54840083352E+03  0.93897628551E+03  0.12115282547E+04  0.10100000352E+00 0.  1.
       -3    1    3    3    0  502  0.53421041048E+03  0.54840083352E+03 -0.78505445668E+03  0.10965558568E+04  0.10100000352E+00 0. -1.
</event>
<event>
 5   0  0.9641157E-05  0.2276054E+04  0.7818609E-02  0.8487423E-01
        2   -1    0    0  501    0  0.00000000000E+00  0.00000000000E+00  0.15046175825E+04  0.15046175825E+04  0.25500000920E-02 0.  1.
       -2   -1    0    0    0  501  0.00000000000E+00  0.00000000000E+00 -0.86075402077E+03  0.86075402078E+03  0.25500000920E-02 0. -1.
    10030    2    1    2    0    0  0.00000000000E+00  0.00000000000E+00  0.64386356176E+03  0.23653716033E+04  0.22760541592E+04 0.  0.
        3    1    3    3  502    0  0.59905378928E+02 -0.42780784108E+03  0.14161000854E+04  0.14805227676E+04  0.10100000352E+00 0.  1.
       -3    1    3    3    0  502 -0.59905378928E+02  0.42780784108E+03 -0.77223652367E+03  0.88484883568E+03  0.10100000352E+00 0. -1.
</event>
<event>
 5   0  0.9641157E-05  0.2260257E+04  0.7818609E-02  0.8493758E-01
        2   -1    0    0  501    0  0.00000000000E+00  0.00000000000E+00  0.17872810661E+04  0.17872810661E+04  0.25500000920E-02 0. -1.
       -2   -1    0    0    0  501  0.00000000000E+00  0.00000000000E+00 -0.71459958870E+03  0.71459958870E+03  0.25500000920E-02 0.  1.
    10030    2    1    2    0    0  0.00000000000E+00  0.00000000000E+00  0.10726814774E+04  0.25018806548E+04  0.22602569011E+04 0.  0.
        3    1    3    3  502    0  0.10688976852E+03 -0.59429149130E+03  0.15937542479E+04  0.17043064314E+04  0.10100000352E+00 0. -1.
       -3    1    3    3    0  502 -0.10688976852E+03  0.59429149130E+03 -0.52107277058E+03  0.79757422331E+03  0.10100000352E+00 0.  1.
</event>
<event>
 5   0  0.9312074E-05  0.2541063E+04  0.7818609E-02  0.8388501E-01
       -2   -1    0    0    0  501  0.00000000000E+00  0.00000000000E+00  0.13564420681E+04  0.13564420681E+04  0.25500000920E-02 0.  1.
        2   -1    0    0  501    0  0.00000000000E+00  0.00000000000E+00 -0.11900623025E+04  0.11900623025E+04  0.25500000920E-02 0. -1.
    10030    2    1    2    0    0  0.00000000000E+00  0.00000000000E+00  0.16637976559E+03  0.25465043707E+04  0.25410632191E+04 0.  0.
        4    1    3    3  502    0 -0.51104821932E+03  0.32008823257E+01  0.12488953584E+04  0.13494153390E+04  0.12699999809E+01 0.  1.
       -4    1    3    3    0  502  0.51104821932E+03 -0.32008823257E+01 -0.10825155928E+04  0.11970890316E+04  0.12699999809E+01 0. -1.
</event>
<event>
 5   0  0.9641157E-05  0.2263223E+04  0.7818609E-02  0.8492565E-01
       -2   -1    0    0    0  501  0.00000000000E+00  0.00000000000E+00  0.67881251305E+03  0.67881251305E+03  0.25500000920E-02 0. -1.
        2   -1    0    0  501    0  0.00000000000E+00  0.00000000000E+00 -0.18864475590E+04  0.18864475590E+04  0.25500000920E-02 0.  1.
    10030    2    1    2    0    0  0.00000000000E+00  0.00000000000E+00 -0.12076350460E+04  0.25652600721E+04  0.22632226654E+04 0.  0.
        3    1    3    3  502    0 -0.99305411911E+03 -0.40007316949E+03 -0.18839571718E+03  0.10870639268E+04  0.10100000352E+00 0. -1.
       -3    1    3    3    0  502  0.99305411911E+03  0.40007316949E+03 -0.10192393288E+04  0.14781961453E+04  0.10100000352E+00 0.  1.
</event>
<event>
 5   0  0.9313463E-05  0.2268183E+04  0.7818609E-02  0.8490573E-01
        2   -1    0    0  501    0  0.00000000000E+00  0.00000000000E+00  0.79744194536E+03  0.79744194536E+03  0.25500000920E-02 0. -1.
       -2   -1    0    0    0  501  0.00000000000E+00  0.00000000000E+00 -0.16128615358E+04  0.16128615358E+04  0.25500000920E-02 0.  1.
    10030    2    1    2    0    0  0.00000000000E+00  0.00000000000E+00 -0.81541959040E+03  0.24103034811E+04  0.22681829209E+04 0.  0.
        1    1    3    3  502    0 -0.74907830432E+03  0.40772662512E+03 -0.12020809344E+04  0.14738920855E+04  0.50400001928E-02 0.  1.
       -1    1    3    3    0  502  0.74907830432E+03 -0.40772662512E+03  0.38666134402E+03  0.93641139561E+03  0.50400001928E-02 0. -1.
</event>
<event>
 5   0  0.9483073E-05  0.2289332E+04  0.7818609E-02  0.8482139E-01
        2   -1    0    0  501    0  0.00000000000E+00  0.00000000000E+00  0.56050097794E+03  0.56050097795E+03  0.25500000920E-02 0. -1.
       -2   -1    0    0    0  501  0.00000000000E+00  0.00000000000E+00 -0.23376585072E+04  0.23376585072E+04  0.25500000920E-02 0.  1.
    10030    2    1    2    0    0  0.00000000000E+00  0.00000000000E+00 -0.17771575292E+04  0.28981594851E+04  0.22893316749E+04 0.  0.
        5    1    3    3  502    0  0.72658354100E+03  0.20088408419E+03 -0.19790236797E+04  0.21177428720E+04  0.46999998093E+01 0. -1.
       -5    1    3    3    0  502 -0.72658354100E+03 -0.20088408419E+03  0.20186615042E+03  0.78041661311E+03  0.46999998093E+01 0.  1.
</event>
<event>
 5   0  0.9483073E-05  0.2349024E+04  0.7818609E-02  0.8458839E-01
        2   -1    0    0  501    0  0.00000000000E+00  0.00000000000E+00  0.33134040540E+04  0.33134040540E+04  0.25500000920E-02 0. -1.
       -2   -1    0    0    0  501  0.00000000000E+00  0.00000000000E+00 -0.41633275133E+03  0.41633275134E+03  0.25500000920E-02 0.  1.
    10030    2    1    2    0    0  0.00000000000E+00  0.00000000000E+00  0.28970713027E+04  0.37297368053E+04  0.23490241600E+04 0.  0.
        5    1    3    3  502    0 -0.83761110288E+03 -0.54157358840E+03  0.46390349841E+03  0.11000558427E+04  0.46999998093E+01 0.  1.
       -5    1    3    3    0  502  0.83761110288E+03  0.54157358840E+03  0.24331678043E+04  0.26296809626E+04  0.46999998093E+01 0. -1.
</event>
<event>
 5   0  0.4095451E-05  0.1753829E+04  0.7818609E-02  0.8731246E-01
       -1   -1    0    0    0  501  0.00000000000E+00  0.00000000000E+00  0.57037328038E+03  0.57037328040E+03  0.50400001928E-02 0.  1.
        1   -1    0    0  501    0  0.00000000000E+00  0.00000000000E+00 -0.13482027823E+04  0.13482027823E+04  0.50400001928E-02 0. -1.
    10030    2    1    2    0    0  0.00000000000E+00  0.00000000000E+00 -0.77782950192E+03  0.19185760627E+04  0.17538287757E+04 0.  0.
        3    1    3    3  502    0  0.42925910677E+03 -0.37246777072E+02  0.44658878138E+03  0.62055801744E+03  0.10100000352E+00 0.  1.
       -3    1    3    3    0  502 -0.42925910677E+03  0.37246777072E+02 -0.12244182833E+04  0.12980180453E+04  0.10100000352E+00 0. -1.
</event>
<event>
 5   0  0.4139830E-05  0.2300268E+04  0.7818609E-02  0.8477815E-01
        1   -1    0    0  501    0  0.00000000000E+00  0.00000000000E+00  0.14148452742E+04  0.14148452742E+04  0.50400001928E-02 0.  1.
       -1   -1    0    0    0  501  0.00000000000E+00  0.00000000000E+00 -0.93494893369E+03  0.93494893371E+03  0.50400001928E-02 0. -1.
    10030    2    1    2    0    0  0.00000000000E+00  0.00000000000E+00  0.47989634053E+03  0.23497942079E+04  0.23002678805E+04 0.  0.
        1    1    3    3  502    0 -0.79366421772E+03 -0.73889018656E+03  0.63153764538E+03  0.12548710674E+04  0.50400001928E-02 0.  1.
       -1    1    3    3    0  502  0.79366421772E+03  0.73889018656E+03 -0.15164130485E+03  0.10949231405E+04  0.50400001928E-02 0. -1.
</event>
<event>
 5   0  0.4095451E-05  0.2252039E+04  0.7818609E-02  0.8497075E-01
        1   -1    0    0  501    0  0.00000000000E+00  0.00000000000E+00  0.12310180910E+04  0.12310180910E+04  0.50400001928E-02 0. -1.
       -1   -1    0    0    0  501  0.00000000000E+00  0.00000000000E+00 -0.10299766738E+04  0.10299766738E+04  0.50400001928E-02 0.  1.
    10030    2    1    2    0    0  0.00000000000E+00  0.00000000000E+00  0.20104141719E+03  0.22609947649E+04  0.22520390040E+04 0.  0.
        3    1    3    3  502    0 -0.10972171902E+04 -0.17615583979E+03  0.28291171759E+03  0.11467150878E+04  0.10100000352E+00 0.  1.
       -3    1    3    3    0  502  0.10972171902E+04  0.17615583979E+03 -0.81870300397E+02  0.11142796771E+04  0.10100000352E+00 0. -1.
</event>
<event>
 5   0  0.4139830E-05  0.2025374E+04  0.7818609E-02  0.8594848E-01
       -1   -1    0    0    0  501  0.00000000000E+00  0.00000000000E+00  0.85872967104E+03  0.85872967105E+03  0.50400001928E-02 0.  1.
        1   -1    0    0  501    0  0.00000000000E+00  0.00000000000E+00 -0.11942471499E+04  0.11942471499E+04  0.50400001928E-02 0. -1.
    10030    2    1    2    0    0  0.00000000000E+00  0.00000000000E+00 -0.33551747890E+03  0.20529768210E+04  0.20253744960E+04 0.  0.
        1    1    3    3  502    0  0.93703244791E+03 -0.36140022454E+03 -0.36004487992E+02  0.10049558467E+04  0.50400001928E-02 0.  1.
       -1    1    3    3    0  502 -0.93703244791E+03  0.36140022454E+03 -0.29951299091E+03  0.10480209743E+04  0.50400001928E-02 0. -1.
</event>
<event>
 5   0  0.4005462E-05  0.2422097E+04  0.7818609E-02  0.8431277E-01
       -1   -1    0    0    0  501  0.00000000000E+00  0.00000000000E+00  0.10377420689E+04  0.10377420689E+04  0.50400001928E-02 0.  1.
        1   -1    0    0  501    0  0.00000000000E+00  0.00000000000E+00 -0.14132977013E+04  0.14132977013E+04  0.50400001928E-02 0. -1.
    10030    2    1    2    0    0  0.00000000000E+00  0.00000000000E+00 -0.37555563242E+03  0.24510397703E+04  0.24220970093E+04 0.  0.
        4    1    3    3  502    0 -0.40496758680E+03 -0.11400374962E+04 -0.13279040897E+03  0.12170945504E+04  0.12699999809E+01 0. -1.
       -4    1    3    3    0  502  0.40496758680E+03  0.11400374962E+04 -0.24276522345E+03  0.12339452199E+04  0.12699999809E+01 0.  1.
</event>
<event>
 5   0  0.9312074E-05  0.2304462E+04  0.7818609E-02  0.8476164E-01
       -2   -1    0    0    0  501  0.00000000000E+00  0.00000000000E+00  0.59152092398E+03  0.59152092399E+03  0.25500000920E-02 0.  1.
        2   -1    0    0  501    0  0.00000000000E+00  0.00000000000E+00 -0.22444446294E+04  0.22444446294E+04  0.25500000920E-02 0. -1.
    10030    2    1    2    0    0  0.00000000000E+00  0.00000000000E+00 -0.16529237054E+04  0.28359655534E+04  0.23044617254E+04 0.  0.
        4    1    3    3  502    0 -0.17337871178E+03  0.46786704155E+02 -0.22271160056E+04  0.22343447560E+04  0.12699999809E+01 0. -1.
       -4    1    3    3    0  502  0.17337871178E+03 -0.46786704155E+02  0.57419230017E+03  0.60162079740E+03  0.12699999809E+01 0.  1.
</event>
<event>
 5   0  0.9483073E-05  0.2280452E+04  0.7818609E-02  0.8485669E-01
        2   -1    0    0  501    0  0.00000000000E+00  0.00000000000E+00  0.15077567303E+04  0.15077567303E+04  0.25500000920E-02 0.  1.
       -2   -1    0    0    0  501  0.00000000000E+00  0.00000000000E+00 -0.86228492204E+03  0.86228492204E+03  0.25500000920E-02 0. -1.
    10030    2    1    2    0    0  0.00000000000E+00  0.00000000000E+00  0.64547180827E+03  0.23700416524E+04  0.22804524943E+04 0.  0.
        5    1    3    3  502    0  0.54163923710E+03 -0.35777531521E+03 -0.65148984283E+03  0.91969415821E+03  0.46999998093E+01 0. -1.
       -5    1    3    3    0  502 -0.54163923710E+03  0.35777531521E+03  0.12969616511E+04  0.14503474941E+04  0.46999998093E+01 0.  1.
</event>
<event>
 5   0  0.4139830E-05  0.2324096E+04  0.7818609E-02  0.8468480E-01
        1   -1    0    0  501    0  0.00000000000E+00  0.00000000000E+00  0.18291439840E+04  0.18291439840E+04  0.50400001928E-02 0.  1.
       -1   -1    0    0    0  501  0.00000000000E+00  0.00000000000E+00 -0.73824479697E+03  0.73824479699E+03  0.50400001928E-02 0. -1.
    10030    2    1    2    0    0  0.00000000000E+00  0.00000000000E+00  0.10908991870E+04  0.25673887810E+04  0.23240964086E+04 0.  0.
        1    1    3    3  502    0 -0.10138075565E+04  0.10726227238E+03  0.11615466903E+04  0.15454778130E+04  0.50400001928E-02 0.  1.
       -1    1    3    3    0  502  0.10138075565E+04 -0.10726227238E+03 -0.70647503330E+02  0.10219109680E+04  0.50400001928E-02 0. -1.
</event>
<event>
 5   0  0.9641157E-05  0.1719387E+04  0.7818609E-02  0.8750384E-01
        2   -1    0    0  501    0  0.00000000000E+00  0.00000000000E+00  0.50326543343E+03  0.50326543344E+03  0.25500000920E-02 0. -1.
       -2   -1    0    0    0  501  0.00000000000E+00  0.00000000000E+00 -0.14685547735E+04  0.14685547735E+04  0.25500000920E-02 0.  1.
    10030    2    1    2    0    0  0.00000000000E+00  0.00000000000E+00 -0.96528934002E+03  0.19718202069E+04  0.17193869310E+04 0.  0.
        3    1    3    3  502    0  0.22344441695E+03 -0.82965185883E+03 -0.44974024516E+03  0.96980199661E+03  0.10100000352E+00 0. -1.
       -3    1    3    3    0  502 -0.22344441695E+03  0.82965185883E+03 -0.51554909486E+03  0.10020182103E+04  0.10100000352E+00 0.  1.
</event>
<event>
 5   0  0.9313463E-05  0.2294743E+04  0.7818609E-02  0.8479997E-01
        2   -1    0    0  501    0  0.00000000000E+00  0.00000000000E+00  0.13349252711E+04  0.13349252711E+04  0.25500000920E-02 0. -1.
       -2   -1    0    0    0  501  0.00000000000E+00  0.00000000000E+00 -0.98616833880E+03  0.98616833880E+03  0.25500000920E-02 0.  1.
    10030    2    1    2    0    0  0.00000000000E+00  0.00000000000E+00  0.34875693227E+03  0.23210936099E+04  0.22947427193E+04 0.  0.
        1    1    3    3  502    0  0.32117063166E+03  0.60639935315E+03 -0.75574081684E+03  0.10207913266E+04  0.50400001928E-02 0.  1.
       -1    1    3    3    0  502 -0.32117063166E+03 -0.60639935315E+03  0.11044977491E+04  0.13003022833E+04  0.50400001928E-02 0. -1.
</event>
<event>
 5   0  0.9535394E-05  0.1905435E+04  0.7818609E-02  0.8652156E-01
        2   -1    0    0  501    0  0.00000000000E+00  0.00000000000E+00  0.18755771524E+04  0.18755771524E+04  0.25500000920E-02 0. -1.
       -2   -1    0    0    0  501  0.00000000000E+00  0.00000000000E+00 -0.48394197897E+03  0.48394197898E+03  0.25500000920E-02 0.  1.
    10030    2    1    2    0    0  0.00000000000E+00  0.00000000000E+00  0.13916351734E+04  0.23595191314E+04  0.19054348783E+04 0.  0.
        2    1    3    3  502    0 -0.62761675044E+03 -0.70717502221E+03  0.84060574726E+03  0.12651550576E+04  0.25500000920E-02 0. -1.
       -2    1    3    3    0  502  0.62761675044E+03  0.70717502221E+03  0.55102942619E+03  0.10943640738E+04  0.25500000920E-02 0.  1.
</event>
<event>
 5   0  0.3885219E-05  0.2329516E+04  0.7818609E-02  0.8466374E-01
        1   -1    0    0  501    0  0.00000000000E+00  0.00000000000E+00  0.11604067633E+04  0.11604067633E+04  0.50400001928E-02 0. -1.
       -1   -1    0    0    0  501  0.00000000000E+00  0.00000000000E+00 -0.11691254367E+04  0.11691254367E+04  0.50400001928E-02 0.  1.
    10030    2    1    2    0    0  0.00000000000E+00  0.00000000000E+00 -0.87186733571E+01  0.23295322000E+04  0.23295158844E+04 0.  0.
        2    1    3    3  502    0 -0.45718288807E+03  0.81493777069E+03 -0.69972116601E+03  0.11673686108E+04  0.25500000920E-02 0.  1.
       -2    1    3    3    0  502  0.45718288807E+03 -0.81493777069E+03  0.69100249266E+03  0.11621635892E+04  0.25500000920E-02 0. -1.
</event>
<event>
 5   0  0.4005462E-05  0.2292796E+04  0.7818609E-02  0.8480767E-01
        1   -1    0    0  501    0  0.00000000000E+00  0.00000000000E+00  0.17430617010E+04  0.17430617010E+04  0.50400001928E-02 0.  1.
       -1   -1    0    0    0  501  0.00000000000E+00  0.00000000000E+00 -0.75397673026E+03  0.75397673028E+03  0.50400001928E-02 0. -1.
    10030    2    1    2    0    0  0.00000000000E+00  0.00000000000E+00  0.98908497078E+03  0.24970384313E+04  0.22927956403E+04 0.  0.
        4    1    3    3  502    0 -0.87844378706E+03 -0.48061916550E+03 -0.11336341426E+03  0.10077257295E+04  0.12699999809E+01 0. -1.
       -4    1    3    3    0  502  0.87844378706E+03  0.48061916550E+03  0.11024483850E+04  0.14893127018E+04  0.12699999809E+01 0.  1.
</event>
<event>
 5   0  0.9483073E-05  0.2291477E+04  0.7818609E-02  0.8481289E-01
        2   -1    0    0  501    0  0.00000000000E+00  0.00000000000E+00  0.20032171957E+04  0.20032171957E+04  0.25500000920E-02 0. -1.
       -2   -1    0    0    0  501  0.00000000000E+00  0.00000000000E+00 -0.65530432484E+03  0.65530432485E+03  0.25500000920E-02 0.  1.
    10030    2    1    2    0    0  0.00000000000E+00  0.00000000000E+00  0.13479128708E+04  0.26585215205E+04  0.22914771585E+04 0.  0.
        5    1    3    3  502    0  0.27727931949E+03 -0.38780544604E+03  0.18826692899E+04  0.19420974822E+04  0.46999998093E+01 0. -1.
       -5    1    3    3    0  502 -0.27727931949E+03  0.38780544604E+03 -0.53475641909E+03  0.71642403837E+03  0.46999998093E+01 0.  1.
</event>
<event>
 5   0  0.3885219E-05  0.2297072E+04  0.7818609E-02  0.8479077E-01
       -1   -1    0    0    0  501  0.00000000000E+00  0.00000000000E+00  0.82470059457E+03  0.82470059459E+03  0.50400001928E-02 0. -1.
        1   -1    0    0  501    0  0.00000000000E+00  0.00000000000E+00 -0.15995314939E+04  0.15995314939E+04  0.50400001928E-02 0.  1.
    10030    2    1    2    0    0  0.00000000000E+00  0.00000000000E+00 -0.77483089935E+03  0.24242320885E+04  0.22970716786E+04 0.  0.
        2    1    3    3  502    0 -0.62844984336E+03  0.81222767528E+03 -0.93015209576E+03  0.13855850473E+04  0.25500000920E-02 0.  1.
       -2    1    3    3    0  502  0.62844984336E+03 -0.81222767528E+03  0.15532119641E+03  0.10386470412E+04  0.25500000920E-02 0. -1.
</event>
<event>
 5   0  0.4295775E-05  0.2158083E+04  0.7818609E-02  0.8536080E-01
       -1   -1    0    0    0  501  0.00000000000E+00  0.00000000000E+00  0.47079148108E+03  0.47079148110E+03  0.50400001928E-02 0. -1.
        1   -1    0    0  501    0  0.00000000000E+00  0.00000000000E+00 -0.24731346820E+04  0.24731346820E+04  0.50400001928E-02 0.  1.
    10030    2    1    2    0    0  0.00000000000E+00  0.00000000000E+00 -0.20023432009E+04  0.29439261631E+04  0.21580831679E+04 0.  0.
        5    1    3    3  502    0  0.79678471179E+03 -0.72376599680E+03 -0.11033050590E+04  0.15414302573E+04  0.46999998093E+01 0. -1.
       -5    1    3    3    0  502 -0.79678471179E+03  0.72376599680E+03 -0.89903814197E+03  0.14024959058E+04  0.46999998093E+01 0.  1.
</event>
<event>
 5   0  0.4005462E-05  0.2268488E+04  0.7818609E-02  0.8490451E-01
        1   -1    0    0  501    0  0.00000000000E+00  0.00000000000E+00  0.70978090663E+03  0.70978090665E+03  0.50400001928E-02 0.  1.
       -1   -1    0    0    0  501  0.00000000000E+00  0.00000000000E+00 -0.18125438956E+04  0.18125438956E+04  0.50400001928E-02 0. -1.
    10030    2    1    2    0    0  0.00000000000E+00  0.00000000000E+00 -0.11027629890E+04  0.25223248023E+04  0.22684876456E+04 0.  0.
        4    1    3    3  502    0  0.76973520228E+03 -0.81155957622E+03 -0.34222005949E+03  0.11697168074E+04  0.12699999809E+01 0. -1.
       -4    1    3    3    0  502 -0.76973520228E+03  0.81155957622E+03 -0.76054292949E+03  0.13526079949E+04  0.12699999809E+01 0.  1.
</event>
<event>
 5   0  0.4095451E-05  0.2391017E+04  0.7818609E-02  0.8442874E-01
        1   -1    0    0  501    0  0.00000000000E+00  0.00000000000E+00  0.11185103826E+04  0.11185103826E+04  0.50400001928E-02 0. -1.
       -1   -1    0    0    0  501  0.00000000000E+00  0.00000000000E+00 -0.12778072242E+04  0.12778072242E+04  0.50400001928E-02 0.  1.
    10030    2    1    2    0    0  0.00000000000E+00  0.00000000000E+00 -0.15929684156E+03  0.23963176068E+04  0.23910170616E+04 0.  0.
        3    1    3    3  502    0 -0.68005314729E+03  0.66252096309E+03  0.64848425174E+03  0.11497556891E+04  0.10100000352E+00 0.  1.
       -3    1    3    3    0  502  0.68005314729E+03 -0.66252096309E+03 -0.80778109330E+03  0.12465619177E+04  0.10100000352E+00 0. -1.
</event>
<event>
 5   0  0.4295775E-05  0.2283356E+04  0.7818609E-02  0.8484512E-01
        1   -1    0    0  501    0  0.00000000000E+00  0.00000000000E+00  0.76179038165E+03  0.76179038167E+03  0.50400001928E-02 0. -1.
       -1   -1    0    0    0  501  0.00000000000E+00  0.00000000000E+00 -0.17110077103E+04  0.17110077103E+04  0.50400001928E-02 0.  1.
    10030    2    1    2    0    0  0.00000000000E+00  0.00000000000E+00 -0.94921732866E+03  0.24727980920E+04  0.22833564914E+04 0.  0.
        5    1    3    3  502    0 -0.29874946296E+03 -0.76855864975E+03  0.38050516570E+03  0.90815192057E+03  0.46999998093E+01 0. -1.
       -5    1    3    3    0  502  0.29874946296E+03  0.76855864975E+03 -0.13297224944E+04  0.15646461714E+04  0.46999998093E+01 0.  1.
</event>
<event>
 5   0  0.4139830E-05  0.2320205E+04  0.7818609E-02  0.8469997E-01
       -1   -1    0    0    0  501  0.00000000000E+00  0.00000000000E+00  0.11877327108E+04  0.11877327108E+04  0.50400001928E-02 0. -1.
        1   -1    0    0  501    0  0.00000000000E+00  0.00000000000E+00 -0.11331153780E+04  0.11331153780E+04  0.50400001928E-02 0.  1.
    10030    2    1    2    0    0  0.00000000000E+00  0.00000000000E+00  0.54617332770E+02  0.23208480888E+04  0.23202053353E+04 0.  0.
        1    1    3    3  502    0 -0.45260559159E+03  0.60197864197E+03 -0.85532349889E+03  0.11396527518E+04  0.50400001928E-02 0.  1.
       -1    1    3    3    0  502  0.45260559159E+03 -0.60197864197E+03  0.90994083166E+03  0.11811953370E+04  0.50400001928E-02 0. -1.
</event>
<event>
 5   0  0.3261500E-05  0.2356452E+04  0.7818609E-02  0.8455990E-01
       -3   -1    0    0    0  501  0.00000000000E+00  0.00000000000E+00  0.80670476300E+03  0.80670476933E+03  0.10100000352E+00 0.  1.
        3   -1    0    0  501    0  0.00000000000E+00  0.00000000000E+00 -0.17208480763E+04  0.17208480792E+04  0.10100000352E+00 0. -1.
    10030    2    1    2    0    0  0.00000000000E+00  0.00000000000E+00 -0.91414331328E+03  0.25275528486E+04  0.23564518678E+04 0.  0.
        3    1    3    3  502    0  0.60426512641E+03 -0.73631242736E+03  0.28676897952E+03  0.99475061774E+03  0.10100000352E+00 0. -1.
       -3    1    3    3    0  502 -0.60426512641E+03  0.73631242736E+03 -0.12009122928E+04  0.15328022308E+04  0.10100000352E+00 0.  1.
</event>
<event>
 5   0  0.9313463E-05  0.2300312E+04  0.7818609E-02  0.8477798E-01
        2   -1    0    0  501    0  0.00000000000E+00  0.00000000000E+00  0.18245540266E+04  0.18245540266E+04  0.25500000920E-02 0.  1.
       -2   -1    0    0    0  501  0.00000000000E+00  0.00000000000E+00 -0.72503158667E+03  0.72503158667E+03  0.25500000920E-02 0. -1.
    10030    2    1    2    0    0  0.00000000000E+00  0.00000000000E+00  0.10995224399E+04  0.25495856132E+04  0.23003124143E+04 0.  0.
        1    1    3    3  502    0 -0.47989370834E+03  0.82065337769E+02  0.17047107776E+04  0.17728709841E+04  0.50400001928E-02 0.  1.
       -1    1    3    3    0  502  0.47989370834E+03 -0.82065337769E+02 -0.60518833771E+03  0.77671462913E+03  0.50400001928E-02 0. -1.
</event>
<event>
 5   0  0.4139830E-05  0.2265567E+04  0.7818609E-02  0.8491622E-01
        1   -1    0    0  501    0  0.00000000000E+00  0.00000000000E+00  0.91962096056E+03  0.91962096058E+03  0.50400001928E-02 0.  1.
       -1   -1    0    0    0  501  0.00000000000E+00  0.00000000000E+00 -0.13953562958E+04  0.13953562958E+04  0.50400001928E-02 0. -1.
    10030    2    1    2    0    0  0.00000000000E+00  0.00000000000E+00 -0.47573533519E+03  0.23149772563E+04  0.22655673877E+04 0.  0.
        1    1    3    3  502    0 -0.83826167563E+03 -0.77340695231E+02 -0.10123791618E+04  0.13166532525E+04  0.50400001928E-02 0. -1.
       -1    1    3    3    0  502  0.83826167563E+03  0.77340695231E+02  0.53664382664E+03  0.99832400385E+03  0.50400001928E-02 0.  1.
</event>
<event>
 5   0  0.9312074E-05  0.2240819E+04  0.7818609E-02  0.8501628E-01
        2   -1    0    0  501    0  0.00000000000E+00  0.00000000000E+00  0.13840228273E+04  0.13840228273E+04  0.25500000920E-02 0.  1.
       -2   -1    0    0    0  501  0.00000000000E+00  0.00000000000E+00 -0.90700619675E+03  0.90700619675E+03  0.25500000920E-02 0. -1.
    10030    2    1    2    0    0  0.00000000000E+00  0.00000000000E+00  0.47701663055E+03  0.22910290240E+04  0.22408188510E+04 0.  0.
        4    1    3    3  502    0 -0.71503251761E+03 -0.86175668077E+03  0.27703000069E+03  0.11535351370E+04  0.12699999809E+01 0. -1.
       -4    1    3    3    0  502  0.71503251761E+03  0.86175668077E+03  0.19998662986E+03  0.11374938871E+04  0.12699999809E+01 0.  1.
</event>
<event>
 5   0  0.9483073E-05  0.2307144E+04  0.7818609E-02  0.8475110E-01
       -2   -1    0    0    0  501  0.00000000000E+00  0.00000000000E+00  0.74374586537E+03  0.74374586537E+03  0.25500000920E-02 0. -1.
        2   -1    0    0  501    0  0.00000000000E+00  0.00000000000E+00 -0.17892240607E+04  0.17892240607E+04  0.25500000920E-02 0.  1.
    10030    2    1    2    0    0  0.00000000000E+00  0.00000000000E+00 -0.10454781954E+04  0.25329699261E+04  0.23071436864E+04 0.  0.
        5    1    3    3  502    0 -0.93218302392E+03  0.65798438284E+03 -0.33643129483E+03  0.11895867956E+04  0.46999998093E+01 0. -1.
       -5    1    3    3    0  502  0.93218302392E+03 -0.65798438284E+03 -0.70904690052E+03  0.13433831305E+04  0.46999998093E+01 0.  1.
</event>
<event>
 5   0  0.3885219E-05  0.2266257E+04  0.7818609E-02  0.8491346E-01
        1   -1    0    0  501    0  0.00000000000E+00  0.00000000000E+00  0.20559122158E+04  0.20559122158E+04  0.50400001928E-02 0.  1.
       -1   -1    0    0    0  501  0.00000000000E+00  0.00000000000E+00 -0.62453059521E+03  0.62453059523E+03  0.50400001928E-02 0. -1.
    10030    2    1    2    0    0  0.00000000000E+00  0.00000000000E+00  0.14313816206E+04  0.26804428110E+04  0.22662568962E+04 0.  0.
        2    1    3    3  502    0 -0.96321092833E+03  0.49154101443E+03  0.11160732032E+04  0.15540293614E+04  0.25500000920E-02 0.  1.
       -2    1    3    3    0  502  0.96321092833E+03 -0.49154101443E+03  0.31530841739E+03  0.11264134496E+04  0.25500000920E-02 0. -1.
</event>
<event>
 5   0  0.4139830E-05  0.2327890E+04  0.7818609E-02  0.8467005E-01
        1   -1    0    0  501    0  0.00000000000E+00  0.00000000000E+00  0.11608292434E+04  0.11608292434E+04  0.50400001928E-02 0.  1.
       -1   -1    0    0    0  501  0.00000000000E+00  0.00000000000E+00 -0.11670690749E+04  0.11670690750E+04  0.50400001928E-02 0. -1.
    10030    2    1    2    0    0  0.00000000000E+00  0.00000000000E+00 -0.62398315521E+01  0.23278983184E+04  0.23278899556E+04 0.  0.
        1    1    3    3  502    0  0.71058770757E+02  0.33087827310E+03 -0.11167837078E+04  0.11669342872E+04  0.50400001928E-02 0. -1.
       -1    1    3    3    0  502 -0.71058770757E+02 -0.33087827310E+03  0.11105438763E+04  0.11609640312E+04  0.50400001928E-02 0.  1.
</event>
<event>
 5   0  0.9535394E-05  0.2376285E+04  0.7818609E-02  0.8448436E-01
       -2   -1    0    0    0  501  0.00000000000E+00  0.00000000000E+00  0.95742831525E+03  0.95742831526E+03  0.25500000920E-02 0.  1.
        2   -1    0    0  501    0  0.00000000000E+00  0.00000000000E+00 -0.14744521156E+04  0.14744521156E+04  0.25500000920E-02 0. -1.
    10030    2    1    2    0    0  0.00000000000E+00  0.00000000000E+00 -0.51702380032E+03  0.24318804308E+04  0.23762846672E+04 0.  0.
        2    1    3    3  502    0  0.39746400253E+03 -0.37482242817E+03  0.82126201593E+03  0.98637760761E+03  0.25500000920E-02 0.  1.
       -2    1    3    3    0  502 -0.39746400253E+03  0.37482242817E+03 -0.13382858163E+04  0.14455028232E+04  0.25500000920E-02 0. -1.
</event>
<event>
 5   0  0.4095451E-05  0.1718509E+04  0.7818609E-02  0.8750878E-01
        1   -1    0    0  501    0  0.00000000000E+00  0.00000000000E+00  0.92916371917E+03  0.92916371918E+03  0.50400001928E-02 0.  1.
       -1   -1    0    0    0  501  0.00000000000E+00  0.00000000000E+00 -0.79460490868E+03  0.79460490870E+03  0.50400001928E-02 0. -1.
    10030    2    1    2    0    0  0.00000000000E+00  0.00000000000E+00  0.13455881048E+03  0.17237686279E+04  0.17185087166E+04 0.  0.
        3    1    3    3  502    0  0.64971507420E+03 -0.83241687440E+02  0.62509228429E+03  0.90542765048E+03  0.10100000352E+00 0.  1.
       -3    1    3    3    0  502 -0.64971507420E+03  0.83241687440E+02 -0.49053347381E+03  0.81834097740E+03  0.10100000352E+00 0. -1.
</event>
<event>
 5   0  0.4095451E-05  0.2387869E+04  0.7818609E-02  0.8444059E-01
        1   -1    0    0  501    0  0.00000000000E+00  0.00000000000E+00  0.12414659670E+04  0.12414659670E+04  0.50400001928E-02 0. -1.
       -1   -1    0    0    0  501  0.00000000000E+00  0.00000000000E+00 -0.11482231217E+04  0.11482231218E+04  0.50400001928E-02 0.  1.
    10030    2    1    2    0    0  0.00000000000E+00  0.00000000000E+00  0.93242845237E+02  0.23896890888E+04  0.23878692830E+04 0.  0.
        3    1    3    3  502    0  0.13074441195E+03  0.11345937782E+04  0.39485611494E+03  0.12084322507E+04  0.10100000352E+00 0. -1.
       -3    1    3    3    0  502 -0.13074441195E+03 -0.11345937782E+04 -0.30161326970E+03  0.11812568381E+04  0.10100000352E+00 0.  1.
</event>
<event>
 5   0  0.9535394E-05  0.2127344E+04  0.7818609E-02  0.8549293E-01
       -2   -1    0    0    0  501  0.00000000000E+00  0.00000000000E+00  0.15624909135E+04  0.15624909135E+04  0.25500000920E-02 0. -1.
        2   -1    0    0  501    0  0.00000000000E+00  0.00000000000E+00 -0.72409927148E+03  0.72409927149E+03  0.25500000920E-02 0.  1.
    10030    2    1    2    0    0  0.00000000000E+00  0.00000000000E+00  0.83839164201E+03  0.22865901850E+04  0.21273443841E+04 0.  0.
        2    1    3    3  502    0 -0.53812332827E+03  0.85565173843E+03  0.77516963560E+03  0.12738149700E+04  0.25500000920E-02 0. -1.
       -2    1    3    3    0  502  0.53812332827E+03 -0.85565173843E+03  0.63222006413E+02  0.10127752149E+04  0.25500000920E-02 0.  1.
</event>
<event>
 5   0  0.4295775E-05  0.2337705E+04  0.7818609E-02  0.8463201E-01
       -1   -1    0    0    0  501  0.00000000000E+00  0.00000000000E+00  0.11874140196E+04  0.11874140197E+04  0.50400001928E-02 0. -1.
        1   -1    0    0  501    0  0.00000000000E+00  0.00000000000E+00 -0.11505814648E+04  0.11505814648E+04  0.50400001928E-02 0.  1.
    10030    2    1    2    0    0  0.00000000000E+00  0.00000000000E+00  0.36832554835E+02  0.23379954845E+04  0.23377053382E+04 0.  0.
        5    1    3    3  502    0 -0.12090360348E+03  0.15137046711E+03 -0.11344035738E+04  0.11508363298E+04  0.46999998093E+01 0.  1.
       -5    1    3    3    0  502  0.12090360348E+03 -0.15137046711E+03  0.11712361286E+04  0.11871591547E+04  0.46999998093E+01 0. -1.
</event>
<event>
 5   0  0.9641157E-05  0.2139384E+04  0.7818609E-02  0.8544090E-01
       -2   -1    0    0    0  501  0.00000000000E+00  0.00000000000E+00  0.71792011110E+03  0.71792011110E+03  0.25500000920E-02 0.  1.
        2   -1    0    0  501    0  0.00000000000E+00  0.00000000000E+00 -0.15938273299E+04  0.15938273299E+04  0.25500000920E-02 0. -1.
    10030    2    1    2    0    0  0.00000000000E+00  0.00000000000E+00 -0.87590721882E+03  0.23117474410E+04  0.21393837372E+04 0.  0.
        3    1    3    3  502    0  0.77318696797E+03 -0.78046112011E+02  0.35634133575E+03  0.85492013709E+03  0.10100000352E+00 0.  1.
       -3    1    3    3    0  502 -0.77318696797E+03  0.78046112011E+02 -0.12322485546E+04  0.14568273039E+04  0.10100000352E+00 0. -1.
</event>
<event>
 5   0  0.9641157E-05  0.2446881E+04  0.7818609E-02  0.8422158E-01
        2   -1    0    0  501    0  0.00000000000E+00  0.00000000000E+00  0.10878002567E+04  0.10878002567E+04  0.25500000920E-02 0. -1.
       -2   -1    0    0    0  501  0.00000000000E+00  0.00000000000E+00 -0.13759937424E+04  0.13759937424E+04  0.25500000920E-02 0.  1.
    10030    2    1    2    0    0  0.00000000000E+00  0.00000000000E+00 -0.28819348573E+03  0.24637939991E+04  0.24468807460E+04 0.  0.
        3    1    3    3  502    0  0.11605117800E+04 -0.15100069317E+03  0.21504433204E+03  0.11898877576E+04  0.10100000352E+00 0. -1.
       -3    1    3    3    0  502 -0.11605117800E+04  0.15100069317E+03 -0.50323781777E+03  0.12739062415E+04  0.10100000352E+00 0.  1.
</event>
<event>
 5   0  0.9535394E-05  0.2274980E+04  0.7818609E-02  0.8487852E-01
        2   -1    0    0  501    0  0.00000000000E+00  0.00000000000E+00  0.22961473912E+04  0.22961473912E+04  0.25500000920E-02 0.  1.
       -2   -1    0    0    0  501  0.00000000000E+00  0.00000000000E+00 -0.56350209045E+03  0.56350209045E+03  0.25500000920E-02 0. -1.
    10030    2    1    2    0    0  0.00000000000E+00  0.00000000000E+00  0.17326453007E+04  0.28596494816E+04  0.22749803119E+04 0.  0.
        2    1    3    3  502    0  0.39620030923E+03  0.90818924521E+02  0.22017397650E+04  0.22389463493E+04  0.25500000920E-02 0.  1.
       -2    1    3    3    0  502 -0.39620030923E+03 -0.90818924521E+02 -0.46909446428E+03  0.62070313235E+03  0.25500000920E-02 0. -1.
</event>
<event>
 5   0  0.4005462E-05  0.2356134E+04  0.7818609E-02  0.8456111E-01
        1   -1    0    0  501    0  0.00000000000E+00  0.00000000000E+00  0.18687829014E+04  0.18687829014E+04  0.50400001928E-02 0.  1.
       -1   -1    0    0    0  501  0.00000000000E+00  0.00000000000E+00 -0.74264500836E+03  0.74264500838E+03  0.50400001928E-02 0. -1.
    10030    2    1    2    0    0  0.00000000000E+00  0.00000000000E+00  0.11261378930E+04  0.26114279098E+04  0.23561343709E+04 0.  0.
        4    1    3    3  502    0 -0.69401343198E+02  0.10152819711E+04 -0.94723822077E+02  0.10220509980E+04  0.12699999809E+01 0. -1.
       -4    1    3    3    0  502  0.69401343198E+02 -0.10152819711E+04  0.12208617151E+04  0.15893769117E+04  0.12699999809E+01 0.  1.
</event>
<event>
 5   0  0.9313463E-05  0.2180290E+04  0.7818609E-02  0.8526677E-01
        2   -1    0    0  501    0  0.00000000000E+00  0.00000000000E+00  0.11172929346E+04  0.11172929346E+04  0.25500000920E-02 0. -1.
       -2   -1    0    0    0  501  0.00000000000E+00  0.00000000000E+00 -0.10636570306E+04  0.10636570306E+04  0.25500000920E-02 0.  1.
    10030    2    1    2    0    0  0.00000000000E+00  0.00000000000E+00  0.53635903988E+02  0.21809499652E+04  0.21802903340E+04 0.  0.
        1    1    3    3  502    0 -0.13543921910E+03  0.38721126215E+03  0.10371433981E+04  0.11153218243E+04  0.50400001928E-02 0. -1.
       -1    1    3    3    0  502  0.13543921910E+03 -0.38721126215E+03 -0.98350749412E+03  0.10656281409E+04  0.50400001928E-02 0.  1.
</event>
<event>
 5   0  0.9535394E-05  0.2366234E+04  0.7818609E-02  0.8452254E-01
       -2   -1    0    0    0  501  0.00000000000E+00  0.00000000000E+00  0.57898852752E+03  0.57898852753E+03  0.25500000920E-02 0.  1.
        2   -1    0    0  501    0  0.00000000000E+00  0.00000000000E+00 -0.24176047477E+04  0.24176047477E+04  0.25500000920E-02 0. -1.
    10030    2    1    2    0    0  0.00000000000E+00  0.00000000000E+00 -0.18386162202E+04  0.29965932752E+04  0.23662336427E+04 0.  0.
        2    1    3    3  502    0 -0.38911819104E+03 -0.90680787651E+03 -0.17459196043E+04  0.20054796823E+04  0.25500000920E-02 0. -1.
       -2    1    3    3    0  502  0.38911819104E+03  0.90680787651E+03 -0.92696615901E+02  0.99111359293E+03  0.25500000920E-02 0.  1.
</event>
<event>
 5   0  0.9313463E-05  0.1745614E+04  0.7818609E-02  0.8735768E-01
        2   -1    0    0  501    0  0.00000000000E+00  0.00000000000E+00  0.18833176360E+04  0.18833176360E+04  0.25500000920E-02 0.  1.
       -2   -1    0    0    0  501  0.00000000000E+00  0.00000000000E+00 -0.40449484334E+03  0.40449484335E+03  0.25500000920E-02 0. -1.
    10030    2    1    2    0    0  0.00000000000E+00  0.00000000000E+00  0.14788227927E+04  0.22878124794E+04  0.17456142439E+04 0.  0.
        1    1    3    3  502    0  0.26434368339E+03 -0.56180666485E+03  0.15433674489E+04  0.16635766872E+04  0.50400001928E-02 0.  1.
       -1    1    3    3    0  502 -0.26434368339E+03  0.56180666485E+03 -0.64544656239E+02  0.62423579222E+03  0.50400001928E-02 0. -1.
</event>
<event>
 5   0  0.9641157E-05  0.2325931E+04  0.7818609E-02  0.8467767E-01
       -2   -1    0    0    0  501  0.00000000000E+00  0.00000000000E+00  0.56938290811E+03  0.56938290812E+03  0.25500000920E-02 0. -1.
        2   -1    0    0  501    0  0.00000000000E+00  0.00000000000E+00 -0.23753587274E+04  0.23753587274E+04  0.25500000920E-02 0.  1.
    10030    2    1    2    0    0  0.00000000000E+00  0.00000000000E+00 -0.18059758193E+04  0.29447416356E+04  0.23259309190E+04 0.  0.
        3    1    3    3  502    0 -0.47042631712E+03  0.50221049986E+03  0.28397730114E+03  0.74441884969E+03  0.10100000352E+00 0. -1.
       -3    1    3    3    0  502  0.47042631712E+03 -0.50221049986E+03 -0.20899531205E+04  0.22003227859E+04  0.10100000352E+00 0.  1.
</event>
<event>
 5   0  0.3885219E-05  0.2246361E+04  0.7818609E-02  0.8499376E-01
       -1   -1    0    0    0  501  0.00000000000E+00  0.00000000000E+00  0.75458338126E+03  0.75458338127E+03  0.50400001928E-02 0. -1.
        1   -1    0    0  501    0  0.00000000000E+00  0.00000000000E+00 -0.16718288999E+04  0.16718289000E+04  0.50400001928E-02 0.  1.
    10030    2    1    2    0    0  0.00000000000E+00  0.00000000000E+00 -0.91724551869E+03  0.24264122812E+04  0.22463608831E+04 0.  0.
        2    1    3    3  502    0  0.46730583984E+02 -0.42350052880E+02 -0.16699149358E+04  0.16711053728E+04  0.25500000920E-02 0.  1.
       -2    1    3    3    0  502 -0.46730583984E+02  0.42350052880E+02  0.75266941707E+03  0.75530690839E+03  0.25500000920E-02 0. -1.
</event>
<event>
 5   0  0.9313463E-05  0.2303646E+04  0.7818609E-02  0.8476485E-01
        2   -1    0    0  501    0  0.00000000000E+00  0.00000000000E+00  0.72100678288E+03  0.72100678289E+03  0.25500000920E-02 0. -1.
       -2   -1    0    0    0  501  0.00000000000E+00  0.00000000000E+00 -0.18400614434E+04  0.18400614434E+04  0.25500000920E-02 0.  1.
    10030    2    1    2    0    0  0.00000000000E+00  0.00000000000E+00 -0.11190546605E+04  0.25610682263E+04  0.23036464847E+04 0.  0.
        1    1    3    3  502    0  0.41122689869E+03 -0.96244575113E+03 -0.24862894040E+02  0.10469133439E+04  0.50400001928E-02 0. -1.
       -1    1    3    3    0  502 -0.41122689869E+03  0.96244575113E+03 -0.10941917665E+04  0.15141548824E+04  0.50400001928E-02 0.  1.
</event>
<event>
 5   0  0.9312074E-05  0.2394972E+04  0.7818609E-02  0.8441388E-01
       -2   -1    0    0    0  501  0.00000000000E+00  0.00000000000E+00  0.13563489696E+04  0.13563489696E+04  0.25500000920E-02 0. -1.
        2   -1    0    0  501    0  0.00000000000E+00  0.00000000000E+00 -0.10572301113E+04  0.10572301113E+04  0.25500000920E-02 0.  1.
    10030    2    1    2    0    0  0.00000000000E+00  0.00000000000E+00  0.29911885838E+03  0.24135790809E+04  0.23949722103E+04 0.  0.
        4    1    3    3  502    0  0.64384025695E+03  0.52555119187E+03  0.10183692539E+04  0.13144625829E+04  0.12699999809E+01 0. -1.
       -4    1    3    3    0  502 -0.64384025695E+03 -0.52555119187E+03 -0.71925039551E+03  0.10991164980E+04  0.12699999809E+01 0.  1.
</event>
<event>
 5   0  0.4139830E-05  0.2288291E+04  0.7818609E-02  0.8482552E-01
        1   -1    0    0  501    0  0.00000000000E+00  0.00000000000E+00  0.23574725142E+04  0.23574725142E+04  0.50400001928E-02 0.  1.
       -1   -1    0    0    0  501  0.00000000000E+00  0.00000000000E+00 -0.55528491812E+03  0.55528491814E+03  0.50400001928E-02 0. -1.
    10030    2    1    2    0    0  0.00000000000E+00  0.00000000000E+00  0.18021875961E+04  0.29127574323E+04  0.22882910060E+04 0.  0.
        1    1    3    3  502    0 -0.19546059109E+03 -0.90079362539E+03  0.17638837380E+04  0.19902059791E+04  0.50400001928E-02 0.  1.
       -1    1    3    3    0  502  0.19546059109E+03  0.90079362539E+03  0.38303858077E+02  0.92255145319E+03  0.50400001928E-02 0. -1.
</event>
<event>
 5   0  0.3885219E-05  0.1964523E+04  0.7818609E-02  0.8623389E-01
       -1   -1    0    0    0  501  0.00000000000E+00  0.00000000000E+00  0.93656332195E+03  0.93656332196E+03  0.50400001928E-02 0.  1.
        1   -1    0    0  501    0  0.00000000000E+00  0.00000000000E+00 -0.10301895385E+04  0.10301895385E+04  0.50400001928E-02 0. -1.
    10030    2    1    2    0    0  0.00000000000E+00  0.00000000000E+00 -0.93626216533E+02  0.19667528605E+04  0.19645230835E+04 0.  0.
        2    1    3    3  502    0 -0.32212356820E+03  0.26751080146E+03  0.84274035201E+03  0.94102971419E+03  0.25500000920E-02 0.  1.
       -2    1    3    3    0  502  0.32212356820E+03 -0.26751080146E+03 -0.93636656854E+03  0.10257231463E+04  0.25500000920E-02 0. -1.
</event>
<event>
 5   0  0.4295775E-05  0.2298621E+04  0.7818609E-02  0.8478465E-01
       -1   -1    0    0    0  501  0.00000000000E+00  0.00000000000E+00  0.10140188508E+04  0.10140188508E+04  0.50400001928E-02 0.  1.
        1   -1    0    0  501    0  0.00000000000E+00  0.00000000000E+00 -0.13026533317E+04  0.13026533317E+04  0.50400001928E-02 0. -1.
    10030    2    1    2    0    0  0.00000000000E+00  0.00000000000E+00 -0.28863448095E+03  0.23166721825E+04  0.22986213559E+04 0.  0.
        5    1    3    3  502    0 -0.74295850494E+03 -0.18342529470E+03 -0.10085243657E+04  0.12660077666E+04  0.46999998093E+01 0. -1.
       -5    1    3    3    0  502  0.74295850494E+03  0.18342529470E+03  0.71988988474E+03  0.10506644160E+04  0.46999998093E+01 0.  1.
</event>
<event>
 5   0  0.3261500E-05  0.2337292E+04  0.7818609E-02  0.8463361E-01
       -3   -1    0    0    0  501  0.00000000000E+00  0.00000000000E+00  0.11647677171E+04  0.11647677215E+04  0.10100000352E+00 0.  1.
        3   -1    0    0  501    0  0.00000000000E+00  0.00000000000E+00 -0.11725373885E+04  0.11725373928E+04  0.10100000352E+00 0. -1.
    10030    2    1    2    0    0  0.00000000000E+00  0.00000000000E+00 -0.77696713522E+01  0.23373051144E+04  0.23372922003E+04 0.  0.
        1    1    3    3  502    0 -0.70381367093E+03 -0.19850682271E+03  0.90769853846E+03  0.11656222711E+04  0.50400001928E-02 0.  1.
       -1    1    3    3    0  502  0.70381367093E+03  0.19850682271E+03 -0.91546820982E+03  0.11716828433E+04  0.50400001928E-02 0. -1.
</event>
<event>
 5   0  0.4095451E-05  0.2332189E+04  0.7818609E-02  0.8465336E-01
        1   -1    0    0  501    0  0.00000000000E+00  0.00000000000E+00  0.18276344824E+04  0.18276344824E+04  0.50400001928E-02 0.  1.
       -1   -1    0    0    0  501  0.00000000000E+00  0.00000000000E+00 -0.74400914702E+03  0.74400914704E+03  0.50400001928E-02 0. -1.
    10030    2    1    2    0    0  0.00000000000E+00  0.00000000000E+00  0.10836253354E+04  0.25716436294E+04  0.23321893339E+04 0.  0.
        3    1    3    3  502    0  0.73151231200E+03  0.90357218344E+03  0.64180886481E+03  0.13279576734E+04  0.10100000352E+00 0. -1.
       -3    1    3    3    0  502 -0.73151231200E+03 -0.90357218344E+03  0.44181647056E+03  0.12436859560E+04  0.10100000352E+00 0.  1.
</event>
<event>
 5   0  0.9312074E-05  0.2350009E+04  0.7818609E-02  0.8458460E-01
        2   -1    0    0  501    0  0.00000000000E+00  0.00000000000E+00  0.20283796967E+04  0.20283796967E+04  0.25500000920E-02 0. -1.
       -2   -1    0    0    0  501  0.00000000000E+00  0.00000000000E+00 -0.68065941888E+03  0.68065941888E+03  0.25500000920E-02 0.  1.
    10030    2    1    2    0    0  0.00000000000E+00  0.00000000000E+00  0.13477202778E+04  0.27090391156E+04  0.23500091452E+04 0.  0.
        4    1    3    3  502    0  0.29489605557E+03  0.10595677099E+04  0.11505401172E+04  0.15916631520E+04  0.12699999809E+01 0. -1.
       -4    1    3    3    0  502 -0.29489605557E+03 -0.10595677099E+04  0.19718016068E+03  0.11173759636E+04  0.12699999809E+01 0.  1.
</event>
<event>
 5   0  0.4139830E-05  0.2278576E+04  0.7818609E-02  0.8486416E-01
       -1   -1    0    0    0  501  0.00000000000E+00  0.00000000000E+00  0.83416318684E+03  0.83416318685E+03  0.50400001928E-02 0.  1.
        1   -1    0    0  501    0  0.00000000000E+00  0.00000000000E+00 -0.15560232783E+04  0.15560232783E+04  0.50400001928E-02 0. -1.
    10030    2    1    2    0    0  0.00000000000E+00  0.00000000000E+00 -0.72186009147E+03  0.23901864652E+04  0.22785761665E+04 0.  0.
        1    1    3    3  502    0 -0.28999683320E+03  0.90636780271E+03 -0.10180123491E+04  0.13935386253E+04  0.50400001928E-02 0. -1.
       -1    1    3    3    0  502  0.28999683320E+03 -0.90636780271E+03  0.29615225767E+03  0.99664783991E+03  0.50400001928E-02 0.  1.
</event>
<event>
 5   0  0.9483073E-05  0.2201202E+04  0.7818609E-02  0.8517928E-01
        2   -1    0    0  501    0  0.00000000000E+00  0.00000000000E+00  0.12701492194E+04  0.12701492195E+04  0.25500000920E-02 0.  1.
       -2   -1    0    0    0  501  0.00000000000E+00  0.00000000000E+00 -0.95368564304E+03  0.95368564304E+03  0.25500000920E-02 0. -1.
    10030    2    1    2    0    0  0.00000000000E+00  0.00000000000E+00  0.31646357641E+03  0.22238348625E+04  0.22012024669E+04 0.  0.
        5    1    3    3  502    0 -0.38763862367E+03  0.41129337936E+03  0.11123332210E+04  0.12476911601E+04  0.46999998093E+01 0.  1.
       -5    1    3    3    0  502  0.38763862367E+03 -0.41129337936E+03 -0.79586964461E+03  0.97614370237E+03  0.46999998093E+01 0. -1.
</event>
<event>
 5   0  0.9483073E-05  0.2423908E+04  0.7818609E-02  0.8430607E-01
       -2   -1    0    0    0  501  0.00000000000E+00  0.00000000000E+00  0.90829995323E+03  0.90829995324E+03  0.25500000920E-02 0. -1.
        2   -1    0    0  501    0  0.00000000000E+00  0.00000000000E+00 -0.16171229377E+04  0.16171229377E+04  0.25500000920E-02 0.  1.
    10030    2    1    2    0    0  0.00000000000E+00  0.00000000000E+00 -0.70882298445E+03  0.25254228909E+04  0.24239081572E+04 0.  0.
        5    1    3    3  502    0  0.74324463895E+03 -0.77842963689E+03 -0.93492255580E+03  0.14256463686E+04  0.46999998093E+01 0.  1.
       -5    1    3    3    0  502 -0.74324463895E+03  0.77842963689E+03  0.22609957135E+03  0.10997765223E+04  0.46999998093E+01 0. -1.
</event>
<event>
 5   0  0.9483073E-05  0.2263455E+04  0.7818609E-02  0.8492471E-01
        2   -1    0    0  501    0  0.00000000000E+00  0.00000000000E+00  0.13203509938E+04  0.13203509938E+04  0.25500000920E-02 0. -1.
       -2   -1    0    0    0  501  0.00000000000E+00  0.00000000000E+00 -0.97005038407E+03  0.97005038407E+03  0.25500000920E-02 0.  1.
    10030    2    1    2    0    0  0.00000000000E+00  0.00000000000E+00  0.35030060969E+03  0.22904013778E+04  0.22634548713E+04 0.  0.
        5    1    3    3  502    0 -0.78020482133E+03  0.13932175378E+02  0.10045861091E+04  0.12720569992E+04  0.46999998093E+01 0. -1.
       -5    1    3    3    0  502  0.78020482133E+03 -0.13932175378E+02 -0.65428549938E+03  0.10183443786E+04  0.46999998093E+01 0.  1.
</event>
<event>
 5   0  0.9535394E-05  0.1967288E+04  0.7818609E-02  0.8622069E-01
       -2   -1    0    0    0  501  0.00000000000E+00  0.00000000000E+00  0.10419687436E+04  0.10419687436E+04  0.25500000920E-02 0.  1.
        2   -1    0    0  501    0  0.00000000000E+00  0.00000000000E+00 -0.92858434581E+03  0.92858434581E+03  0.25500000920E-02 0. -1.
    10030    2    1    2    0    0  0.00000000000E+00  0.00000000000E+00  0.11338439776E+03  0.19705530894E+04  0.19672883511E+04 0.  0.
        2    1    3    3  502    0 -0.96023417105E+03 -0.14770972365E+03  0.21085680179E+03  0.99414707995E+03  0.25500000920E-02 0. -1.
       -2    1    3    3    0  502  0.96023417105E+03  0.14770972365E+03 -0.97472404032E+02  0.97640600943E+03  0.25500000920E-02 0.  1.
</event>
<event>
 5   0  0.4005462E-05  0.2344480E+04  0.7818609E-02  0.8460587E-01
       -1   -1    0    0    0  501  0.00000000000E+00  0.00000000000E+00  0.12814964087E+04  0.12814964087E+04  0.50400001928E-02 0.  1.
        1   -1    0    0  501    0  0.00000000000E+00  0.00000000000E+00 -0.10722983054E+04  0.10722983054E+04  0.50400001928E-02 0. -1.
    10030    2    1    2    0    0  0.00000000000E+00  0.00000000000E+00  0.20919810330E+03  0.23537947141E+04  0.23444798378E+04 0.  0.
        4    1    3    3  502    0  0.43316565417E+03 -0.10859614171E+04  0.18978977089E+03  0.11844688486E+04  0.12699999809E+01 0.  1.
       -4    1    3    3    0  502 -0.43316565417E+03  0.10859614171E+04  0.19408332412E+02  0.11693258655E+04  0.12699999809E+01 0. -1.
</event>
<event>
 5   0  0.9313463E-05  0.2448468E+04  0.7818609E-02  0.8421578E-01
       -2   -1    0    0    0  501  0.00000000000E+00  0.00000000000E+00  0.97622985677E+03  0.97622985677E+03  0.25500000920E-02 0. -1.
        2   -1    0    0  501    0  0.00000000000E+00  0.00000000000E+00 -0.15352414463E+04  0.15352414463E+04  0.25500000920E-02 0.  1.
    10030    2    1    2    0    0  0.00000000000E+00  0.00000000000E+00 -0.55901158951E+03  0.25114713031E+04  0.24484677145E+04 0.  0.
        1    1    3    3  502    0 -0.10174711783E+04  0.49633301184E+03 -0.75749516100E+03  0.13621281056E+04  0.50400001928E-02 0.  1.
       -1    1    3    3    0  502  0.10174711783E+04 -0.49633301184E+03  0.19848357149E+03  0.11493431974E+04  0.50400001928E-02 0. -1.
</event>
<event>
 5   0  0.9483073E-05  0.2354154E+04  0.7818609E-02  0.8456870E-01
        2   -1    0    0  501    0  0.00000000000E+00  0.00000000000E+00  0.63661063926E+03  0.63661063927E+03  0.25500000920E-02 0. -1.
       -2   -1    0    0    0  501  0.00000000000E+00  0.00000000000E+00 -0.21763852285E+04  0.21763852285E+04  0.25500000920E-02 0.  1.
    10030    2    1    2    0    0  0.00000000000E+00  0.00000000000E+00 -0.15397745892E+04  0.28129958677E+04  0.23541537686E+04 0.  0.
        5    1    3    3  502    0  0.54240890651E+03  0.60382467578E+02  0.47627825948E+03  0.72437320126E+03  0.46999998093E+01 0. -1.
       -5    1    3    3    0  502 -0.54240890651E+03 -0.60382467578E+02 -0.20160528487E+04  0.20886226665E+04  0.46999998093E+01 0.  1.
</event>
<event>
 5   0  0.9312074E-05  0.2285109E+04  0.7818609E-02  0.8483816E-01
       -2   -1    0    0    0  501  0.00000000000E+00  0.00000000000E+00  0.58136706231E+03  0.58136706231E+03  0.25500000920E-02 0. -1.
        2   -1    0    0  501    0  0.00000000000E+00  0.00000000000E+00 -0.22454497173E+04  0.22454497173E+04  0.25500000920E-02 0.  1.
    10030    2    1    2    0    0  0.00000000000E+00  0.00000000000E+00 -0.16640826550E+04  0.28268167796E+04  0.22851087551E+04 0.  0.
        4    1    3    3  502    0  0.65420049913E+03 -0.34583698673E+03 -0.19089569138E+04  0.20473640678E+04  0.12699999809E+01 0.  1.
       -4    1    3    3    0  502 -0.65420049913E+03  0.34583698673E+03  0.24487425880E+03  0.77945271182E+03  0.12699999809E+01 0. -1.
</event>
<event>
 5   0  0.9483073E-05  0.2285331E+04  0.7818609E-02  0.8483727E-01
        2   -1    0    0  501    0  0.00000000000E+00  0.00000000000E+00  0.96549674385E+03  0.96549674385E+03  0.25500000920E-02 0. -1.
       -2   -1    0    0    0  501  0.00000000000E+00  0.00000000000E+00 -0.13523447763E+04  0.13523447763E+04  0.25500000920E-02 0.  1.
    10030    2    1    2    0    0  0.00000000000E+00  0.00000000000E+00 -0.38684803247E+03  0.23178415202E+04  0.22853310291E+04 0.  0.
        5    1    3    3  502    0 -0.79085859057E+02  0.69256494553E+03  0.72486292920E+03  0.10056585569E+04  0.46999998093E+01 0. -1.
       -5    1    3    3    0  502  0.79085859057E+02 -0.69256494553E+03 -0.11117109617E+04  0.13121829633E+04  0.46999998093E+01 0.  1.
</event>
<event>
 5   0  0.9483073E-05  0.2310336E+04  0.7818609E-02  0.8473857E-01
       -2   -1    0    0    0  501  0.00000000000E+00  0.00000000000E+00  0.16987820320E+04  0.16987820320E+04  0.25500000920E-02 0. -1.
        2   -1    0    0  501    0  0.00000000000E+00  0.00000000000E+00 -0.78551146234E+03  0.78551146235E+03  0.25500000920E-02 0.  1.
    10030    2    1    2    0    0  0.00000000000E+00  0.00000000000E+00  0.91327056969E+03  0.24842934944E+04  0.23103356970E+04 0.  0.
        5    1    3    3  502    0  0.10335056615E+04  0.50950807745E+03  0.54437725173E+03  0.12744022582E+04  0.46999998093E+01 0. -1.
       -5    1    3    3    0  502 -0.10335056615E+04 -0.50950807745E+03  0.36889331797E+03  0.12098912362E+04  0.46999998093E+01 0.  1.
</event>
<event>
 5   0  0.4005462E-05  0.2282740E+04  0.7818609E-02  0.8484758E-01
       -1   -1    0    0    0  501  0.00000000000E+00  0.00000000000E+00  0.11084990183E+04  0.11084990183E+04  0.50400001928E-02 0. -1.
        1   -1    0    0  501    0  0.00000000000E+00  0.00000000000E+00 -0.11752159000E+04  0.11752159000E+04  0.50400001928E-02 0.  1.
    10030    2    1    2    0    0  0.00000000000E+00  0.00000000000E+00 -0.66716881750E+02  0.22837149183E+04  0.22827401704E+04 0.  0.
        4    1    3    3  502    0 -0.10519495870E+03 -0.43908655898E+03 -0.10820718039E+04  0.11724947707E+04  0.12699999809E+01 0.  1.
       -4    1    3    3    0  502  0.10519495870E+03  0.43908655898E+03  0.10153549221E+04  0.11112201476E+04  0.12699999809E+01 0. -1.
</event>
<event>
 5   0  0.4095451E-05  0.1454093E+04  0.7818609E-02  0.8915568E-01
       -1   -1    0    0    0  501  0.00000000000E+00  0.00000000000E+00  0.32295726637E+03  0.32295726641E+03  0.50400001928E-02 0.  1.
        1   -1    0    0  501    0  0.00000000000E+00  0.00000000000E+00 -0.16367386433E+04  0.16367386433E+04  0.50400001928E-02 0. -1.
    10030    2    1    2    0    0  0.00000000000E+00  0.00000000000E+00 -0.13137813769E+04  0.19596959097E+04  0.14540930342E+04 0.  0.
        3    1    3    3  502    0 -0.96986046576E+02  0.56407858123E+03 -0.52662938936E+02  0.57477328954E+03  0.10100000352E+00 0.  1.
       -3    1    3    3    0  502  0.96986046576E+02 -0.56407858123E+03 -0.12611184380E+04  0.13849226202E+04  0.10100000352E+00 0. -1.
</event>
<event>
 5   0  0.4295775E-05  0.1493547E+04  0.7818609E-02  0.8888755E-01
       -1   -1    0    0    0  501  0.00000000000E+00  0.00000000000E+00  0.82647947568E+03  0.82647947569E+03  0.50400001928E-02 0. -1.
        1   -1    0    0  501    0  0.00000000000E+00  0.00000000000E+00 -0.67475450783E+03  0.67475450785E+03  0.50400001928E-02 0.  1.
    10030    2    1    2    0    0  0.00000000000E+00  0.00000000000E+00  0.15172496785E+03  0.15012339835E+04  0.14935471226E+04 0.  0.
        5    1    3    3  502    0  0.63211969012E+03  0.36085605133E+02 -0.32211873944E+03  0.71039428899E+03  0.46999998093E+01 0.  1.
       -5    1    3    3    0  502 -0.63211969012E+03 -0.36085605133E+02  0.47384370729E+03  0.79083969455E+03  0.46999998093E+01 0. -1.
</event>
<event>
 5   0  0.9313463E-05  0.2324310E+04  0.7818609E-02  0.8468397E-01
       -2   -1    0    0    0  501  0.00000000000E+00  0.00000000000E+00  0.12396399265E+04  0.12396399265E+04  0.25500000920E-02 0.  1.
        2   -1    0    0  501    0  0.00000000000E+00  0.00000000000E+00 -0.10895132571E+04  0.10895132571E+04  0.25500000920E-02 0. -1.
    10030    2    1    2    0    0  0.00000000000E+00  0.00000000000E+00  0.15012666947E+03  0.23291531836E+04  0.23243099053E+04 0.  0.
        1    1    3    3  502    0 -0.10177703960E+04  0.38834834659E+03  0.48079356460E+03  0.11907281256E+04  0.50400001928E-02 0.  1.
       -1    1    3    3    0  502  0.10177703960E+04 -0.38834834659E+03 -0.33066689513E+03  0.11384250580E+04  0.50400001928E-02 0. -1.
</event>
<event>
 5   0  0.9483073E-05  0.2350221E+04  0.7818609E-02  0.8458379E-01
       -2   -1    0    0    0  501  0.00000000000E+00  0.00000000000E+00  0.10380309300E+04  0.10380309300E+04  0.25500000920E-02 0. -1.
        2   -1    0    0  501    0  0.00000000000E+00  0.00000000000E+00 -0.13302923424E+04  0.13302923424E+04  0.25500000920E-02 0.  1.
    10030    2    1    2    0    0  0.00000000000E+00  0.00000000000E+00 -0.29226141245E+03  0.23683232724E+04  0.23502209235E+04 0.  0.
        5    1    3    3  502    0  0.93061440979E+03 -0.28030084859E+03  0.51944949313E+03  0.11020261391E+04  0.46999998093E+01 0. -1.
       -5    1    3    3    0  502 -0.93061440979E+03  0.28030084859E+03 -0.81171090557E+03  0.12662971332E+04  0.46999998093E+01 0.  1.
</event>
<event>
 5   0  0.4295775E-05  0.2279540E+04  0.7818609E-02  0.8486032E-01
        1   -1    0    0  501    0  0.00000000000E+00  0.00000000000E+00  0.91027551379E+03  0.91027551380E+03  0.50400001928E-02 0.  1.
       -1   -1    0    0    0  501  0.00000000000E+00  0.00000000000E+00 -0.14271239172E+04  0.14271239172E+04  0.50400001928E-02 0. -1.
    10030    2    1    2    0    0  0.00000000000E+00  0.00000000000E+00 -0.51684840342E+03  0.23373994310E+04  0.22795402668E+04 0.  0.
        5    1    3    3  502    0 -0.48656047970E+03  0.10115217806E+04 -0.46127485125E+03  0.12135542804E+04  0.46999998093E+01 0.  1.
       -5    1    3    3    0  502  0.48656047970E+03 -0.10115217806E+04 -0.55573552173E+02  0.11238451507E+04  0.46999998093E+01 0. -1.
</event>
<event>
 5   0  0.4139830E-05  0.2367943E+04  0.7818609E-02  0.8451604E-01
        1   -1    0    0  501    0  0.00000000000E+00  0.00000000000E+00  0.19937078236E+04  0.19937078236E+04  0.50400001928E-02 0.  1.
       -1   -1    0    0    0  501  0.00000000000E+00  0.00000000000E+00 -0.70310614798E+03  0.70310614800E+03  0.50400001928E-02 0. -1.
    10030    2    1    2    0    0  0.00000000000E+00  0.00000000000E+00  0.12906016756E+04  0.26968139716E+04  0.23679427595E+04 0.  0.
        1    1    3    3  502    0  0.55481749968E+03  0.85713503294E+03  0.13279530739E+04  0.16751006803E+04  0.50400001928E-02 0.  1.
       -1    1    3    3    0  502 -0.55481749968E+03 -0.85713503294E+03 -0.37351398266E+02  0.10217132913E+04  0.50400001928E-02 0. -1.
</event>
<event>
 5   0  0.9312074E-05  0.2319239E+04  0.7818609E-02  0.8470374E-01
        2   -1    0    0  501    0  0.00000000000E+00  0.00000000000E+00  0.12141453583E+04  0.12141453583E+04  0.25500000920E-02 0.  1.
       -2   -1    0    0    0  501  0.00000000000E+00  0.00000000000E+00 -0.11075426832E+04  0.11075426832E+04  0.25500000920E-02 0. -1.
    10030    2    1    2    0    0  0.00000000000E+00  0.00000000000E+00  0.10660267506E+03  0.23216880415E+04  0.23192393649E+04 0.  0.
        4    1    3    3  502    0  0.30595299865E+03  0.85009582202E+03  0.78101180025E+03  0.11942575891E+04  0.12699999809E+01 0.  1.
       -4    1    3    3    0  502 -0.30595299865E+03 -0.85009582202E+03 -0.67440912519E+03  0.11274304524E+04  0.12699999809E+01 0. -1.
</event>
<event>
 5   0  0.4139830E-05  0.2161102E+04  0.7818609E-02  0.8534795E-01
        1   -1    0    0  501    0  0.00000000000E+00  0.00000000000E+00  0.11691528504E+04  0.11691528504E+04  0.50400001928E-02 0.  1.
       -1   -1    0    0    0  501  0.00000000000E+00  0.00000000000E+00 -0.99866339185E+03  0.99866339186E+03  0.50400001928E-02 0. -1.
    10030    2    1    2    0    0  0.00000000000E+00  0.00000000000E+00  0.17048945854E+03  0.21678162423E+04  0.21611017109E+04 0.  0.
        1    1    3    3  502    0  0.79714324479E+03 -0.23519017649E+03  0.77792506752E+03  0.11383844617E+04  0.50400001928E-02 0.  1.
       -1    1    3    3    0  502 -0.79714324479E+03  0.23519017649E+03 -0.60743560898E+03  0.10294317806E+04  0.50400001928E-02 0. -1.
</event>
<event>
 5   0  0.9312074E-05  0.1989542E+04  0.7818609E-02  0.8611526E-01
       -2   -1    0    0    0  501  0.00000000000E+00  0.00000000000E+00  0.52797717792E+03  0.52797717792E+03  0.25500000920E-02 0. -1.
        2   -1    0    0  501    0  0.00000000000E+00  0.00000000000E+00 -0.18742651907E+04  0.18742651907E+04  0.25500000920E-02 0.  1.
    10030    2    1    2    0    0  0.00000000000E+00  0.00000000000E+00 -0.13462880128E+04  0.24022423687E+04  0.19895419031E+04 0.  0.
        4    1    3    3  502    0  0.84485435891E+03  0.28380529172E+03 -0.13962265608E+03  0.90211996451E+03  0.12699999809E+01 0. -1.
       -4    1    3    3    0  502 -0.84485435891E+03 -0.28380529172E+03 -0.12066653568E+04  0.15001224042E+04  0.12699999809E+01 0.  1.
</event>
<event>
 5   0  0.9313463E-05  0.2314516E+04  0.7818609E-02  0.8472220E-01
       -2   -1    0    0    0  501  0.00000000000E+00  0.00000000000E+00  0.16378117032E+04  0.16378117032E+04  0.25500000920E-02 0. -1.
        2   -1    0    0  501    0  0.00000000000E+00  0.00000000000E+00 -0.81770461896E+03  0.81770461897E+03  0.25500000920E-02 0.  1.
    10030    2    1    2    0    0  0.00000000000E+00  0.00000000000E+00  0.82010708420E+03  0.24555163221E+04  0.23145161003E+04 0.  0.
        1    1    3    3  502    0 -0.29030437137E+03 -0.36008984312E+03  0.15354815489E+04  0.16036349055E+04  0.50400001928E-02 0. -1.
       -1    1    3    3    0  502  0.29030437137E+03  0.36008984312E+03 -0.71537446471E+03  0.85188141660E+03  0.50400001928E-02 0.  1.
</event>
<event>
 5   0  0.3885219E-05  0.2169269E+04  0.7818609E-02  0.8531329E-01
       -1   -1    0    0    0  501  0.00000000000E+00  0.00000000000E+00  0.87225098382E+03  0.87225098384E+03  0.50400001928E-02 0.  1.
        1   -1    0    0  501    0  0.00000000000E+00  0.00000000000E+00 -0.13487307159E+04  0.13487307160E+04  0.50400001928E-02 0. -1.
    10030    2    1    2    0    0  0.00000000000E+00  0.00000000000E+00 -0.47647973212E+03  0.22209816998E+04  0.21692687191E+04 0.  0.
        2    1    3    3  502    0 -0.61795002082E+03 -0.85856497474E+03 -0.48361039318E+03  0.11631315732E+04  0.25500000920E-02 0.  1.
       -2    1    3    3    0  502  0.61795002082E+03  0.85856497474E+03  0.71306610560E+01  0.10578501266E+04  0.25500000920E-02 0. -1.
</event>
<event>
 5   0  0.4139830E-05  0.2339197E+04  0.7818609E-02  0.8462625E-01
        1   -1    0    0  501    0  0.00000000000E+00  0.00000000000E+00  0.14040156844E+04  0.14040156844E+04  0.50400001928E-02 0. -1.
       -1   -1    0    0    0  501  0.00000000000E+00  0.00000000000E+00 -0.97432004496E+03  0.97432004497E+03  0.50400001928E-02 0.  1.
    10030    2    1    2    0    0  0.00000000000E+00  0.00000000000E+00  0.42969563943E+03  0.23783357294E+04  0.23391969774E+04 0.  0.
        1    1    3    3  502    0  0.32914256850E+02  0.11256471935E+04 -0.10634233182E+03  0.11311382073E+04  0.50400001928E-02 0. -1.
       -1    1    3    3    0  502 -0.32914256850E+02 -0.11256471935E+04  0.53603797125E+03  0.12471975221E+04  0.50400001928E-02 0.  1.
</event>
<event>
 5   0  0.3261500E-05  0.2290780E+04  0.7818609E-02  0.8481565E-01
        3   -1    0    0  501    0  0.00000000000E+00  0.00000000000E+00  0.11389339257E+04  0.11389339302E+04  0.10100000352E+00 0. -1.
       -3   -1    0    0    0  501  0.00000000000E+00  0.00000000000E+00 -0.11518829395E+04  0.11518829440E+04  0.10100000352E+00 0.  1.
    10030    2    1    2    0    0  0.00000000000E+00  0.00000000000E+00 -0.12949013801E+02  0.22908168742E+04  0.22907802763E+04 0.  0.
        4    1    3    3  502    0 -0.69825484119E+03 -0.35274457206E+03  0.83015609487E+03  0.11406793200E+04  0.12699999809E+01 0. -1.
       -4    1    3    3    0  502  0.69825484119E+03  0.35274457206E+03 -0.84310510867E+03  0.11501375542E+04  0.12699999809E+01 0.  1.
</event>
<event>
 5   0  0.9312074E-05  0.2297964E+04  0.7818609E-02  0.8478724E-01
        2   -1    0    0  501    0  0.00000000000E+00  0.00000000000E+00  0.14636338856E+04  0.14636338856E+04  0.25500000920E-02 0.  1.
       -2   -1    0    0    0  501  0.00000000000E+00  0.00000000000E+00 -0.90197416873E+03  0.90197416874E+03  0.25500000920E-02 0. -1.
    10030    2    1    2    0    0  0.00000000000E+00  0.00000000000E+00  0.56165971691E+03  0.23656080544E+04  0.22979642794E+04 0.  0.
        4    1    3    3  502    0 -0.25792187766E+03 -0.55210616459E+03  0.12835735280E+04  0.14208826575E+04  0.12699999809E+01 0.  1.
       -4    1    3    3    0  502  0.25792187766E+03  0.55210616459E+03 -0.72191381104E+03  0.94472539684E+03  0.12699999809E+01 0. -1.
</event>
<event>
 5   0  0.4005462E-05  0.2253600E+04  0.7818609E-02  0.8496444E-01
       -1   -1    0    0    0  501  0.00000000000E+00  0.00000000000E+00  0.15384426084E+04  0.15384426084E+04  0.50400001928E-02 0.  1.
        1   -1    0    0  501    0  0.00000000000E+00  0.00000000000E+00 -0.82530107373E+03  0.82530107375E+03  0.50400001928E-02 0. -1.
    10030    2    1    2    0    0  0.00000000000E+00  0.00000000000E+00  0.71314153469E+03  0.23637436822E+04  0.22536000858E+04 0.  0.
        4    1    3    3  502    0 -0.13849217074E+03 -0.13747574337E+03 -0.80744229184E+03  0.83068906874E+03  0.12699999809E+01 0. -1.
       -4    1    3    3    0  502  0.13849217074E+03  0.13747574337E+03  0.15205838265E+04  0.15330546134E+04  0.12699999809E+01 0.  1.
</event>
<event>
 5   0  0.9312074E-05  0.2346188E+04  0.7818609E-02  0.8459929E-01
        2   -1    0    0  501    0  0.00000000000E+00  0.00000000000E+00  0.12157664347E+04  0.12157664347E+04  0.25500000920E-02 0.  1.
       -2   -1    0    0    0  501  0.00000000000E+00  0.00000000000E+00 -0.11319195909E+04  0.11319195909E+04  0.25500000920E-02 0. -1.
    10030    2    1    2    0    0  0.00000000000E+00  0.00000000000E+00  0.83846843822E+02  0.23476860256E+04  0.23461882665E+04 0.  0.
        4    1    3    3  502    0  0.90902309692E+03  0.71256253850E+03 -0.16334131828E+03  0.11665120493E+04  0.12699999809E+01 0. -1.
       -4    1    3    3    0  502 -0.90902309692E+03 -0.71256253850E+03  0.24718816210E+03  0.11811739763E+04  0.12699999809E+01 0.  1.
</event>
<event>
 5   0  0.3885219E-05  0.2238747E+04  0.7818609E-02  0.8502472E-01
       -1   -1    0    0    0  501  0.00000000000E+00  0.00000000000E+00  0.12521405434E+04  0.12521405434E+04  0.50400001928E-02 0.  1.
        1   -1    0    0  501    0  0.00000000000E+00  0.00000000000E+00 -0.10006841914E+04  0.10006841914E+04  0.50400001928E-02 0. -1.
    10030    2    1    2    0    0  0.00000000000E+00  0.00000000000E+00  0.25145635198E+03  0.22528247348E+04  0.22387471918E+04 0.  0.
        2    1    3    3  502    0  0.11487015068E+03 -0.63444230021E+03  0.10465148462E+04  0.12291889632E+04  0.25500000920E-02 0.  1.
       -2    1    3    3    0  502 -0.11487015068E+03  0.63444230021E+03 -0.79505849422E+03  0.10236357717E+04  0.25500000920E-02 0. -1.
</event>
<event>
 5   0  0.9313463E-05  0.2337886E+04  0.7818609E-02  0.8463131E-01
       -2   -1    0    0    0  501  0.00000000000E+00  0.00000000000E+00  0.79120331264E+03  0.79120331265E+03  0.25500000920E-02 0.  1.
        2   -1    0    0  501    0  0.00000000000E+00  0.00000000000E+00 -0.17270253236E+04  0.17270253236E+04  0.25500000920E-02 0. -1.
    10030    2    1    2    0    0  0.00000000000E+00  0.00000000000E+00 -0.93582201097E+03  0.25182286363E+04  0.23378863591E+04 0.  0.
        1    1    3    3  502    0 -0.46308474480E+03  0.93581340108E+03 -0.10340333436E+04  0.14694962260E+04  0.50400001928E-02 0. -1.
       -1    1    3    3    0  502  0.46308474480E+03 -0.93581340108E+03  0.98211332608E+02  0.10487324103E+04  0.50400001928E-02 0.  1.
</event>
<event>
 5   0  0.4095451E-05  0.2293466E+04  0.7818609E-02  0.8480502E-01
        1   -1    0    0  501    0  0.00000000000E+00  0.00000000000E+00  0.17072580081E+04  0.17072580081E+04  0.50400001928E-02 0. -1.
       -1   -1    0    0    0  501  0.00000000000E+00  0.00000000000E+00 -0.77023921503E+03  0.77023921505E+03  0.50400001928E-02 0.  1.
    10030    2    1    2    0    0  0.00000000000E+00  0.00000000000E+00  0.93701879309E+03  0.24774972232E+04  0.22934664315E+04 0.  0.
        3    1    3    3  502    0 -0.28139453681E+03 -0.10866292847E+04  0.72196580518E+03  0.13346088273E+04  0.10100000352E+00 0. -1.
       -3    1    3    3    0  502  0.28139453681E+03  0.10866292847E+04  0.21505298791E+03  0.11428883959E+04  0.10100000352E+00 0.  1.
</event>
<event>
 5   0  0.4139830E-05  0.2405802E+04  0.7818609E-02  0.8437335E-01
        1   -1    0    0  501    0  0.00000000000E+00  0.00000000000E+00  0.13006103144E+04  0.13006103145E+04  0.50400001928E-02 0.  1.
       -1   -1    0    0    0  501  0.00000000000E+00  0.00000000000E+00 -0.11125320019E+04  0.11125320019E+04  0.50400001928E-02 0. -1.
    10030    2    1    2    0    0  0.00000000000E+00  0.00000000000E+00  0.18807831253E+03  0.24131423164E+04  0.24058018180E+04 0.  0.
        1    1    3    3  502    0  0.54515931614E+03  0.10921396621E+03 -0.97591332883E+03  0.11231799481E+04  0.50400001928E-02 0. -1.
       -1    1    3    3    0  502 -0.54515931614E+03 -0.10921396621E+03  0.11639916414E+04  0.12899623683E+04  0.50400001928E-02 0.  1.
</event>
<event>
 5   0  0.4095451E-05  0.2219648E+04  0.7818609E-02  0.8510294E-01
        1   -1    0    0  501    0  0.00000000000E+00  0.00000000000E+00  0.16887830594E+04  0.16887830594E+04  0.50400001928E-02 0. -1.
       -1   -1    0    0    0  501  0.00000000000E+00  0.00000000000E+00 -0.72934734114E+03  0.72934734116E+03  0.50400001928E-02 0.  1.
    10030    2    1    2    0    0  0.00000000000E+00  0.00000000000E+00  0.95943571828E+03  0.24181304006E+04  0.22196481110E+04 0.  0.
        3    1    3    3  502    0  0.27884805401E+03 -0.96925046569E+02  0.16452241635E+04  0.16715003022E+04  0.10100000352E+00 0. -1.
       -3    1    3    3    0  502 -0.27884805401E+03  0.96925046569E+02 -0.68578844527E+03  0.74663009834E+03  0.10100000352E+00 0.  1.
</event>
<event>
 5   0  0.9641157E-05  0.2322741E+04  0.7818609E-02  0.8469008E-01
       -2   -1    0    0    0  501  0.00000000000E+00  0.00000000000E+00  0.65644799091E+03  0.65644799092E+03  0.25500000920E-02 0.  1.
        2   -1    0    0  501    0  0.00000000000E+00  0.00000000000E+00 -0.20546663049E+04  0.20546663049E+04  0.25500000920E-02 0. -1.
    10030    2    1    2    0    0  0.00000000000E+00  0.00000000000E+00 -0.13982183140E+04  0.27111142958E+04  0.23227411116E+04 0.  0.
        3    1    3    3  502    0  0.79679253370E+03 -0.81765299732E+03 -0.45055541603E+03  0.12273691209E+04  0.10100000352E+00 0. -1.
       -3    1    3    3    0  502 -0.79679253370E+03  0.81765299732E+03 -0.94766289798E+03  0.14837451750E+04  0.10100000352E+00 0.  1.
</event>
<event>
 5   0  0.9535394E-05  0.2333181E+04  0.7818609E-02  0.8464952E-01
       -2   -1    0    0    0  501  0.00000000000E+00  0.00000000000E+00  0.99329775459E+03  0.99329775460E+03  0.25500000920E-02 0. -1.
        2   -1    0    0  501    0  0.00000000000E+00  0.00000000000E+00 -0.13701166382E+04  0.13701166382E+04  0.25500000920E-02 0.  1.
    10030    2    1    2    0    0  0.00000000000E+00  0.00000000000E+00 -0.37681888363E+03  0.23634143928E+04  0.23331813305E+04 0.  0.
        2    1    3    3  502    0  0.11327307503E+04 -0.21213692175E+03 -0.37201138557E+03  0.12109803868E+04  0.25500000920E-02 0. -1.
       -2    1    3    3    0  502 -0.11327307503E+04  0.21213692175E+03 -0.48074980568E+01  0.11524340060E+04  0.25500000920E-02 0.  1.
</event>
<event>
 5   0  0.4005462E-05  0.2318117E+04  0.7818609E-02  0.8470812E-01
       -1   -1    0    0    0  501  0.00000000000E+00  0.00000000000E+00  0.86540693194E+03  0.86540693196E+03  0.50400001928E-02 0.  1.
        1   -1    0    0  501    0  0.00000000000E+00  0.00000000000E+00 -0.15523522656E+04  0.15523522656E+04  0.50400001928E-02 0. -1.
    10030    2    1    2    0    0  0.00000000000E+00  0.00000000000E+00 -0.68694533363E+03  0.24177591975E+04  0.23181168318E+04 0.  0.
        4    1    3    3  502    0  0.38064646170E+03 -0.11675360158E+03  0.79184408549E+03  0.88630796054E+03  0.12699999809E+01 0.  1.
       -4    1    3    3    0  502 -0.38064646170E+03  0.11675360158E+03 -0.14787894191E+04  0.15314512370E+04  0.12699999809E+01 0. -1.
</event>
<event>
 5   0  0.9313463E-05  0.2277253E+04  0.7818609E-02  0.8486944E-01
       -2   -1    0    0    0  501  0.00000000000E+00  0.00000000000E+00  0.60244497880E+03  0.60244497881E+03  0.25500000920E-02 0. -1.
        2   -1    0    0  501    0  0.00000000000E+00  0.00000000000E+00 -0.21520142534E+04  0.21520142534E+04  0.25500000920E-02 0.  1.
    10030    2    1    2    0    0  0.00000000000E+00  0.00000000000E+00 -0.15495692746E+04  0.27544592322E+04  0.22772528900E+04 0.  0.
        1    1    3    3  502    0 -0.84346727995E+03 -0.60803476616E+03 -0.13360576782E+04  0.16929835938E+04  0.50400001928E-02 0.  1.
       -1    1    3    3    0  502  0.84346727995E+03  0.60803476616E+03 -0.21351159639E+03  0.10614756385E+04  0.50400001928E-02 0. -1.
</event>
<event>
 5   0  0.9483073E-05  0.2333189E+04  0.7818609E-02  0.8464949E-01
       -2   -1    0    0    0  501  0.00000000000E+00  0.00000000000E+00  0.11949664948E+04  0.11949664948E+04  0.25500000920E-02 0.  1.
        2   -1    0    0  501    0  0.00000000000E+00  0.00000000000E+00 -0.11388964551E+04  0.11388964551E+04  0.25500000920E-02 0. -1.
    10030    2    1    2    0    0  0.00000000000E+00  0.00000000000E+00  0.56070039727E+02  0.23338629499E+04  0.23331893236E+04 0.  0.
        5    1    3    3  502    0 -0.41129484214E+02 -0.43340154192E+03 -0.10545863259E+04  0.11409219692E+04  0.46999998093E+01 0. -1.
       -5    1    3    3    0  502  0.41129484214E+02  0.43340154192E+03  0.11106563656E+04  0.11929409807E+04  0.46999998093E+01 0.  1.
</event>
<event>
 5   0  0.4005462E-05  0.2185415E+04  0.7818609E-02  0.8524524E-01
        1   -1    0    0  501    0  0.00000000000E+00  0.00000000000E+00  0.26498002638E+04  0.26498002638E+04  0.50400001928E-02 0. -1.
       -1   -1    0    0    0  501  0.00000000000E+00  0.00000000000E+00 -0.45060346683E+03  0.45060346686E+03  0.50400001928E-02 0.  1.
    10030    2    1    2    0    0  0.00000000000E+00  0.00000000000E+00  0.21991967970E+04  0.31004037307E+04  0.21854145468E+04 0.  0.
        4    1    3    3  502    0  0.50388448983E+03 -0.90366685341E+03  0.60104954502E+03  0.11965682302E+04  0.12699999809E+01 0.  1.
       -4    1    3    3    0  502 -0.50388448983E+03  0.90366685341E+03  0.15981472520E+04  0.19038355005E+04  0.12699999809E+01 0. -1.
</event>
<event>
 5   0  0.9313463E-05  0.2293585E+04  0.7818609E-02  0.8480455E-01
        2   -1    0    0  501    0  0.00000000000E+00  0.00000000000E+00  0.16873020922E+04  0.16873020922E+04  0.25500000920E-02 0.  1.
       -2   -1    0    0    0  501  0.00000000000E+00  0.00000000000E+00 -0.77942928102E+03  0.77942928102E+03  0.25500000920E-02 0. -1.
    10030    2    1    2    0    0  0.00000000000E+00  0.00000000000E+00  0.90787281122E+03  0.24667313733E+04  0.22935846674E+04 0.  0.
        1    1    3    3  502    0 -0.48504129883E+03 -0.53884395377E+03 -0.50168796206E+03  0.88165110978E+03  0.50400001928E-02 0. -1.
       -1    1    3    3    0  502  0.48504129883E+03  0.53884395377E+03  0.14095607733E+04  0.15850802635E+04  0.50400001928E-02 0.  1.
</event>
<event>
 5   0  0.4139830E-05  0.2292642E+04  0.7818609E-02  0.8480828E-01
       -1   -1    0    0    0  501  0.00000000000E+00  0.00000000000E+00  0.16302613717E+04  0.16302613717E+04  0.50400001928E-02 0. -1.
        1   -1    0    0  501    0  0.00000000000E+00  0.00000000000E+00 -0.80603746253E+03  0.80603746254E+03  0.50400001928E-02 0.  1.
    10030    2    1    2    0    0  0.00000000000E+00  0.00000000000E+00  0.82422390913E+03  0.24362988342E+04  0.22926419165E+04 0.  0.
        1    1    3    3  502    0  0.77897077685E+03  0.49096710242E+03  0.11376897616E+04  0.14636195409E+04  0.50400001928E-02 0. -1.
       -1    1    3    3    0  502 -0.77897077685E+03 -0.49096710242E+03 -0.31346585251E+03  0.97267929327E+03  0.50400001928E-02 0.  1.
</event>
<event>
 5   0  0.9313463E-05  0.2332641E+04  0.7818609E-02  0.8465161E-01
       -2   -1    0    0    0  501  0.00000000000E+00  0.00000000000E+00  0.29916028580E+04  0.29916028580E+04  0.25500000920E-02 0.  1.
        2   -1    0    0  501    0  0.00000000000E+00  0.00000000000E+00 -0.45470716249E+03  0.45470716250E+03  0.25500000920E-02 0. -1.
    10030    2    1    2    0    0  0.00000000000E+00  0.00000000000E+00  0.25368956955E+04  0.34463100205E+04  0.23326407755E+04 0.  0.
        1    1    3    3  502    0 -0.10831461712E+02 -0.47120256233E+03 -0.30773649102E+03  0.56289512632E+03  0.50400001928E-02 0. -1.
       -1    1    3    3    0  502  0.10831461712E+02  0.47120256233E+03  0.28446321865E+04  0.28834148942E+04  0.50400001928E-02 0.  1.
</event>
<event>
 5   0  0.4005462E-05  0.2313210E+04  0.7818609E-02  0.8472731E-01
        1   -1    0    0  501    0  0.00000000000E+00  0.00000000000E+00  0.17689893491E+04  0.17689893491E+04  0.50400001928E-02 0.  1.
       -1   -1    0    0    0  501  0.00000000000E+00  0.00000000000E+00 -0.75621447403E+03  0.75621447405E+03  0.50400001928E-02 0. -1.
    10030    2    1    2    0    0  0.00000000000E+00  0.00000000000E+00  0.10127748751E+04  0.25252038232E+04  0.23132101938E+04 0.  0.
        4    1    3    3  502    0  0.72240409404E+03 -0.50464328063E+03  0.13241752699E+04  0.15905892852E+04  0.12699999809E+01 0.  1.
       -4    1    3    3    0  502 -0.72240409404E+03  0.50464328063E+03 -0.31140039485E+03  0.93461453797E+03  0.12699999809E+01 0. -1.
</event>
<event>
 5   0  0.9535394E-05  0.2196064E+04  0.7818609E-02  0.8520068E-01
        2   -1    0    0  501    0  0.00000000000E+00  0.00000000000E+00  0.13115965332E+04  0.13115965332E+04  0.25500000920E-02 0. -1.
       -2   -1    0    0    0  501  0.00000000000E+00  0.00000000000E+00 -0.91924174079E+03  0.91924174079E+03  0.25500000920E-02 0.  1.
    10030    2    1    2    0    0  0.00000000000E+00  0.00000000000E+00  0.39235479238E+03  0.22308382740E+04  0.21960640067E+04 0.  0.
        2    1    3    3  502    0 -0.56280194550E+03  0.43563050019E+03 -0.65321743737E+03  0.96602949388E+03  0.25500000920E-02 0.  1.
       -2    1    3    3    0  502  0.56280194550E+03 -0.43563050019E+03  0.10455722298E+04  0.12648087801E+04  0.25500000920E-02 0. -1.
</event>
<event>
 5   0  0.9535394E-05  0.2355816E+04  0.7818609E-02  0.8456233E-01
       -2   -1    0    0    0  501  0.00000000000E+00  0.00000000000E+00  0.98594237519E+03  0.98594237520E+03  0.25500000920E-02 0. -1.
        2   -1    0    0  501    0  0.00000000000E+00  0.00000000000E+00 -0.14072497984E+04  0.14072497984E+04  0.25500000920E-02 0.  1.
    10030    2    1    2    0    0  0.00000000000E+00  0.00000000000E+00 -0.42130742319E+03  0.23931921736E+04  0.23558159595E+04 0.  0.
        2    1    3    3  502    0 -0.93446105148E+03  0.54876072265E+03  0.25831036577E+03  0.11140377159E+04  0.25500000920E-02 0. -1.
       -2    1    3    3    0  502  0.93446105148E+03 -0.54876072265E+03 -0.67961778896E+03  0.12791544577E+04  0.25500000920E-02 0.  1.
</event>
<event>
 5   0  0.4005462E-05  0.2328787E+04  0.7818609E-02  0.8466657E-01
       -1   -1    0    0    0  501  0.00000000000E+00  0.00000000000E+00  0.15958870152E+04  0.15958870152E+04  0.50400001928E-02 0.  1.
        1   -1    0    0  501    0  0.00000000000E+00  0.00000000000E+00 -0.84956627057E+03  0.84956627059E+03  0.50400001928E-02 0. -1.
    10030    2    1    2    0    0  0.00000000000E+00  0.00000000000E+00  0.74632074460E+03  0.24454532858E+04  0.23287866195E+04 0.  0.
        4    1    3    3  502    0  0.78781670688E+03 -0.83444701952E+03  0.16617343897E+03  0.11595569053E+04  0.12699999809E+01 0. -1.
       -4    1    3    3    0  502 -0.78781670688E+03  0.83444701952E+03  0.58014730563E+03  0.12858963804E+04  0.12699999809E+01 0.  1.
</event>
<event>
 5   0  0.4295775E-05  0.1470690E+04  0.7818609E-02  0.8904181E-01
       -1   -1    0    0    0  501  0.00000000000E+00  0.00000000000E+00  0.50051587997E+03  0.50051587999E+03  0.50400001928E-02 0.  1.
        1   -1    0    0  501    0  0.00000000000E+00  0.00000000000E+00 -0.10803501086E+04  0.10803501086E+04  0.50400001928E-02 0. -1.
    10030    2    1    2    0    0  0.00000000000E+00  0.00000000000E+00 -0.57983422865E+03  0.15808659886E+04  0.14706901581E+04 0.  0.
        5    1    3    3  502    0  0.42790476128E+02 -0.63668494219E+03  0.10284835287E+03  0.64637343243E+03  0.46999998093E+01 0.  1.
       -5    1    3    3    0  502 -0.42790476128E+02  0.63668494219E+03 -0.68268258152E+03  0.93449255619E+03  0.46999998093E+01 0. -1.
</event>
<event>
 5   0  0.3885219E-05  0.2241449E+04  0.7818609E-02  0.8501372E-01
       -1   -1    0    0    0  501  0.00000000000E+00  0.00000000000E+00  0.12126229157E+04  0.12126229157E+04  0.50400001928E-02 0.  1.
        1   -1    0    0  501    0  0.00000000000E+00  0.00000000000E+00 -0.10357902386E+04  0.10357902386E+04  0.50400001928E-02 0. -1.
    10030    2    1    2    0    0  0.00000000000E+00  0.00000000000E+00  0.17683267708E+03  0.22484131543E+04  0.22414486201E+04 0.  0.
        2    1    3    3  502    0  0.48462602336E+02  0.10571433986E+04 -0.28167744752E+03  0.10950995268E+04  0.25500000920E-02 0. -1.
       -2    1    3    3    0  502 -0.48462602336E+02 -0.10571433986E+04  0.45851012460E+03  0.11533136275E+04  0.25500000920E-02 0.  1.
</event>
<event>
 5   0  0.9641157E-05  0.2354973E+04  0.7818609E-02  0.8456556E-01
       -2   -1    0    0    0  501  0.00000000000E+00  0.00000000000E+00  0.17689753076E+04  0.17689753076E+04  0.25500000920E-02 0.  1.
        2   -1    0    0  501    0  0.00000000000E+00  0.00000000000E+00 -0.78377260128E+03  0.78377260128E+03  0.25500000920E-02 0. -1.
    10030    2    1    2    0    0  0.00000000000E+00  0.00000000000E+00  0.98520270630E+03  0.25527479089E+04  0.23549729327E+04 0.  0.
        3    1    3    3  502    0  0.64923545331E+03 -0.67830825205E+03  0.12628126842E+04  0.15736278607E+04  0.10100000352E+00 0.  1.
       -3    1    3    3    0  502 -0.64923545331E+03  0.67830825205E+03 -0.27760997786E+03  0.97912004812E+03  0.10100000352E+00 0. -1.
</event>
<event>
 5   0  0.3885219E-05  0.2277869E+04  0.7818609E-02  0.8486698E-01
        1   -1    0    0  501    0  0.00000000000E+00  0.00000000000E+00  0.98359610431E+03  0.98359610433E+03  0.50400001928E-02 0.  1.
       -1   -1    0    0    0  501  0.00000000000E+00  0.00000000000E+00 -0.13188056643E+04  0.13188056643E+04  0.50400001928E-02 0. -1.
    10030    2    1    2    0    0  0.00000000000E+00  0.00000000000E+00 -0.33520955999E+03  0.23024017686E+04  0.22778692796E+04 0.  0.
        2    1    3    3  502    0  0.66390853817E+03  0.43698881796E+03 -0.99213432544E+03  0.12712451745E+04  0.25500000920E-02 0. -1.
       -2    1    3    3    0  502 -0.66390853817E+03 -0.43698881796E+03  0.65692476545E+03  0.10311565941E+04  0.25500000920E-02 0.  1.
</event>
<event>
 5   0  0.4139830E-05  0.2324850E+04  0.7818609E-02  0.8468187E-01
       -1   -1    0    0    0  501  0.00000000000E+00  0.00000000000E+00  0.68409018590E+03  0.68409018592E+03  0.50400001928E-02 0.  1.
        1   -1    0    0  501    0  0.00000000000E+00  0.00000000000E+00 -0.19752251978E+04  0.19752251978E+04  0.50400001928E-02 0. -1.
    10030    2    1    2    0    0  0.00000000000E+00  0.00000000000E+00 -0.12911350119E+04  0.26593153838E+04  0.23248502514E+04 0.  0.
        1    1    3    3  502    0  0.72503030728E+03  0.85126658466E+03 -0.28220627993E+03  0.11532407074E+04  0.50400001928E-02 0.  1.
       -1    1    3    3    0  502 -0.72503030728E+03 -0.85126658466E+03 -0.10089287320E+04  0.15060746764E+04  0.50400001928E-02 0. -1.
</event>
<event>
 5   0  0.9313463E-05  0.2358716E+04  0.7818609E-02  0.8455123E-01
        2   -1    0    0  501    0  0.00000000000E+00  0.00000000000E+00  0.12969547120E+04  0.12969547120E+04  0.25500000920E-02 0. -1.
       -2   -1    0    0    0  501  0.00000000000E+00  0.00000000000E+00 -0.10724241994E+04  0.10724241994E+04  0.25500000920E-02 0.  1.
    10030    2    1    2    0    0  0.00000000000E+00  0.00000000000E+00  0.22453051265E+03  0.23693789114E+04  0.23587162768E+04 0.  0.
        1    1    3    3  502    0 -0.56287790023E+03 -0.84486093928E+03  0.71519859305E+03  0.12418254969E+04  0.50400001928E-02 0.  1.
       -1    1    3    3    0  502  0.56287790023E+03  0.84486093928E+03 -0.49066808040E+03  0.11275534144E+04  0.50400001928E-02 0. -1.
</event>
<event>
 5   0  0.4295775E-05  0.2198594E+04  0.7818609E-02  0.8519013E-01
       -1   -1    0    0    0  501  0.00000000000E+00  0.00000000000E+00  0.73139798896E+03  0.73139798898E+03  0.50400001928E-02 0. -1.
        1   -1    0    0  501    0  0.00000000000E+00  0.00000000000E+00 -0.16522523083E+04  0.16522523083E+04  0.50400001928E-02 0.  1.
    10030    2    1    2    0    0  0.00000000000E+00  0.00000000000E+00 -0.92085431933E+03  0.23836502973E+04  0.21985941104E+04 0.  0.
        5    1    3    3  502    0  0.84988519044E+03  0.14062228454E+03  0.27995273611E+03  0.90580079945E+03  0.46999998093E+01 0. -1.
       -5    1    3    3    0  502 -0.84988519044E+03 -0.14062228454E+03 -0.12008070554E+04  0.14778494978E+04  0.46999998093E+01 0.  1.
</event>
<event>
 5   0  0.4295775E-05  0.2095630E+04  0.7818609E-02  0.8563171E-01
       -1   -1    0    0    0  501  0.00000000000E+00  0.00000000000E+00  0.81805378890E+03  0.81805378891E+03  0.50400001928E-02 0.  1.
        1   -1    0    0  501    0  0.00000000000E+00  0.00000000000E+00 -0.13421082491E+04  0.13421082491E+04  0.50400001928E-02 0. -1.
    10030    2    1    2    0    0  0.00000000000E+00  0.00000000000E+00 -0.52405446024E+03  0.21601620381E+04  0.20956304429E+04 0.  0.
        5    1    3    3  502    0  0.97279991553E+03 -0.17305807591E+03  0.97431395534E+02  0.99287649792E+03  0.46999998093E+01 0.  1.
       -5    1    3    3    0  502 -0.97279991553E+03  0.17305807591E+03 -0.62148585577E+03  0.11672855401E+04  0.46999998093E+01 0. -1.
</event>
<event>
 5   0  0.9535394E-05  0.2276799E+04  0.7818609E-02  0.8487126E-01
        2   -1    0    0  501    0  0.00000000000E+00  0.00000000000E+00  0.18794423086E+04  0.18794423086E+04  0.25500000920E-02 0. -1.
       -2   -1    0    0    0  501  0.00000000000E+00  0.00000000000E+00 -0.68954122360E+03  0.68954122360E+03  0.25500000920E-02 0.  1.
    10030    2    1    2    0    0  0.00000000000E+00  0.00000000000E+00  0.11899010850E+04  0.25689835322E+04  0.22767985850E+04 0.  0.
        2    1    3    3  502    0  0.45552102086E+03 -0.63013428692E+03 -0.34325171440E+03  0.84993550311E+03  0.25500000920E-02 0.  1.
       -2    1    3    3    0  502 -0.45552102086E+03  0.63013428692E+03  0.15331527994E+04  0.17190480291E+04  0.25500000920E-02 0. -1.
</event>
<event>
 5   0  0.9535394E-05  0.2305806E+04  0.7818609E-02  0.8475635E-01
       -2   -1    0    0    0  501  0.00000000000E+00  0.00000000000E+00  0.95706979519E+03  0.95706979519E+03  0.25500000920E-02 0. -1.
        2   -1    0    0  501    0  0.00000000000E+00  0.00000000000E+00 -0.13888073808E+04  0.13888073808E+04  0.25500000920E-02 0.  1.
    10030    2    1    2    0    0  0.00000000000E+00  0.00000000000E+00 -0.43173758560E+03  0.23458771760E+04  0.23058062325E+04 0.  0.
        2    1    3    3  502    0 -0.61954563887E+03  0.10279155251E+03  0.76777485744E+03  0.99190782517E+03  0.25500000920E-02 0. -1.
       -2    1    3    3    0  502  0.61954563887E+03 -0.10279155251E+03 -0.11995124430E+04  0.13539693508E+04  0.25500000920E-02 0.  1.
</event>
<event>
 5   0  0.4095451E-05  0.2300757E+04  0.7818609E-02  0.8477623E-01
        1   -1    0    0  501    0  0.00000000000E+00  0.00000000000E+00  0.73915017734E+03  0.73915017735E+03  0.50400001928E-02 0.  1.
       -1   -1    0    0    0  501  0.00000000000E+00  0.00000000000E+00 -0.17903953495E+04  0.17903953495E+04  0.50400001928E-02 0. -1.
    10030    2    1    2    0    0  0.00000000000E+00  0.00000000000E+00 -0.10512451721E+04  0.25295455268E+04  0.23007573015E+04 0.  0.
        3    1    3    3  502    0  0.48934332408E+03 -0.10317751922E+04 -0.67857562602E+03  0.13283379940E+04  0.10100000352E+00 0. -1.
       -3    1    3    3    0  502 -0.48934332408E+03  0.10317751922E+04 -0.37266954609E+03  0.12012075328E+04  0.10100000352E+00 0.  1.
</event>
<event>
 5   0  0.9483073E-05  0.2240491E+04  0.7818609E-02  0.8501761E-01
        2   -1    0    0  501    0  0.00000000000E+00  0.00000000000E+00  0.11378423215E+04  0.11378423215E+04  0.25500000920E-02 0.  1.
       -2   -1    0    0    0  501  0.00000000000E+00  0.00000000000E+00 -0.11029206018E+04  0.11029206018E+04  0.25500000920E-02 0. -1.
    10030    2    1    2    0    0  0.00000000000E+00  0.00000000000E+00  0.34921719715E+02  0.22407629233E+04  0.22404907837E+04 0.  0.
        5    1    3    3  502    0  0.80676452899E+03 -0.57122807744E+02  0.79266508254E+03  0.11324628221E+04  0.46999998093E+01 0.  1.
       -5    1    3    3    0  502 -0.80676452899E+03  0.57122807744E+02 -0.75774336283E+03  0.11083001012E+04  0.46999998093E+01 0. -1.
</event>
<event>
 5   0  0.4005462E-05  0.2275452E+04  0.7818609E-02  0.8487663E-01
        1   -1    0    0  501    0  0.00000000000E+00  0.00000000000E+00  0.20985631707E+04  0.20985631707E+04  0.50400001928E-02 0.  1.
       -1   -1    0    0    0  501  0.00000000000E+00  0.00000000000E+00 -0.61681293697E+03  0.61681293699E+03  0.50400001928E-02 0. -1.
    10030    2    1    2    0    0  0.00000000000E+00  0.00000000000E+00  0.14817502337E+04  0.27153761077E+04  0.22754524058E+04 0.  0.
        4    1    3    3  502    0  0.67384136104E+03  0.86651866483E+03  0.38386553164E+03  0.11628719343E+04  0.12699999809E+01 0. -1.
       -4    1    3    3    0  502 -0.67384136104E+03 -0.86651866483E+03  0.10978847021E+04  0.15525041734E+04  0.12699999809E+01 0.  1.
</event>
<event>
 5   0  0.9535394E-05  0.1960997E+04  0.7818609E-02  0.8625076E-01
        2   -1    0    0  501    0  0.00000000000E+00  0.00000000000E+00  0.81485207267E+03  0.81485207268E+03  0.25500000920E-02 0.  1.
       -2   -1    0    0    0  501  0.00000000000E+00  0.00000000000E+00 -0.11798185897E+04  0.11798185897E+04  0.25500000920E-02 0. -1.
    10030    2    1    2    0    0  0.00000000000E+00  0.00000000000E+00 -0.36496651706E+03  0.19946706624E+04  0.19609973210E+04 0.  0.
        2    1    3    3  502    0 -0.86517120739E+02  0.60443295038E+03  0.59786249187E+03  0.85455483316E+03  0.25500000920E-02 0.  1.
       -2    1    3    3    0  502  0.86517120739E+02 -0.60443295038E+03 -0.96282900892E+03  0.11401158293E+04  0.25500000920E-02 0. -1.
</event>
<event>
 5   0  0.4095451E-05  0.2350401E+04  0.7818609E-02  0.8458310E-01
       -1   -1    0    0    0  501  0.00000000000E+00  0.00000000000E+00  0.87692420646E+03  0.87692420648E+03  0.50400001928E-02 0. -1.
        1   -1    0    0  501    0  0.00000000000E+00  0.00000000000E+00 -0.15749319138E+04  0.15749319138E+04  0.50400001928E-02 0.  1.
    10030    2    1    2    0    0  0.00000000000E+00  0.00000000000E+00 -0.69800770729E+03  0.24518561202E+04  0.23504007477E+04 0.  0.
        3    1    3    3  502    0 -0.93024551349E+03  0.70455184761E+02 -0.10945387761E+04  0.14381709881E+04  0.10100000352E+00 0.  1.
       -3    1    3    3    0  502  0.93024551349E+03 -0.70455184761E+02  0.39653106880E+03  0.10136851322E+04  0.10100000352E+00 0. -1.
</event>
<event>
 5   0  0.4295775E-05  0.2255292E+04  0.7818609E-02  0.8495760E-01
       -1   -1    0    0    0  501  0.00000000000E+00  0.00000000000E+00  0.81608549459E+03  0.81608549461E+03  0.50400001928E-02 0. -1.
        1   -1    0    0  501    0  0.00000000000E+00  0.00000000000E+00 -0.15581525656E+04  0.15581525656E+04  0.50400001928E-02 0.  1.
    10030    2    1    2    0    0  0.00000000000E+00  0.00000000000E+00 -0.74206707102E+03  0.23742380602E+04  0.22552921826E+04 0.  0.
        5    1    3    3  502    0  0.10870994063E+04  0.19636469188E+03 -0.13278035013E+03  0.11126531009E+04  0.46999998093E+01 0. -1.
       -5    1    3    3    0  502 -0.10870994063E+04 -0.19636469188E+03 -0.60928672089E+03  0.12615849594E+04  0.46999998093E+01 0.  1.
</event>
<event>
 5   0  0.3885219E-05  0.2320580E+04  0.7818609E-02  0.8469851E-01
        1   -1    0    0  501    0  0.00000000000E+00  0.00000000000E+00  0.12288672229E+04  0.12288672229E+04  0.50400001928E-02 0.  1.
       -1   -1    0    0    0  501  0.00000000000E+00  0.00000000000E+00 -0.10955396258E+04  0.10955396259E+04  0.50400001928E-02 0. -1.
    10030    2    1    2    0    0  0.00000000000E+00  0.00000000000E+00  0.13332759701E+03  0.23244068487E+04  0.23205798737E+04 0.  0.
        2    1    3    3  502    0  0.93226212557E+03  0.62343791664E+02 -0.62241935988E+03  0.11226777270E+04  0.25500000920E-02 0. -1.
       -2    1    3    3    0  502 -0.93226212557E+03 -0.62343791664E+02  0.75574695690E+03  0.12017291217E+04  0.25500000920E-02 0.  1.
</event>
<event>
 5   0  0.4295775E-05  0.2408648E+04  0.7818609E-02  0.8436273E-01
       -1   -1    0    0    0  501  0.00000000000E+00  0.00000000000E+00  0.10606216830E+04  0.10606216830E+04  0.50400001928E-02 0. -1.
        1   -1    0    0  501    0  0.00000000000E+00  0.00000000000E+00 -0.13674964958E+04  0.13674964958E+04  0.50400001928E-02 0.  1.
    10030    2    1    2    0    0  0.00000000000E+00  0.00000000000E+00 -0.30687481274E+03  0.24281181788E+04  0.24086481145E+04 0.  0.
        5    1    3    3  502    0  0.11658203916E+04 -0.21479466240E+03 -0.36752264319E+03  0.12411159961E+04  0.46999998093E+01 0. -1.
       -5    1    3    3    0  502 -0.11658203916E+04  0.21479466240E+03  0.60647830445E+02  0.11870021827E+04  0.46999998093E+01 0.  1.
</event>
<event>
 5   0  0.9535394E-05  0.2324731E+04  0.7818609E-02  0.8468233E-01
       -2   -1    0    0    0  501  0.00000000000E+00  0.00000000000E+00  0.70851444842E+03  0.70851444842E+03  0.25500000920E-02 0.  1.
        2   -1    0    0  501    0  0.00000000000E+00  0.00000000000E+00 -0.19069389870E+04  0.19069389870E+04  0.25500000920E-02 0. -1.
    10030    2    1    2    0    0  0.00000000000E+00  0.00000000000E+00 -0.11984245386E+04  0.26154534354E+04  0.23247312314E+04 0.  0.
        2    1    3    3  502    0  0.19175922655E+03  0.74383764203E+03  0.38225201255E+03  0.85801086226E+03  0.25500000920E-02 0.  1.
       -2    1    3    3    0  502 -0.19175922655E+03 -0.74383764203E+03 -0.15806765511E+04  0.17574425731E+04  0.25500000920E-02 0. -1.
</event>
<event>
 5   0  0.9535394E-05  0.2103352E+04  0.7818609E-02  0.8559768E-01
        2   -1    0    0  501    0  0.00000000000E+00  0.00000000000E+00  0.15619399132E+04  0.15619399132E+04  0.25500000920E-02 0.  1.
       -2   -1    0    0    0  501  0.00000000000E+00  0.00000000000E+00 -0.70810818296E+03  0.70810818296E+03  0.25500000920E-02 0. -1.
    10030    2    1    2    0    0  0.00000000000E+00  0.00000000000E+00  0.85383173022E+03  0.22700480961E+04  0.21033520236E+04 0.  0.
        2    1    3    3  502    0 -0.77272313383E+03  0.65886715899E+03  0.13171422390E+03  0.10239900446E+04  0.25500000920E-02 0. -1.
       -2    1    3    3    0  502  0.77272313383E+03 -0.65886715899E+03  0.72211750632E+03  0.12460580515E+04  0.25500000920E-02 0.  1.
</event>
<event>
 5   0  0.4005462E-05  0.2275445E+04  0.7818609E-02  0.8487666E-01
       -1   -1    0    0    0  501  0.00000000000E+00  0.00000000000E+00  0.86538020863E+03  0.86538020865E+03  0.50400001928E-02 0. -1.
        1   -1    0    0  501    0  0.00000000000E+00  0.00000000000E+00 -0.14957737938E+04  0.14957737938E+04  0.50400001928E-02 0.  1.
    10030    2    1    2    0    0  0.00000000000E+00  0.00000000000E+00 -0.63039358519E+03  0.23611540025E+04  0.22754454841E+04 0.  0.
        4    1    3    3  502    0 -0.31995025423E+03 -0.53998102523E+03 -0.12998674507E+04  0.14434696655E+04  0.12699999809E+01 0.  1.
       -4    1    3    3    0  502  0.31995025423E+03  0.53998102523E+03  0.66947386555E+03  0.91768433699E+03  0.12699999809E+01 0. -1.
</event>
<event>
 5   0  0.9312074E-05  0.2318160E+04  0.7818609E-02  0.8470795E-01
        2   -1    0    0  501    0  0.00000000000E+00  0.00000000000E+00  0.16367785181E+04  0.16367785181E+04  0.25500000920E-02 0. -1.
       -2   -1    0    0    0  501  0.00000000000E+00  0.00000000000E+00 -0.82079933387E+03  0.82079933387E+03  0.25500000920E-02 0.  1.
    10030    2    1    2    0    0  0.00000000000E+00  0.00000000000E+00  0.81597918427E+03  0.24575778520E+04  0.23181602338E+04 0.  0.
        4    1    3    3  502    0 -0.93551284725E+02 -0.34185744396E+03 -0.76194115141E+03  0.84034176736E+03  0.12699999809E+01 0.  1.
       -4    1    3    3    0  502  0.93551284725E+02  0.34185744396E+03  0.15779203357E+04  0.16172360847E+04  0.12699999809E+01 0. -1.
</event>
<event>
 5   0  0.3261500E-05  0.2303935E+04  0.7818609E-02  0.8476371E-01
        3   -1    0    0  501    0  0.00000000000E+00  0.00000000000E+00  0.80780295056E+03  0.80780295687E+03  0.10100000352E+00 0. -1.
       -3   -1    0    0    0  501  0.00000000000E+00  0.00000000000E+00 -0.16427637862E+04  0.16427637893E+04  0.10100000352E+00 0.  1.
    10030    2    1    2    0    0  0.00000000000E+00  0.00000000000E+00 -0.83496083566E+03  0.24505667462E+04  0.23039352813E+04 0.  0.
        4    1    3    3  502    0  0.11243029649E+04  0.22734906209E+03 -0.53046263206E+03  0.12637788453E+04  0.12699999809E+01 0.  1.
       -4    1    3    3    0  502 -0.11243029649E+04 -0.22734906209E+03 -0.30449820359E+03  0.11867879009E+04  0.12699999809E+01 0. -1.
</event>
<event>
 5   0  0.4295775E-05  0.1958322E+04  0.7818609E-02  0.8626358E-01
        1   -1    0    0  501    0  0.00000000000E+00  0.00000000000E+00  0.22885288303E+04  0.22885288303E+04  0.50400001928E-02 0.  1.
       -1   -1    0    0    0  501  0.00000000000E+00  0.00000000000E+00 -0.41894008094E+03  0.41894008097E+03  0.50400001928E-02 0. -1.
    10030    2    1    2    0    0  0.00000000000E+00  0.00000000000E+00  0.18695887493E+04  0.27074689112E+04  0.19583221935E+04 0.  0.
        5    1    3    3  502    0  0.69627854928E+03 -0.61303298665E+03  0.50172193903E+03  0.10546849079E+04  0.46999998093E+01 0.  1.
       -5    1    3    3    0  502 -0.69627854928E+03  0.61303298665E+03  0.13678668103E+04  0.16527840033E+04  0.46999998093E+01 0. -1.
</event>
<event>
 5   0  0.4095451E-05  0.2295830E+04  0.7818609E-02  0.8479567E-01
       -1   -1    0    0    0  501  0.00000000000E+00  0.00000000000E+00  0.13754448759E+04  0.13754448759E+04  0.50400001928E-02 0.  1.
        1   -1    0    0  501    0  0.00000000000E+00  0.00000000000E+00 -0.95802347943E+03  0.95802347944E+03  0.50400001928E-02 0. -1.
    10030    2    1    2    0    0  0.00000000000E+00  0.00000000000E+00  0.41742139646E+03  0.23334683553E+04  0.22958296851E+04 0.  0.
        3    1    3    3  502    0  0.69170771201E+03  0.11809617103E+03 -0.71464440330E+03  0.10015602318E+04  0.10100000352E+00 0. -1.
       -3    1    3    3    0  502 -0.69170771201E+03 -0.11809617103E+03  0.11320657998E+04  0.13319081236E+04  0.10100000352E+00 0.  1.
</event>
<event>
 5   0  0.9535394E-05  0.2308295E+04  0.7818609E-02  0.8474658E-01
       -2   -1    0    0    0  501  0.00000000000E+00  0.00000000000E+00  0.85095470641E+03  0.85095470641E+03  0.25500000920E-02 0.  1.
        2   -1    0    0  501    0  0.00000000000E+00  0.00000000000E+00 -0.15653666596E+04  0.15653666596E+04  0.25500000920E-02 0. -1.
    10030    2    1    2    0    0  0.00000000000E+00  0.00000000000E+00 -0.71441195319E+03  0.24163213660E+04  0.23082947180E+04 0.  0.
        2    1    3    3  502    0 -0.66144962836E+03  0.84996321186E+03  0.77061919503E+02  0.10797646094E+04  0.25500000920E-02 0.  1.
       -2    1    3    3    0  502  0.66144962836E+03 -0.84996321186E+03 -0.79147387269E+03  0.13365567566E+04  0.25500000920E-02 0. -1.
</event>
<event>
 5   0  0.4139830E-05  0.2294222E+04  0.7818609E-02  0.8480203E-01
       -1   -1    0    0    0  501  0.00000000000E+00  0.00000000000E+00  0.70830091591E+03  0.70830091593E+03  0.50400001928E-02 0. -1.
        1   -1    0    0  501    0  0.00000000000E+00  0.00000000000E+00 -0.18577753859E+04  0.18577753859E+04  0.50400001928E-02 0.  1.
    10030    2    1    2    0    0  0.00000000000E+00  0.00000000000E+00 -0.11494744700E+04  0.25660763018E+04  0.22942223148E+04 0.  0.
        1    1    3    3  502    0  0.72864274746E+02  0.79995389203E+03  0.34121978118E+03  0.87273499471E+03  0.50400001928E-02 0. -1.
       -1    1    3    3    0  502 -0.72864274746E+02 -0.79995389203E+03 -0.14906942512E+04  0.16933413071E+04  0.50400001928E-02 0.  1.
</event>
<event>
 5   0  0.9535394E-05  0.2262380E+04  0.7818609E-02  0.8492904E-01
        2   -1    0    0  501    0  0.00000000000E+00  0.00000000000E+00  0.11843209825E+04  0.11843209825E+04  0.25500000920E-02 0.  1.
       -2   -1    0    0    0  501  0.00000000000E+00  0.00000000000E+00 -0.10804422391E+04  0.10804422391E+04  0.25500000920E-02 0. -1.
    10030    2    1    2    0    0  0.00000000000E+00  0.00000000000E+00  0.10387874345E+03  0.22647632216E+04  0.22623796447E+04 0.  0.
        2    1    3    3  502    0 -0.46964743517E+03 -0.95277968488E+03 -0.33735667135E+03  0.11145256233E+04  0.25500000920E-02 0. -1.
       -2    1    3    3    0  502  0.46964743517E+03  0.95277968488E+03  0.44123541480E+03  0.11502375983E+04  0.25500000920E-02 0.  1.
</event>
<event>
 5   0  0.9535394E-05  0.2247016E+04  0.7818609E-02  0.8499110E-01
       -2   -1    0    0    0  501  0.00000000000E+00  0.00000000000E+00  0.81543947194E+03  0.81543947195E+03  0.25500000920E-02 0.  1.
        2   -1    0    0  501    0  0.00000000000E+00  0.00000000000E+00 -0.15479627384E+04  0.15479627384E+04  0.25500000920E-02 0. -1.
    10030    2    1    2    0    0  0.00000000000E+00  0.00000000000E+00 -0.73252326650E+03  0.23634022104E+04  0.22470157258E+04 0.  0.
        2    1    3    3  502    0 -0.68943361587E+02 -0.53892822899E+03 -0.14005965268E+04  0.15022874072E+04  0.25500000920E-02 0. -1.
       -2    1    3    3    0  502  0.68943361587E+02  0.53892822899E+03  0.66807326028E+03  0.86111480315E+03  0.25500000920E-02 0.  1.
</event>
<event>
 5   0  0.4095451E-05  0.2209316E+04  0.7818609E-02  0.8514561E-01
       -1   -1    0    0    0  501  0.00000000000E+00  0.00000000000E+00  0.74682972992E+03  0.74682972994E+03  0.50400001928E-02 0. -1.
        1   -1    0    0  501    0  0.00000000000E+00  0.00000000000E+00 -0.16339324578E+04  0.16339324578E+04  0.50400001928E-02 0.  1.
    10030    2    1    2    0    0  0.00000000000E+00  0.00000000000E+00 -0.88710272783E+03  0.23807621877E+04  0.22093160355E+04 0.  0.
        3    1    3    3  502    0 -0.67375457922E+03  0.16945554391E+03  0.48193761013E+03  0.84553195365E+03  0.10100000352E+00 0. -1.
       -3    1    3    3    0  502  0.67375457922E+03 -0.16945554391E+03 -0.13690403380E+04  0.15352302340E+04  0.10100000352E+00 0.  1.
</event>
<event>
 5   0  0.4139830E-05  0.2313115E+04  0.7818609E-02  0.8472768E-01
        1   -1    0    0  501    0  0.00000000000E+00  0.00000000000E+00  0.13841461245E+04  0.13841461246E+04  0.50400001928E-02 0.  1.
       -1   -1    0    0    0  501  0.00000000000E+00  0.00000000000E+00 -0.96638998499E+03  0.96638998501E+03  0.50400001928E-02 0. -1.
    10030    2    1    2    0    0  0.00000000000E+00  0.00000000000E+00  0.41775613955E+03  0.23505361096E+04  0.23131147421E+04 0.  0.
        1    1    3    3  502    0  0.15354153624E+03 -0.10435227627E+03 -0.95115057442E+03  0.96909845535E+03  0.50400001928E-02 0. -1.
       -1    1    3    3    0  502 -0.15354153624E+03  0.10435227627E+03  0.13689067140E+04  0.13814376542E+04  0.50400001928E-02 0.  1.
</event>
<event>
 5   0  0.4095451E-05  0.2285438E+04  0.7818609E-02  0.8483685E-01
       -1   -1    0    0    0  501  0.00000000000E+00  0.00000000000E+00  0.89943492219E+03  0.89943492220E+03  0.50400001928E-02 0. -1.
        1   -1    0    0  501    0  0.00000000000E+00  0.00000000000E+00 -0.14518082528E+04  0.14518082528E+04  0.50400001928E-02 0.  1.
    10030    2    1    2    0    0  0.00000000000E+00  0.00000000000E+00 -0.55237333064E+03  0.23512431750E+04  0.22854382888E+04 0.  0.
        3    1    3    3  502    0  0.10978030478E+04 -0.64750609525E+02 -0.59568094602E+03  0.12506798043E+04  0.10100000352E+00 0.  1.
       -3    1    3    3    0  502 -0.10978030478E+04  0.64750609525E+02  0.43307615376E+02  0.11005633707E+04  0.10100000352E+00 0. -1.
</event>
<event>
 5   0  0.3261500E-05  0.2322747E+04  0.7818609E-02  0.8469006E-01
       -3   -1    0    0    0  501  0.00000000000E+00  0.00000000000E+00  0.12504112829E+04  0.12504112869E+04  0.10100000352E+00 0. -1.
        3   -1    0    0  501    0  0.00000000000E+00  0.00000000000E+00 -0.10786757987E+04  0.10786758034E+04  0.10100000352E+00 0.  1.
    10030    2    1    2    0    0  0.00000000000E+00  0.00000000000E+00  0.17173548416E+03  0.23290870904E+04  0.23227469940E+04 0.  0.
        2    1    3    3  502    0 -0.40835740380E+03 -0.10809804377E+04  0.20243445565E+03  0.11731386042E+04  0.25500000920E-02 0. -1.
       -2    1    3    3    0  502  0.40835740380E+03  0.10809804377E+04 -0.30698971495E+02  0.11559484862E+04  0.25500000920E-02 0.  1.
</event>
<event>
 5   0  0.4005462E-05  0.2331930E+04  0.7818609E-02  0.8465437E-01
        1   -1    0    0  501    0  0.00000000000E+00  0.00000000000E+00  0.62157836698E+03  0.62157836700E+03  0.50400001928E-02 0.  1.
       -1   -1    0    0    0  501  0.00000000000E+00  0.00000000000E+00 -0.21871333536E+04  0.21871333536E+04  0.50400001928E-02 0. -1.
    10030    2    1    2    0    0  0.00000000000E+00  0.00000000000E+00 -0.15655549866E+04  0.28087117206E+04  0.23319303406E+04 0.  0.
        4    1    3    3  502    0 -0.48978209740E+03  0.18025265365E+03 -0.20385919294E+04  0.21043374705E+04  0.12699999809E+01 0. -1.
       -4    1    3    3    0  502  0.48978209740E+03 -0.18025265365E+03  0.47303694279E+03  0.70437425012E+03  0.12699999809E+01 0.  1.
</event>
<event>
 5   0  0.4005462E-05  0.2175879E+04  0.7818609E-02  0.8528535E-01
        1   -1    0    0  501    0  0.00000000000E+00  0.00000000000E+00  0.18087751936E+04  0.18087751936E+04  0.50400001928E-02 0. -1.
       -1   -1    0    0    0  501  0.00000000000E+00  0.00000000000E+00 -0.65437247698E+03  0.65437247700E+03  0.50400001928E-02 0.  1.
    10030    2    1    2    0    0  0.00000000000E+00  0.00000000000E+00  0.11544027166E+04  0.24631476706E+04  0.21758793200E+04 0.  0.
        4    1    3    3  502    0  0.58867748415E+03  0.56044369109E+03  0.13958455545E+04  0.16152475773E+04  0.12699999809E+01 0. -1.
       -4    1    3    3    0  502 -0.58867748415E+03 -0.56044369109E+03 -0.24144283790E+03  0.84790009323E+03  0.12699999809E+01 0.  1.
</event>
<event>
 5   0  0.9313463E-05  0.2091544E+04  0.7818609E-02  0.8564977E-01
       -2   -1    0    0    0  501  0.00000000000E+00  0.00000000000E+00  0.59047032618E+03  0.59047032619E+03  0.25500000920E-02 0.  1.
        2   -1    0    0  501    0  0.00000000000E+00  0.00000000000E+00 -0.18521495838E+04  0.18521495838E+04  0.25500000920E-02 0. -1.
    10030    2    1    2    0    0  0.00000000000E+00  0.00000000000E+00 -0.12616792576E+04  0.24426199100E+04  0.20915442801E+04 0.  0.
        1    1    3    3  502    0  0.26726658767E+03  0.23361425547E+03 -0.17796385316E+04  0.18146956639E+04  0.50400001928E-02 0. -1.
       -1    1    3    3    0  502 -0.26726658767E+03 -0.23361425547E+03  0.51795927403E+03  0.62792424609E+03  0.50400001928E-02 0.  1.
</event>
<event>
 5   0  0.9641157E-05  0.2276791E+04  0.7818609E-02  0.8487129E-01
        2   -1    0    0  501    0  0.00000000000E+00  0.00000000000E+00  0.11191160245E+04  0.11191160245E+04  0.25500000920E-02 0. -1.
       -2   -1    0    0    0  501  0.00000000000E+00  0.00000000000E+00 -0.11580070700E+04  0.11580070700E+04  0.25500000920E-02 0.  1.
    10030    2    1    2    0    0  0.00000000000E+00  0.00000000000E+00 -0.38891045569E+02  0.22771230945E+04  0.22767909597E+04 0.  0.
        3    1    3    3  502    0 -0.69575644875E+03  0.33798910322E+03  0.81591915322E+03  0.11242943319E+04  0.10100000352E+00 0. -1.
       -3    1    3    3    0  502  0.69575644875E+03 -0.33798910322E+03 -0.85481019879E+03  0.11528287627E+04  0.10100000352E+00 0.  1.
</event>
<event>
 5   0  0.4295775E-05  0.2258465E+04  0.7818609E-02  0.8494480E-01
       -1   -1    0    0    0  501  0.00000000000E+00  0.00000000000E+00  0.25919560456E+04  0.25919560456E+04  0.50400001928E-02 0.  1.
        1   -1    0    0  501    0  0.00000000000E+00  0.00000000000E+00 -0.49197062566E+03  0.49197062569E+03  0.50400001928E-02 0. -1.
    10030    2    1    2    0    0  0.00000000000E+00  0.00000000000E+00  0.20999854199E+04  0.30839266713E+04  0.22584651757E+04 0.  0.
        5    1    3    3  502    0 -0.48317813971E+03  0.10205705774E+04  0.10351138551E+04  0.15318316491E+04  0.46999998093E+01 0.  1.
       -5    1    3    3    0  502  0.48317813971E+03 -0.10205705774E+04  0.10648715648E+04  0.15520950222E+04  0.46999998093E+01 0. -1.
</event>
<event>
 5   0  0.9535394E-05  0.2290663E+04  0.7818609E-02  0.8481612E-01
        2   -1    0    0  501    0  0.00000000000E+00  0.00000000000E+00  0.21023540015E+04  0.21023540015E+04  0.25500000920E-02 0. -1.
       -2   -1    0    0    0  501  0.00000000000E+00  0.00000000000E+00 -0.62395958229E+03  0.62395958230E+03  0.25500000920E-02 0.  1.
    10030    2    1    2    0    0  0.00000000000E+00  0.00000000000E+00  0.14783944192E+04  0.27263135838E+04  0.22906627204E+04 0.  0.
        2    1    3    3  502    0  0.80043622392E+02 -0.47069297928E+03  0.19782626793E+04  0.20350631663E+04  0.25500000920E-02 0. -1.
       -2    1    3    3    0  502 -0.80043622392E+02  0.47069297928E+03 -0.49986826014E+03  0.69125041752E+03  0.25500000920E-02 0.  1.
</event>
<event>
 5   0  0.9312074E-05  0.2239451E+04  0.7818609E-02  0.8502185E-01
        2   -1    0    0  501    0  0.00000000000E+00  0.00000000000E+00  0.15966520717E+04  0.15966520717E+04  0.25500000920E-02 0.  1.
       -2   -1    0    0    0  501  0.00000000000E+00  0.00000000000E+00 -0.78525883296E+03  0.78525883297E+03  0.25500000920E-02 0. -1.
    10030    2    1    2    0    0  0.00000000000E+00  0.00000000000E+00  0.81139323871E+03  0.23819109046E+04  0.22394509528E+04 0.  0.
        4    1    3    3  502    0 -0.35358466689E+03 -0.76700047336E+03  0.11876312205E+04  0.14573199277E+04  0.12699999809E+01 0.  1.
       -4    1    3    3    0  502  0.35358466689E+03  0.76700047336E+03 -0.37623798181E+03  0.92459097695E+03  0.12699999809E+01 0. -1.
</event>
<event>
 5   0  0.4005462E-05  0.2298354E+04  0.7818609E-02  0.8478570E-01
        1   -1    0    0  501    0  0.00000000000E+00  0.00000000000E+00  0.95722029605E+03  0.95722029607E+03  0.50400001928E-02 0.  1.
       -1   -1    0    0    0  501  0.00000000000E+00  0.00000000000E+00 -0.13796279428E+04  0.13796279429E+04  0.50400001928E-02 0. -1.
    10030    2    1    2    0    0  0.00000000000E+00  0.00000000000E+00 -0.42240764679E+03  0.23368482389E+04  0.22983540788E+04 0.  0.
        4    1    3    3  502    0  0.51829821216E+03  0.22008764802E+03  0.80734009134E+03  0.98431257511E+03  0.12699999809E+01 0.  1.
       -4    1    3    3    0  502 -0.51829821216E+03 -0.22008764802E+03 -0.12297477381E+04  0.13525356638E+04  0.12699999809E+01 0. -1.
</event>
<event>
 5   0  0.9483073E-05  0.2334856E+04  0.7818609E-02  0.8464303E-01
        2   -1    0    0  501    0  0.00000000000E+00  0.00000000000E+00  0.12793782163E+04  0.12793782163E+04  0.25500000920E-02 0.  1.
       -2   -1    0    0    0  501  0.00000000000E+00  0.00000000000E+00 -0.10652742795E+04  0.10652742796E+04  0.25500000920E-02 0. -1.
    10030    2    1    2    0    0  0.00000000000E+00  0.00000000000E+00  0.21410393673E+03  0.23446524958E+04  0.23348564903E+04 0.  0.
        5    1    3    3  502    0 -0.10624226418E+04  0.20265339159E+03 -0.33417326205E+03  0.11320353907E+04  0.46999998093E+01 0. -1.
       -5    1    3    3    0  502  0.10624226418E+04 -0.20265339159E+03  0.54827719878E+03  0.12126171051E+04  0.46999998093E+01 0.  1.
</event>
<event>
 5   0  0.9641157E-05  0.2028177E+04  0.7818609E-02  0.8593559E-01
        2   -1    0    0  501    0  0.00000000000E+00  0.00000000000E+00  0.13634088381E+04  0.13634088381E+04  0.25500000920E-02 0. -1.
       -2   -1    0    0    0  501  0.00000000000E+00  0.00000000000E+00 -0.75426808821E+03  0.75426808821E+03  0.25500000920E-02 0.  1.
    10030    2    1    2    0    0  0.00000000000E+00  0.00000000000E+00  0.60914074994E+03  0.21176769264E+04  0.20281772879E+04 0.  0.
        3    1    3    3  502    0  0.16288547439E+03 -0.17740448812E+03 -0.72397358725E+03  0.76298217240E+03  0.10100000352E+00 0.  1.
       -3    1    3    3    0  502 -0.16288547439E+03  0.17740448812E+03  0.13331143372E+04  0.13546947540E+04  0.10100000352E+00 0. -1.
</event>
<event>
 5   0  0.4005462E-05  0.2318102E+04  0.7818609E-02  0.8470818E-01
       -1   -1    0    0    0  501  0.00000000000E+00  0.00000000000E+00  0.11687194846E+04  0.11687194846E+04  0.50400001928E-02 0. -1.
        1   -1    0    0  501    0  0.00000000000E+00  0.00000000000E+00 -0.11494624118E+04  0.11494624118E+04  0.50400001928E-02 0.  1.
    10030    2    1    2    0    0  0.00000000000E+00  0.00000000000E+00  0.19257072738E+02  0.23181818964E+04  0.23181019110E+04 0.  0.
        4    1    3    3  502    0  0.43558335719E+03 -0.15963821210E+03 -0.10525664274E+04  0.11502673241E+04  0.12699999809E+01 0.  1.
       -4    1    3    3    0  502 -0.43558335719E+03  0.15963821210E+03  0.10718235002E+04  0.11679145723E+04  0.12699999809E+01 0. -1.
</event>
<event>
 5   0  0.4095451E-05  0.2012703E+04  0.7818609E-02  0.8600704E-01
        1   -1    0    0  501    0  0.00000000000E+00  0.00000000000E+00  0.73051210511E+03  0.73051210513E+03  0.50400001928E-02 0.  1.
       -1   -1    0    0    0  501  0.00000000000E+00  0.00000000000E+00 -0.13863473177E+04  0.13863473177E+04  0.50400001928E-02 0. -1.
    10030    2    1    2    0    0  0.00000000000E+00  0.00000000000E+00 -0.65583521262E+03  0.21168594229E+04  0.20127031550E+04 0.  0.
        3    1    3    3  502    0 -0.33079233201E+03  0.94993475793E+03 -0.36023004839E+03  0.10684405969E+04  0.10100000352E+00 0.  1.
       -3    1    3    3    0  502  0.33079233201E+03 -0.94993475793E+03 -0.29560516422E+03  0.10484188259E+04  0.10100000352E+00 0. -1.
</event>
<event>
 5   0  0.9312074E-05  0.2256590E+04  0.7818609E-02  0.8495236E-01
        2   -1    0    0  501    0  0.00000000000E+00  0.00000000000E+00  0.10300955251E+04  0.10300955251E+04  0.25500000920E-02 0.  1.
       -2   -1    0    0    0  501  0.00000000000E+00  0.00000000000E+00 -0.12358562437E+04  0.12358562437E+04  0.25500000920E-02 0. -1.
    10030    2    1    2    0    0  0.00000000000E+00  0.00000000000E+00 -0.20576071861E+03  0.22659517687E+04  0.22565903361E+04 0.  0.
        4    1    3    3  502    0 -0.48343996686E+03  0.65802081249E+03  0.67903013807E+03  0.10619741675E+04  0.12699999809E+01 0.  1.
       -4    1    3    3    0  502  0.48343996686E+03 -0.65802081249E+03 -0.88479085668E+03  0.12039776012E+04  0.12699999809E+01 0. -1.
</event>
<event>
 5   0  0.9641157E-05  0.2215129E+04  0.7818609E-02  0.8512157E-01
       -2   -1    0    0    0  501  0.00000000000E+00  0.00000000000E+00  0.12321105156E+04  0.12321105156E+04  0.25500000920E-02 0. -1.
        2   -1    0    0  501    0  0.00000000000E+00  0.00000000000E+00 -0.99560787029E+03  0.99560787029E+03  0.25500000920E-02 0.  1.
    10030    2    1    2    0    0  0.00000000000E+00  0.00000000000E+00  0.23650264532E+03  0.22277183859E+04  0.22151288237E+04 0.  0.
        3    1    3    3  502    0 -0.91895007421E+03  0.38673794591E+03 -0.36684208430E+03  0.10623599215E+04  0.10100000352E+00 0.  1.
       -3    1    3    3    0  502  0.91895007421E+03 -0.38673794591E+03  0.60334472962E+03  0.11653584644E+04  0.10100000352E+00 0. -1.
</event>
<event>
 5   0  0.9535394E-05  0.2355592E+04  0.7818609E-02  0.8456319E-01
        2   -1    0    0  501    0  0.00000000000E+00  0.00000000000E+00  0.23065314798E+04  0.23065314798E+04  0.25500000920E-02 0. -1.
       -2   -1    0    0    0  501  0.00000000000E+00  0.00000000000E+00 -0.60142396517E+03  0.60142396518E+03  0.25500000920E-02 0.  1.
    10030    2    1    2    0    0  0.00000000000E+00  0.00000000000E+00  0.17051075146E+04  0.29079554450E+04  0.23555919073E+04 0.  0.
        2    1    3    3  502    0 -0.94802362843E+03  0.69857130674E+03  0.82628962504E+03  0.14385774971E+04  0.25500000920E-02 0. -1.
       -2    1    3    3    0  502  0.94802362843E+03 -0.69857130674E+03  0.87881788956E+03  0.14693779479E+04  0.25500000920E-02 0.  1.
</event>
<event>
 5   0  0.9535394E-05  0.2310320E+04  0.7818609E-02  0.8473863E-01
        2   -1    0    0  501    0  0.00000000000E+00  0.00000000000E+00  0.13552109843E+04  0.13552109843E+04  0.25500000920E-02 0.  1.
       -2   -1    0    0    0  501  0.00000000000E+00  0.00000000000E+00 -0.98463964701E+03  0.98463964702E+03  0.25500000920E-02 0. -1.
    10030    2    1    2    0    0  0.00000000000E+00  0.00000000000E+00  0.37057133725E+03  0.23398506313E+04  0.23103198611E+04 0.  0.
        2    1    3    3  502    0  0.18692595146E+03 -0.34892485244E+03 -0.91380674089E+03  0.99585773265E+03  0.25500000920E-02 0. -1.
       -2    1    3    3    0  502 -0.18692595146E+03  0.34892485244E+03  0.12843780781E+04  0.13439928986E+04  0.25500000920E-02 0.  1.
</event>
<event>
 5   0  0.9312074E-05  0.2367051E+04  0.7818609E-02  0.8451943E-01
       -2   -1    0    0    0  501  0.00000000000E+00  0.00000000000E+00  0.81981797931E+03  0.81981797931E+03  0.25500000920E-02 0.  1.
        2   -1    0    0  501    0  0.00000000000E+00  0.00000000000E+00 -0.17085892718E+04  0.17085892718E+04  0.25500000920E-02 0. -1.
    10030    2    1    2    0    0  0.00000000000E+00  0.00000000000E+00 -0.88877129249E+03  0.25284072511E+04  0.23670506579E+04 0.  0.
        4    1    3    3  502    0 -0.48523582520E+02 -0.94444243054E+03 -0.12045163473E+04  0.15314004331E+04  0.12699999809E+01 0. -1.
       -4    1    3    3    0  502  0.48523582520E+02  0.94444243054E+03  0.31574505479E+03  0.99700681803E+03  0.12699999809E+01 0.  1.
</event>
<event>
 5   0  0.9483073E-05  0.2324312E+04  0.7818609E-02  0.8468397E-01
        2   -1    0    0  501    0  0.00000000000E+00  0.00000000000E+00  0.25151692240E+04  0.25151692240E+04  0.25500000920E-02 0.  1.
       -2   -1    0    0    0  501  0.00000000000E+00  0.00000000000E+00 -0.53698430860E+03  0.53698430861E+03  0.25500000920E-02 0. -1.
    10030    2    1    2    0    0  0.00000000000E+00  0.00000000000E+00  0.19781849154E+04  0.30521535326E+04  0.23243118610E+04 0.  0.
        5    1    3    3  502    0  0.21136213114E+03  0.50998856894E+03 -0.35379887198E+03  0.65571184429E+03  0.46999998093E+01 0. -1.
       -5    1    3    3    0  502 -0.21136213114E+03 -0.50998856894E+03  0.23319837874E+04  0.23964416883E+04  0.46999998093E+01 0.  1.
</event>
<event>
 5   0  0.9483073E-05  0.2297726E+04  0.7818609E-02  0.8478818E-01
       -2   -1    0    0    0  501  0.00000000000E+00  0.00000000000E+00  0.10064481684E+04  0.10064481684E+04  0.25500000920E-02 0. -1.
        2   -1    0    0  501    0  0.00000000000E+00  0.00000000000E+00 -0.13114293314E+04  0.13114293315E+04  0.25500000920E-02 0.  1.
    10030    2    1    2    0    0  0.00000000000E+00  0.00000000000E+00 -0.30498116302E+03  0.23178774999E+04  0.22977255264E+04 0.  0.
        5    1    3    3  502    0 -0.73502405167E+03  0.87445570001E+03 -0.27575238024E+03  0.11751572631E+04  0.46999998093E+01 0.  1.
       -5    1    3    3    0  502  0.73502405167E+03 -0.87445570001E+03 -0.29228782784E+02  0.11427202368E+04  0.46999998093E+01 0. -1.
</event>
<event>
 5   0  0.9641157E-05  0.2288204E+04  0.7818609E-02  0.8482587E-01
        2   -1    0    0  501    0  0.00000000000E+00  0.00000000000E+00  0.15530805499E+04  0.15530805499E+04  0.25500000920E-02 0.  1.
       -2   -1    0    0    0  501  0.00000000000E+00  0.00000000000E+00 -0.84282103412E+03  0.84282103413E+03  0.25500000920E-02 0. -1.
    10030    2    1    2    0    0  0.00000000000E+00  0.00000000000E+00  0.71025951575E+03  0.23959015840E+04  0.22882036230E+04 0.  0.
        3    1    3    3  502    0  0.15860926349E+02 -0.69904401431E+03  0.13033205954E+04  0.14790397856E+04  0.10100000352E+00 0.  1.
       -3    1    3    3    0  502 -0.15860926349E+02  0.69904401431E+03 -0.59306107964E+03  0.91686179837E+03  0.10100000352E+00 0. -1.
</event>
<event>
 5   0  0.4139830E-05  0.2264725E+04  0.7818609E-02  0.8491961E-01
       -1   -1    0    0    0  501  0.00000000000E+00  0.00000000000E+00  0.18789250285E+04  0.18789250285E+04  0.50400001928E-02 0. -1.
        1   -1    0    0  501    0  0.00000000000E+00  0.00000000000E+00 -0.68243504576E+03  0.68243504577E+03  0.50400001928E-02 0.  1.
    10030    2    1    2    0    0  0.00000000000E+00  0.00000000000E+00  0.11964899828E+04  0.25613600743E+04  0.22647245200E+04 0.  0.
        1    1    3    3  502    0 -0.56727866028E+03  0.88403923427E+03  0.10766296282E+04  0.15041481983E+04  0.50400001928E-02 0. -1.
       -1    1    3    3    0  502  0.56727866028E+03 -0.88403923427E+03  0.11986035458E+03  0.10572118760E+04  0.50400001928E-02 0.  1.
</event>
<event>
 5   0  0.4139830E-05  0.2452222E+04  0.7818609E-02  0.8420207E-01
        1   -1    0    0  501    0  0.00000000000E+00  0.00000000000E+00  0.24486002053E+04  0.24486002054E+04  0.50400001928E-02 0.  1.
       -1   -1    0    0    0  501  0.00000000000E+00  0.00000000000E+00 -0.61396220837E+03  0.61396220839E+03  0.50400001928E-02 0. -1.
    10030    2    1    2    0    0  0.00000000000E+00  0.00000000000E+00  0.18346379970E+04  0.30625624137E+04  0.24522218411E+04 0.  0.
        1    1    3    3  502    0 -0.35554861315E+03  0.11662739584E+04  0.10788961400E+04  0.16280745202E+04  0.50400001928E-02 0.  1.
       -1    1    3    3    0  502  0.35554861315E+03 -0.11662739584E+04  0.75574185696E+03  0.14344878935E+04  0.50400001928E-02 0. -1.
</event>
<event>
 5   0  0.9535394E-05  0.1947339E+04  0.7818609E-02  0.8631645E-01
       -2   -1    0    0    0  501  0.00000000000E+00  0.00000000000E+00  0.84951730294E+03  0.84951730295E+03  0.25500000920E-02 0.  1.
        2   -1    0    0  501    0  0.00000000000E+00  0.00000000000E+00 -0.11159663124E+04  0.11159663124E+04  0.25500000920E-02 0. -1.
    10030    2    1    2    0    0  0.00000000000E+00  0.00000000000E+00 -0.26644900950E+03  0.19654836154E+04  0.19473394074E+04 0.  0.
        2    1    3    3  502    0 -0.53654964623E+03  0.61748895331E+03  0.39976253883E+03  0.91048790096E+03  0.25500000920E-02 0.  1.
       -2    1    3    3    0  502  0.53654964623E+03 -0.61748895331E+03 -0.66621154834E+03  0.10549957144E+04  0.25500000920E-02 0. -1.
</event>
<event>
 5   0  0.9312074E-05  0.2310770E+04  0.7818609E-02  0.8473687E-01
       -2   -1    0    0    0  501  0.00000000000E+00  0.00000000000E+00  0.85340121280E+03  0.85340121281E+03  0.25500000920E-02 0. -1.
        2   -1    0    0  501    0  0.00000000000E+00  0.00000000000E+00 -0.15642282356E+04  0.15642282356E+04  0.25500000920E-02 0.  1.
    10030    2    1    2    0    0  0.00000000000E+00  0.00000000000E+00 -0.71082702283E+03  0.24176294484E+04  0.23107698054E+04 0.  0.
        4    1    3    3  502    0 -0.38640654536E+03  0.40518604112E+02  0.78300442670E+03  0.87409914810E+03  0.12699999809E+01 0. -1.
       -4    1    3    3    0  502  0.38640654536E+03 -0.40518604112E+02 -0.14938314495E+04  0.15435303003E+04  0.12699999809E+01 0.  1.
</event>
<event>
 5   0  0.4295775E-05  0.2315781E+04  0.7818609E-02  0.8471725E-01
        1   -1    0    0  501    0  0.00000000000E+00  0.00000000000E+00  0.97048993091E+03  0.97048993092E+03  0.50400001928E-02 0. -1.
       -1   -1    0    0    0  501  0.00000000000E+00  0.00000000000E+00 -0.13814780494E+04  0.13814780494E+04  0.50400001928E-02 0.  1.
    10030    2    1    2    0    0  0.00000000000E+00  0.00000000000E+00 -0.41098811850E+03  0.23519679803E+04  0.23157811095E+04 0.  0.
        5    1    3    3  502    0 -0.70751999206E+03 -0.85452102636E+03 -0.54218253024E+03  0.12348176828E+04  0.46999998093E+01 0.  1.
       -5    1    3    3    0  502  0.70751999206E+03  0.85452102636E+03  0.13119441174E+03  0.11171502976E+04  0.46999998093E+01 0. -1.
</event>
<event>
 5   0  0.9313463E-05  0.2311287E+04  0.7818609E-02  0.8473484E-01
        2   -1    0    0  501    0  0.00000000000E+00  0.00000000000E+00  0.90871588213E+03  0.90871588214E+03  0.25500000920E-02 0. -1.
       -2   -1    0    0    0  501  0.00000000000E+00  0.00000000000E+00 -0.14696695426E+04  0.14696695426E+04  0.25500000920E-02 0.  1.
    10030    2    1    2    0    0  0.00000000000E+00  0.00000000000E+00 -0.56095366046E+03  0.23783854247E+04  0.23112871348E+04 0.  0.
        1    1    3    3  502    0  0.74361229571E+02 -0.11525996659E+04 -0.24066953076E+03  0.11798039690E+04  0.50400001928E-02 0.  1.
       -1    1    3    3    0  502 -0.74361229571E+02  0.11525996659E+04 -0.32028412970E+03  0.11985814557E+04  0.50400001928E-02 0. -1.
</event>
<event>
 5   0  0.4295775E-05  0.2329231E+04  0.7818609E-02  0.8466484E-01
        1   -1    0    0  501    0  0.00000000000E+00  0.00000000000E+00  0.78267411593E+03  0.78267411595E+03  0.50400001928E-02 0.  1.
       -1   -1    0    0    0  501  0.00000000000E+00  0.00000000000E+00 -0.17329421484E+04  0.17329421484E+04  0.50400001928E-02 0. -1.
    10030    2    1    2    0    0  0.00000000000E+00  0.00000000000E+00 -0.95026803249E+03  0.25156162644E+04  0.23292307434E+04 0.  0.
        5    1    3    3  502    0 -0.76683749208E+03 -0.45472489990E+03  0.33415532668E+03  0.95210101680E+03  0.46999998093E+01 0.  1.
       -5    1    3    3    0  502  0.76683749208E+03  0.45472489990E+03 -0.12844233592E+04  0.15635152476E+04  0.46999998093E+01 0. -1.
</event>
<event>
 5   0  0.4005462E-05  0.2272391E+04  0.7818609E-02  0.8488887E-01
       -1   -1    0    0    0  501  0.00000000000E+00  0.00000000000E+00  0.96374660090E+03  0.96374660091E+03  0.50400001928E-02 0. -1.
        1   -1    0    0  501    0  0.00000000000E+00  0.00000000000E+00 -0.13395018438E+04  0.13395018438E+04  0.50400001928E-02 0.  1.
    10030    2    1    2    0    0  0.00000000000E+00  0.00000000000E+00 -0.37575524290E+03  0.23032484447E+04  0.22723911185E+04 0.  0.
        4    1    3    3  502    0 -0.60921525622E+03 -0.36492144336E+03  0.71108650604E+03  0.10049659299E+04  0.12699999809E+01 0. -1.
       -4    1    3    3    0  502  0.60921525622E+03  0.36492144336E+03 -0.10868417489E+04  0.12982825148E+04  0.12699999809E+01 0.  1.
</event>
<event>
 5   0  0.4139830E-05  0.2107506E+04  0.7818609E-02  0.8557944E-01
        1   -1    0    0  501    0  0.00000000000E+00  0.00000000000E+00  0.78431868116E+03  0.78431868117E+03  0.50400001928E-02 0.  1.
       -1   -1    0    0    0  501  0.00000000000E+00  0.00000000000E+00 -0.14157452217E+04  0.14157452218E+04  0.50400001928E-02 0. -1.
    10030    2    1    2    0    0  0.00000000000E+00  0.00000000000E+00 -0.63142654059E+03  0.22000639029E+04  0.21075060381E+04 0.  0.
        1    1    3    3  502    0 -0.80691083261E+03  0.59174158585E+03  0.29146854229E+02  0.10010558103E+04  0.50400001928E-02 0.  1.
       -1    1    3    3    0  502  0.80691083261E+03 -0.59174158585E+03 -0.66057339481E+03  0.11990080926E+04  0.50400001928E-02 0. -1.
</event>
<event>
 5   0  0.4139830E-05  0.2241240E+04  0.7818609E-02  0.8501457E-01
       -1   -1    0    0    0  501  0.00000000000E+00  0.00000000000E+00  0.65001908152E+03  0.65001908154E+03  0.50400001928E-02 0.  1.
        1   -1    0    0  501    0  0.00000000000E+00  0.00000000000E+00 -0.19319263774E+04  0.19319263774E+04  0.50400001928E-02 0. -1.
    10030    2    1    2    0    0  0.00000000000E+00  0.00000000000E+00 -0.12819072959E+04  0.25819454589E+04  0.22412398439E+04 0.  0.
        1    1    3    3  502    0 -0.65635074391E+03  0.84048475941E+03 -0.24425480330E+03  0.10940161511E+04  0.50400001928E-02 0.  1.
       -1    1    3    3    0  502  0.65635074391E+03 -0.84048475941E+03 -0.10376524926E+04  0.14879293079E+04  0.50400001928E-02 0. -1.
</event>
<event>
 5   0  0.4139830E-05  0.2236702E+04  0.7818609E-02  0.8503305E-01
        1   -1    0    0  501    0  0.00000000000E+00  0.00000000000E+00  0.10041791604E+04  0.10041791604E+04  0.50400001928E-02 0. -1.
       -1   -1    0    0    0  501  0.00000000000E+00  0.00000000000E+00 -0.12455040854E+04  0.12455040854E+04  0.50400001928E-02 0.  1.
    10030    2    1    2    0    0  0.00000000000E+00  0.00000000000E+00 -0.24132492500E+03  0.22496832458E+04  0.22367022572E+04 0.  0.
        1    1    3    3  502    0 -0.65150963590E+02  0.95483952310E+03 -0.70259273541E+03  0.11872656463E+04  0.50400001928E-02 0.  1.
       -1    1    3    3    0  502  0.65150963590E+02 -0.95483952310E+03  0.46126781041E+03  0.10624175996E+04  0.50400001928E-02 0. -1.
</event>
<event>
 5   0  0.3885219E-05  0.2200566E+04  0.7818609E-02  0.8518192E-01
        1   -1    0    0  501    0  0.00000000000E+00  0.00000000000E+00  0.14783420903E+04  0.14783420903E+04  0.50400001928E-02 0.  1.
       -1   -1    0    0    0  501  0.00000000000E+00  0.00000000000E+00 -0.81890589046E+03  0.81890589048E+03  0.50400001928E-02 0. -1.
    10030    2    1    2    0    0  0.00000000000E+00  0.00000000000E+00  0.65943619988E+03  0.22972479808E+04  0.22005663325E+04 0.  0.
        2    1    3    3  502    0 -0.64981520367E+03  0.81262946347E+03 -0.43766444581E+02  0.10414134364E+04  0.25500000920E-02 0. -1.
       -2    1    3    3    0  502  0.64981520367E+03 -0.81262946347E+03  0.70320264446E+03  0.12558345444E+04  0.25500000920E-02 0.  1.
</event>
<event>
 5   0  0.4295775E-05  0.2362782E+04  0.7818609E-02  0.8453570E-01
       -1   -1    0    0    0  501  0.00000000000E+00  0.00000000000E+00  0.12764757423E+04  0.12764757423E+04  0.50400001928E-02 0. -1.
        1   -1    0    0  501    0  0.00000000000E+00  0.00000000000E+00 -0.10933887368E+04  0.10933887368E+04  0.50400001928E-02 0.  1.
    10030    2    1    2    0    0  0.00000000000E+00  0.00000000000E+00  0.18308700550E+03  0.23698644791E+04  0.23627815806E+04 0.  0.
        5    1    3    3  502    0 -0.64927716890E+03  0.71340893568E+03  0.77560628288E+03  0.12377804117E+04  0.46999998093E+01 0. -1.
       -5    1    3    3    0  502  0.64927716890E+03 -0.71340893568E+03 -0.59251927737E+03  0.11320840674E+04  0.46999998093E+01 0.  1.
</event>
<event>
 5   0  0.9641157E-05  0.2376649E+04  0.7818609E-02  0.8448298E-01
        2   -1    0    0  501    0  0.00000000000E+00  0.00000000000E+00  0.19814877134E+04  0.19814877134E+04  0.25500000920E-02 0.  1.
       -2   -1    0    0    0  501  0.00000000000E+00  0.00000000000E+00 -0.71265414250E+03  0.71265414251E+03  0.25500000920E-02 0. -1.
    10030    2    1    2    0    0  0.00000000000E+00  0.00000000000E+00  0.12688335709E+04  0.26941418559E+04  0.23766492609E+04 0.  0.
        3    1    3    3  502    0  0.80930924404E+03 -0.59033902145E+03  0.13590571303E+04  0.16883476853E+04  0.10100000352E+00 0. -1.
       -3    1    3    3    0  502 -0.80930924404E+03  0.59033902145E+03 -0.90223559448E+02  0.10057941706E+04  0.10100000352E+00 0.  1.
</event>
<event>
 5   0  0.4095451E-05  0.2274798E+04  0.7818609E-02  0.8487925E-01
        1   -1    0    0  501    0  0.00000000000E+00  0.00000000000E+00  0.16227379425E+04  0.16227379425E+04  0.50400001928E-02 0.  1.
       -1   -1    0    0    0  501  0.00000000000E+00  0.00000000000E+00 -0.79721836772E+03  0.79721836773E+03  0.50400001928E-02 0. -1.
    10030    2    1    2    0    0  0.00000000000E+00  0.00000000000E+00  0.82551957476E+03  0.24199563102E+04  0.22747980075E+04 0.  0.
        3    1    3    3  502    0 -0.49098646283E+03 -0.91132339001E+03 -0.88586098659E+02  0.10389540581E+04  0.10100000352E+00 0. -1.
       -3    1    3    3    0  502  0.49098646283E+03  0.91132339001E+03  0.91410567341E+03  0.13810022521E+04  0.10100000352E+00 0.  1.
</event>
<event>
 5   0  0.3885219E-05  0.1512859E+04  0.7818609E-02  0.8875947E-01
        1   -1    0    0  501    0  0.00000000000E+00  0.00000000000E+00  0.11450733035E+04  0.11450733035E+04  0.50400001928E-02 0.  1.
       -1   -1    0    0    0  501  0.00000000000E+00  0.00000000000E+00 -0.49969325249E+03  0.49969325252E+03  0.50400001928E-02 0. -1.
    10030    2    1    2    0    0  0.00000000000E+00  0.00000000000E+00  0.64538005105E+03  0.16447665561E+04  0.15128587554E+04 0.  0.
        2    1    3    3  502    0 -0.14295289339E+03  0.32810749613E+03 -0.40181932353E+03  0.53809741452E+03  0.25500000920E-02 0. -1.
       -2    1    3    3    0  502  0.14295289339E+03 -0.32810749613E+03  0.10471993746E+04  0.11066691415E+04  0.25500000920E-02 0.  1.
</event>
<event>
 5   0  0.9483073E-05  0.1571914E+04  0.7818609E-02  0.8837991E-01
       -2   -1    0    0    0  501  0.00000000000E+00  0.00000000000E+00  0.65558627931E+03  0.65558627931E+03  0.25500000920E-02 0.  1.
        2   -1    0    0  501    0  0.00000000000E+00  0.00000000000E+00 -0.94225317382E+03  0.94225317382E+03  0.25500000920E-02 0. -1.
    10030    2    1    2    0    0  0.00000000000E+00  0.00000000000E+00 -0.28666689451E+03  0.15978394531E+04  0.15719138048E+04 0.  0.
        5    1    3    3  502    0  0.27491887325E+03 -0.10724174976E+03  0.59712085194E+03  0.66607550742E+03  0.46999998093E+01 0.  1.
       -5    1    3    3    0  502 -0.27491887325E+03  0.10724174976E+03 -0.88378774645E+03  0.93176394571E+03  0.46999998093E+01 0. -1.
</event>
<event>
 5   0  0.9641157E-05  0.2269953E+04  0.7818609E-02  0.8489863E-01
       -2   -1    0    0    0  501  0.00000000000E+00  0.00000000000E+00  0.12455859867E+04  0.12455859867E+04  0.25500000920E-02 0. -1.
        2   -1    0    0  501    0  0.00000000000E+00  0.00000000000E+00 -0.10341892009E+04  0.10341892009E+04  0.25500000920E-02 0.  1.
    10030    2    1    2    0    0  0.00000000000E+00  0.00000000000E+00  0.21139678577E+03  0.22797751876E+04  0.22699529301E+04 0.  0.
        3    1    3    3  502    0  0.18034809682E+03  0.92026510399E+03  0.74780693318E+03  0.11994284127E+04  0.10100000352E+00 0. -1.
       -3    1    3    3    0  502 -0.18034809682E+03 -0.92026510399E+03 -0.53641014741E+03  0.10803467749E+04  0.10100000352E+00 0.  1.
</event>
<event>
 5   0  0.4139830E-05  0.2051386E+04  0.7818609E-02  0.8582966E-01
        1   -1    0    0  501    0  0.00000000000E+00  0.00000000000E+00  0.14933453574E+04  0.14933453574E+04  0.50400001928E-02 0.  1.
       -1   -1    0    0    0  501  0.00000000000E+00  0.00000000000E+00 -0.70448978283E+03  0.70448978285E+03  0.50400001928E-02 0. -1.
    10030    2    1    2    0    0  0.00000000000E+00  0.00000000000E+00  0.78885557459E+03  0.21978351403E+04  0.20513864059E+04 0.  0.
        1    1    3    3  502    0 -0.73081955687E+03 -0.61640423524E+02  0.11626599173E+04  0.13746544474E+04  0.50400001928E-02 0.  1.
       -1    1    3    3    0  502  0.73081955687E+03  0.61640423524E+02 -0.37380434266E+03  0.82318069288E+03  0.50400001928E-02 0. -1.
</event>
<event>
 5   0  0.9312074E-05  0.2236321E+04  0.7818609E-02  0.8503461E-01
       -2   -1    0    0    0  501  0.00000000000E+00  0.00000000000E+00  0.12988628596E+04  0.12988628596E+04  0.25500000920E-02 0. -1.
        2   -1    0    0  501    0  0.00000000000E+00  0.00000000000E+00 -0.96259776596E+03  0.96259776596E+03  0.25500000920E-02 0.  1.
    10030    2    1    2    0    0  0.00000000000E+00  0.00000000000E+00  0.33626509360E+03  0.22614606255E+04  0.22363206272E+04 0.  0.
        4    1    3    3  502    0  0.17201718071E+03  0.75250739823E+03 -0.64992608288E+03  0.10090900956E+04  0.12699999809E+01 0. -1.
       -4    1    3    3    0  502 -0.17201718071E+03 -0.75250739823E+03  0.98619117648E+03  0.12523705300E+04  0.12699999809E+01 0.  1.
</event>
<event>
 5   0  0.9313463E-05  0.1823596E+04  0.7818609E-02  0.8693851E-01
        2   -1    0    0  501    0  0.00000000000E+00  0.00000000000E+00  0.86037691885E+03  0.86037691885E+03  0.25500000920E-02 0.  1.
       -2   -1    0    0    0  501  0.00000000000E+00  0.00000000000E+00 -0.96629216133E+03  0.96629216133E+03  0.25500000920E-02 0. -1.
    10030    2    1    2    0    0  0.00000000000E+00  0.00000000000E+00 -0.10591524248E+03  0.18266690802E+04  0.18235958680E+04 0.  0.
        1    1    3    3  502    0 -0.38128957710E+03  0.74578419142E+03  0.30792674903E+03  0.89240948257E+03  0.50400001928E-02 0.  1.
       -1    1    3    3    0  502  0.38128957710E+03 -0.74578419142E+03 -0.41384199151E+03  0.93425959762E+03  0.50400001928E-02 0. -1.
</event>
<event>
 5   0  0.9641157E-05  0.2310608E+04  0.7818609E-02  0.8473750E-01
       -2   -1    0    0    0  501  0.00000000000E+00  0.00000000000E+00  0.13697555319E+04  0.13697555319E+04  0.25500000920E-02 0. -1.
        2   -1    0    0  501    0  0.00000000000E+00  0.00000000000E+00 -0.97442698896E+03  0.97442698897E+03  0.25500000920E-02 0.  1.
    10030    2    1    2    0    0  0.00000000000E+00  0.00000000000E+00  0.39532854297E+03  0.23441825209E+04  0.23106075033E+04 0.  0.
        3    1    3    3  502    0 -0.38639182282E+03  0.66723788969E+02 -0.90485398090E+03  0.98615994733E+03  0.10100000352E+00 0.  1.
       -3    1    3    3    0  502  0.38639182282E+03 -0.66723788969E+02  0.13001825239E+04  0.13580225736E+04  0.10100000352E+00 0. -1.
</event>
<event>
 5   0  0.4295775E-05  0.2286374E+04  0.7818609E-02  0.8483313E-01
       -1   -1    0    0    0  501  0.00000000000E+00  0.00000000000E+00  0.22036890167E+04  0.22036890167E+04  0.50400001928E-02 0. -1.
        1   -1    0    0  501    0  0.00000000000E+00  0.00000000000E+00 -0.59304050846E+03  0.59304050849E+03  0.50400001928E-02 0.  1.
    10030    2    1    2    0    0  0.00000000000E+00  0.00000000000E+00  0.16106485082E+04  0.27967295252E+04  0.22863742957E+04 0.  0.
        5    1    3    3  502    0  0.56706347260E+03 -0.78134727792E+03  0.56470071427E+02  0.96709643244E+03  0.46999998093E+01 0.  1.
       -5    1    3    3    0  502 -0.56706347260E+03  0.78134727792E+03  0.15541784368E+04  0.18296330928E+04  0.46999998093E+01 0. -1.
</event>
<event>
 5   0  0.3885219E-05  0.2422050E+04  0.7818609E-02  0.8431294E-01
        1   -1    0    0  501    0  0.00000000000E+00  0.00000000000E+00  0.17935116551E+04  0.17935116551E+04  0.50400001928E-02 0.  1.
       -1   -1    0    0    0  501  0.00000000000E+00  0.00000000000E+00 -0.81771500508E+03  0.81771500509E+03  0.50400001928E-02 0. -1.
    10030    2    1    2    0    0  0.00000000000E+00  0.00000000000E+00  0.97579665001E+03  0.26112266602E+04  0.24220498692E+04 0.  0.
        2    1    3    3  502    0  0.49766073826E+03  0.41994488400E+03 -0.61291157556E+03  0.89424857588E+03  0.25500000920E-02 0. -1.
       -2    1    3    3    0  502 -0.49766073826E+03 -0.41994488400E+03  0.15887082256E+04  0.17169780843E+04  0.25500000920E-02 0.  1.
</event>
<event>
 5   0  0.4139830E-05  0.2309660E+04  0.7818609E-02  0.8474122E-01
       -1   -1    0    0    0  501  0.00000000000E+00  0.00000000000E+00  0.96094656824E+03  0.96094656825E+03  0.50400001928E-02 0.  1.
        1   -1    0    0  501    0  0.00000000000E+00  0.00000000000E+00 -0.13878313308E+04  0.13878313308E+04  0.50400001928E-02 0. -1.
    10030    2    1    2    0    0  0.00000000000E+00  0.00000000000E+00 -0.42688476253E+03  0.23487778990E+04  0.23096595027E+04 0.  0.
        1    1    3    3  502    0  0.60960637728E+03 -0.73477856726E+03 -0.87414797507E+03  0.12944706101E+04  0.50400001928E-02 0.  1.
       -1    1    3    3    0  502 -0.60960637728E+03  0.73477856726E+03  0.44726321254E+03  0.10543072889E+04  0.50400001928E-02 0. -1.
</event>
<event>
 5   0  0.9535394E-05  0.2241349E+04  0.7818609E-02  0.8501412E-01
        2   -1    0    0  501    0  0.00000000000E+00  0.00000000000E+00  0.77967057186E+03  0.77967057186E+03  0.25500000920E-02 0. -1.
       -2   -1    0    0    0  501  0.00000000000E+00  0.00000000000E+00 -0.16108235969E+04  0.16108235970E+04  0.25500000920E-02 0.  1.
    10030    2    1    2    0    0  0.00000000000E+00  0.00000000000E+00 -0.83115302509E+03  0.23904941688E+04  0.22413493748E+04 0.  0.
        2    1    3    3  502    0 -0.70873685476E+02 -0.86914978735E+03  0.33515671613E+03  0.93422398626E+03  0.25500000920E-02 0.  1.
       -2    1    3    3    0  502  0.70873685476E+02  0.86914978735E+03 -0.11663097412E+04  0.14562701826E+04  0.25500000920E-02 0. -1.
</event>
<event>
 5   0  0.9312074E-05  0.2352857E+04  0.7818609E-02  0.8457367E-01
       -2   -1    0    0    0  501  0.00000000000E+00  0.00000000000E+00  0.10866477556E+04  0.10866477556E+04  0.25500000920E-02 0.  1.
        2   -1    0    0  501    0  0.00000000000E+00  0.00000000000E+00 -0.12736270356E+04  0.12736270356E+04  0.25500000920E-02 0. -1.
    10030    2    1    2    0    0  0.00000000000E+00  0.00000000000E+00 -0.18697927996E+03  0.23602747912E+04  0.23528569525E+04 0.  0.
        4    1    3    3  502    0  0.91158884480E+02 -0.11689176068E+04  0.32718767935E+01  0.11724720175E+04  0.12699999809E+01 0.  1.
       -4    1    3    3    0  502 -0.91158884480E+02  0.11689176068E+04 -0.19025115675E+03  0.11878027737E+04  0.12699999809E+01 0. -1.
</event>
<event>
 5   0  0.3885219E-05  0.2288887E+04  0.7818609E-02  0.8482316E-01
        1   -1    0    0  501    0  0.00000000000E+00  0.00000000000E+00  0.17385877343E+04  0.17385877343E+04  0.50400001928E-02 0.  1.
       -1   -1    0    0    0  501  0.00000000000E+00  0.00000000000E+00 -0.75334155085E+03  0.75334155087E+03  0.50400001928E-02 0. -1.
    10030    2    1    2    0    0  0.00000000000E+00  0.00000000000E+00  0.98524618340E+03  0.24919292851E+04  0.22888865241E+04 0.  0.
        2    1    3    3  502    0 -0.30270488315E+03 -0.67104525924E+03 -0.46136006645E+03  0.86878368835E+03  0.25500000920E-02 0. -1.
       -2    1    3    3    0  502  0.30270488315E+03  0.67104525924E+03  0.14466062498E+04  0.16231455968E+04  0.25500000920E-02 0.  1.
</event>
<event>
 5   0  0.4295775E-05  0.2327473E+04  0.7818609E-02  0.8467167E-01
        1   -1    0    0  501    0  0.00000000000E+00  0.00000000000E+00  0.17434873635E+04  0.17434873635E+04  0.50400001928E-02 0.  1.
       -1   -1    0    0    0  501  0.00000000000E+00  0.00000000000E+00 -0.77676642009E+03  0.77676642011E+03  0.50400001928E-02 0. -1.
    10030    2    1    2    0    0  0.00000000000E+00  0.00000000000E+00  0.96672094344E+03  0.25202537836E+04  0.23274728251E+04 0.  0.
        5    1    3    3  502    0 -0.63565602723E+03  0.56828755079E+03  0.13409517299E+04  0.15890824262E+04  0.46999998093E+01 0.  1.
       -5    1    3    3    0  502  0.63565602723E+03 -0.56828755079E+03 -0.37423078648E+03  0.93117135743E+03  0.46999998093E+01 0. -1.
</event>
<event>
 5   0  0.3885219E-05  0.2326138E+04  0.7818609E-02  0.8467686E-01
        1   -1    0    0  501    0  0.00000000000E+00  0.00000000000E+00  0.12515514186E+04  0.12515514186E+04  0.50400001928E-02 0. -1.
       -1   -1    0    0    0  501  0.00000000000E+00  0.00000000000E+00 -0.10808419841E+04  0.10808419841E+04  0.50400001928E-02 0.  1.
    10030    2    1    2    0    0  0.00000000000E+00  0.00000000000E+00  0.17070943446E+03  0.23323934028E+04  0.23261378451E+04 0.  0.
        2    1    3    3  502    0  0.99739997673E+03  0.41793294150E+03  0.51458847702E+03  0.11976126076E+04  0.25500000920E-02 0. -1.
       -2    1    3    3    0  502 -0.99739997673E+03 -0.41793294150E+03 -0.34387904256E+03  0.11347807952E+04  0.25500000920E-02 0.  1.
</event>
<event>
 5   0  0.3261500E-05  0.2317507E+04  0.7818609E-02  0.8471050E-01
        3   -1    0    0  501    0  0.00000000000E+00  0.00000000000E+00  0.10689076898E+04  0.10689076946E+04  0.10100000352E+00 0. -1.
       -3   -1    0    0    0  501  0.00000000000E+00  0.00000000000E+00 -0.12561517209E+04  0.12561517249E+04  0.10100000352E+00 0.  1.
    10030    2    1    2    0    0  0.00000000000E+00  0.00000000000E+00 -0.18724403102E+03  0.23250594195E+04  0.23175074924E+04 0.  0.
        5    1    3    3  502    0 -0.99158867599E+03  0.33909108404E+03 -0.58965939523E+03  0.12024770925E+04  0.46999998093E+01 0. -1.
       -5    1    3    3    0  502  0.99158867599E+03 -0.33909108404E+03  0.40241536421E+03  0.11225823270E+04  0.46999998093E+01 0.  1.
</event>
<event>
 5   0  0.9535394E-05  0.2265311E+04  0.7818609E-02  0.8491725E-01
        2   -1    0    0  501    0  0.00000000000E+00  0.00000000000E+00  0.14186929660E+04  0.14186929660E+04  0.25500000920E-02 0. -1.
       -2   -1    0    0    0  501  0.00000000000E+00  0.00000000000E+00 -0.90428890064E+03  0.90428890064E+03  0.25500000920E-02 0.  1.
    10030    2    1    2    0    0  0.00000000000E+00  0.00000000000E+00  0.51440406532E+03  0.23229818666E+04  0.22653108418E+04 0.  0.
        2    1    3    3  502    0 -0.35966794557E+03 -0.59661279390E+03 -0.65861920420E+03  0.95869031134E+03  0.25500000920E-02 0.  1.
       -2    1    3    3    0  502  0.35966794557E+03  0.59661279390E+03  0.11730232695E+04  0.13642915553E+04  0.25500000920E-02 0. -1.
</event>
<event>
 5   0  0.9641157E-05  0.2309040E+04  0.7818609E-02  0.8474365E-01
        2   -1    0    0  501    0  0.00000000000E+00  0.00000000000E+00  0.11488603511E+04  0.11488603511E+04  0.25500000920E-02 0.  1.
       -2   -1    0    0    0  501  0.00000000000E+00  0.00000000000E+00 -0.11602076597E+04  0.11602076597E+04  0.25500000920E-02 0. -1.
    10030    2    1    2    0    0  0.00000000000E+00  0.00000000000E+00 -0.11347308621E+02  0.23090680108E+04  0.23090401290E+04 0.  0.
        3    1    3    3  502    0 -0.10263614852E+03 -0.82086085757E+03  0.79967441069E+03  0.11505763337E+04  0.10100000352E+00 0.  1.
       -3    1    3    3    0  502  0.10263614852E+03  0.82086085757E+03 -0.81102171931E+03  0.11584916771E+04  0.10100000352E+00 0. -1.
</event>
<event>
 5   0  0.9535394E-05  0.2194205E+04  0.7818609E-02  0.8520844E-01
       -2   -1    0    0    0  501  0.00000000000E+00  0.00000000000E+00  0.15037356353E+04  0.15037356353E+04  0.25500000920E-02 0. -1.
        2   -1    0    0  501    0  0.00000000000E+00  0.00000000000E+00 -0.80042885864E+03  0.80042885864E+03  0.25500000920E-02 0.  1.
    10030    2    1    2    0    0  0.00000000000E+00  0.00000000000E+00  0.70330677663E+03  0.23041644939E+04  0.21942045467E+04 0.  0.
        2    1    3    3  502    0  0.37236018706E+03  0.99708114546E+03  0.72215600473E+02  0.10667886447E+04  0.25500000920E-02 0.  1.
       -2    1    3    3    0  502 -0.37236018706E+03 -0.99708114546E+03  0.63109117615E+03  0.12373758492E+04  0.25500000920E-02 0. -1.
</event>
<event>
 5   0  0.4095451E-05  0.2300088E+04  0.7818609E-02  0.8477886E-01
       -1   -1    0    0    0  501  0.00000000000E+00  0.00000000000E+00  0.24511484188E+04  0.24511484188E+04  0.50400001928E-02 0. -1.
        1   -1    0    0  501    0  0.00000000000E+00  0.00000000000E+00 -0.53958426775E+03  0.53958426777E+03  0.50400001928E-02 0.  1.
    10030    2    1    2    0    0  0.00000000000E+00  0.00000000000E+00  0.19115641510E+04  0.29907326866E+04  0.23000879329E+04 0.  0.
        3    1    3    3  502    0  0.39096023991E+03  0.91406464045E+03  0.17075095875E+04  0.19758423717E+04  0.10100000352E+00 0. -1.
       -3    1    3    3    0  502 -0.39096023991E+03 -0.91406464045E+03  0.20405456352E+03  0.10148903149E+04  0.10100000352E+00 0.  1.
</event>
<event>
 5   0  0.4295775E-05  0.2330238E+04  0.7818609E-02  0.8466093E-01
        1   -1    0    0  501    0  0.00000000000E+00  0.00000000000E+00  0.98007753682E+03  0.98007753684E+03  0.50400001928E-02 0.  1.
       -1   -1    0    0    0  501  0.00000000000E+00  0.00000000000E+00 -0.13850970833E+04  0.13850970833E+04  0.50400001928E-02 0. -1.
    10030    2    1    2    0    0  0.00000000000E+00  0.00000000000E+00 -0.40501954650E+03  0.23651746202E+04  0.23302382176E+04 0.  0.
        5    1    3    3  502    0 -0.23468248555E+02  0.11396713559E+03  0.97415572728E+03  0.98109160514E+03  0.46999998093E+01 0.  1.
       -5    1    3    3    0  502  0.23468248555E+02 -0.11396713559E+03 -0.13791752738E+04  0.13840830150E+04  0.46999998093E+01 0. -1.
</event>
<event>
 5   0  0.9483073E-05  0.2317819E+04  0.7818609E-02  0.8470928E-01
       -2   -1    0    0    0  501  0.00000000000E+00  0.00000000000E+00  0.60597053884E+03  0.60597053884E+03  0.25500000920E-02 0.  1.
        2   -1    0    0  501    0  0.00000000000E+00  0.00000000000E+00 -0.22163965429E+04  0.22163965429E+04  0.25500000920E-02 0. -1.
    10030    2    1    2    0    0  0.00000000000E+00  0.00000000000E+00 -0.16104260040E+04  0.28223670817E+04  0.23178188086E+04 0.  0.
        5    1    3    3  502    0  0.84356163918E+03  0.64292442771E+03 -0.13738861252E+04  0.17356650696E+04  0.46999998093E+01 0. -1.
       -5    1    3    3    0  502 -0.84356163918E+03 -0.64292442771E+03 -0.23653987885E+03  0.10867020121E+04  0.46999998093E+01 0.  1.
</event>
<event>
 5   0  0.4295775E-05  0.2255042E+04  0.7818609E-02  0.8495861E-01
       -1   -1    0    0    0  501  0.00000000000E+00  0.00000000000E+00  0.11903248087E+04  0.11903248087E+04  0.50400001928E-02 0. -1.
        1   -1    0    0  501    0  0.00000000000E+00  0.00000000000E+00 -0.10680307789E+04  0.10680307789E+04  0.50400001928E-02 0.  1.
    10030    2    1    2    0    0  0.00000000000E+00  0.00000000000E+00  0.12229402982E+03  0.22583555876E+04  0.22550419354E+04 0.  0.
        5    1    3    3  502    0  0.17586974212E+03 -0.90229554244E+02 -0.10505336431E+04  0.10689782804E+04  0.46999998093E+01 0.  1.
       -5    1    3    3    0  502 -0.17586974212E+03  0.90229554244E+02  0.11728276729E+04  0.11893773073E+04  0.46999998093E+01 0. -1.
</event>
<event>
 5   0  0.3885219E-05  0.2266010E+04  0.7818609E-02  0.8491445E-01
        1   -1    0    0  501    0  0.00000000000E+00  0.00000000000E+00  0.10876661296E+04  0.10876661297E+04  0.50400001928E-02 0.  1.
       -1   -1    0    0    0  501  0.00000000000E+00  0.00000000000E+00 -0.11802335837E+04  0.11802335837E+04  0.50400001928E-02 0. -1.
    10030    2    1    2    0    0  0.00000000000E+00  0.00000000000E+00 -0.92567454075E+02  0.22678997134E+04  0.22660097918E+04 0.  0.
        2    1    3    3  502    0  0.76337732393E+03  0.52065244785E+03 -0.70247999554E+03  0.11607334122E+04  0.25500000920E-02 0. -1.
       -2    1    3    3    0  502 -0.76337732393E+03 -0.52065244785E+03  0.60991254147E+03  0.11071663011E+04  0.25500000920E-02 0.  1.
</event>
<event>
 5   0  0.9483073E-05  0.2317845E+04  0.7818609E-02  0.8470918E-01
        2   -1    0    0  501    0  0.00000000000E+00  0.00000000000E+00  0.21136908090E+04  0.21136908090E+04  0.25500000920E-02 0. -1.
       -2   -1    0    0    0  501  0.00000000000E+00  0.00000000000E+00 -0.63542926959E+03  0.63542926960E+03  0.25500000920E-02 0.  1.
    10030    2    1    2    0    0  0.00000000000E+00  0.00000000000E+00  0.14782615394E+04  0.27491200786E+04  0.23178446945E+04 0.  0.
        5    1    3    3  502    0 -0.56528610842E+03 -0.60750418187E+03  0.16986506643E+04  0.18905147142E+04  0.46999998093E+01 0. -1.
       -5    1    3    3    0  502  0.56528610842E+03  0.60750418187E+03 -0.22038912489E+03  0.85860536438E+03  0.46999998093E+01 0.  1.
</event>
<event>
 5   0  0.4139830E-05  0.2316084E+04  0.7818609E-02  0.8471606E-01
       -1   -1    0    0    0  501  0.00000000000E+00  0.00000000000E+00  0.59331011921E+03  0.59331011923E+03  0.50400001928E-02 0.  1.
        1   -1    0    0  501    0  0.00000000000E+00  0.00000000000E+00 -0.22603035576E+04  0.22603035576E+04  0.50400001928E-02 0. -1.
    10030    2    1    2    0    0  0.00000000000E+00  0.00000000000E+00 -0.16669934384E+04  0.28536136768E+04  0.23160837405E+04 0.  0.
        1    1    3    3  502    0 -0.19909295836E+03  0.78200701388E+03  0.18986746803E+03  0.82898892108E+03  0.50400001928E-02 0.  1.
       -1    1    3    3    0  502  0.19909295836E+03 -0.78200701388E+03 -0.18568609064E+04  0.20246247558E+04  0.50400001928E-02 0. -1.
</event>
<event>
 5   0  0.9641157E-05  0.2373050E+04  0.7818609E-02  0.8449663E-01
       -2   -1    0    0    0  501  0.00000000000E+00  0.00000000000E+00  0.72048463568E+03  0.72048463569E+03  0.25500000920E-02 0.  1.
        2   -1    0    0  501    0  0.00000000000E+00  0.00000000000E+00 -0.19540203854E+04  0.19540203854E+04  0.25500000920E-02 0. -1.
    10030    2    1    2    0    0  0.00000000000E+00  0.00000000000E+00 -0.12335357497E+04  0.26745050211E+04  0.23730500757E+04 0.  0.
        3    1    3    3  502    0 -0.16108955201E+02  0.11730003678E+04 -0.41625645586E+03  0.12447725931E+04  0.10100000352E+00 0.  1.
       -3    1    3    3    0  502  0.16108955201E+02 -0.11730003678E+04 -0.81727929385E+03  0.14297324280E+04  0.10100000352E+00 0. -1.
</event>
<event>
 5   0  0.9313463E-05  0.2295588E+04  0.7818609E-02  0.8479663E-01
       -2   -1    0    0    0  501  0.00000000000E+00  0.00000000000E+00  0.59191552318E+03  0.59191552318E+03  0.25500000920E-02 0.  1.
        2   -1    0    0  501    0  0.00000000000E+00  0.00000000000E+00 -0.22257084736E+04  0.22257084736E+04  0.25500000920E-02 0. -1.
    10030    2    1    2    0    0  0.00000000000E+00  0.00000000000E+00 -0.16337929505E+04  0.28176239968E+04  0.22955882868E+04 0.  0.
        1    1    3    3  502    0  0.67084420530E+03 -0.55163160695E+03 -0.17379451440E+04  0.19428800017E+04  0.50400001928E-02 0. -1.
       -1    1    3    3    0  502 -0.67084420530E+03  0.55163160695E+03  0.10415219350E+03  0.87474399512E+03  0.50400001928E-02 0.  1.
</event>
<event>
 5   0  0.9641157E-05  0.2319546E+04  0.7818609E-02  0.8470254E-01
       -2   -1    0    0    0  501  0.00000000000E+00  0.00000000000E+00  0.15635371170E+04  0.15635371170E+04  0.25500000920E-02 0.  1.
        2   -1    0    0  501    0  0.00000000000E+00  0.00000000000E+00 -0.86027630704E+03  0.86027630705E+03  0.25500000920E-02 0. -1.
    10030    2    1    2    0    0  0.00000000000E+00  0.00000000000E+00  0.70326080994E+03  0.24238134240E+04  0.23195464530E+04 0.  0.
        3    1    3    3  502    0 -0.10847814366E+04 -0.27592938184E+03  0.34360468285E+02  0.11198519728E+04  0.10100000352E+00 0. -1.
       -3    1    3    3    0  502  0.10847814366E+04  0.27592938184E+03  0.66890034165E+03  0.13039614512E+04  0.10100000352E+00 0.  1.
</event>
<event>
 5   0  0.3885219E-05  0.2305794E+04  0.7818609E-02  0.8475640E-01
        1   -1    0    0  501    0  0.00000000000E+00  0.00000000000E+00  0.16352014619E+04  0.16352014619E+04  0.50400001928E-02 0. -1.
       -1   -1    0    0    0  501  0.00000000000E+00  0.00000000000E+00 -0.81284886309E+03  0.81284886311E+03  0.50400001928E-02 0.  1.
    10030    2    1    2    0    0  0.00000000000E+00  0.00000000000E+00  0.82235259882E+03  0.24480503250E+04  0.23057941359E+04 0.  0.
        2    1    3    3  502    0  0.78318673042E+03 -0.11753898896E+03 -0.47835363187E+03  0.92521298400E+03  0.25500000920E-02 0.  1.
       -2    1    3    3    0  502 -0.78318673042E+03  0.11753898896E+03  0.13007062307E+04  0.15228373410E+04  0.25500000920E-02 0. -1.
</event>
<event>
 5   0  0.9312074E-05  0.2313481E+04  0.7818609E-02  0.8472625E-01
       -2   -1    0    0    0  501  0.00000000000E+00  0.00000000000E+00  0.84735075968E+03  0.84735075968E+03  0.25500000920E-02 0.  1.
        2   -1    0    0  501    0  0.00000000000E+00  0.00000000000E+00 -0.15790960665E+04  0.15790960665E+04  0.25500000920E-02 0. -1.
    10030    2    1    2    0    0  0.00000000000E+00  0.00000000000E+00 -0.73174530679E+03  0.24264468262E+04  0.23134807123E+04 0.  0.
        4    1    3    3  502    0  0.75523513485E+03  0.84777193584E+03 -0.59792075787E+03  0.12832023261E+04  0.12699999809E+01 0. -1.
       -4    1    3    3    0  502 -0.75523513485E+03 -0.84777193584E+03 -0.13382454892E+03  0.11432445001E+04  0.12699999809E+01 0.  1.
</event>
<event>
 5   0  0.4295775E-05  0.2272776E+04  0.7818609E-02  0.8488733E-01
        1   -1    0    0  501    0  0.00000000000E+00  0.00000000000E+00  0.14620208027E+04  0.14620208027E+04  0.50400001928E-02 0. -1.
       -1   -1    0    0    0  501  0.00000000000E+00  0.00000000000E+00 -0.88328290337E+03  0.88328290339E+03  0.50400001928E-02 0.  1.
    10030    2    1    2    0    0  0.00000000000E+00  0.00000000000E+00  0.57873789935E+03  0.23453037061E+04  0.22727762578E+04 0.  0.
        5    1    3    3  502    0 -0.17918512639E+03  0.54981349734E+03 -0.72008815371E+03  0.92355358832E+03  0.46999998093E+01 0.  1.
       -5    1    3    3    0  502  0.17918512639E+03 -0.54981349734E+03  0.12988260531E+04  0.14217501178E+04  0.46999998093E+01 0. -1.
</event>
<event>
 5   0  0.3885219E-05  0.2338432E+04  0.7818609E-02  0.8462920E-01
       -1   -1    0    0    0  501  0.00000000000E+00  0.00000000000E+00  0.14095074656E+04  0.14095074656E+04  0.50400001928E-02 0. -1.
        1   -1    0    0  501    0  0.00000000000E+00  0.00000000000E+00 -0.96988907640E+03  0.96988907642E+03  0.50400001928E-02 0.  1.
    10030    2    1    2    0    0  0.00000000000E+00  0.00000000000E+00  0.43961838915E+03  0.23793965420E+04  0.23384318626E+04 0.  0.
        2    1    3    3  502    0  0.49320611069E+03  0.18912526625E+02 -0.85869075488E+03  0.99043412896E+03  0.25500000920E-02 0.  1.
       -2    1    3    3    0  502 -0.49320611069E+03 -0.18912526625E+02  0.12983091440E+04  0.13889624130E+04  0.25500000920E-02 0. -1.
</event>
<event>
 5   0  0.3261500E-05  0.2085588E+04  0.7818609E-02  0.8567618E-01
        3   -1    0    0  501    0  0.00000000000E+00  0.00000000000E+00  0.25938476537E+04  0.25938476556E+04  0.10100000352E+00 0.  1.
       -3   -1    0    0    0  501  0.00000000000E+00  0.00000000000E+00 -0.41923037224E+03  0.41923038441E+03  0.10100000352E+00 0. -1.
    10030    2    1    2    0    0  0.00000000000E+00  0.00000000000E+00  0.21746172814E+04  0.30130780400E+04  0.20855883953E+04 0.  0.
        3    1    3    3  502    0 -0.70808418422E+03 -0.75203564738E+03  0.88056359637E+03  0.13573257105E+04  0.10100000352E+00 0.  1.
       -3    1    3    3    0  502  0.70808418422E+03  0.75203564738E+03  0.12940536851E+04  0.16557523296E+04  0.10100000352E+00 0. -1.
</event>
<event>
 5   0  0.3885219E-05  0.2319342E+04  0.7818609E-02  0.8470334E-01
        1   -1    0    0  501    0  0.00000000000E+00  0.00000000000E+00  0.17625238611E+04  0.17625238611E+04  0.50400001928E-02 0. -1.
       -1   -1    0    0    0  501  0.00000000000E+00  0.00000000000E+00 -0.76301793400E+03  0.76301793402E+03  0.50400001928E-02 0.  1.
    10030    2    1    2    0    0  0.00000000000E+00  0.00000000000E+00  0.99950592706E+03  0.25255417951E+04  0.23193424198E+04 0.  0.
        2    1    3    3  502    0 -0.10779934726E+04  0.15416171541E+02  0.96497094691E+03  0.14468851073E+04  0.25500000920E-02 0. -1.
       -2    1    3    3    0  502  0.10779934726E+04 -0.15416171541E+02  0.34534980151E+02  0.10786566878E+04  0.25500000920E-02 0.  1.
</event>
<event>
 5   0  0.4095451E-05  0.1538429E+04  0.7818609E-02  0.8859292E-01
        1   -1    0    0  501    0  0.00000000000E+00  0.00000000000E+00  0.53193721443E+03  0.53193721446E+03  0.50400001928E-02 0.  1.
       -1   -1    0    0    0  501  0.00000000000E+00  0.00000000000E+00 -0.11123328620E+04  0.11123328621E+04  0.50400001928E-02 0. -1.
    10030    2    1    2    0    0  0.00000000000E+00  0.00000000000E+00 -0.58039564762E+03  0.16442700765E+04  0.15384293863E+04 0.  0.
        3    1    3    3  502    0  0.19682083957E+03  0.58345277668E+03 -0.78293062992E+03  0.99606022256E+03  0.10100000352E+00 0. -1.
       -3    1    3    3    0  502 -0.19682083957E+03 -0.58345277668E+03  0.20253498230E+03  0.64820985396E+03  0.10100000352E+00 0.  1.
</event>
<event>
 5   0  0.4295775E-05  0.2387390E+04  0.7818609E-02  0.8444240E-01
       -1   -1    0    0    0  501  0.00000000000E+00  0.00000000000E+00  0.72819166579E+03  0.72819166581E+03  0.50400001928E-02 0.  1.
        1   -1    0    0  501    0  0.00000000000E+00  0.00000000000E+00 -0.19567759531E+04  0.19567759531E+04  0.50400001928E-02 0. -1.
    10030    2    1    2    0    0  0.00000000000E+00  0.00000000000E+00 -0.12285842873E+04  0.26849676189E+04  0.23873901574E+04 0.  0.
        5    1    3    3  502    0  0.82059126015E+03  0.74729719626E+03 -0.11084490627E+04  0.15685995443E+04  0.46999998093E+01 0. -1.
       -5    1    3    3    0  502 -0.82059126015E+03 -0.74729719626E+03 -0.12013522458E+03  0.11163680746E+04  0.46999998093E+01 0.  1.
</event>
<event>
 5   0  0.9483073E-05  0.2329856E+04  0.7818609E-02  0.8466242E-01
       -2   -1    0    0    0  501  0.00000000000E+00  0.00000000000E+00  0.55500097934E+03  0.55500097934E+03  0.25500000920E-02 0.  1.
        2   -1    0    0  501    0  0.00000000000E+00  0.00000000000E+00 -0.24451436712E+04  0.24451436712E+04  0.25500000920E-02 0. -1.
    10030    2    1    2    0    0  0.00000000000E+00  0.00000000000E+00 -0.18901426919E+04  0.30001446506E+04  0.23298559030E+04 0.  0.
        5    1    3    3  502    0  0.10712665787E+04 -0.45450021090E+03 -0.87629686473E+03  0.14567432201E+04  0.46999998093E+01 0.  1.
       -5    1    3    3    0  502 -0.10712665787E+04  0.45450021090E+03 -0.10138458272E+04  0.15434014304E+04  0.46999998093E+01 0. -1.
</event>
<event>
 5   0  0.4139830E-05  0.2262190E+04  0.7818609E-02  0.8492980E-01
       -1   -1    0    0    0  501  0.00000000000E+00  0.00000000000E+00  0.85669335800E+03  0.85669335802E+03  0.50400001928E-02 0. -1.
        1   -1    0    0  501    0  0.00000000000E+00  0.00000000000E+00 -0.14933885016E+04  0.14933885016E+04  0.50400001928E-02 0.  1.
    10030    2    1    2    0    0  0.00000000000E+00  0.00000000000E+00 -0.63669514357E+03  0.23500818596E+04  0.22621900983E+04 0.  0.
        1    1    3    3  502    0  0.15866662446E+03 -0.23388420110E+03 -0.14561159386E+04  0.14832904449E+04  0.50400001928E-02 0.  1.
       -1    1    3    3    0  502 -0.15866662446E+03  0.23388420110E+03  0.81942079503E+03  0.86679141470E+03  0.50400001928E-02 0. -1.
</event>
<event>
 5   0  0.4295775E-05  0.2259663E+04  0.7818609E-02  0.8493998E-01
        1   -1    0    0  501    0  0.00000000000E+00  0.00000000000E+00  0.57003534818E+03  0.57003534820E+03  0.50400001928E-02 0.  1.
       -1   -1    0    0    0  501  0.00000000000E+00  0.00000000000E+00 -0.22393675593E+04  0.22393675593E+04  0.50400001928E-02 0. -1.
    10030    2    1    2    0    0  0.00000000000E+00  0.00000000000E+00 -0.16693322112E+04  0.28094029075E+04  0.22596625115E+04 0.  0.
        5    1    3    3  502    0 -0.54640920589E+03  0.19243848137E+03 -0.20406525022E+04  0.21212921331E+04  0.46999998093E+01 0. -1.
       -5    1    3    3    0  502  0.54640920589E+03 -0.19243848137E+03  0.37132029100E+03  0.68811077444E+03  0.46999998093E+01 0.  1.
</event>
<event>
 5   0  0.4005462E-05  0.2333118E+04  0.7818609E-02  0.8464976E-01
        1   -1    0    0  501    0  0.00000000000E+00  0.00000000000E+00  0.22011518653E+04  0.22011518653E+04  0.50400001928E-02 0.  1.
       -1   -1    0    0    0  501  0.00000000000E+00  0.00000000000E+00 -0.61824908720E+03  0.61824908722E+03  0.50400001928E-02 0. -1.
    10030    2    1    2    0    0  0.00000000000E+00  0.00000000000E+00  0.15829027781E+04  0.28194009525E+04  0.23331181981E+04 0.  0.
        4    1    3    3  502    0 -0.10795856082E+04 -0.61882747488E+00  0.13255607619E+04  0.17095667331E+04  0.12699999809E+01 0.  1.
       -4    1    3    3    0  502  0.10795856082E+04  0.61882747488E+00  0.25734201617E+03  0.11098342194E+04  0.12699999809E+01 0. -1.
</event>
<event>
 5   0  0.3885219E-05  0.2293011E+04  0.7818609E-02  0.8480682E-01
        1   -1    0    0  501    0  0.00000000000E+00  0.00000000000E+00  0.17702902789E+04  0.17702902789E+04  0.50400001928E-02 0.  1.
       -1   -1    0    0    0  501  0.00000000000E+00  0.00000000000E+00 -0.74251920145E+03  0.74251920147E+03  0.50400001928E-02 0. -1.
    10030    2    1    2    0    0  0.00000000000E+00  0.00000000000E+00  0.10277710775E+04  0.25128094804E+04  0.22930107058E+04 0.  0.
        2    1    3    3  502    0  0.89089188634E+03 -0.65816166170E+02  0.13014198276E+04  0.15785162934E+04  0.25500000920E-02 0.  1.
       -2    1    3    3    0  502 -0.89089188634E+03  0.65816166170E+02 -0.27364875009E+03  0.93429318702E+03  0.25500000920E-02 0. -1.
</event>
<event>
 5   0  0.9535394E-05  0.2229748E+04  0.7818609E-02  0.8506147E-01
        2   -1    0    0  501    0  0.00000000000E+00  0.00000000000E+00  0.22522498616E+04  0.22522498616E+04  0.25500000920E-02 0. -1.
       -2   -1    0    0    0  501  0.00000000000E+00  0.00000000000E+00 -0.55186791279E+03  0.55186791279E+03  0.25500000920E-02 0.  1.
    10030    2    1    2    0    0  0.00000000000E+00  0.00000000000E+00  0.17003819488E+04  0.28041177744E+04  0.22297483537E+04 0.  0.
        2    1    3    3  502    0 -0.10075430184E+04  0.35700288512E+03  0.12485732710E+04  0.16436329295E+04  0.25500000920E-02 0.  1.
       -2    1    3    3    0  502  0.10075430184E+04 -0.35700288512E+03  0.45180867779E+03  0.11604848449E+04  0.25500000920E-02 0. -1.
</event>
<event>
 5   0  0.9641157E-05  0.2235283E+04  0.7818609E-02  0.8503885E-01
       -2   -1    0    0    0  501  0.00000000000E+00  0.00000000000E+00  0.55796203327E+03  0.55796203327E+03  0.25500000920E-02 0. -1.
        2   -1    0    0  501    0  0.00000000000E+00  0.00000000000E+00 -0.22387225616E+04  0.22387225616E+04  0.25500000920E-02 0.  1.
    10030    2    1    2    0    0  0.00000000000E+00  0.00000000000E+00 -0.16807605284E+04  0.27966845949E+04  0.22352827046E+04 0.  0.
        3    1    3    3  502    0 -0.46499635872E+03  0.10163170519E+04 -0.83979515134E+03  0.13979906545E+04  0.10100000352E+00 0.  1.
       -3    1    3    3    0  502  0.46499635872E+03 -0.10163170519E+04 -0.84096537702E+03  0.13986939405E+04  0.10100000352E+00 0. -1.
</event>
<event>
 5   0  0.9312074E-05  0.2335544E+04  0.7818609E-02  0.8464037E-01
       -2   -1    0    0    0  501  0.00000000000E+00  0.00000000000E+00  0.10873625450E+04  0.10873625450E+04  0.25500000920E-02 0.  1.
        2   -1    0    0  501    0  0.00000000000E+00  0.00000000000E+00 -0.12541281005E+04  0.12541281005E+04  0.25500000920E-02 0. -1.
    10030    2    1    2    0    0  0.00000000000E+00  0.00000000000E+00 -0.16676555545E+03  0.23414906455E+04  0.23355444103E+04 0.  0.
        4    1    3    3  502    0 -0.37136968008E+03 -0.32900815515E+02 -0.11928585168E+04  0.12497643606E+04  0.12699999809E+01 0. -1.
       -4    1    3    3    0  502  0.37136968008E+03  0.32900815515E+02  0.10260929614E+04  0.10917262849E+04  0.12699999809E+01 0.  1.
</event>
<event>
 5   0  0.4295775E-05  0.2282700E+04  0.7818609E-02  0.8484774E-01
       -1   -1    0    0    0  501  0.00000000000E+00  0.00000000000E+00  0.91410758673E+03  0.91410758674E+03  0.50400001928E-02 0.  1.
        1   -1    0    0  501    0  0.00000000000E+00  0.00000000000E+00 -0.14250834939E+04  0.14250834939E+04  0.50400001928E-02 0. -1.
    10030    2    1    2    0    0  0.00000000000E+00  0.00000000000E+00 -0.51097590718E+03  0.23391910807E+04  0.22826998344E+04 0.  0.
        5    1    3    3  502    0  0.25776369493E+03 -0.99293798125E+03 -0.76815839968E+03  0.12815839317E+04  0.46999998093E+01 0. -1.
       -5    1    3    3    0  502 -0.25776369493E+03  0.99293798125E+03  0.25718249250E+03  0.10576071489E+04  0.46999998093E+01 0.  1.
</event>
<event>
 5   0  0.9313463E-05  0.2128148E+04  0.7818609E-02  0.8548944E-01
        2   -1    0    0  501    0  0.00000000000E+00  0.00000000000E+00  0.14452171340E+04  0.14452171340E+04  0.25500000920E-02 0.  1.
       -2   -1    0    0    0  501  0.00000000000E+00  0.00000000000E+00 -0.78344884833E+03  0.78344884833E+03  0.25500000920E-02 0. -1.
    10030    2    1    2    0    0  0.00000000000E+00  0.00000000000E+00  0.66176828568E+03  0.22286659823E+04  0.21281482084E+04 0.  0.
        1    1    3    3  502    0 -0.70148318646E+03  0.70084735172E+03  0.73510507589E+03  0.12343602164E+04  0.50400001928E-02 0.  1.
       -1    1    3    3    0  502  0.70148318646E+03 -0.70084735172E+03 -0.73336790205E+02  0.99430576591E+03  0.50400001928E-02 0. -1.
</event>
<event>
 5   0  0.9483073E-05  0.2223824E+04  0.7818609E-02  0.8508577E-01
       -2   -1    0    0    0  501  0.00000000000E+00  0.00000000000E+00  0.13862795833E+04  0.13862795833E+04  0.25500000920E-02 0. -1.
        2   -1    0    0  501    0  0.00000000000E+00  0.00000000000E+00 -0.89184621158E+03  0.89184621159E+03  0.25500000920E-02 0.  1.
    10030    2    1    2    0    0  0.00000000000E+00  0.00000000000E+00  0.49443337170E+03  0.22781257949E+04  0.22238239090E+04 0.  0.
        5    1    3    3  502    0  0.84193734144E+03 -0.56123962873E+03 -0.22499201102E+03  0.10365770125E+04  0.46999998093E+01 0.  1.
       -5    1    3    3    0  502 -0.84193734144E+03  0.56123962873E+03  0.71942538272E+03  0.12415487824E+04  0.46999998093E+01 0. -1.
</event>
<event>
 5   0  0.4005462E-05  0.2329644E+04  0.7818609E-02  0.8466324E-01
       -1   -1    0    0    0  501  0.00000000000E+00  0.00000000000E+00  0.90982545916E+03  0.90982545917E+03  0.50400001928E-02 0.  1.
        1   -1    0    0  501    0  0.00000000000E+00  0.00000000000E+00 -0.14912867984E+04  0.14912867984E+04  0.50400001928E-02 0. -1.
    10030    2    1    2    0    0  0.00000000000E+00  0.00000000000E+00 -0.58146133926E+03  0.24011122576E+04  0.23296443472E+04 0.  0.
        4    1    3    3  502    0 -0.54427883723E+03  0.54728518251E+03 -0.11898742006E+04  0.14182957201E+04  0.12699999809E+01 0. -1.
       -4    1    3    3    0  502  0.54427883723E+03 -0.54728518251E+03  0.60841286130E+03  0.98281653748E+03  0.12699999809E+01 0.  1.
</event>
<event>
 5   0  0.3885219E-05  0.2290435E+04  0.7818609E-02  0.8481702E-01
       -1   -1    0    0    0  501  0.00000000000E+00  0.00000000000E+00  0.96918323853E+03  0.96918323855E+03  0.50400001928E-02 0. -1.
        1   -1    0    0  501    0  0.00000000000E+00  0.00000000000E+00 -0.13532248024E+04  0.13532248024E+04  0.50400001928E-02 0.  1.
    10030    2    1    2    0    0  0.00000000000E+00  0.00000000000E+00 -0.38404156384E+03  0.23224080409E+04  0.22904347155E+04 0.  0.
        2    1    3    3  502    0  0.10225853260E+04 -0.17278829277E+03 -0.68458624980E+03  0.12426563791E+04  0.25500000920E-02 0. -1.
       -2    1    3    3    0  502 -0.10225853260E+04  0.17278829277E+03  0.30054468596E+03  0.10797516619E+04  0.25500000920E-02 0.  1.
</event>
<event>
 5   0  0.3885219E-05  0.2317880E+04  0.7818609E-02  0.8470904E-01
        1   -1    0    0  501    0  0.00000000000E+00  0.00000000000E+00  0.11553594409E+04  0.11553594409E+04  0.50400001928E-02 0. -1.
       -1   -1    0    0    0  501  0.00000000000E+00  0.00000000000E+00 -0.11625318973E+04  0.11625318973E+04  0.50400001928E-02 0.  1.
    10030    2    1    2    0    0  0.00000000000E+00  0.00000000000E+00 -0.71724564017E+01  0.23178913382E+04  0.23178802410E+04 0.  0.
        2    1    3    3  502    0 -0.11566435879E+04 -0.11214556825E+02  0.68469979070E+02  0.11587226992E+04  0.25500000920E-02 0.  1.
       -2    1    3    3    0  502  0.11566435879E+04  0.11214556825E+02 -0.75642435472E+02  0.11591686390E+04  0.25500000920E-02 0. -1.
</event>
<event>
 5   0  0.4095451E-05  0.2306039E+04  0.7818609E-02  0.8475544E-01
       -1   -1    0    0    0  501  0.00000000000E+00  0.00000000000E+00  0.58052254233E+03  0.58052254235E+03  0.50400001928E-02 0.  1.
        1   -1    0    0  501    0  0.00000000000E+00  0.00000000000E+00 -0.22900982594E+04  0.22900982594E+04  0.50400001928E-02 0. -1.
    10030    2    1    2    0    0  0.00000000000E+00  0.00000000000E+00 -0.17095757171E+04  0.28706208018E+04  0.23060387367E+04 0.  0.
        3    1    3    3  502    0 -0.31237780312E+03  0.93176397123E+03 -0.16055021928E+04  0.18823924382E+04  0.10100000352E+00 0. -1.
       -3    1    3    3    0  502  0.31237780312E+03 -0.93176397123E+03 -0.10407352428E+03  0.98822836360E+03  0.10100000352E+00 0.  1.
</event>
<event>
 5   0  0.3885219E-05  0.2302349E+04  0.7818609E-02  0.8476995E-01
       -1   -1    0    0    0  501  0.00000000000E+00  0.00000000000E+00  0.14400746394E+04  0.14400746394E+04  0.50400001928E-02 0.  1.
        1   -1    0    0  501    0  0.00000000000E+00  0.00000000000E+00 -0.92023204884E+03  0.92023204885E+03  0.50400001928E-02 0. -1.
    10030    2    1    2    0    0  0.00000000000E+00  0.00000000000E+00  0.51984259052E+03  0.23603066882E+04  0.23023490925E+04 0.  0.
        2    1    3    3  502    0 -0.91023372125E+02 -0.11182242926E+04  0.52427293194E+03  0.12383751169E+04  0.25500000920E-02 0.  1.
       -2    1    3    3    0  502  0.91023372125E+02  0.11182242926E+04 -0.44303414211E+01  0.11219315714E+04  0.25500000920E-02 0. -1.
</event>
<event>
 5   0  0.9535394E-05  0.2296749E+04  0.7818609E-02  0.8479204E-01
       -2   -1    0    0    0  501  0.00000000000E+00  0.00000000000E+00  0.77609118253E+03  0.77609118253E+03  0.25500000920E-02 0.  1.
        2   -1    0    0  501    0  0.00000000000E+00  0.00000000000E+00 -0.16992381581E+04  0.16992381581E+04  0.25500000920E-02 0. -1.
    10030    2    1    2    0    0  0.00000000000E+00  0.00000000000E+00 -0.92314697552E+03  0.24753293406E+04  0.22967487903E+04 0.  0.
        2    1    3    3  502    0  0.27679948104E+02 -0.11193811256E+04 -0.18683409456E+03  0.11352036217E+04  0.25500000920E-02 0.  1.
       -2    1    3    3    0  502 -0.27679948104E+02  0.11193811256E+04 -0.73631288097E+03  0.13401257189E+04  0.25500000920E-02 0. -1.
</event>
<event>
 5   0  0.9535394E-05  0.2277362E+04  0.7818609E-02  0.8486901E-01
       -2   -1    0    0    0  501  0.00000000000E+00  0.00000000000E+00  0.52672128987E+03  0.52672128987E+03  0.25500000920E-02 0.  1.
        2   -1    0    0  501    0  0.00000000000E+00  0.00000000000E+00 -0.24616334027E+04  0.24616334027E+04  0.25500000920E-02 0. -1.
    10030    2    1    2    0    0  0.00000000000E+00  0.00000000000E+00 -0.19349121129E+04  0.29883546926E+04  0.22773622646E+04 0.  0.
        2    1    3    3  502    0  0.72762769419E+03  0.61288493026E+03 -0.17885249858E+04  0.20258064133E+04  0.25500000920E-02 0. -1.
       -2    1    3    3    0  502 -0.72762769419E+03 -0.61288493026E+03 -0.14638712703E+03  0.96254827933E+03  0.25500000920E-02 0.  1.
</event>
<event>
 5   0  0.9641157E-05  0.2095886E+04  0.7818609E-02  0.8563058E-01
       -2   -1    0    0    0  501  0.00000000000E+00  0.00000000000E+00  0.72380789643E+03  0.72380789643E+03  0.25500000920E-02 0.  1.
        2   -1    0    0  501    0  0.00000000000E+00  0.00000000000E+00 -0.15172317915E+04  0.15172317915E+04  0.25500000920E-02 0. -1.
    10030    2    1    2    0    0  0.00000000000E+00  0.00000000000E+00 -0.79342389511E+03  0.22410396880E+04  0.20958858284E+04 0.  0.
        3    1    3    3  502    0  0.10132939697E+04 -0.26490375469E+03 -0.35897350705E+03  0.11071588220E+04  0.10100000352E+00 0.  1.
       -3    1    3    3    0  502 -0.10132939697E+04  0.26490375469E+03 -0.43445038806E+03  0.11338808659E+04  0.10100000352E+00 0. -1.
</event>
<event>
 5   0  0.4139830E-05  0.2303559E+04  0.7818609E-02  0.8476519E-01
       -1   -1    0    0    0  501  0.00000000000E+00  0.00000000000E+00  0.65918592346E+03  0.65918592348E+03  0.50400001928E-02 0. -1.
        1   -1    0    0  501    0  0.00000000000E+00  0.00000000000E+00 -0.20124754680E+04  0.20124754680E+04  0.50400001928E-02 0.  1.
    10030    2    1    2    0    0  0.00000000000E+00  0.00000000000E+00 -0.13532895446E+04  0.26716613915E+04  0.23035585513E+04 0.  0.
        1    1    3    3  502    0 -0.55873164794E+03 -0.69157762522E+03 -0.15258627343E+04  0.17659891705E+04  0.50400001928E-02 0.  1.
       -1    1    3    3    0  502  0.55873164794E+03  0.69157762522E+03  0.17257318978E+03  0.90567222105E+03  0.50400001928E-02 0. -1.
</event>
<event>
 5   0  0.3885219E-05  0.1475973E+04  0.7818609E-02  0.8900589E-01
        1   -1    0    0  501    0  0.00000000000E+00  0.00000000000E+00  0.65851421402E+03  0.65851421404E+03  0.50400001928E-02 0. -1.
       -1   -1    0    0    0  501  0.00000000000E+00  0.00000000000E+00 -0.82705033954E+03  0.82705033956E+03  0.50400001928E-02 0.  1.
    10030    2    1    2    0    0  0.00000000000E+00  0.00000000000E+00 -0.16853612552E+03  0.14855645536E+04  0.14759734474E+04 0.  0.
        2    1    3    3  502    0 -0.54119658563E+03  0.42714345668E+03  0.18065159681E+03  0.71272735062E+03  0.25500000920E-02 0. -1.
       -2    1    3    3    0  502  0.54119658563E+03 -0.42714345668E+03 -0.34918772232E+03  0.77283720298E+03  0.25500000920E-02 0.  1.
</event>
<event>
 5   0  0.3885219E-05  0.2336733E+04  0.7818609E-02  0.8463577E-01
       -1   -1    0    0    0  501  0.00000000000E+00  0.00000000000E+00  0.16080185896E+04  0.16080185896E+04  0.50400001928E-02 0.  1.
        1   -1    0    0  501    0  0.00000000000E+00  0.00000000000E+00 -0.84892071744E+03  0.84892071745E+03  0.50400001928E-02 0. -1.
    10030    2    1    2    0    0  0.00000000000E+00  0.00000000000E+00  0.75909787217E+03  0.24569393071E+04  0.23367330141E+04 0.  0.
        2    1    3    3  502    0  0.10760468332E+03 -0.68747140145E+03  0.13663846139E+04  0.15333631692E+04  0.25500000920E-02 0.  1.
       -2    1    3    3    0  502 -0.10760468332E+03  0.68747140145E+03 -0.60728674172E+03  0.92357613783E+03  0.25500000920E-02 0. -1.
</event>
<event>
 5   0  0.9641157E-05  0.2305555E+04  0.7818609E-02  0.8475734E-01
        2   -1    0    0  501    0  0.00000000000E+00  0.00000000000E+00  0.11463440873E+04  0.11463440873E+04  0.25500000920E-02 0. -1.
       -2   -1    0    0    0  501  0.00000000000E+00  0.00000000000E+00 -0.11592466118E+04  0.11592466118E+04  0.25500000920E-02 0.  1.
    10030    2    1    2    0    0  0.00000000000E+00  0.00000000000E+00 -0.12902524444E+02  0.23055906991E+04  0.23055545964E+04 0.  0.
        3    1    3    3  502    0 -0.32345725394E+03  0.55281366779E+03  0.95203541673E+03  0.11474314757E+04  0.10100000352E+00 0. -1.
       -3    1    3    3    0  502  0.32345725394E+03 -0.55281366779E+03 -0.96493794117E+03  0.11581592235E+04  0.10100000352E+00 0.  1.
</event>
<event>
 5   0  0.9535394E-05  0.2293078E+04  0.7818609E-02  0.8480656E-01
       -2   -1    0    0    0  501  0.00000000000E+00  0.00000000000E+00  0.18806255841E+04  0.18806255841E+04  0.25500000920E-02 0.  1.
        2   -1    0    0  501    0  0.00000000000E+00  0.00000000000E+00 -0.69899672759E+03  0.69899672759E+03  0.25500000920E-02 0. -1.
    10030    2    1    2    0    0  0.00000000000E+00  0.00000000000E+00  0.11816288565E+04  0.25796223117E+04  0.22930775208E+04 0.  0.
        2    1    3    3  502    0  0.40560839752E+03 -0.51751136899E+03 -0.46581959741E+03  0.80580648205E+03  0.25500000920E-02 0. -1.
       -2    1    3    3    0  502 -0.40560839752E+03  0.51751136899E+03  0.16474484539E+04  0.17738158296E+04  0.25500000920E-02 0.  1.
</event>
<event>
 5   0  0.9535394E-05  0.2303433E+04  0.7818609E-02  0.8476569E-01
        2   -1    0    0  501    0  0.00000000000E+00  0.00000000000E+00  0.13523032671E+04  0.13523032671E+04  0.25500000920E-02 0. -1.
       -2   -1    0    0    0  501  0.00000000000E+00  0.00000000000E+00 -0.98088261515E+03  0.98088261516E+03  0.25500000920E-02 0.  1.
    10030    2    1    2    0    0  0.00000000000E+00  0.00000000000E+00  0.37142065191E+03  0.23331858822E+04  0.23034328860E+04 0.  0.
        2    1    3    3  502    0 -0.90736263660E+03 -0.44966709904E+03 -0.36995861706E+03  0.10781358136E+04  0.25500000920E-02 0.  1.
       -2    1    3    3    0  502  0.90736263660E+03  0.44966709904E+03  0.74137926898E+03  0.12550500686E+04  0.25500000920E-02 0. -1.
</event>
<event>
 5   0  0.4005462E-05  0.2308113E+04  0.7818609E-02  0.8474729E-01
       -1   -1    0    0    0  501  0.00000000000E+00  0.00000000000E+00  0.88440847987E+03  0.88440847989E+03  0.50400001928E-02 0.  1.
        1   -1    0    0  501    0  0.00000000000E+00  0.00000000000E+00 -0.15059182224E+04  0.15059182224E+04  0.50400001928E-02 0. -1.
    10030    2    1    2    0    0  0.00000000000E+00  0.00000000000E+00 -0.62150974250E+03  0.23903267023E+04  0.23081133819E+04 0.  0.
        4    1    3    3  502    0 -0.37523161232E+02  0.11288024266E+04 -0.55635679523E+03  0.12590223995E+04  0.12699999809E+01 0.  1.
       -4    1    3    3    0  502  0.37523161232E+02 -0.11288024266E+04 -0.65152947273E+02  0.11313043028E+04  0.12699999809E+01 0. -1.
</event>
<event>
 5   0  0.3261500E-05  0.2064553E+04  0.7818609E-02  0.8577021E-01
        3   -1    0    0  501    0  0.00000000000E+00  0.00000000000E+00  0.56071537091E+03  0.56071538001E+03  0.10100000352E+00 0. -1.
       -3   -1    0    0    0  501  0.00000000000E+00  0.00000000000E+00 -0.19004196980E+04  0.19004197007E+04  0.10100000352E+00 0.  1.
    10030    2    1    2    0    0  0.00000000000E+00  0.00000000000E+00 -0.13397043271E+04  0.24611350807E+04  0.20645527848E+04 0.  0.
        2    1    3    3  502    0  0.89863840157E+03  0.46333124225E+03 -0.91810420168E+03  0.13657020693E+04  0.25500000920E-02 0.  1.
       -2    1    3    3    0  502 -0.89863840157E+03 -0.46333124225E+03 -0.42160012543E+03  0.10954330115E+04  0.25500000920E-02 0. -1.
</event>
<event>
 5   0  0.9313463E-05  0.2161441E+04  0.7818609E-02  0.8534651E-01
        2   -1    0    0  501    0  0.00000000000E+00  0.00000000000E+00  0.19476004807E+04  0.19476004807E+04  0.25500000920E-02 0.  1.
       -2   -1    0    0    0  501  0.00000000000E+00  0.00000000000E+00 -0.59969035832E+03  0.59969035833E+03  0.25500000920E-02 0. -1.
    10030    2    1    2    0    0  0.00000000000E+00  0.00000000000E+00  0.13479101224E+04  0.25472908390E+04  0.21614413988E+04 0.  0.
        1    1    3    3  502    0 -0.85203360344E+01  0.32394620445E+03 -0.54108376714E+03  0.63070229316E+03  0.50400001928E-02 0. -1.
       -1    1    3    3    0  502  0.85203360344E+01 -0.32394620445E+03  0.18889938895E+04  0.19165885459E+04  0.50400001928E-02 0.  1.
</event>
<event>
 5   0  0.9641157E-05  0.2262100E+04  0.7818609E-02  0.8493016E-01
        2   -1    0    0  501    0  0.00000000000E+00  0.00000000000E+00  0.11174915611E+04  0.11174915611E+04  0.25500000920E-02 0. -1.
       -2   -1    0    0    0  501  0.00000000000E+00  0.00000000000E+00 -0.11447728354E+04  0.11447728354E+04  0.25500000920E-02 0.  1.
    10030    2    1    2    0    0  0.00000000000E+00  0.00000000000E+00 -0.27281274254E+02  0.22622643965E+04  0.22620998943E+04 0.  0.
        3    1    3    3  502    0  0.65211539516E+03 -0.81033410942E+03  0.43066423951E+03  0.11257742024E+04  0.10100000352E+00 0. -1.
       -3    1    3    3    0  502 -0.65211539516E+03  0.81033410942E+03 -0.45794551376E+03  0.11364901941E+04  0.10100000352E+00 0.  1.
</event>
<event>
 5   0  0.3885219E-05  0.2236159E+04  0.7818609E-02  0.8503527E-01
        1   -1    0    0  501    0  0.00000000000E+00  0.00000000000E+00  0.67449547563E+03  0.67449547565E+03  0.50400001928E-02 0. -1.
       -1   -1    0    0    0  501  0.00000000000E+00  0.00000000000E+00 -0.18533871168E+04  0.18533871168E+04  0.50400001928E-02 0.  1.
    10030    2    1    2    0    0  0.00000000000E+00  0.00000000000E+00 -0.11788916412E+04  0.25278825925E+04  0.22361585140E+04 0.  0.
        2    1    3    3  502    0  0.92291179531E+03  0.44831603689E+03 -0.10916385599E+04  0.14981415808E+04  0.25500000920E-02 0.  1.
       -2    1    3    3    0  502 -0.92291179531E+03 -0.44831603689E+03 -0.87253081327E+02  0.10297410116E+04  0.25500000920E-02 0. -1.
</event>
<event>
 5   0  0.9641157E-05  0.2422648E+04  0.7818609E-02  0.8431073E-01
        2   -1    0    0  501    0  0.00000000000E+00  0.00000000000E+00  0.23861423339E+04  0.23861423339E+04  0.25500000920E-02 0. -1.
       -2   -1    0    0    0  501  0.00000000000E+00  0.00000000000E+00 -0.61492781994E+03  0.61492781995E+03  0.25500000920E-02 0.  1.
    10030    2    1    2    0    0  0.00000000000E+00  0.00000000000E+00  0.17712145139E+04  0.30010701538E+04  0.24226475629E+04 0.  0.
        3    1    3    3  502    0 -0.10222654524E+04 -0.34678952175E+03  0.15663776248E+04  0.19023218711E+04  0.10100000352E+00 0. -1.
       -3    1    3    3    0  502  0.10222654524E+04  0.34678952175E+03  0.20483688915E+03  0.10987482828E+04  0.10100000352E+00 0.  1.
</event>
<event>
 5   0  0.9535394E-05  0.2304796E+04  0.7818609E-02  0.8476032E-01
        2   -1    0    0  501    0  0.00000000000E+00  0.00000000000E+00  0.15853568430E+04  0.15853568430E+04  0.25500000920E-02 0.  1.
       -2   -1    0    0    0  501  0.00000000000E+00  0.00000000000E+00 -0.83767973256E+03  0.83767973257E+03  0.25500000920E-02 0. -1.
    10030    2    1    2    0    0  0.00000000000E+00  0.00000000000E+00  0.74767711043E+03  0.24230365756E+04  0.23047961266E+04 0.  0.
        2    1    3    3  502    0 -0.35566509623E+03 -0.96378424468E+03  0.92277881128E+03  0.13809049444E+04  0.25500000920E-02 0.  1.
       -2    1    3    3    0  502  0.35566509623E+03  0.96378424468E+03 -0.17510170085E+03  0.10421316311E+04  0.25500000920E-02 0. -1.
</event>
<event>
 5   0  0.9483073E-05  0.2343603E+04  0.7818609E-02  0.8460925E-01
       -2   -1    0    0    0  501  0.00000000000E+00  0.00000000000E+00  0.49469173102E+03  0.49469173103E+03  0.25500000920E-02 0. -1.
        2   -1    0    0  501    0  0.00000000000E+00  0.00000000000E+00 -0.27757051181E+04  0.27757051181E+04  0.25500000920E-02 0.  1.
    10030    2    1    2    0    0  0.00000000000E+00  0.00000000000E+00 -0.22810133871E+04  0.32703968491E+04  0.23436026708E+04 0.  0.
        5    1    3    3  502    0 -0.99074754486E+03  0.44529804315E+03 -0.17539132212E+04  0.20630328942E+04  0.46999998093E+01 0.  1.
       -5    1    3    3    0  502  0.99074754486E+03 -0.44529804315E+03 -0.52710016586E+03  0.12073639550E+04  0.46999998093E+01 0. -1.
</event>
<event>
 5   0  0.4095451E-05  0.2329381E+04  0.7818609E-02  0.8466426E-01
        1   -1    0    0  501    0  0.00000000000E+00  0.00000000000E+00  0.18007270227E+04  0.18007270227E+04  0.50400001928E-02 0. -1.
       -1   -1    0    0    0  501  0.00000000000E+00  0.00000000000E+00 -0.75330930914E+03  0.75330930916E+03  0.50400001928E-02 0.  1.
    10030    2    1    2    0    0  0.00000000000E+00  0.00000000000E+00  0.10474177135E+04  0.25540363318E+04  0.23293814024E+04 0.  0.
        3    1    3    3  502    0 -0.49256846273E+03  0.10548790439E+04  0.48716367666E+03  0.12620308815E+04  0.10100000352E+00 0.  1.
       -3    1    3    3    0  502  0.49256846273E+03 -0.10548790439E+04  0.56025403686E+03  0.12920054504E+04  0.10100000352E+00 0. -1.
</event>
<event>
 5   0  0.4295775E-05  0.2307726E+04  0.7818609E-02  0.8474881E-01
       -1   -1    0    0    0  501  0.00000000000E+00  0.00000000000E+00  0.80272280009E+03  0.80272280011E+03  0.50400001928E-02 0.  1.
        1   -1    0    0  501    0  0.00000000000E+00  0.00000000000E+00 -0.16586048580E+04  0.16586048580E+04  0.50400001928E-02 0. -1.
    10030    2    1    2    0    0  0.00000000000E+00  0.00000000000E+00 -0.85588205791E+03  0.24613276581E+04  0.23077260980E+04 0.  0.
        5    1    3    3  502    0  0.79807114639E+03  0.56730957096E+03 -0.10789970113E+04  0.14570567403E+04  0.46999998093E+01 0. -1.
       -5    1    3    3    0  502 -0.79807114639E+03 -0.56730957096E+03  0.22311495339E+03  0.10042709178E+04  0.46999998093E+01 0.  1.
</event>
<event>
 5   0  0.9313463E-05  0.2302529E+04  0.7818609E-02  0.8476925E-01
       -2   -1    0    0    0  501  0.00000000000E+00  0.00000000000E+00  0.74790772137E+03  0.74790772138E+03  0.25500000920E-02 0.  1.
        2   -1    0    0  501    0  0.00000000000E+00  0.00000000000E+00 -0.17721575392E+04  0.17721575392E+04  0.25500000920E-02 0. -1.
    10030    2    1    2    0    0  0.00000000000E+00  0.00000000000E+00 -0.10242498179E+04  0.25200652606E+04  0.23025293111E+04 0.  0.
        1    1    3    3  502    0 -0.60064633921E+03  0.39212797675E+03  0.47343316119E+03  0.85946456186E+03  0.50400001928E-02 0.  1.
       -1    1    3    3    0  502  0.60064633921E+03 -0.39212797675E+03 -0.14976829790E+04  0.16606006988E+04  0.50400001928E-02 0. -1.
</event>
<event>
 5   0  0.4005462E-05  0.2290731E+04  0.7818609E-02  0.8481585E-01
       -1   -1    0    0    0  501  0.00000000000E+00  0.00000000000E+00  0.87537586670E+03  0.87537586672E+03  0.50400001928E-02 0. -1.
        1   -1    0    0  501    0  0.00000000000E+00  0.00000000000E+00 -0.14986274033E+04  0.14986274033E+04  0.50400001928E-02 0.  1.
    10030    2    1    2    0    0  0.00000000000E+00  0.00000000000E+00 -0.62325153655E+03  0.23740032700E+04  0.22907311165E+04 0.  0.
        4    1    3    3  502    0 -0.39242124492E+03 -0.82293845734E+03  0.40685720476E+03  0.99837695086E+03  0.12699999809E+01 0. -1.
       -4    1    3    3    0  502  0.39242124492E+03  0.82293845734E+03 -0.10301087413E+04  0.13756263191E+04  0.12699999809E+01 0.  1.
</event>
<event>
 5   0  0.9535394E-05  0.1674677E+04  0.7818609E-02  0.8775940E-01
       -2   -1    0    0    0  501  0.00000000000E+00  0.00000000000E+00  0.15996300650E+04  0.15996300650E+04  0.25500000920E-02 0.  1.
        2   -1    0    0  501    0  0.00000000000E+00  0.00000000000E+00 -0.43831130865E+03  0.43831130866E+03  0.25500000920E-02 0. -1.
    10030    2    1    2    0    0  0.00000000000E+00  0.00000000000E+00  0.11613187564E+04  0.20379413737E+04  0.16746772193E+04 0.  0.
        2    1    3    3  502    0 -0.20607906493E+03 -0.56604245606E+03  0.12884226421E+04  0.14222888411E+04  0.25500000920E-02 0.  1.
       -2    1    3    3    0  502  0.20607906493E+03  0.56604245606E+03 -0.12710388568E+03  0.61565253255E+03  0.25500000920E-02 0. -1.
</event>
<event>
 5   0  0.4139830E-05  0.2137482E+04  0.7818609E-02  0.8544910E-01
        1   -1    0    0  501    0  0.00000000000E+00  0.00000000000E+00  0.25286102537E+04  0.25286102537E+04  0.50400001928E-02 0.  1.
       -1   -1    0    0    0  501  0.00000000000E+00  0.00000000000E+00 -0.45171346742E+03  0.45171346745E+03  0.50400001928E-02 0. -1.
    10030    2    1    2    0    0  0.00000000000E+00  0.00000000000E+00  0.20768967863E+04  0.29803237211E+04  0.21374819817E+04 0.  0.
        1    1    3    3  502    0  0.64933982032E+03  0.64906736702E+03  0.18012250581E+04  0.20217176754E+04  0.50400001928E-02 0.  1.
       -1    1    3    3    0  502 -0.64933982032E+03 -0.64906736702E+03  0.27567172820E+03  0.95860604575E+03  0.50400001928E-02 0. -1.
</event>
<event>
 5   0  0.9312074E-05  0.2179787E+04  0.7818609E-02  0.8526889E-01
       -2   -1    0    0    0  501  0.00000000000E+00  0.00000000000E+00  0.17307323751E+04  0.17307323751E+04  0.25500000920E-02 0.  1.
        2   -1    0    0  501    0  0.00000000000E+00  0.00000000000E+00 -0.68633821585E+03  0.68633821585E+03  0.25500000920E-02 0. -1.
    10030    2    1    2    0    0  0.00000000000E+00  0.00000000000E+00  0.10443941592E+04  0.24170705909E+04  0.21797869349E+04 0.  0.
        4    1    3    3  502    0 -0.57275467553E+03  0.89836450730E+03  0.26749914472E+03  0.10984826406E+04  0.12699999809E+01 0. -1.
       -4    1    3    3    0  502  0.57275467553E+03 -0.89836450730E+03  0.77689501448E+03  0.13185879503E+04  0.12699999809E+01 0.  1.
</event>
<event>
 5   0  0.4005462E-05  0.2213471E+04  0.7818609E-02  0.8512842E-01
       -1   -1    0    0    0  501  0.00000000000E+00  0.00000000000E+00  0.11247976532E+04  0.11247976532E+04  0.50400001928E-02 0. -1.
        1   -1    0    0  501    0  0.00000000000E+00  0.00000000000E+00 -0.10889629997E+04  0.10889629997E+04  0.50400001928E-02 0.  1.
    10030    2    1    2    0    0  0.00000000000E+00  0.00000000000E+00  0.35834653466E+02  0.22137606529E+04  0.22134706020E+04 0.  0.
        4    1    3    3  502    0 -0.96842502975E+03  0.16840617640E+03  0.52656408723E+03  0.11151139087E+04  0.12699999809E+01 0. -1.
       -4    1    3    3    0  502  0.96842502975E+03 -0.16840617640E+03 -0.49072943376E+03  0.10986467442E+04  0.12699999809E+01 0.  1.
</event>
<event>
 5   0  0.3261500E-05  0.2297808E+04  0.7818609E-02  0.8478786E-01
       -4   -1    0    0    0  501  0.00000000000E+00  0.00000000000E+00  0.15796791515E+04  0.15796796620E+04  0.12699999809E+01 0.  1.
        4   -1    0    0  501    0  0.00000000000E+00  0.00000000000E+00 -0.83559908212E+03  0.83560004723E+03  0.12699999809E+01 0. -1.
    10030    2    1    2    0    0  0.00000000000E+00  0.00000000000E+00  0.74408006934E+03  0.24152797092E+04  0.22978078519E+04 0.  0.
        4    1    3    3  502    0  0.96680868641E+03  0.23088243157E+03  0.97764851411E+03  0.13942108748E+04  0.12699999809E+01 0. -1.
       -4    1    3    3    0  502 -0.96680868641E+03 -0.23088243157E+03 -0.23356844477E+03  0.10210688344E+04  0.12699999809E+01 0.  1.
</event>
<event>
 5   0  0.4005462E-05  0.2301326E+04  0.7818609E-02  0.8477398E-01
       -1   -1    0    0    0  501  0.00000000000E+00  0.00000000000E+00  0.81792195485E+03  0.81792195487E+03  0.50400001928E-02 0.  1.
        1   -1    0    0  501    0  0.00000000000E+00  0.00000000000E+00 -0.16187674114E+04  0.16187674114E+04  0.50400001928E-02 0. -1.
    10030    2    1    2    0    0  0.00000000000E+00  0.00000000000E+00 -0.80084545652E+03  0.24366893663E+04  0.23013260574E+04 0.  0.
        4    1    3    3  502    0 -0.68026491067E+03 -0.24789145261E+03 -0.13473493279E+04  0.15295627955E+04  0.12699999809E+01 0. -1.
       -4    1    3    3    0  502  0.68026491067E+03  0.24789145261E+03  0.54650387143E+03  0.90712657075E+03  0.12699999809E+01 0.  1.
</event>
<event>
 5   0  0.4295775E-05  0.2248980E+04  0.7818609E-02  0.8498314E-01
       -1   -1    0    0    0  501  0.00000000000E+00  0.00000000000E+00  0.15170047450E+04  0.15170047450E+04  0.50400001928E-02 0.  1.
        1   -1    0    0  501    0  0.00000000000E+00  0.00000000000E+00 -0.83353581296E+03  0.83353581297E+03  0.50400001928E-02 0. -1.
    10030    2    1    2    0    0  0.00000000000E+00  0.00000000000E+00  0.68346893201E+03  0.23505405579E+04  0.22489800207E+04 0.  0.
        5    1    3    3  502    0  0.13997122630E+03  0.56329090164E+03  0.13483295897E+04  0.14679589083E+04  0.46999998093E+01 0.  1.
       -5    1    3    3    0  502 -0.13997122630E+03 -0.56329090164E+03 -0.66486065771E+03  0.88258164961E+03  0.46999998093E+01 0. -1.
</event>
<event>
 5   0  0.9313463E-05  0.2272481E+04  0.7818609E-02  0.8488851E-01
        2   -1    0    0  501    0  0.00000000000E+00  0.00000000000E+00  0.78182620090E+03  0.78182620090E+03  0.25500000920E-02 0. -1.
       -2   -1    0    0    0  501  0.00000000000E+00  0.00000000000E+00 -0.16513170075E+04  0.16513170075E+04  0.25500000920E-02 0.  1.
    10030    2    1    2    0    0  0.00000000000E+00  0.00000000000E+00 -0.86949080657E+03  0.24331432084E+04  0.22724813772E+04 0.  0.
        1    1    3    3  502    0 -0.26154209377E+03  0.30798720591E+03 -0.15717965933E+04  0.16229001560E+04  0.50400001928E-02 0.  1.
       -1    1    3    3    0  502  0.26154209377E+03 -0.30798720591E+03  0.70230578670E+03  0.81024305234E+03  0.50400001928E-02 0. -1.
</event>
<event>
 5   0  0.4095451E-05  0.2301118E+04  0.7818609E-02  0.8477480E-01
        1   -1    0    0  501    0  0.00000000000E+00  0.00000000000E+00  0.12159612403E+04  0.12159612403E+04  0.50400001928E-02 0.  1.
       -1   -1    0    0    0  501  0.00000000000E+00  0.00000000000E+00 -0.10886743615E+04  0.10886743615E+04  0.50400001928E-02 0. -1.
    10030    2    1    2    0    0  0.00000000000E+00  0.00000000000E+00  0.12728687885E+03  0.23046356018E+04  0.23011178387E+04 0.  0.
        3    1    3    3  502    0 -0.93891077094E+03 -0.29444185874E+03 -0.53353679655E+03  0.11193350559E+04  0.10100000352E+00 0. -1.
       -3    1    3    3    0  502  0.93891077094E+03  0.29444185874E+03  0.66082367540E+03  0.11853005459E+04  0.10100000352E+00 0.  1.
</event>
<event>
 5   0  0.9313463E-05  0.2303681E+04  0.7818609E-02  0.8476471E-01
       -2   -1    0    0    0  501  0.00000000000E+00  0.00000000000E+00  0.10018815816E+04  0.10018815816E+04  0.25500000920E-02 0. -1.
        2   -1    0    0  501    0  0.00000000000E+00  0.00000000000E+00 -0.13242448473E+04  0.13242448473E+04  0.25500000920E-02 0.  1.
    10030    2    1    2    0    0  0.00000000000E+00  0.00000000000E+00 -0.32236326569E+03  0.23261264288E+04  0.23036809866E+04 0.  0.
        1    1    3    3  502    0  0.35599912272E+03  0.42048956835E+03 -0.11825656347E+04  0.13046104142E+04  0.50400001928E-02 0.  1.
       -1    1    3    3    0  502 -0.35599912272E+03 -0.42048956835E+03  0.86020236901E+03  0.10215160146E+04  0.50400001928E-02 0. -1.
</event>
<event>
 5   0  0.4095451E-05  0.2289507E+04  0.7818609E-02  0.8482070E-01
        1   -1    0    0  501    0  0.00000000000E+00  0.00000000000E+00  0.17864455548E+04  0.17864455548E+04  0.50400001928E-02 0.  1.
       -1   -1    0    0    0  501  0.00000000000E+00  0.00000000000E+00 -0.73355761664E+03  0.73355761666E+03  0.50400001928E-02 0. -1.
    10030    2    1    2    0    0  0.00000000000E+00  0.00000000000E+00  0.10528879381E+04  0.25200031714E+04  0.22895071465E+04 0.  0.
        3    1    3    3  502    0  0.19415023062E+03 -0.15886498813E+03  0.17558187317E+04  0.17736492961E+04  0.10100000352E+00 0.  1.
       -3    1    3    3    0  502 -0.19415023062E+03  0.15886498813E+03 -0.70293079360E+03  0.74635387538E+03  0.10100000352E+00 0. -1.
</event>
<event>
 5   0  0.4295775E-05  0.2280254E+04  0.7818609E-02  0.8485748E-01
        1   -1    0    0  501    0  0.00000000000E+00  0.00000000000E+00  0.11078256226E+04  0.11078256226E+04  0.50400001928E-02 0. -1.
       -1   -1    0    0    0  501  0.00000000000E+00  0.00000000000E+00 -0.11733703311E+04  0.11733703311E+04  0.50400001928E-02 0.  1.
    10030    2    1    2    0    0  0.00000000000E+00  0.00000000000E+00 -0.65544708556E+02  0.22811959537E+04  0.22802541241E+04 0.  0.
        5    1    3    3  502    0  0.11216200978E+04  0.16554418081E+03  0.87406810251E+02  0.11371449161E+04  0.46999998093E+01 0.  1.
       -5    1    3    3    0  502 -0.11216200978E+04 -0.16554418081E+03 -0.15295151881E+03  0.11440510377E+04  0.46999998093E+01 0. -1.
</event>
<event>
 5   0  0.9312074E-05  0.2306112E+04  0.7818609E-02  0.8475515E-01
        2   -1    0    0  501    0  0.00000000000E+00  0.00000000000E+00  0.10885628069E+04  0.10885628069E+04  0.25500000920E-02 0.  1.
       -2   -1    0    0    0  501  0.00000000000E+00  0.00000000000E+00 -0.12213699185E+04  0.12213699185E+04  0.25500000920E-02 0. -1.
    10030    2    1    2    0    0  0.00000000000E+00  0.00000000000E+00 -0.13280711156E+03  0.23099327254E+04  0.23061117637E+04 0.  0.
        4    1    3    3  502    0  0.90429717493E+03  0.45178629047E+03 -0.62200450954E+03  0.11869100453E+04  0.12699999809E+01 0. -1.
       -4    1    3    3    0  502 -0.90429717493E+03 -0.45178629047E+03  0.48919739798E+03  0.11230226801E+04  0.12699999809E+01 0.  1.
</event>
<event>
 5   0  0.9535394E-05  0.2306236E+04  0.7818609E-02  0.8475466E-01
       -2   -1    0    0    0  501  0.00000000000E+00  0.00000000000E+00  0.15678865958E+04  0.15678865958E+04  0.25500000920E-02 0.  1.
        2   -1    0    0  501    0  0.00000000000E+00  0.00000000000E+00 -0.84807252007E+03  0.84807252007E+03  0.25500000920E-02 0. -1.
    10030    2    1    2    0    0  0.00000000000E+00  0.00000000000E+00  0.71981407571E+03  0.24159591159E+04  0.23062363595E+04 0.  0.
        2    1    3    3  502    0  0.74014213960E+03  0.26536211016E+03 -0.52370008704E+03  0.94471647466E+03  0.25500000920E-02 0. -1.
       -2    1    3    3    0  502 -0.74014213960E+03 -0.26536211016E+03  0.12435141627E+04  0.14712426412E+04  0.25500000920E-02 0.  1.
</event>
<event>
 5   0  0.4005462E-05  0.2252588E+04  0.7818609E-02  0.8496853E-01
       -1   -1    0    0    0  501  0.00000000000E+00  0.00000000000E+00  0.12941091427E+04  0.12941091427E+04  0.50400001928E-02 0. -1.
        1   -1    0    0  501    0  0.00000000000E+00  0.00000000000E+00 -0.98024088549E+03  0.98024088550E+03  0.50400001928E-02 0.  1.
    10030    2    1    2    0    0  0.00000000000E+00  0.00000000000E+00  0.31386825725E+03  0.22743500282E+04  0.22525884595E+04 0.  0.
        4    1    3    3  502    0 -0.10835293545E+04  0.29730455518E+03  0.23586362913E+03  0.11480675612E+04  0.12699999809E+01 0. -1.
       -4    1    3    3    0  502  0.10835293545E+04 -0.29730455518E+03  0.78004628118E+02  0.11262824670E+04  0.12699999809E+01 0.  1.
</event>
<event>
 5   0  0.9483073E-05  0.2327432E+04  0.7818609E-02  0.8467183E-01
        2   -1    0    0  501    0  0.00000000000E+00  0.00000000000E+00  0.12230110371E+04  0.12230110371E+04  0.25500000920E-02 0. -1.
       -2   -1    0    0    0  501  0.00000000000E+00  0.00000000000E+00 -0.11072957926E+04  0.11072957926E+04  0.25500000920E-02 0.  1.
    10030    2    1    2    0    0  0.00000000000E+00  0.00000000000E+00  0.11571524447E+03  0.23303068297E+04  0.23274320404E+04 0.  0.
        5    1    3    3  502    0  0.82677991799E+03 -0.20291096653E+03 -0.73651696086E+03  0.11257074295E+04  0.46999998093E+01 0.  1.
       -5    1    3    3    0  502 -0.82677991799E+03  0.20291096653E+03  0.85223220533E+03  0.12045994002E+04  0.46999998093E+01 0. -1.
</event>
<event>
 5   0  0.4139830E-05  0.2255174E+04  0.7818609E-02  0.8495808E-01
        1   -1    0    0  501    0  0.00000000000E+00  0.00000000000E+00  0.15250414871E+04  0.15250414871E+04  0.50400001928E-02 0. -1.
       -1   -1    0    0    0  501  0.00000000000E+00  0.00000000000E+00 -0.83371689009E+03  0.83371689010E+03  0.50400001928E-02 0.  1.
    10030    2    1    2    0    0  0.00000000000E+00  0.00000000000E+00  0.69132459697E+03  0.23587583772E+04  0.22551743577E+04 0.  0.
        1    1    3    3  502    0 -0.31589113108E+03 -0.24368974574E+03  0.14487513644E+04  0.15026817410E+04  0.50400001928E-02 0. -1.
       -1    1    3    3    0  502  0.31589113108E+03  0.24368974574E+03 -0.75742676745E+03  0.85607663614E+03  0.50400001928E-02 0.  1.
</event>
<event>
 5   0  0.9312074E-05  0.2328020E+04  0.7818609E-02  0.8466954E-01
       -2   -1    0    0    0  501  0.00000000000E+00  0.00000000000E+00  0.90891187047E+03  0.90891187047E+03  0.25500000920E-02 0. -1.
        2   -1    0    0  501    0  0.00000000000E+00  0.00000000000E+00 -0.14907053733E+04  0.14907053733E+04  0.25500000920E-02 0.  1.
    10030    2    1    2    0    0  0.00000000000E+00  0.00000000000E+00 -0.58179350279E+03  0.23996172437E+04  0.23280204545E+04 0.  0.
        4    1    3    3  502    0  0.44508843219E+03  0.12923407033E+03  0.80970231119E+03  0.93296548867E+03  0.12699999809E+01 0. -1.
       -4    1    3    3    0  502 -0.44508843219E+03 -0.12923407033E+03 -0.13914958140E+04  0.14666517551E+04  0.12699999809E+01 0.  1.
</event>
<event>
 5   0  0.3885219E-05  0.2304577E+04  0.7818609E-02  0.8476119E-01
       -1   -1    0    0    0  501  0.00000000000E+00  0.00000000000E+00  0.11589693238E+04  0.11589693238E+04  0.50400001928E-02 0. -1.
        1   -1    0    0  501    0  0.00000000000E+00  0.00000000000E+00 -0.11456463495E+04  0.11456463495E+04  0.50400001928E-02 0.  1.
    10030    2    1    2    0    0  0.00000000000E+00  0.00000000000E+00  0.13322974286E+02  0.23046156733E+04  0.23045771629E+04 0.  0.
        2    1    3    3  502    0 -0.88079926435E+03  0.46608092072E+03 -0.57190691267E+03  0.11489631350E+04  0.25500000920E-02 0.  1.
       -2    1    3    3    0  502  0.88079926435E+03 -0.46608092072E+03  0.58522988696E+03  0.11556525383E+04  0.25500000920E-02 0. -1.
</event>
<event>
 5   0  0.3885219E-05  0.2258939E+04  0.7818609E-02  0.8494289E-01
       -1   -1    0    0    0  501  0.00000000000E+00  0.00000000000E+00  0.15779192158E+04  0.15779192158E+04  0.50400001928E-02 0.  1.
        1   -1    0    0  501    0  0.00000000000E+00  0.00000000000E+00 -0.80847051210E+03  0.80847051211E+03  0.50400001928E-02 0. -1.
    10030    2    1    2    0    0  0.00000000000E+00  0.00000000000E+00  0.76944870372E+03  0.23863897279E+04  0.22589388274E+04 0.  0.
        2    1    3    3  502    0 -0.64757144602E+02 -0.67939652076E+03 -0.56601203794E+03  0.88664691241E+03  0.25500000920E-02 0. -1.
       -2    1    3    3    0  502  0.64757144602E+02  0.67939652076E+03  0.13354607417E+04  0.14997428155E+04  0.25500000920E-02 0.  1.
</event>
<event>
 5   0  0.9535394E-05  0.2275701E+04  0.7818609E-02  0.8487564E-01
        2   -1    0    0  501    0  0.00000000000E+00  0.00000000000E+00  0.13550531297E+04  0.13550531297E+04  0.25500000920E-02 0. -1.
       -2   -1    0    0    0  501  0.00000000000E+00  0.00000000000E+00 -0.95546344822E+03  0.95546344822E+03  0.25500000920E-02 0.  1.
    10030    2    1    2    0    0  0.00000000000E+00  0.00000000000E+00  0.39958968152E+03  0.23105165780E+04  0.22757009785E+04 0.  0.
        2    1    3    3  502    0 -0.81258246182E+03  0.74194691372E+03 -0.94341030231E+02  0.11043892928E+04  0.25500000920E-02 0.  1.
       -2    1    3    3    0  502  0.81258246182E+03 -0.74194691372E+03  0.49393071175E+03  0.12061272852E+04  0.25500000920E-02 0. -1.
</event>
<event>
 5   0  0.4295775E-05  0.2314809E+04  0.7818609E-02  0.8472105E-01
       -1   -1    0    0    0  501  0.00000000000E+00  0.00000000000E+00  0.76047320404E+03  0.76047320405E+03  0.50400001928E-02 0.  1.
        1   -1    0    0  501    0  0.00000000000E+00  0.00000000000E+00 -0.17615157758E+04  0.17615157758E+04  0.50400001928E-02 0. -1.
    10030    2    1    2    0    0  0.00000000000E+00  0.00000000000E+00 -0.10010425717E+04  0.25219889798E+04  0.23148093191E+04 0.  0.
        5    1    3    3  502    0 -0.25641095107E+03  0.44589500821E+03 -0.16301379435E+04  0.17093685205E+04  0.46999998093E+01 0. -1.
       -5    1    3    3    0  502  0.25641095107E+03 -0.44589500821E+03  0.62909537173E+03  0.81262045932E+03  0.46999998093E+01 0.  1.
</event>
<event>
 5   0  0.4005462E-05  0.2289966E+04  0.7818609E-02  0.8481888E-01
       -1   -1    0    0    0  501  0.00000000000E+00  0.00000000000E+00  0.84084341389E+03  0.84084341391E+03  0.50400001928E-02 0.  1.
        1   -1    0    0  501    0  0.00000000000E+00  0.00000000000E+00 -0.15591326640E+04  0.15591326640E+04  0.50400001928E-02 0. -1.
    10030    2    1    2    0    0  0.00000000000E+00  0.00000000000E+00 -0.71828925007E+03  0.23999760779E+04  0.22899663158E+04 0.  0.
        4    1    3    3  502    0 -0.33962578502E+03 -0.10582814391E+04 -0.70829741179E+02  0.11136982281E+04  0.12699999809E+01 0.  1.
       -4    1    3    3    0  502  0.33962578502E+03  0.10582814391E+04 -0.64745950889E+03  0.12862778497E+04  0.12699999809E+01 0. -1.
</event>
<event>
 5   0  0.4295775E-05  0.2280858E+04  0.7818609E-02  0.8485507E-01
        1   -1    0    0  501    0  0.00000000000E+00  0.00000000000E+00  0.78553495499E+03  0.78553495501E+03  0.50400001928E-02 0.  1.
       -1   -1    0    0    0  501  0.00000000000E+00  0.00000000000E+00 -0.16556597299E+04  0.16556597299E+04  0.50400001928E-02 0. -1.
    10030    2    1    2    0    0  0.00000000000E+00  0.00000000000E+00 -0.87012477487E+03  0.24411946849E+04  0.22808582520E+04 0.  0.
        5    1    3    3  502    0  0.82510241078E+02 -0.24526109205E+03 -0.16238123550E+04  0.16443082428E+04  0.46999998093E+01 0. -1.
       -5    1    3    3    0  502 -0.82510241078E+02  0.24526109205E+03  0.75368758011E+03  0.79688644208E+03  0.46999998093E+01 0.  1.
</event>
<event>
 5   0  0.9535394E-05  0.2379872E+04  0.7818609E-02  0.8447078E-01
       -2   -1    0    0    0  501  0.00000000000E+00  0.00000000000E+00  0.10370059772E+04  0.10370059772E+04  0.25500000920E-02 0.  1.
        2   -1    0    0  501    0  0.00000000000E+00  0.00000000000E+00 -0.13654188437E+04  0.13654188437E+04  0.25500000920E-02 0. -1.
    10030    2    1    2    0    0  0.00000000000E+00  0.00000000000E+00 -0.32841286651E+03  0.24024248210E+04  0.23798718473E+04 0.  0.
        2    1    3    3  502    0 -0.10374153947E+04  0.26705728513E+03  0.35877374797E+03  0.11297207164E+04  0.25500000920E-02 0.  1.
       -2    1    3    3    0  502  0.10374153947E+04 -0.26705728513E+03 -0.68718661448E+03  0.12727041046E+04  0.25500000920E-02 0. -1.
</event>
<event>
 5   0  0.9535394E-05  0.2249814E+04  0.7818609E-02  0.8497976E-01
       -2   -1    0    0    0  501  0.00000000000E+00  0.00000000000E+00  0.48702203227E+03  0.48702203227E+03  0.25500000920E-02 0.  1.
        2   -1    0    0  501    0  0.00000000000E+00  0.00000000000E+00 -0.25982715569E+04  0.25982715569E+04  0.25500000920E-02 0. -1.
    10030    2    1    2    0    0  0.00000000000E+00  0.00000000000E+00 -0.21112495246E+04  0.30852935891E+04  0.22498137647E+04 0.  0.
        2    1    3    3  502    0 -0.10674264355E+04  0.11817117281E+03 -0.59657529597E+03  0.12285217560E+04  0.25500000920E-02 0.  1.
       -2    1    3    3    0  502  0.10674264355E+04 -0.11817117281E+03 -0.15146742286E+04  0.18567718331E+04  0.25500000920E-02 0. -1.
</event>
<event>
 5   0  0.4139830E-05  0.2307870E+04  0.7818609E-02  0.8474824E-01
        1   -1    0    0  501    0  0.00000000000E+00  0.00000000000E+00  0.18718249528E+04  0.18718249528E+04  0.50400001928E-02 0.  1.
       -1   -1    0    0    0  501  0.00000000000E+00  0.00000000000E+00 -0.71137333490E+03  0.71137333491E+03  0.50400001928E-02 0. -1.
    10030    2    1    2    0    0  0.00000000000E+00  0.00000000000E+00  0.11604516179E+04  0.25831982878E+04  0.23078703248E+04 0.  0.
        1    1    3    3  502    0 -0.16552860942E+03  0.79937921816E+03 -0.33264483573E+03  0.88150975135E+03  0.50400001928E-02 0. -1.
       -1    1    3    3    0  502  0.16552860942E+03 -0.79937921816E+03  0.14930964537E+04  0.17016885364E+04  0.50400001928E-02 0.  1.
</event>
<event>
 5   0  0.9641157E-05  0.2292455E+04  0.7818609E-02  0.8480902E-01
       -2   -1    0    0    0  501  0.00000000000E+00  0.00000000000E+00  0.85517974196E+03  0.85517974197E+03  0.25500000920E-02 0.  1.
        2   -1    0    0  501    0  0.00000000000E+00  0.00000000000E+00 -0.15363286481E+04  0.15363286481E+04  0.25500000920E-02 0. -1.
    10030    2    1    2    0    0  0.00000000000E+00  0.00000000000E+00 -0.68114890615E+03  0.23915083901E+04  0.22924546991E+04 0.  0.
        3    1    3    3  502    0 -0.11375071898E+04 -0.13111172312E+03 -0.28612500215E+03  0.11802459141E+04  0.10100000352E+00 0.  1.
       -3    1    3    3    0  502  0.11375071898E+04  0.13111172312E+03 -0.39502390400E+03  0.12112624760E+04  0.10100000352E+00 0. -1.
</event>
<event>
 5   0  0.9641157E-05  0.2324683E+04  0.7818609E-02  0.8468252E-01
       -2   -1    0    0    0  501  0.00000000000E+00  0.00000000000E+00  0.87311862882E+03  0.87311862882E+03  0.25500000920E-02 0. -1.
        2   -1    0    0  501    0  0.00000000000E+00  0.00000000000E+00 -0.15473701433E+04  0.15473701433E+04  0.25500000920E-02 0.  1.
    10030    2    1    2    0    0  0.00000000000E+00  0.00000000000E+00 -0.67425151452E+03  0.24204887722E+04  0.23246829443E+04 0.  0.
        3    1    3    3  502    0  0.10460412462E+04  0.16768430115E+03  0.16082789402E+03  0.10715343836E+04  0.10100000352E+00 0. -1.
       -3    1    3    3    0  502 -0.10460412462E+04 -0.16768430115E+03 -0.83507940854E+03  0.13489543885E+04  0.10100000352E+00 0.  1.
</event>
<event>
 5   0  0.9312074E-05  0.2321571E+04  0.7818609E-02  0.8469464E-01
       -2   -1    0    0    0  501  0.00000000000E+00  0.00000000000E+00  0.16189242390E+04  0.16189242390E+04  0.25500000920E-02 0. -1.
        2   -1    0    0  501    0  0.00000000000E+00  0.00000000000E+00 -0.83229544267E+03  0.83229544267E+03  0.25500000920E-02 0.  1.
    10030    2    1    2    0    0  0.00000000000E+00  0.00000000000E+00  0.78662879634E+03  0.24512196817E+04  0.23215712491E+04 0.  0.
        4    1    3    3  502    0 -0.57827286640E+03 -0.70375678387E+03  0.11530450654E+04  0.14694174542E+04  0.12699999809E+01 0. -1.
       -4    1    3    3    0  502  0.57827286640E+03  0.70375678387E+03 -0.36641626906E+03  0.98180222753E+03  0.12699999809E+01 0.  1.
</event>
<event>
 5   0  0.4005462E-05  0.2285631E+04  0.7818609E-02  0.8483608E-01
       -1   -1    0    0    0  501  0.00000000000E+00  0.00000000000E+00  0.81140895539E+03  0.81140895541E+03  0.50400001928E-02 0.  1.
        1   -1    0    0  501    0  0.00000000000E+00  0.00000000000E+00 -0.16095789701E+04  0.16095789701E+04  0.50400001928E-02 0. -1.
    10030    2    1    2    0    0  0.00000000000E+00  0.00000000000E+00 -0.79817001470E+03  0.24209879255E+04  0.22856305833E+04 0.  0.
        4    1    3    3  502    0 -0.35388399958E+03  0.66012940517E+03  0.51517702575E+03  0.90907298799E+03  0.12699999809E+01 0.  1.
       -4    1    3    3    0  502  0.35388399958E+03 -0.66012940517E+03 -0.13133470404E+04  0.15119149375E+04  0.12699999809E+01 0. -1.
</event>
<event>
 5   0  0.4005462E-05  0.2251873E+04  0.7818609E-02  0.8497143E-01
       -1   -1    0    0    0  501  0.00000000000E+00  0.00000000000E+00  0.15722901176E+04  0.15722901177E+04  0.50400001928E-02 0. -1.
        1   -1    0    0  501    0  0.00000000000E+00  0.00000000000E+00 -0.80629679405E+03  0.80629679406E+03  0.50400001928E-02 0.  1.
    10030    2    1    2    0    0  0.00000000000E+00  0.00000000000E+00  0.76599332360E+03  0.23785869117E+04  0.22518725374E+04 0.  0.
        4    1    3    3  502    0  0.47452058368E+03  0.37107747925E+03  0.13877663772E+04  0.15128666202E+04  0.12699999809E+01 0. -1.
       -4    1    3    3    0  502 -0.47452058368E+03 -0.37107747925E+03 -0.62177305364E+03  0.86572029148E+03  0.12699999809E+01 0.  1.
</event>
<event>
 5   0  0.9483073E-05  0.2313804E+04  0.7818609E-02  0.8472498E-01
       -2   -1    0    0    0  501  0.00000000000E+00  0.00000000000E+00  0.64461667641E+03  0.64461667642E+03  0.25500000920E-02 0. -1.
        2   -1    0    0  501    0  0.00000000000E+00  0.00000000000E+00 -0.20763076400E+04  0.20763076400E+04  0.25500000920E-02 0.  1.
    10030    2    1    2    0    0  0.00000000000E+00  0.00000000000E+00 -0.14316909636E+04  0.27209243164E+04  0.23138042528E+04 0.  0.
        5    1    3    3  502    0  0.24318112836E+02  0.55639924588E+02  0.64273019761E+03  0.64560930038E+03  0.46999998093E+01 0. -1.
       -5    1    3    3    0  502 -0.24318112836E+02 -0.55639924588E+02 -0.20744211612E+04  0.20753150161E+04  0.46999998093E+01 0.  1.
</event>
<event>
 5   0  0.4005462E-05  0.2387513E+04  0.7818609E-02  0.8444193E-01
        1   -1    0    0  501    0  0.00000000000E+00  0.00000000000E+00  0.13795537857E+04  0.13795537857E+04  0.50400001928E-02 0.  1.
       -1   -1    0    0    0  501  0.00000000000E+00  0.00000000000E+00 -0.10329819148E+04  0.10329819148E+04  0.50400001928E-02 0. -1.
    10030    2    1    2    0    0  0.00000000000E+00  0.00000000000E+00  0.34657187086E+03  0.24125357005E+04  0.23875126061E+04 0.  0.
        4    1    3    3  502    0 -0.69033409216E+03 -0.21298920112E+03  0.11335760849E+04  0.13442179554E+04  0.12699999809E+01 0.  1.
       -4    1    3    3    0  502  0.69033409216E+03  0.21298920112E+03 -0.78700421403E+03  0.10683177450E+04  0.12699999809E+01 0. -1.
</event>
<event>
 5   0  0.9641157E-05  0.2217624E+04  0.7818609E-02  0.8511128E-01
       -2   -1    0    0    0  501  0.00000000000E+00  0.00000000000E+00  0.15851535672E+04  0.15851535672E+04  0.25500000920E-02 0. -1.
        2   -1    0    0  501    0  0.00000000000E+00  0.00000000000E+00 -0.77561163280E+03  0.77561163280E+03  0.25500000920E-02 0.  1.
    10030    2    1    2    0    0  0.00000000000E+00  0.00000000000E+00  0.80954193443E+03  0.23607652000E+04  0.22176235447E+04 0.  0.
        3    1    3    3  502    0  0.41780250200E+03  0.91287551729E+03 -0.96316437893E+02  0.10085521837E+04  0.10100000352E+00 0.  1.
       -3    1    3    3    0  502 -0.41780250200E+03 -0.91287551729E+03  0.90585837232E+03  0.13522130164E+04  0.10100000352E+00 0. -1.
</event>
<event>
 5   0  0.9483073E-05  0.2324191E+04  0.7818609E-02  0.8468443E-01
        2   -1    0    0  501    0  0.00000000000E+00  0.00000000000E+00  0.23115243303E+04  0.23115243303E+04  0.25500000920E-02 0.  1.
       -2   -1    0    0    0  501  0.00000000000E+00  0.00000000000E+00 -0.58423191149E+03  0.58423191150E+03  0.25500000920E-02 0. -1.
    10030    2    1    2    0    0  0.00000000000E+00  0.00000000000E+00  0.17272924188E+04  0.28957562418E+04  0.23241912813E+04 0.  0.
        5    1    3    3  502    0  0.12344502075E+03  0.15466626084E+03 -0.56307294447E+03  0.59685304404E+03  0.46999998093E+01 0. -1.
       -5    1    3    3    0  502 -0.12344502075E+03 -0.15466626084E+03  0.22903653633E+04  0.22989031978E+04  0.46999998093E+01 0.  1.
</event>
<event>
 5   0  0.4005462E-05  0.2376472E+04  0.7818609E-02  0.8448365E-01
       -1   -1    0    0    0  501  0.00000000000E+00  0.00000000000E+00  0.14407724943E+04  0.14407724943E+04  0.50400001928E-02 0. -1.
        1   -1    0    0  501    0  0.00000000000E+00  0.00000000000E+00 -0.97996338160E+03  0.97996338161E+03  0.50400001928E-02 0.  1.
    10030    2    1    2    0    0  0.00000000000E+00  0.00000000000E+00  0.46080911270E+03  0.24207358759E+04  0.23764715741E+04 0.  0.
        4    1    3    3  502    0  0.41345202514E+03 -0.28284770994E+03  0.13279509831E+04  0.14192958925E+04  0.12699999809E+01 0. -1.
       -4    1    3    3    0  502 -0.41345202514E+03  0.28284770994E+03 -0.86714187039E+03  0.10014399834E+04  0.12699999809E+01 0.  1.
</event>
<event>
 5   0  0.4095451E-05  0.2036591E+04  0.7818609E-02  0.8589702E-01
       -1   -1    0    0    0  501  0.00000000000E+00  0.00000000000E+00  0.51635488670E+03  0.51635488673E+03  0.50400001928E-02 0. -1.
        1   -1    0    0  501    0  0.00000000000E+00  0.00000000000E+00 -0.20081651572E+04  0.20081651572E+04  0.50400001928E-02 0.  1.
    10030    2    1    2    0    0  0.00000000000E+00  0.00000000000E+00 -0.14918102705E+04  0.25245200439E+04  0.20365911640E+04 0.  0.
        3    1    3    3  502    0  0.73202735356E+03 -0.48581578655E+03 -0.13840725998E+04  0.16393712199E+04  0.10100000352E+00 0.  1.
       -3    1    3    3    0  502 -0.73202735356E+03  0.48581578655E+03 -0.10773767067E+03  0.88514882404E+03  0.10100000352E+00 0. -1.
</event>
<event>
 5   0  0.4005462E-05  0.2375620E+04  0.7818609E-02  0.8448688E-01
       -1   -1    0    0    0  501  0.00000000000E+00  0.00000000000E+00  0.53392619106E+03  0.53392619108E+03  0.50400001928E-02 0. -1.
        1   -1    0    0  501    0  0.00000000000E+00  0.00000000000E+00 -0.26424862031E+04  0.26424862031E+04  0.50400001928E-02 0.  1.
    10030    2    1    2    0    0  0.00000000000E+00  0.00000000000E+00 -0.21085600120E+04  0.31764123942E+04  0.23756199977E+04 0.  0.
        4    1    3    3  502    0 -0.32892925765E+03 -0.10863878289E+04 -0.58637950862E+03  0.12776053821E+04  0.12699999809E+01 0. -1.
       -4    1    3    3    0  502  0.32892925765E+03  0.10863878289E+04 -0.15221805034E+04  0.18988070121E+04  0.12699999809E+01 0.  1.
</event>
<event>
 5   0  0.9483073E-05  0.2331906E+04  0.7818609E-02  0.8465446E-01
        2   -1    0    0  501    0  0.00000000000E+00  0.00000000000E+00  0.21113277667E+04  0.21113277667E+04  0.25500000920E-02 0.  1.
       -2   -1    0    0    0  501  0.00000000000E+00  0.00000000000E+00 -0.64388203356E+03  0.64388203357E+03  0.25500000920E-02 0. -1.
    10030    2    1    2    0    0  0.00000000000E+00  0.00000000000E+00  0.14674457332E+04  0.27552098003E+04  0.23319056722E+04 0.  0.
        5    1    3    3  502    0  0.89518180686E+03 -0.31147099215E+03  0.15359956873E+04  0.18049015174E+04  0.46999998093E+01 0.  1.
       -5    1    3    3    0  502 -0.89518180686E+03  0.31147099215E+03 -0.68549954115E+02  0.95030828287E+03  0.46999998093E+01 0. -1.
</event>
<event>
 5   0  0.4005462E-05  0.2300950E+04  0.7818609E-02  0.8477547E-01
       -1   -1    0    0    0  501  0.00000000000E+00  0.00000000000E+00  0.72421305654E+03  0.72421305656E+03  0.50400001928E-02 0.  1.
        1   -1    0    0  501    0  0.00000000000E+00  0.00000000000E+00 -0.18276293781E+04  0.18276293781E+04  0.50400001928E-02 0. -1.
    10030    2    1    2    0    0  0.00000000000E+00  0.00000000000E+00 -0.11034163216E+04  0.25518424347E+04  0.23009502890E+04 0.  0.
        4    1    3    3  502    0  0.68750370038E+03  0.21723079666E+03 -0.15459788809E+04  0.17058437415E+04  0.12699999809E+01 0. -1.
       -4    1    3    3    0  502 -0.68750370038E+03 -0.21723079666E+03  0.44256255937E+03  0.84599869321E+03  0.12699999809E+01 0.  1.
</event>
<event>
 5   0  0.3885219E-05  0.2265124E+04  0.7818609E-02  0.8491801E-01
       -1   -1    0    0    0  501  0.00000000000E+00  0.00000000000E+00  0.19232044305E+04  0.19232044305E+04  0.50400001928E-02 0.  1.
        1   -1    0    0  501    0  0.00000000000E+00  0.00000000000E+00 -0.66695781734E+03  0.66695781736E+03  0.50400001928E-02 0. -1.
    10030    2    1    2    0    0  0.00000000000E+00  0.00000000000E+00  0.12562466132E+04  0.25901622479E+04  0.22651235987E+04 0.  0.
        2    1    3    3  502    0 -0.58539767628E+03  0.83003875961E+03  0.55185106188E+02  0.10172021322E+04  0.25500000920E-02 0. -1.
       -2    1    3    3    0  502  0.58539767628E+03 -0.83003875961E+03  0.12010615070E+04  0.15729601157E+04  0.25500000920E-02 0.  1.
</event>
<event>
 5   0  0.4295775E-05  0.2190226E+04  0.7818609E-02  0.8522507E-01
        1   -1    0    0  501    0  0.00000000000E+00  0.00000000000E+00  0.15205746715E+04  0.15205746715E+04  0.50400001928E-02 0.  1.
       -1   -1    0    0    0  501  0.00000000000E+00  0.00000000000E+00 -0.78869657911E+03  0.78869657913E+03  0.50400001928E-02 0. -1.
    10030    2    1    2    0    0  0.00000000000E+00  0.00000000000E+00  0.73187809241E+03  0.23092712507E+04  0.21902255973E+04 0.  0.
        5    1    3    3  502    0  0.75032124754E+03  0.63309863653E+03 -0.14567118549E+03  0.99249082735E+03  0.46999998093E+01 0. -1.
       -5    1    3    3    0  502 -0.75032124754E+03 -0.63309863653E+03  0.87754927790E+03  0.13167804233E+04  0.46999998093E+01 0.  1.
</event>
<event>
 5   0  0.9535394E-05  0.2316808E+04  0.7818609E-02  0.8471323E-01
        2   -1    0    0  501    0  0.00000000000E+00  0.00000000000E+00  0.90463474862E+03  0.90463474863E+03  0.25500000920E-02 0.  1.
       -2   -1    0    0    0  501  0.00000000000E+00  0.00000000000E+00 -0.14833609487E+04  0.14833609487E+04  0.25500000920E-02 0. -1.
    10030    2    1    2    0    0  0.00000000000E+00  0.00000000000E+00 -0.57872620005E+03  0.23879956973E+04  0.23168080274E+04 0.  0.
        2    1    3    3  502    0  0.10108972190E+04 -0.40377530478E+03  0.11898182217E+03  0.10950362360E+04  0.25500000920E-02 0. -1.
       -2    1    3    3    0  502 -0.10108972190E+04  0.40377530478E+03 -0.69770802223E+03  0.12929594613E+04  0.25500000920E-02 0.  1.
</event>
<event>
 5   0  0.9312074E-05  0.2351406E+04  0.7818609E-02  0.8457924E-01
       -2   -1    0    0    0  501  0.00000000000E+00  0.00000000000E+00  0.10012673496E+04  0.10012673496E+04  0.25500000920E-02 0.  1.
        2   -1    0    0  501    0  0.00000000000E+00  0.00000000000E+00 -0.13805278414E+04  0.13805278414E+04  0.25500000920E-02 0. -1.
    10030    2    1    2    0    0  0.00000000000E+00  0.00000000000E+00 -0.37926049180E+03  0.23817951911E+04  0.23514059223E+04 0.  0.
        4    1    3    3  502    0 -0.98513040302E+03 -0.53092182453E+03 -0.55472705327E+03  0.12490330705E+04  0.12699999809E+01 0. -1.
       -4    1    3    3    0  502  0.98513040302E+03  0.53092182453E+03  0.17546656147E+03  0.11327621206E+04  0.12699999809E+01 0.  1.
</event>
<event>
 5   0  0.9641157E-05  0.2206235E+04  0.7818609E-02  0.8515838E-01
       -2   -1    0    0    0  501  0.00000000000E+00  0.00000000000E+00  0.10291477445E+04  0.10291477445E+04  0.25500000920E-02 0. -1.
        2   -1    0    0  501    0  0.00000000000E+00  0.00000000000E+00 -0.11824036358E+04  0.11824036358E+04  0.25500000920E-02 0.  1.
    10030    2    1    2    0    0  0.00000000000E+00  0.00000000000E+00 -0.15325589133E+03  0.22115513803E+04  0.22062348333E+04 0.  0.
        3    1    3    3  502    0 -0.17086419750E+02  0.44801163308E+03 -0.10869563907E+04  0.11757893411E+04  0.10100000352E+00 0.  1.
       -3    1    3    3    0  502  0.17086419750E+02 -0.44801163308E+03  0.93370049939E+03  0.10357620392E+04  0.10100000352E+00 0. -1.
</event>
<event>
 5   0  0.4005462E-05  0.2295183E+04  0.7818609E-02  0.8479823E-01
       -1   -1    0    0    0  501  0.00000000000E+00  0.00000000000E+00  0.11214015643E+04  0.11214015643E+04  0.50400001928E-02 0. -1.
        1   -1    0    0  501    0  0.00000000000E+00  0.00000000000E+00 -0.11743928287E+04  0.11743928287E+04  0.50400001928E-02 0.  1.
    10030    2    1    2    0    0  0.00000000000E+00  0.00000000000E+00 -0.52991264385E+02  0.22957943930E+04  0.22951827424E+04 0.  0.
        4    1    3    3  502    0  0.78114658593E+03  0.80019417617E+03 -0.28436975460E+03  0.11538494176E+04  0.12699999809E+01 0.  1.
       -4    1    3    3    0  502 -0.78114658593E+03 -0.80019417617E+03  0.23137849021E+03  0.11419449754E+04  0.12699999809E+01 0. -1.
</event>
<event>
 5   0  0.4095451E-05  0.2294098E+04  0.7818609E-02  0.8480252E-01
       -1   -1    0    0    0  501  0.00000000000E+00  0.00000000000E+00  0.84943476372E+03  0.84943476373E+03  0.50400001928E-02 0. -1.
        1   -1    0    0  501    0  0.00000000000E+00  0.00000000000E+00 -0.15489369535E+04  0.15489369535E+04  0.50400001928E-02 0.  1.
    10030    2    1    2    0    0  0.00000000000E+00  0.00000000000E+00 -0.69950218981E+03  0.23983717173E+04  0.22940975526E+04 0.  0.
        3    1    3    3  502    0  0.83195695103E+03 -0.63464086731E+03 -0.84100231463E+03  0.13424627750E+04  0.10100000352E+00 0.  1.
       -3    1    3    3    0  502 -0.83195695103E+03  0.63464086731E+03  0.14150012483E+03  0.10559089423E+04  0.10100000352E+00 0. -1.
</event>
<event>
 5   0  0.4295775E-05  0.1496437E+04  0.7818609E-02  0.8886826E-01
       -1   -1    0    0    0  501  0.00000000000E+00  0.00000000000E+00  0.37724514557E+03  0.37724514560E+03  0.50400001928E-02 0. -1.
        1   -1    0    0  501    0  0.00000000000E+00  0.00000000000E+00 -0.14839972288E+04  0.14839972288E+04  0.50400001928E-02 0.  1.
    10030    2    1    2    0    0  0.00000000000E+00  0.00000000000E+00 -0.11067520832E+04  0.18612423744E+04  0.14964367686E+04 0.  0.
        5    1    3    3  502    0 -0.55772878437E+03  0.46984010872E+03 -0.34526052264E+03  0.80686928506E+03  0.46999998093E+01 0. -1.
       -5    1    3    3    0  502  0.55772878437E+03 -0.46984010872E+03 -0.76149156058E+03  0.10543730893E+04  0.46999998093E+01 0.  1.
</event>
<event>
 5   0  0.4295775E-05  0.2331656E+04  0.7818609E-02  0.8465543E-01
       -1   -1    0    0    0  501  0.00000000000E+00  0.00000000000E+00  0.11201121973E+04  0.11201121974E+04  0.50400001928E-02 0.  1.
        1   -1    0    0  501    0  0.00000000000E+00  0.00000000000E+00 -0.12134091401E+04  0.12134091401E+04  0.50400001928E-02 0. -1.
    10030    2    1    2    0    0  0.00000000000E+00  0.00000000000E+00 -0.93296942747E+02  0.23335213375E+04  0.23316555305E+04 0.  0.
        5    1    3    3  502    0  0.82161048963E+03  0.16944127440E+01 -0.87440500483E+03  0.11998553539E+04  0.46999998093E+01 0. -1.
       -5    1    3    3    0  502 -0.82161048963E+03 -0.16944127440E+01  0.78110806208E+03  0.11336659836E+04  0.46999998093E+01 0.  1.
</event>
<event>
 5   0  0.9535394E-05  0.2293958E+04  0.7818609E-02  0.8480307E-01
        2   -1    0    0  501    0  0.00000000000E+00  0.00000000000E+00  0.12605478829E+04  0.12605478829E+04  0.25500000920E-02 0.  1.
       -2   -1    0    0    0  501  0.00000000000E+00  0.00000000000E+00 -0.10436417620E+04  0.10436417620E+04  0.25500000920E-02 0. -1.
    10030    2    1    2    0    0  0.00000000000E+00  0.00000000000E+00  0.21690612085E+03  0.23041896449E+04  0.22939576400E+04 0.  0.
        2    1    3    3  502    0  0.70517014984E+03  0.68089273980E+03 -0.48975397075E+03  0.10957822846E+04  0.25500000920E-02 0. -1.
       -2    1    3    3    0  502 -0.70517014984E+03 -0.68089273980E+03  0.70666009160E+03  0.12084073603E+04  0.25500000920E-02 0.  1.
</event>
<event>
 5   0  0.9535394E-05  0.2318572E+04  0.7818609E-02  0.8470634E-01
        2   -1    0    0  501    0  0.00000000000E+00  0.00000000000E+00  0.10130897332E+04  0.10130897332E+04  0.25500000920E-02 0.  1.
       -2   -1    0    0    0  501  0.00000000000E+00  0.00000000000E+00 -0.13265796480E+04  0.13265796480E+04  0.25500000920E-02 0. -1.
    10030    2    1    2    0    0  0.00000000000E+00  0.00000000000E+00 -0.31348991481E+03  0.23396693813E+04  0.23185721656E+04 0.  0.
        2    1    3    3  502    0  0.91574397707E+03  0.34941921501E+03  0.46797092750E+03  0.10861296462E+04  0.25500000920E-02 0.  1.
       -2    1    3    3    0  502 -0.91574397707E+03 -0.34941921501E+03 -0.78146084231E+03  0.12535397351E+04  0.25500000920E-02 0. -1.
</event>
<event>
 5   0  0.4095451E-05  0.2379119E+04  0.7818609E-02  0.8447363E-01
       -1   -1    0    0    0  501  0.00000000000E+00  0.00000000000E+00  0.10023384243E+04  0.10023384243E+04  0.50400001928E-02 0. -1.
        1   -1    0    0  501    0  0.00000000000E+00  0.00000000000E+00 -0.14117503425E+04  0.14117503425E+04  0.50400001928E-02 0.  1.
    10030    2    1    2    0    0  0.00000000000E+00  0.00000000000E+00 -0.40941191820E+03  0.24140887667E+04  0.23791188400E+04 0.  0.
        3    1    3    3  502    0  0.28690623595E+03 -0.10921380512E+04 -0.58433197313E+03  0.12714261976E+04  0.10100000352E+00 0.  1.
       -3    1    3    3    0  502 -0.28690623595E+03  0.10921380512E+04  0.17492005493E+03  0.11426625691E+04  0.10100000352E+00 0. -1.
</event>
<event>
 5   0  0.4139830E-05  0.2305075E+04  0.7818609E-02  0.8475923E-01
        1   -1    0    0  501    0  0.00000000000E+00  0.00000000000E+00  0.10783534626E+04  0.10783534627E+04  0.50400001928E-02 0.  1.
       -1   -1    0    0    0  501  0.00000000000E+00  0.00000000000E+00 -0.12318245526E+04  0.12318245526E+04  0.50400001928E-02 0. -1.
    10030    2    1    2    0    0  0.00000000000E+00  0.00000000000E+00 -0.15347108995E+03  0.23101780153E+04  0.23050746380E+04 0.  0.
        1    1    3    3  502    0 -0.56520351196E+03  0.45831735681E+03  0.81901752801E+03  0.10955818183E+04  0.50400001928E-02 0.  1.
       -1    1    3    3    0  502  0.56520351196E+03 -0.45831735681E+03 -0.97248861796E+03  0.12145961969E+04  0.50400001928E-02 0. -1.
</event>
<event>
 5   0  0.9313463E-05  0.2295382E+04  0.7818609E-02  0.8479744E-01
        2   -1    0    0  501    0  0.00000000000E+00  0.00000000000E+00  0.89548472490E+03  0.89548472490E+03  0.25500000920E-02 0. -1.
       -2   -1    0    0    0  501  0.00000000000E+00  0.00000000000E+00 -0.14709288641E+04  0.14709288641E+04  0.25500000920E-02 0.  1.
    10030    2    1    2    0    0  0.00000000000E+00  0.00000000000E+00 -0.57544413920E+03  0.23664135890E+04  0.22953817366E+04 0.  0.
        1    1    3    3  502    0 -0.55493528192E+03 -0.32819432966E+03 -0.12665936834E+04  0.14212403892E+04  0.50400001928E-02 0.  1.
       -1    1    3    3    0  502  0.55493528192E+03  0.32819432966E+03  0.69114954418E+03  0.94517319979E+03  0.50400001928E-02 0. -1.
</event>
<event>
 5   0  0.9483073E-05  0.2296346E+04  0.7818609E-02  0.8479363E-01
        2   -1    0    0  501    0  0.00000000000E+00  0.00000000000E+00  0.18013985094E+04  0.18013985094E+04  0.25500000920E-02 0. -1.
       -2   -1    0    0    0  501  0.00000000000E+00  0.00000000000E+00 -0.73182096633E+03  0.73182096634E+03  0.25500000920E-02 0.  1.
    10030    2    1    2    0    0  0.00000000000E+00  0.00000000000E+00  0.10695775431E+04  0.25332194758E+04  0.22963459652E+04 0.  0.
        5    1    3    3  502    0 -0.29357449692E+03 -0.33225672088E+03  0.17031404507E+04  0.17599119292E+04  0.46999998093E+01 0. -1.
       -5    1    3    3    0  502  0.29357449692E+03  0.33225672088E+03 -0.63356290755E+03  0.77330754660E+03  0.46999998093E+01 0.  1.
</event>
<event>
 5   0  0.3885219E-05  0.2289445E+04  0.7818609E-02  0.8482095E-01
       -1   -1    0    0    0  501  0.00000000000E+00  0.00000000000E+00  0.84433102480E+03  0.84433102482E+03  0.50400001928E-02 0. -1.
        1   -1    0    0  501    0  0.00000000000E+00  0.00000000000E+00 -0.15519854052E+04  0.15519854052E+04  0.50400001928E-02 0.  1.
    10030    2    1    2    0    0  0.00000000000E+00  0.00000000000E+00 -0.70765438041E+03  0.23963164300E+04  0.22894448477E+04 0.  0.
        2    1    3    3  502    0 -0.11218566705E+04  0.20338049862E+03 -0.24676142386E+03  0.11665407051E+04  0.25500000920E-02 0.  1.
       -2    1    3    3    0  502  0.11218566705E+04 -0.20338049862E+03 -0.46089295655E+03  0.12297757250E+04  0.25500000920E-02 0. -1.
</event>
<event>
 5   0  0.3885219E-05  0.2166294E+04  0.7818609E-02  0.8532590E-01
       -1   -1    0    0    0  501  0.00000000000E+00  0.00000000000E+00  0.71191120323E+03  0.71191120325E+03  0.50400001928E-02 0.  1.
        1   -1    0    0  501    0  0.00000000000E+00  0.00000000000E+00 -0.16479689293E+04  0.16479689293E+04  0.50400001928E-02 0. -1.
    10030    2    1    2    0    0  0.00000000000E+00  0.00000000000E+00 -0.93605772604E+03  0.23598801325E+04  0.21662941106E+04 0.  0.
        2    1    3    3  502    0  0.98486294195E+03  0.36788211985E+03 -0.75192289064E+03  0.12925479883E+04  0.25500000920E-02 0. -1.
       -2    1    3    3    0  502 -0.98486294195E+03 -0.36788211985E+03 -0.18413483539E+03  0.10673321442E+04  0.25500000920E-02 0.  1.
</event>
<event>
 5   0  0.4095451E-05  0.2204062E+04  0.7818609E-02  0.8516739E-01
       -1   -1    0    0    0  501  0.00000000000E+00  0.00000000000E+00  0.87965517101E+03  0.87965517102E+03  0.50400001928E-02 0.  1.
        1   -1    0    0  501    0  0.00000000000E+00  0.00000000000E+00 -0.13806230817E+04  0.13806230817E+04  0.50400001928E-02 0. -1.
    10030    2    1    2    0    0  0.00000000000E+00  0.00000000000E+00 -0.50096791071E+03  0.22602782528E+04  0.22040619166E+04 0.  0.
        3    1    3    3  502    0 -0.55960585350E+03 -0.85515578499E+03 -0.67333830039E+03  0.12238605332E+04  0.10100000352E+00 0. -1.
       -3    1    3    3    0  502  0.55960585350E+03  0.85515578499E+03  0.17237038968E+03  0.10364177195E+04  0.10100000352E+00 0.  1.
</event>
<event>
 5   0  0.9641157E-05  0.2276422E+04  0.7818609E-02  0.8487276E-01
       -2   -1    0    0    0  501  0.00000000000E+00  0.00000000000E+00  0.74384448212E+03  0.74384448213E+03  0.25500000920E-02 0. -1.
        2   -1    0    0  501    0  0.00000000000E+00  0.00000000000E+00 -0.17416600341E+04  0.17416600341E+04  0.25500000920E-02 0.  1.
    10030    2    1    2    0    0  0.00000000000E+00  0.00000000000E+00 -0.99781555198E+03  0.24855045162E+04  0.22764219346E+04 0.  0.
        3    1    3    3  502    0 -0.51898188922E+03  0.82703858845E+03 -0.11376048458E+04  0.14991597058E+04  0.10100000352E+00 0. -1.
       -3    1    3    3    0  502  0.51898188922E+03 -0.82703858845E+03  0.13978929385E+03  0.98634481040E+03  0.10100000352E+00 0.  1.
</event>
<event>
 5   0  0.4295775E-05  0.2288616E+04  0.7818609E-02  0.8482423E-01
        1   -1    0    0  501    0  0.00000000000E+00  0.00000000000E+00  0.88728941373E+03  0.88728941375E+03  0.50400001928E-02 0.  1.
       -1   -1    0    0    0  501  0.00000000000E+00  0.00000000000E+00 -0.14757764191E+04  0.14757764191E+04  0.50400001928E-02 0. -1.
    10030    2    1    2    0    0  0.00000000000E+00  0.00000000000E+00 -0.58848700532E+03  0.23630658328E+04  0.22886159955E+04 0.  0.
        5    1    3    3  502    0 -0.14343070318E+03 -0.10779770921E+04 -0.66193416295E+03  0.12731009009E+04  0.46999998093E+01 0. -1.
       -5    1    3    3    0  502  0.14343070318E+03  0.10779770921E+04  0.73447157634E+02  0.10899649319E+04  0.46999998093E+01 0.  1.
</event>
<event>
 5   0  0.3885219E-05  0.2251695E+04  0.7818609E-02  0.8497214E-01
        1   -1    0    0  501    0  0.00000000000E+00  0.00000000000E+00  0.11176475788E+04  0.11176475788E+04  0.50400001928E-02 0.  1.
       -1   -1    0    0    0  501  0.00000000000E+00  0.00000000000E+00 -0.11341078058E+04  0.11341078058E+04  0.50400001928E-02 0. -1.
    10030    2    1    2    0    0  0.00000000000E+00  0.00000000000E+00 -0.16460227013E+02  0.22517553846E+04  0.22516952220E+04 0.  0.
        2    1    3    3  502    0 -0.57738856069E+03 -0.70477508856E+03 -0.66964582560E+03  0.11307126104E+04  0.25500000920E-02 0. -1.
       -2    1    3    3    0  502  0.57738856069E+03  0.70477508856E+03  0.65318559858E+03  0.11210427742E+04  0.25500000920E-02 0.  1.
</event>
<event>
 5   0  0.9641157E-05  0.2134315E+04  0.7818609E-02  0.8546276E-01
        2   -1    0    0  501    0  0.00000000000E+00  0.00000000000E+00  0.86042905351E+03  0.86042905351E+03  0.25500000920E-02 0.  1.
       -2   -1    0    0    0  501  0.00000000000E+00  0.00000000000E+00 -0.13235554787E+04  0.13235554787E+04  0.25500000920E-02 0. -1.
    10030    2    1    2    0    0  0.00000000000E+00  0.00000000000E+00 -0.46312642521E+03  0.21839845322E+04  0.21343154292E+04 0.  0.
        3    1    3    3  502    0 -0.55224630286E+03 -0.18029694493E+03 -0.11475729122E+04  0.12862373678E+04  0.10100000352E+00 0.  1.
       -3    1    3    3    0  502  0.55224630286E+03  0.18029694493E+03  0.68444648701E+03  0.89774716438E+03  0.10100000352E+00 0. -1.
</event>
<event>
 5   0  0.9483073E-05  0.2337935E+04  0.7818609E-02  0.8463112E-01
       -2   -1    0    0    0  501  0.00000000000E+00  0.00000000000E+00  0.93846610960E+03  0.93846610961E+03  0.25500000920E-02 0. -1.
        2   -1    0    0  501    0  0.00000000000E+00  0.00000000000E+00 -0.14560829095E+04  0.14560829095E+04  0.25500000920E-02 0.  1.
    10030    2    1    2    0    0  0.00000000000E+00  0.00000000000E+00 -0.51761679987E+03  0.23945490191E+04  0.23379345272E+04 0.  0.
        5    1    3    3  502    0 -0.55843721022E+02 -0.27509091431E+03 -0.14210421442E+04  0.14485083355E+04  0.46999998093E+01 0.  1.
       -5    1    3    3    0  502  0.55843721022E+02  0.27509091431E+03  0.90342534432E+03  0.94604068363E+03  0.46999998093E+01 0. -1.
</event>
<event>
 5   0  0.9483073E-05  0.2300049E+04  0.7818609E-02  0.8477902E-01
        2   -1    0    0  501    0  0.00000000000E+00  0.00000000000E+00  0.28760326797E+04  0.28760326798E+04  0.25500000920E-02 0.  1.
       -2   -1    0    0    0  501  0.00000000000E+00  0.00000000000E+00 -0.45985453404E+03  0.45985453404E+03  0.25500000920E-02 0. -1.
    10030    2    1    2    0    0  0.00000000000E+00  0.00000000000E+00  0.24161781457E+04  0.33358872138E+04  0.23000492759E+04 0.  0.
        5    1    3    3  502    0  0.17182447986E+03  0.55363905974E+03 -0.23243858273E+03  0.62457156922E+03  0.46999998093E+01 0. -1.
       -5    1    3    3    0  502 -0.17182447986E+03 -0.55363905974E+03  0.26486167284E+04  0.27113156446E+04  0.46999998093E+01 0.  1.
</event>
<event>
 5   0  0.9483073E-05  0.2366785E+04  0.7818609E-02  0.8452045E-01
       -2   -1    0    0    0  501  0.00000000000E+00  0.00000000000E+00  0.73654318292E+03  0.73654318292E+03  0.25500000920E-02 0.  1.
        2   -1    0    0  501    0  0.00000000000E+00  0.00000000000E+00 -0.19013377238E+04  0.19013377238E+04  0.25500000920E-02 0. -1.
    10030    2    1    2    0    0  0.00000000000E+00  0.00000000000E+00 -0.11647945409E+04  0.26378809067E+04  0.23667846027E+04 0.  0.
        5    1    3    3  502    0 -0.57788501499E+03  0.10307496722E+04 -0.65288067895E+03  0.13500634238E+04  0.46999998093E+01 0.  1.
       -5    1    3    3    0  502  0.57788501499E+03 -0.10307496722E+04 -0.51191386191E+03  0.12878174829E+04  0.46999998093E+01 0. -1.
</event>
<event>
 5   0  0.9535394E-05  0.2300905E+04  0.7818609E-02  0.8477565E-01
       -2   -1    0    0    0  501  0.00000000000E+00  0.00000000000E+00  0.84273546228E+03  0.84273546228E+03  0.25500000920E-02 0. -1.
        2   -1    0    0  501    0  0.00000000000E+00  0.00000000000E+00 -0.15705289373E+04  0.15705289373E+04  0.25500000920E-02 0.  1.
    10030    2    1    2    0    0  0.00000000000E+00  0.00000000000E+00 -0.72779347501E+03  0.24132643996E+04  0.23009045439E+04 0.  0.
        2    1    3    3  502    0 -0.10204832812E+03 -0.71210807846E+02  0.83565616239E+03  0.84487044106E+03  0.25500000920E-02 0. -1.
       -2    1    3    3    0  502  0.10204832812E+03  0.71210807846E+02 -0.15634496374E+04  0.15683939585E+04  0.25500000920E-02 0.  1.
</event>
<event>
 5   0  0.9312074E-05  0.2298587E+04  0.7818609E-02  0.8478478E-01
       -2   -1    0    0    0  501  0.00000000000E+00  0.00000000000E+00  0.11092676872E+04  0.11092676872E+04  0.25500000920E-02 0. -1.
        2   -1    0    0  501    0  0.00000000000E+00  0.00000000000E+00 -0.11907636193E+04  0.11907636193E+04  0.25500000920E-02 0.  1.
    10030    2    1    2    0    0  0.00000000000E+00  0.00000000000E+00 -0.81495932098E+02  0.23000313066E+04  0.22985870495E+04 0.  0.
        4    1    3    3  502    0 -0.71786128752E+03 -0.78908517854E+03 -0.46867745940E+03  0.11651782786E+04  0.12699999809E+01 0. -1.
       -4    1    3    3    0  502  0.71786128752E+03  0.78908517854E+03  0.38718152730E+03  0.11348530280E+04  0.12699999809E+01 0.  1.
</event>
<event>
 5   0  0.9483073E-05  0.2309743E+04  0.7818609E-02  0.8474089E-01
       -2   -1    0    0    0  501  0.00000000000E+00  0.00000000000E+00  0.13739929478E+04  0.13739929478E+04  0.25500000920E-02 0. -1.
        2   -1    0    0  501    0  0.00000000000E+00  0.00000000000E+00 -0.97069516818E+03  0.97069516818E+03  0.25500000920E-02 0.  1.
    10030    2    1    2    0    0  0.00000000000E+00  0.00000000000E+00  0.40329777966E+03  0.23446881160E+04  0.23097431161E+04 0.  0.
        5    1    3    3  502    0  0.70769818398E+03  0.11552219127E+03  0.11206208775E+04  0.13304117173E+04  0.46999998093E+01 0. -1.
       -5    1    3    3    0  502 -0.70769818398E+03 -0.11552219127E+03 -0.71732309788E+03  0.10142763987E+04  0.46999998093E+01 0.  1.
</event>
<event>
 5   0  0.9483073E-05  0.2322593E+04  0.7818609E-02  0.8469066E-01
       -2   -1    0    0    0  501  0.00000000000E+00  0.00000000000E+00  0.11211404975E+04  0.11211404975E+04  0.25500000920E-02 0.  1.
        2   -1    0    0  501    0  0.00000000000E+00  0.00000000000E+00 -0.12028911333E+04  0.12028911333E+04  0.25500000920E-02 0. -1.
    10030    2    1    2    0    0  0.00000000000E+00  0.00000000000E+00 -0.81750635861E+02  0.23240316308E+04  0.23225933468E+04 0.  0.
        5    1    3    3  502    0 -0.48252021234E+03  0.44537809314E+03  0.91752806221E+03  0.11283028122E+04  0.46999998093E+01 0.  1.
       -5    1    3    3    0  502  0.48252021234E+03 -0.44537809314E+03 -0.99927869807E+03  0.11957288186E+04  0.46999998093E+01 0. -1.
</event>
<event>
 5   0  0.9313463E-05  0.2389528E+04  0.7818609E-02  0.8443434E-01
       -2   -1    0    0    0  501  0.00000000000E+00  0.00000000000E+00  0.84260294881E+03  0.84260294881E+03  0.25500000920E-02 0.  1.
        2   -1    0    0  501    0  0.00000000000E+00  0.00000000000E+00 -0.16941093994E+04  0.16941093994E+04  0.25500000920E-02 0. -1.
    10030    2    1    2    0    0  0.00000000000E+00  0.00000000000E+00 -0.85150645063E+03  0.25367123483E+04  0.23895284686E+04 0.  0.
        1    1    3    3  502    0  0.48807144024E+03 -0.14593507530E+03 -0.15730381524E+04  0.16534690218E+04  0.50400001928E-02 0. -1.
       -1    1    3    3    0  502 -0.48807144024E+03  0.14593507530E+03  0.72153170181E+03  0.88324332646E+03  0.50400001928E-02 0.  1.
</event>
<event>
 5   0  0.3261500E-05  0.2119596E+04  0.7818609E-02  0.8552660E-01
        3   -1    0    0  501    0  0.00000000000E+00  0.00000000000E+00  0.61437406903E+03  0.61437407733E+03  0.10100000352E+00 0.  1.
       -3   -1    0    0    0  501  0.00000000000E+00  0.00000000000E+00 -0.18281565768E+04  0.18281565796E+04  0.10100000352E+00 0. -1.
    10030    2    1    2    0    0  0.00000000000E+00  0.00000000000E+00 -0.12137825078E+04  0.24425306569E+04  0.21195961959E+04 0.  0.
        1    1    3    3  502    0 -0.30454947572E+03  0.59919202025E+03 -0.15511140982E+04  0.16904840745E+04  0.50400001928E-02 0. -1.
       -1    1    3    3    0  502  0.30454947572E+03 -0.59919202025E+03  0.33733159043E+03  0.75204658248E+03  0.50400001928E-02 0.  1.
</event>
<event>
 5   0  0.9313463E-05  0.2367531E+04  0.7818609E-02  0.8451761E-01
        2   -1    0    0  501    0  0.00000000000E+00  0.00000000000E+00  0.25438419059E+04  0.25438419059E+04  0.25500000920E-02 0.  1.
       -2   -1    0    0    0  501  0.00000000000E+00  0.00000000000E+00 -0.55085981794E+03  0.55085981795E+03  0.25500000920E-02 0. -1.
    10030    2    1    2    0    0  0.00000000000E+00  0.00000000000E+00  0.19929820879E+04  0.30947017238E+04  0.23675306031E+04 0.  0.
        1    1    3    3  502    0 -0.71410704701E+03 -0.50087713848E+03 -0.49610348641E+02  0.87366353315E+03  0.50400001928E-02 0. -1.
       -1    1    3    3    0  502  0.71410704701E+03  0.50087713848E+03  0.20425924366E+04  0.22210381907E+04  0.50400001928E-02 0.  1.
</event>
<event>
 5   0  0.3885219E-05  0.2811691E+04  0.7818609E-02  0.8299648E-01
       -1   -1    0    0    0  501  0.00000000000E+00  0.00000000000E+00  0.12317204850E+04  0.12317204850E+04  0.50400001928E-02 0. -1.
        1   -1    0    0  501    0  0.00000000000E+00  0.00000000000E+00 -0.16045862707E+04  0.16045862707E+04  0.50400001928E-02 0.  1.
    10030    2    1    2    0    0  0.00000000000E+00  0.00000000000E+00 -0.37286578569E+03  0.28363067557E+04  0.28116911492E+04 0.  0.
        2    1    3    3  502    0 -0.79163965004E+03  0.22606210561E+03 -0.13359727011E+04  0.15692738668E+04  0.25500000920E-02 0.  1.
       -2    1    3    3    0  502  0.79163965004E+03 -0.22606210561E+03  0.96310691539E+03  0.12670328889E+04  0.25500000920E-02 0. -1.
</event>
<event>
 5   0  0.9641157E-05  0.2296638E+04  0.7818609E-02  0.8479248E-01
       -2   -1    0    0    0  501  0.00000000000E+00  0.00000000000E+00  0.18486276386E+04  0.18486276386E+04  0.25500000920E-02 0. -1.
        2   -1    0    0  501    0  0.00000000000E+00  0.00000000000E+00 -0.71330570541E+03  0.71330570541E+03  0.25500000920E-02 0.  1.
    10030    2    1    2    0    0  0.00000000000E+00  0.00000000000E+00  0.11353219332E+04  0.25619333440E+04  0.22966381010E+04 0.  0.
        3    1    3    3  502    0  0.13044102531E+03 -0.11029329909E+04  0.24212829191E+03  0.11367067183E+04  0.10100000352E+00 0.  1.
       -3    1    3    3    0  502 -0.13044102531E+03  0.11029329909E+04  0.89319364128E+03  0.14252266257E+04  0.10100000352E+00 0. -1.
</event>
<event>
 5   0  0.4005462E-05  0.2294223E+04  0.7818609E-02  0.8480202E-01
       -1   -1    0    0    0  501  0.00000000000E+00  0.00000000000E+00  0.13033348015E+04  0.13033348016E+04  0.50400001928E-02 0.  1.
        1   -1    0    0  501    0  0.00000000000E+00  0.00000000000E+00 -0.10096141896E+04  0.10096141896E+04  0.50400001928E-02 0. -1.
    10030    2    1    2    0    0  0.00000000000E+00  0.00000000000E+00  0.29372061193E+03  0.23129489912E+04  0.22942234499E+04 0.  0.
        4    1    3    3  502    0  0.10345140370E+04  0.43260975210E+03 -0.96967400760E+02  0.11255108974E+04  0.12699999809E+01 0.  1.
       -4    1    3    3    0  502 -0.10345140370E+04 -0.43260975210E+03  0.39068801269E+03  0.11874380938E+04  0.12699999809E+01 0. -1.
</event>
<event>
 5   0  0.4139830E-05  0.2256994E+04  0.7818609E-02  0.8495074E-01
        1   -1    0    0  501    0  0.00000000000E+00  0.00000000000E+00  0.11896632819E+04  0.11896632819E+04  0.50400001928E-02 0. -1.
       -1   -1    0    0    0  501  0.00000000000E+00  0.00000000000E+00 -0.10704753220E+04  0.10704753220E+04  0.50400001928E-02 0.  1.
    10030    2    1    2    0    0  0.00000000000E+00  0.00000000000E+00  0.11918795987E+03  0.22601386039E+04  0.22569937393E+04 0.  0.
        1    1    3    3  502    0 -0.52600076785E+03 -0.95722063272E+02 -0.93560448330E+03  0.10775877089E+04  0.50400001928E-02 0.  1.
       -1    1    3    3    0  502  0.52600076785E+03  0.95722063272E+02  0.10547924432E+04  0.11825508950E+04  0.50400001928E-02 0. -1.
</event>
<event>
 5   0  0.4295775E-05  0.2303603E+04  0.7818609E-02  0.8476502E-01
       -1   -1    0    0    0  501  0.00000000000E+00  0.00000000000E+00  0.92720863167E+03  0.92720863168E+03  0.50400001928E-02 0. -1.
        1   -1    0    0  501    0  0.00000000000E+00  0.00000000000E+00 -0.14307965094E+04  0.14307965094E+04  0.50400001928E-02 0.  1.
    10030    2    1    2    0    0  0.00000000000E+00  0.00000000000E+00 -0.50358787772E+03  0.23580051411E+04  0.23036031548E+04 0.  0.
        5    1    3    3  502    0  0.37808951692E+03 -0.14398437558E+03  0.85207124584E+03  0.94325536373E+03  0.46999998093E+01 0. -1.
       -5    1    3    3    0  502 -0.37808951692E+03  0.14398437558E+03 -0.13556591236E+04  0.14147497773E+04  0.46999998093E+01 0.  1.
</event>
<event>
 5   0  0.9312074E-05  0.2235668E+04  0.7818609E-02  0.8503727E-01
        2   -1    0    0  501    0  0.00000000000E+00  0.00000000000E+00  0.11943202243E+04  0.11943202243E+04  0.25500000920E-02 0. -1.
       -2   -1    0    0    0  501  0.00000000000E+00  0.00000000000E+00 -0.10462458880E+04  0.10462458880E+04  0.25500000920E-02 0.  1.
    10030    2    1    2    0    0  0.00000000000E+00  0.00000000000E+00  0.14807433623E+03  0.22405661123E+04  0.22356677961E+04 0.  0.
        4    1    3    3  502    0  0.20844853210E+02  0.11112723334E+04  0.19342122686E+03  0.11281728993E+04  0.12699999809E+01 0. -1.
       -4    1    3    3    0  502 -0.20844853210E+02 -0.11112723334E+04 -0.45346890633E+02  0.11123932130E+04  0.12699999809E+01 0.  1.
</event>
<event>
 5   0  0.3885219E-05  0.2277956E+04  0.7818609E-02  0.8486664E-01
       -1   -1    0    0    0  501  0.00000000000E+00  0.00000000000E+00  0.72902677449E+03  0.72902677451E+03  0.50400001928E-02 0.  1.
        1   -1    0    0  501    0  0.00000000000E+00  0.00000000000E+00 -0.17794561286E+04  0.17794561286E+04  0.50400001928E-02 0. -1.
    10030    2    1    2    0    0  0.00000000000E+00  0.00000000000E+00 -0.10504293541E+04  0.25084829031E+04  0.22779562435E+04 0.  0.
        2    1    3    3  502    0  0.54081030074E+03  0.27654499652E+03  0.53578245726E+03  0.80994799709E+03  0.25500000920E-02 0.  1.
       -2    1    3    3    0  502 -0.54081030074E+03 -0.27654499652E+03 -0.15862118114E+04  0.16985349061E+04  0.25500000920E-02 0. -1.
</event>
<event>
 5   0  0.9535394E-05  0.2260268E+04  0.7818609E-02  0.8493754E-01
       -2   -1    0    0    0  501  0.00000000000E+00  0.00000000000E+00  0.79398290293E+03  0.79398290293E+03  0.25500000920E-02 0.  1.
        2   -1    0    0  501    0  0.00000000000E+00  0.00000000000E+00 -0.16086024864E+04  0.16086024864E+04  0.25500000920E-02 0. -1.
    10030    2    1    2    0    0  0.00000000000E+00  0.00000000000E+00 -0.81461958349E+03  0.24025853894E+04  0.22602680123E+04 0.  0.
        2    1    3    3  502    0 -0.71664974236E+03  0.87308796885E+03 -0.36849458278E+03  0.11881320264E+04  0.25500000920E-02 0.  1.
       -2    1    3    3    0  502  0.71664974236E+03 -0.87308796885E+03 -0.44612500071E+03  0.12144533630E+04  0.25500000920E-02 0. -1.
</event>
<event>
 5   0  0.9313463E-05  0.2140640E+04  0.7818609E-02  0.8543549E-01
       -2   -1    0    0    0  501  0.00000000000E+00  0.00000000000E+00  0.90773381772E+03  0.90773381772E+03  0.25500000920E-02 0. -1.
        2   -1    0    0  501    0  0.00000000000E+00  0.00000000000E+00 -0.12620278135E+04  0.12620278135E+04  0.25500000920E-02 0.  1.
    10030    2    1    2    0    0  0.00000000000E+00  0.00000000000E+00 -0.35429399579E+03  0.21697616312E+04  0.21406403951E+04 0.  0.
        1    1    3    3  502    0 -0.20701966455E+03  0.57218387847E+02 -0.12399600709E+04  0.12584244367E+04  0.50400001928E-02 0.  1.
       -1    1    3    3    0  502  0.20701966455E+03 -0.57218387847E+02  0.88566607514E+03  0.91133719451E+03  0.50400001928E-02 0. -1.
</event>
<event>
 5   0  0.9483073E-05  0.1648152E+04  0.7818609E-02  0.8791501E-01
        2   -1    0    0  501    0  0.00000000000E+00  0.00000000000E+00  0.17215961718E+04  0.17215961718E+04  0.25500000920E-02 0.  1.
       -2   -1    0    0    0  501  0.00000000000E+00  0.00000000000E+00 -0.39446013605E+03  0.39446013606E+03  0.25500000920E-02 0. -1.
    10030    2    1    2    0    0  0.00000000000E+00  0.00000000000E+00  0.13271360357E+04  0.21160563078E+04  0.16481517650E+04 0.  0.
        5    1    3    3  502    0  0.50132238763E+01 -0.23176446681E+03 -0.35171658898E+03  0.42126778830E+03  0.46999998093E+01 0. -1.
       -5    1    3    3    0  502 -0.50132238763E+01  0.23176446681E+03  0.16788526247E+04  0.16947885195E+04  0.46999998093E+01 0.  1.
</event>
<event>
 5   0  0.3885219E-05  0.2367891E+04  0.7818609E-02  0.8451624E-01
        1   -1    0    0  501    0  0.00000000000E+00  0.00000000000E+00  0.10154134596E+04  0.10154134596E+04  0.50400001928E-02 0. -1.
       -1   -1    0    0    0  501  0.00000000000E+00  0.00000000000E+00 -0.13804489258E+04  0.13804489258E+04  0.50400001928E-02 0.  1.
    10030    2    1    2    0    0  0.00000000000E+00  0.00000000000E+00 -0.36503546618E+03  0.23958623855E+04  0.23678905546E+04 0.  0.
        2    1    3    3  502    0 -0.30089740076E+03 -0.71828560963E+03 -0.10848217491E+04  0.13354069381E+04  0.25500000920E-02 0.  1.
       -2    1    3    3    0  502  0.30089740076E+03  0.71828560963E+03  0.71978628296E+03  0.10604554474E+04  0.25500000920E-02 0. -1.
</event>
<event>
 5   0  0.4005462E-05  0.2295616E+04  0.7818609E-02  0.8479652E-01
       -1   -1    0    0    0  501  0.00000000000E+00  0.00000000000E+00  0.96469789151E+03  0.96469789152E+03  0.50400001928E-02 0.  1.
        1   -1    0    0  501    0  0.00000000000E+00  0.00000000000E+00 -0.13656742387E+04  0.13656742387E+04  0.50400001928E-02 0. -1.
    10030    2    1    2    0    0  0.00000000000E+00  0.00000000000E+00 -0.40097634718E+03  0.23303721302E+04  0.22956158725E+04 0.  0.
        4    1    3    3  502    0 -0.10662152030E+04 -0.27176723929E+03 -0.53222190373E+03  0.12222659527E+04  0.12699999809E+01 0. -1.
       -4    1    3    3    0  502  0.10662152030E+04  0.27176723929E+03  0.13124555655E+03  0.11081061775E+04  0.12699999809E+01 0.  1.
</event>
<event>
 5   0  0.9312074E-05  0.2435214E+04  0.7818609E-02  0.8426437E-01
       -2   -1    0    0    0  501  0.00000000000E+00  0.00000000000E+00  0.71887283502E+03  0.71887283503E+03  0.25500000920E-02 0.  1.
        2   -1    0    0  501    0  0.00000000000E+00  0.00000000000E+00 -0.20623488088E+04  0.20623488088E+04  0.25500000920E-02 0. -1.
    10030    2    1    2    0    0  0.00000000000E+00  0.00000000000E+00 -0.13434759738E+04  0.27812216439E+04  0.24352137771E+04 0.  0.
        4    1    3    3  502    0 -0.68769874538E+03  0.48038847797E+03 -0.16796644339E+04  0.18774921778E+04  0.12699999809E+01 0. -1.
       -4    1    3    3    0  502  0.68769874538E+03 -0.48038847797E+03  0.33618846014E+03  0.90372946605E+03  0.12699999809E+01 0.  1.
</event>
<event>
 5   0  0.9641157E-05  0.2279000E+04  0.7818609E-02  0.8486248E-01
        2   -1    0    0  501    0  0.00000000000E+00  0.00000000000E+00  0.15294686834E+04  0.15294686834E+04  0.25500000920E-02 0.  1.
       -2   -1    0    0    0  501  0.00000000000E+00  0.00000000000E+00 -0.84896138225E+03  0.84896138225E+03  0.25500000920E-02 0. -1.
    10030    2    1    2    0    0  0.00000000000E+00  0.00000000000E+00  0.68050730115E+03  0.23784300657E+04  0.22789996468E+04 0.  0.
        3    1    3    3  502    0 -0.80808556405E+03  0.71467082178E+03 -0.42778337370E+02  0.10796233874E+04  0.10100000352E+00 0. -1.
       -3    1    3    3    0  502  0.80808556405E+03 -0.71467082178E+03  0.72328563852E+03  0.12988066782E+04  0.10100000352E+00 0.  1.
</event>
<event>
 5   0  0.4139830E-05  0.2350907E+04  0.7818609E-02  0.8458115E-01
        1   -1    0    0  501    0  0.00000000000E+00  0.00000000000E+00  0.13780303709E+04  0.13780303709E+04  0.50400001928E-02 0. -1.
       -1   -1    0    0    0  501  0.00000000000E+00  0.00000000000E+00 -0.10026567554E+04  0.10026567554E+04  0.50400001928E-02 0.  1.
    10030    2    1    2    0    0  0.00000000000E+00  0.00000000000E+00  0.37537361555E+03  0.23806871263E+04  0.23509074508E+04 0.  0.
        1    1    3    3  502    0  0.10976021017E+02  0.10206017888E+04 -0.40274511070E+03  0.10972475148E+04  0.50400001928E-02 0.  1.
       -1    1    3    3    0  502 -0.10976021017E+02 -0.10206017888E+04  0.77811872624E+03  0.12834396116E+04  0.50400001928E-02 0. -1.
</event>
<event>
 5   0  0.4095451E-05  0.2295009E+04  0.7818609E-02  0.8479891E-01
        1   -1    0    0  501    0  0.00000000000E+00  0.00000000000E+00  0.14072239884E+04  0.14072239884E+04  0.50400001928E-02 0.  1.
       -1   -1    0    0    0  501  0.00000000000E+00  0.00000000000E+00 -0.93571953493E+03  0.93571953494E+03  0.50400001928E-02 0. -1.
    10030    2    1    2    0    0  0.00000000000E+00  0.00000000000E+00  0.47150445346E+03  0.23429435233E+04  0.22950093472E+04 0.  0.
        3    1    3    3  502    0 -0.69575625975E+03  0.29720525700E+03 -0.64503021764E+03  0.99421915574E+03  0.10100000352E+00 0. -1.
       -3    1    3    3    0  502  0.69575625975E+03 -0.29720525700E+03  0.11165346711E+04  0.13487243676E+04  0.10100000352E+00 0.  1.
</event>
<event>
 5   0  0.3885219E-05  0.2320337E+04  0.7818609E-02  0.8469946E-01
       -1   -1    0    0    0  501  0.00000000000E+00  0.00000000000E+00  0.15201164288E+04  0.15201164288E+04  0.50400001928E-02 0. -1.
        1   -1    0    0  501    0  0.00000000000E+00  0.00000000000E+00 -0.88545223301E+03  0.88545223302E+03  0.50400001928E-02 0.  1.
    10030    2    1    2    0    0  0.00000000000E+00  0.00000000000E+00  0.63466419580E+03  0.24055686618E+04  0.23203366017E+04 0.  0.
        2    1    3    3  502    0  0.41335383321E+03  0.11246129272E+03  0.14351210208E+04  0.14976919838E+04  0.25500000920E-02 0. -1.
       -2    1    3    3    0  502 -0.41335383321E+03 -0.11246129272E+03 -0.80045682505E+03  0.90787667806E+03  0.25500000920E-02 0.  1.
</event>
<event>
 5   0  0.3885219E-05  0.2306886E+04  0.7818609E-02  0.8475211E-01
       -1   -1    0    0    0  501  0.00000000000E+00  0.00000000000E+00  0.95949043461E+03  0.95949043463E+03  0.50400001928E-02 0. -1.
        1   -1    0    0  501    0  0.00000000000E+00  0.00000000000E+00 -0.13866008285E+04  0.13866008285E+04  0.50400001928E-02 0.  1.
    10030    2    1    2    0    0  0.00000000000E+00  0.00000000000E+00 -0.42711039393E+03  0.23460912632E+04  0.23068855469E+04 0.  0.
        2    1    3    3  502    0  0.57033889241E+03  0.10947327840E+03  0.79995548099E+03  0.98853407754E+03  0.25500000920E-02 0. -1.
       -2    1    3    3    0  502 -0.57033889241E+03 -0.10947327840E+03 -0.12270658749E+04  0.13575571856E+04  0.25500000920E-02 0.  1.
</event>
<event>
 5   0  0.9483073E-05  0.2282633E+04  0.7818609E-02  0.8484800E-01
       -2   -1    0    0    0  501  0.00000000000E+00  0.00000000000E+00  0.10059167705E+04  0.10059167705E+04  0.25500000920E-02 0.  1.
        2   -1    0    0  501    0  0.00000000000E+00  0.00000000000E+00 -0.12949413497E+04  0.12949413497E+04  0.25500000920E-02 0. -1.
    10030    2    1    2    0    0  0.00000000000E+00  0.00000000000E+00 -0.28902457929E+03  0.23008581202E+04  0.22826328837E+04 0.  0.
        5    1    3    3  502    0 -0.40561113835E+03 -0.72767832592E+03  0.64180914613E+03  0.10516545115E+04  0.46999998093E+01 0.  1.
       -5    1    3    3    0  502  0.40561113835E+03  0.72767832592E+03 -0.93083372541E+03  0.12492036087E+04  0.46999998093E+01 0. -1.
</event>
<event>
 5   0  0.4295775E-05  0.2289769E+04  0.7818609E-02  0.8481966E-01
       -1   -1    0    0    0  501  0.00000000000E+00  0.00000000000E+00  0.17677034451E+04  0.17677034451E+04  0.50400001928E-02 0. -1.
        1   -1    0    0  501    0  0.00000000000E+00  0.00000000000E+00 -0.74150474733E+03  0.74150474735E+03  0.50400001928E-02 0.  1.
    10030    2    1    2    0    0  0.00000000000E+00  0.00000000000E+00  0.10261986977E+04  0.25092081924E+04  0.22897689808E+04 0.  0.
        5    1    3    3  502    0  0.10728759909E+02  0.69390780530E+03 -0.48472129028E+03  0.84652227838E+03  0.46999998093E+01 0.  1.
       -5    1    3    3    0  502 -0.10728759909E+02 -0.69390780530E+03  0.15109199880E+04  0.16626859140E+04  0.46999998093E+01 0. -1.
</event>
<event>
 5   0  0.4095451E-05  0.2297238E+04  0.7818609E-02  0.8479011E-01
       -1   -1    0    0    0  501  0.00000000000E+00  0.00000000000E+00  0.62783631786E+03  0.62783631788E+03  0.50400001928E-02 0.  1.
        1   -1    0    0  501    0  0.00000000000E+00  0.00000000000E+00 -0.21013839976E+04  0.21013839976E+04  0.50400001928E-02 0. -1.
    10030    2    1    2    0    0  0.00000000000E+00  0.00000000000E+00 -0.14735476797E+04  0.27292203154E+04  0.22972376381E+04 0.  0.
        3    1    3    3  502    0  0.40396735169E+03 -0.44977551048E+03 -0.18970727383E+04  0.19910732322E+04  0.10100000352E+00 0. -1.
       -3    1    3    3    0  502 -0.40396735169E+03  0.44977551048E+03  0.42352505864E+03  0.73814708328E+03  0.10100000352E+00 0.  1.
</event>
<event>
 5   0  0.4295775E-05  0.1659764E+04  0.7818609E-02  0.8784651E-01
       -1   -1    0    0    0  501  0.00000000000E+00  0.00000000000E+00  0.51896159917E+03  0.51896159920E+03  0.50400001928E-02 0.  1.
        1   -1    0    0  501    0  0.00000000000E+00  0.00000000000E+00 -0.13270813803E+04  0.13270813803E+04  0.50400001928E-02 0. -1.
    10030    2    1    2    0    0  0.00000000000E+00  0.00000000000E+00 -0.80811978115E+03  0.18460429795E+04  0.16597641705E+04 0.  0.
        5    1    3    3  502    0 -0.21585944965E+03  0.39333375040E+03 -0.11805344748E+04  0.12629293240E+04  0.46999998093E+01 0. -1.
       -5    1    3    3    0  502  0.21585944965E+03 -0.39333375040E+03  0.37241469367E+03  0.58311365553E+03  0.46999998093E+01 0.  1.
</event>
<event>
 5   0  0.4139830E-05  0.2310802E+04  0.7818609E-02  0.8473674E-01
        1   -1    0    0  501    0  0.00000000000E+00  0.00000000000E+00  0.62801804796E+03  0.62801804798E+03  0.50400001928E-02 0.  1.
       -1   -1    0    0    0  501  0.00000000000E+00  0.00000000000E+00 -0.21256586912E+04  0.21256586912E+04  0.50400001928E-02 0. -1.
    10030    2    1    2    0    0  0.00000000000E+00  0.00000000000E+00 -0.14976406433E+04  0.27536767392E+04  0.23108024770E+04 0.  0.
        1    1    3    3  502    0 -0.96293278497E+03  0.14920457797E+03 -0.14886545499E+04  0.17792116017E+04  0.50400001928E-02 0. -1.
       -1    1    3    3    0  502  0.96293278497E+03 -0.14920457797E+03 -0.89860933745E+01  0.97446513758E+03  0.50400001928E-02 0.  1.
</event>
<event>
 5   0  0.9535394E-05  0.2256008E+04  0.7818609E-02  0.8495471E-01
       -2   -1    0    0    0  501  0.00000000000E+00  0.00000000000E+00  0.19297046318E+04  0.19297046318E+04  0.25500000920E-02 0. -1.
        2   -1    0    0  501    0  0.00000000000E+00  0.00000000000E+00 -0.65937183840E+03  0.65937183841E+03  0.25500000920E-02 0.  1.
    10030    2    1    2    0    0  0.00000000000E+00  0.00000000000E+00  0.12703327934E+04  0.25890764702E+04  0.22560078818E+04 0.  0.
        2    1    3    3  502    0 -0.90587332872E+03  0.40858422552E+03  0.12476702424E+04  0.15950638203E+04  0.25500000920E-02 0. -1.
       -2    1    3    3    0  502  0.90587332872E+03 -0.40858422552E+03  0.22662551034E+02  0.99401264995E+03  0.25500000920E-02 0.  1.
</event>
<event>
 5   0  0.9313463E-05  0.2293319E+04  0.7818609E-02  0.8480560E-01
       -2   -1    0    0    0  501  0.00000000000E+00  0.00000000000E+00  0.79292499873E+03  0.79292499873E+03  0.25500000920E-02 0. -1.
        2   -1    0    0  501    0  0.00000000000E+00  0.00000000000E+00 -0.16581994989E+04  0.16581994989E+04  0.25500000920E-02 0.  1.
    10030    2    1    2    0    0  0.00000000000E+00  0.00000000000E+00 -0.86527450017E+03  0.24511244976E+04  0.22933188488E+04 0.  0.
        1    1    3    3  502    0 -0.17273676257E+03  0.10840188183E+04 -0.78325104940E+02  0.11004860788E+04  0.50400001928E-02 0. -1.
       -1    1    3    3    0  502  0.17273676257E+03 -0.10840188183E+04 -0.78694939523E+03  0.13506384188E+04  0.50400001928E-02 0.  1.
</event>
<event>
 5   0  0.4295775E-05  0.2283825E+04  0.7818609E-02  0.8484326E-01
        1   -1    0    0  501    0  0.00000000000E+00  0.00000000000E+00  0.12018643935E+04  0.12018643935E+04  0.50400001928E-02 0. -1.
       -1   -1    0    0    0  501  0.00000000000E+00  0.00000000000E+00 -0.10849508674E+04  0.10849508674E+04  0.50400001928E-02 0.  1.
    10030    2    1    2    0    0  0.00000000000E+00  0.00000000000E+00  0.11691352608E+03  0.22868152609E+04  0.22838247010E+04 0.  0.
        5    1    3    3  502    0 -0.59776608368E+03 -0.59060850008E+03  0.83264384568E+03  0.11829879775E+04  0.46999998093E+01 0. -1.
       -5    1    3    3    0  502  0.59776608368E+03  0.59060850008E+03 -0.71573031960E+03  0.11038272834E+04  0.46999998093E+01 0.  1.
</event>
<event>
 5   0  0.3885219E-05  0.2336252E+04  0.7818609E-02  0.8463763E-01
        1   -1    0    0  501    0  0.00000000000E+00  0.00000000000E+00  0.32023675858E+04  0.32023675858E+04  0.50400001928E-02 0. -1.
       -1   -1    0    0    0  501  0.00000000000E+00  0.00000000000E+00 -0.42609665872E+03  0.42609665875E+03  0.50400001928E-02 0.  1.
    10030    2    1    2    0    0  0.00000000000E+00  0.00000000000E+00  0.27762709271E+04  0.36284642446E+04  0.23362518087E+04 0.  0.
        2    1    3    3  502    0 -0.25956903576E+03  0.58741226931E+02 -0.37838454822E+03  0.46260294250E+03  0.25500000920E-02 0.  1.
       -2    1    3    3    0  502  0.25956903576E+03 -0.58741226931E+02  0.31546554753E+04  0.31658613021E+04  0.25500000920E-02 0. -1.
</event>
<event>
 5   0  0.4095451E-05  0.2306391E+04  0.7818609E-02  0.8475405E-01
        1   -1    0    0  501    0  0.00000000000E+00  0.00000000000E+00  0.14828653241E+04  0.14828653241E+04  0.50400001928E-02 0.  1.
       -1   -1    0    0    0  501  0.00000000000E+00  0.00000000000E+00 -0.89681782222E+03  0.89681782223E+03  0.50400001928E-02 0. -1.
    10030    2    1    2    0    0  0.00000000000E+00  0.00000000000E+00  0.58604750183E+03  0.23796831463E+04  0.23063911642E+04 0.  0.
        3    1    3    3  502    0  0.12209307160E+03  0.11322150006E+04  0.48057618938E+03  0.12360303434E+04  0.10100000352E+00 0.  1.
       -3    1    3    3    0  502 -0.12209307160E+03 -0.11322150006E+04  0.10547131245E+03  0.11436528029E+04  0.10100000352E+00 0. -1.
</event>
<event>
 5   0  0.9535394E-05  0.2129820E+04  0.7818609E-02  0.8548220E-01
        2   -1    0    0  501    0  0.00000000000E+00  0.00000000000E+00  0.12939346433E+04  0.12939346433E+04  0.25500000920E-02 0.  1.
       -2   -1    0    0    0  501  0.00000000000E+00  0.00000000000E+00 -0.87642216610E+03  0.87642216610E+03  0.25500000920E-02 0. -1.
    10030    2    1    2    0    0  0.00000000000E+00  0.00000000000E+00  0.41751247718E+03  0.21703568094E+04  0.21298197134E+04 0.  0.
        2    1    3    3  502    0  0.66755941337E+03 -0.88203773445E+02  0.10494539401E+04  0.12469037848E+04  0.25500000920E-02 0.  1.
       -2    1    3    3    0  502 -0.66755941337E+03  0.88203773445E+02 -0.63194146296E+03  0.92345302460E+03  0.25500000920E-02 0. -1.
</event>
<event>
 5   0  0.9313463E-05  0.2343550E+04  0.7818609E-02  0.8460945E-01
        2   -1    0    0  501    0  0.00000000000E+00  0.00000000000E+00  0.10618851026E+04  0.10618851026E+04  0.25500000920E-02 0. -1.
       -2   -1    0    0    0  501  0.00000000000E+00  0.00000000000E+00 -0.12930369471E+04  0.12930369471E+04  0.25500000920E-02 0.  1.
    10030    2    1    2    0    0  0.00000000000E+00  0.00000000000E+00 -0.23115184452E+03  0.23549220497E+04  0.23435500176E+04 0.  0.
        1    1    3    3  502    0 -0.27248775910E+03 -0.11288363476E+04 -0.27297442123E+03  0.11929107733E+04  0.50400001928E-02 0.  1.
       -1    1    3    3    0  502  0.27248775910E+03  0.11288363476E+04  0.41822576707E+02  0.11620112764E+04  0.50400001928E-02 0. -1.
</event>
<event>
 5   0  0.4139830E-05  0.2266533E+04  0.7818609E-02  0.8491235E-01
        1   -1    0    0  501    0  0.00000000000E+00  0.00000000000E+00  0.13503252760E+04  0.13503252760E+04  0.50400001928E-02 0. -1.
       -1   -1    0    0    0  501  0.00000000000E+00  0.00000000000E+00 -0.95109928670E+03  0.95109928672E+03  0.50400001928E-02 0.  1.
    10030    2    1    2    0    0  0.00000000000E+00  0.00000000000E+00  0.39922598931E+03  0.23014245627E+04  0.22665333943E+04 0.  0.
        1    1    3    3  502    0 -0.65248976191E+03  0.89201947016E+03  0.45417490447E+03  0.11948709003E+04  0.50400001928E-02 0. -1.
       -1    1    3    3    0  502  0.65248976191E+03 -0.89201947016E+03 -0.54948915169E+02  0.11065536624E+04  0.50400001928E-02 0.  1.
</event>
<event>
 5   0  0.9535394E-05  0.2322731E+04  0.7818609E-02  0.8469012E-01
        2   -1    0    0  501    0  0.00000000000E+00  0.00000000000E+00  0.70648428547E+03  0.70648428548E+03  0.25500000920E-02 0.  1.
       -2   -1    0    0    0  501  0.00000000000E+00  0.00000000000E+00 -0.19091299160E+04  0.19091299160E+04  0.25500000920E-02 0. -1.
    10030    2    1    2    0    0  0.00000000000E+00  0.00000000000E+00 -0.12026456305E+04  0.26156142015E+04  0.23227313961E+04 0.  0.
        2    1    3    3  502    0  0.35513090061E+03  0.84500147301E+03 -0.14044299404E+04  0.16770715260E+04  0.25500000920E-02 0. -1.
       -2    1    3    3    0  502 -0.35513090061E+03 -0.84500147301E+03  0.20178430985E+03  0.93854267546E+03  0.25500000920E-02 0.  1.
</event>
<event>
 5   0  0.4005462E-05  0.2271978E+04  0.7818609E-02  0.8489053E-01
        1   -1    0    0  501    0  0.00000000000E+00  0.00000000000E+00  0.86566338543E+03  0.86566338544E+03  0.50400001928E-02 0.  1.
       -1   -1    0    0    0  501  0.00000000000E+00  0.00000000000E+00 -0.14907303697E+04  0.14907303697E+04  0.50400001928E-02 0. -1.
    10030    2    1    2    0    0  0.00000000000E+00  0.00000000000E+00 -0.62506698422E+03  0.23563937551E+04  0.22719777275E+04 0.  0.
        4    1    3    3  502    0  0.16831841528E+03  0.31586693849E+03 -0.14307225969E+04  0.14748124538E+04  0.12699999809E+01 0. -1.
       -4    1    3    3    0  502 -0.16831841528E+03 -0.31586693849E+03  0.80565561264E+03  0.88158130132E+03  0.12699999809E+01 0.  1.
</event>
<event>
 5   0  0.4095451E-05  0.2312584E+04  0.7818609E-02  0.8472976E-01
       -1   -1    0    0    0  501  0.00000000000E+00  0.00000000000E+00  0.93482186981E+03  0.93482186983E+03  0.50400001928E-02 0. -1.
        1   -1    0    0  501    0  0.00000000000E+00  0.00000000000E+00 -0.14302311248E+04  0.14302311248E+04  0.50400001928E-02 0.  1.
    10030    2    1    2    0    0  0.00000000000E+00  0.00000000000E+00 -0.49540925501E+03  0.23650529947E+04  0.23125841255E+04 0.  0.
        3    1    3    3  502    0  0.66718770918E+03 -0.43385609517E+03 -0.11055694018E+04  0.13622240135E+04  0.10100000352E+00 0.  1.
       -3    1    3    3    0  502 -0.66718770918E+03  0.43385609517E+03  0.61016014675E+03  0.10028289812E+04  0.10100000352E+00 0. -1.
</event>
<event>
 5   0  0.9483073E-05  0.2289584E+04  0.7818609E-02  0.8482039E-01
       -2   -1    0    0    0  501  0.00000000000E+00  0.00000000000E+00  0.11576782322E+04  0.11576782322E+04  0.25500000920E-02 0. -1.
        2   -1    0    0  501    0  0.00000000000E+00  0.00000000000E+00 -0.11320490997E+04  0.11320490997E+04  0.25500000920E-02 0.  1.
    10030    2    1    2    0    0  0.00000000000E+00  0.00000000000E+00  0.25629132577E+02  0.22897273319E+04  0.22895838928E+04 0.  0.
        5    1    3    3  502    0 -0.86496327680E+03 -0.74871457696E+03  0.55143599195E+02  0.11453374588E+04  0.46999998093E+01 0. -1.
       -5    1    3    3    0  502  0.86496327680E+03  0.74871457696E+03 -0.29514466618E+02  0.11443898731E+04  0.46999998093E+01 0.  1.
</event>
<event>
 5   0  0.9535394E-05  0.2212682E+04  0.7818609E-02  0.8513168E-01
       -2   -1    0    0    0  501  0.00000000000E+00  0.00000000000E+00  0.99551785072E+03  0.99551785073E+03  0.25500000920E-02 0.  1.
        2   -1    0    0  501    0  0.00000000000E+00  0.00000000000E+00 -0.12295009528E+04  0.12295009528E+04  0.25500000920E-02 0. -1.
    10030    2    1    2    0    0  0.00000000000E+00  0.00000000000E+00 -0.23398310204E+03  0.22250188035E+04  0.22126817629E+04 0.  0.
        2    1    3    3  502    0  0.10673067538E+03  0.11584597752E+03 -0.12181672814E+04  0.12283091033E+04  0.25500000920E-02 0. -1.
       -2    1    3    3    0  502 -0.10673067538E+03 -0.11584597752E+03  0.98418417940E+03  0.99670970024E+03  0.25500000920E-02 0.  1.
</event>
<event>
 5   0  0.3261500E-05  0.2265517E+04  0.7818609E-02  0.8491643E-01
        3   -1    0    0  501    0  0.00000000000E+00  0.00000000000E+00  0.17206915618E+04  0.17206915648E+04  0.10100000352E+00 0.  1.
       -3   -1    0    0    0  501  0.00000000000E+00  0.00000000000E+00 -0.74571290793E+03  0.74571291477E+03  0.10100000352E+00 0. -1.
    10030    2    1    2    0    0  0.00000000000E+00  0.00000000000E+00  0.97497865392E+03  0.24664044796E+04  0.22655170892E+04 0.  0.
        4    1    3    3  502    0  0.94219177837E+03  0.41780932230E+03 -0.24128872173E+02  0.10309577064E+04  0.12699999809E+01 0. -1.
       -4    1    3    3    0  502 -0.94219177837E+03 -0.41780932230E+03  0.99910752609E+03  0.14354467732E+04  0.12699999809E+01 0.  1.
</event>
<event>
 5   0  0.4295775E-05  0.2241491E+04  0.7818609E-02  0.8501354E-01
        1   -1    0    0  501    0  0.00000000000E+00  0.00000000000E+00  0.12646923679E+04  0.12646923679E+04  0.50400001928E-02 0.  1.
       -1   -1    0    0    0  501  0.00000000000E+00  0.00000000000E+00 -0.99318276298E+03  0.99318276299E+03  0.50400001928E-02 0. -1.
    10030    2    1    2    0    0  0.00000000000E+00  0.00000000000E+00  0.27150960493E+03  0.22578751309E+04  0.22414911647E+04 0.  0.
        5    1    3    3  502    0 -0.10395753569E+04  0.40442113108E+02  0.55556975370E+03  0.11794203357E+04  0.46999998093E+01 0.  1.
       -5    1    3    3    0  502  0.10395753569E+04 -0.40442113108E+02 -0.28406014876E+03  0.10784547952E+04  0.46999998093E+01 0. -1.
</event>
<event>
 5   0  0.3885219E-05  0.2188255E+04  0.7818609E-02  0.8523333E-01
        1   -1    0    0  501    0  0.00000000000E+00  0.00000000000E+00  0.96235500323E+03  0.96235500324E+03  0.50400001928E-02 0.  1.
       -1   -1    0    0    0  501  0.00000000000E+00  0.00000000000E+00 -0.12439428287E+04  0.12439428288E+04  0.50400001928E-02 0. -1.
    10030    2    1    2    0    0  0.00000000000E+00  0.00000000000E+00 -0.28158782552E+03  0.22062978320E+04  0.21882546515E+04 0.  0.
        2    1    3    3  502    0 -0.98052965167E+03 -0.28003924066E+03 -0.54061661249E+03  0.11541779307E+04  0.25500000920E-02 0. -1.
       -2    1    3    3    0  502  0.98052965167E+03  0.28003924066E+03  0.25902878697E+03  0.10521199012E+04  0.25500000920E-02 0.  1.
</event>
<event>
 5   0  0.4139830E-05  0.2234342E+04  0.7818609E-02  0.8504269E-01
       -1   -1    0    0    0  501  0.00000000000E+00  0.00000000000E+00  0.25145681396E+04  0.25145681396E+04  0.50400001928E-02 0. -1.
        1   -1    0    0  501    0  0.00000000000E+00  0.00000000000E+00 -0.49633603097E+03  0.49633603099E+03  0.50400001928E-02 0.  1.
    10030    2    1    2    0    0  0.00000000000E+00  0.00000000000E+00  0.20182321086E+04  0.30109041706E+04  0.22343417555E+04 0.  0.
        1    1    3    3  502    0  0.21999976971E+03 -0.22888008748E+03 -0.43427146948E+03  0.53793838155E+03  0.50400001928E-02 0.  1.
       -1    1    3    3    0  502 -0.21999976971E+03  0.22888008748E+03  0.24525035781E+04  0.24729657891E+04  0.50400001928E-02 0. -1.
</event>
<event>
 5   0  0.9535394E-05  0.1618347E+04  0.7818609E-02  0.8809355E-01
        2   -1    0    0  501    0  0.00000000000E+00  0.00000000000E+00  0.44148884046E+03  0.44148884047E+03  0.25500000920E-02 0. -1.
       -2   -1    0    0    0  501  0.00000000000E+00  0.00000000000E+00 -0.14830774179E+04  0.14830774179E+04  0.25500000920E-02 0.  1.
    10030    2    1    2    0    0  0.00000000000E+00  0.00000000000E+00 -0.10415885775E+04  0.19245662584E+04  0.16183474652E+04 0.  0.
        2    1    3    3  502    0  0.76727860626E+03 -0.18363879879E+03 -0.73459704960E+03  0.10779946629E+04  0.25500000920E-02 0.  1.
       -2    1    3    3    0  502 -0.76727860626E+03  0.18363879879E+03 -0.30699152787E+03  0.84657159546E+03  0.25500000920E-02 0. -1.
</event>
<event>
 5   0  0.4139830E-05  0.2290166E+04  0.7818609E-02  0.8481809E-01
       -1   -1    0    0    0  501  0.00000000000E+00  0.00000000000E+00  0.55038315636E+03  0.55038315638E+03  0.50400001928E-02 0. -1.
        1   -1    0    0  501    0  0.00000000000E+00  0.00000000000E+00 -0.23823670044E+04  0.23823670044E+04  0.50400001928E-02 0.  1.
    10030    2    1    2    0    0  0.00000000000E+00  0.00000000000E+00 -0.18319838481E+04  0.29327501608E+04  0.22901656460E+04 0.  0.
        1    1    3    3  502    0  0.27798509512E+03  0.11100655652E+04 -0.86329468303E+03  0.14334570038E+04  0.50400001928E-02 0.  1.
       -1    1    3    3    0  502 -0.27798509512E+03 -0.11100655652E+04 -0.96868916502E+03  0.14992931570E+04  0.50400001928E-02 0. -1.
</event>
<event>
 5   0  0.3261500E-05  0.2319706E+04  0.7818609E-02  0.8470192E-01
       -4   -1    0    0    0  501  0.00000000000E+00  0.00000000000E+00  0.84648891983E+03  0.84648987253E+03  0.12699999809E+01 0. -1.
        4   -1    0    0  501    0  0.00000000000E+00  0.00000000000E+00 -0.15892200434E+04  0.15892205508E+04  0.12699999809E+01 0.  1.
    10030    2    1    2    0    0  0.00000000000E+00  0.00000000000E+00 -0.74273112352E+03  0.24357104233E+04  0.23197059608E+04 0.  0.
        2    1    3    3  502    0 -0.75913337882E+03  0.70491011418E+03 -0.91906056043E+03  0.13848660837E+04  0.25500000920E-02 0.  1.
       -2    1    3    3    0  502  0.75913337882E+03 -0.70491011418E+03  0.17632943691E+03  0.10508443397E+04  0.25500000920E-02 0. -1.
</event>
<event>
 5   0  0.4095451E-05  0.2368344E+04  0.7818609E-02  0.8451451E-01
       -1   -1    0    0    0  501  0.00000000000E+00  0.00000000000E+00  0.91254166052E+03  0.91254166053E+03  0.50400001928E-02 0.  1.
        1   -1    0    0  501    0  0.00000000000E+00  0.00000000000E+00 -0.15366567531E+04  0.15366567531E+04  0.50400001928E-02 0. -1.
    10030    2    1    2    0    0  0.00000000000E+00  0.00000000000E+00 -0.62411509256E+03  0.24491984136E+04  0.23683439827E+04 0.  0.
        3    1    3    3  502    0  0.84784730646E+03  0.43863962581E+03  0.41258847781E+03  0.10399418439E+04  0.10100000352E+00 0.  1.
       -3    1    3    3    0  502 -0.84784730646E+03 -0.43863962581E+03 -0.10367035704E+04  0.14092565698E+04  0.10100000352E+00 0. -1.
</event>
<event>
 5   0  0.3261500E-05  0.2308332E+04  0.7818609E-02  0.8474643E-01
        3   -1    0    0  501    0  0.00000000000E+00  0.00000000000E+00  0.82058488976E+03  0.82058489598E+03  0.10100000352E+00 0. -1.
       -3   -1    0    0    0  501  0.00000000000E+00  0.00000000000E+00 -0.16233527825E+04  0.16233527857E+04  0.10100000352E+00 0.  1.
    10030    2    1    2    0    0  0.00000000000E+00  0.00000000000E+00 -0.80276789275E+03  0.24439376816E+04  0.23083316707E+04 0.  0.
        2    1    3    3  502    0  0.75158978641E+03 -0.59207944673E+03  0.28202306971E+03  0.99748798997E+03  0.25500000920E-02 0. -1.
       -2    1    3    3    0  502 -0.75158978641E+03  0.59207944673E+03 -0.10847909625E+04  0.14464496917E+04  0.25500000920E-02 0.  1.
</event>
<event>
 5   0  0.4295775E-05  0.2314048E+04  0.7818609E-02  0.8472403E-01
       -1   -1    0    0    0  501  0.00000000000E+00  0.00000000000E+00  0.12407739827E+04  0.12407739827E+04  0.50400001928E-02 0. -1.
        1   -1    0    0  501    0  0.00000000000E+00  0.00000000000E+00 -0.10789269475E+04  0.10789269475E+04  0.50400001928E-02 0.  1.
    10030    2    1    2    0    0  0.00000000000E+00  0.00000000000E+00  0.16184703518E+03  0.23197009302E+04  0.23140479561E+04 0.  0.
        5    1    3    3  502    0  0.21157312067E+03 -0.79121664503E+03  0.90016866556E+03  0.12170097293E+04  0.46999998093E+01 0. -1.
       -5    1    3    3    0  502 -0.21157312067E+03  0.79121664503E+03 -0.73832163038E+03  0.11026912009E+04  0.46999998093E+01 0.  1.
</event>
<event>
 5   0  0.9535394E-05  0.2304231E+04  0.7818609E-02  0.8476255E-01
        2   -1    0    0  501    0  0.00000000000E+00  0.00000000000E+00  0.94623632871E+03  0.94623632872E+03  0.25500000920E-02 0.  1.
       -2   -1    0    0    0  501  0.00000000000E+00  0.00000000000E+00 -0.14027889473E+04  0.14027889473E+04  0.25500000920E-02 0. -1.
    10030    2    1    2    0    0  0.00000000000E+00  0.00000000000E+00 -0.45655261856E+03  0.23490252760E+04  0.23042307727E+04 0.  0.
        2    1    3    3  502    0 -0.30716737035E+03  0.65132138500E+03  0.68853907563E+03  0.99632193524E+03  0.25500000920E-02 0.  1.
       -2    1    3    3    0  502  0.30716737035E+03 -0.65132138500E+03 -0.11450916942E+04  0.13527033407E+04  0.25500000920E-02 0. -1.
</event>
<event>
 5   0  0.3261500E-05  0.2257733E+04  0.7818609E-02  0.8494775E-01
        3   -1    0    0  501    0  0.00000000000E+00  0.00000000000E+00  0.12818680247E+04  0.12818680287E+04  0.10100000352E+00 0.  1.
       -3   -1    0    0    0  501  0.00000000000E+00  0.00000000000E+00 -0.99412677958E+03  0.99412678471E+03  0.10100000352E+00 0. -1.
    10030    2    1    2    0    0  0.00000000000E+00  0.00000000000E+00  0.28774124516E+03  0.22759948134E+04  0.22577327934E+04 0.  0.
        4    1    3    3  502    0  0.18914614151E+03 -0.72215950216E+03 -0.70976508752E+03  0.10300770368E+04  0.12699999809E+01 0. -1.
       -4    1    3    3    0  502 -0.18914614151E+03  0.72215950216E+03  0.99750633268E+03  0.12459177766E+04  0.12699999809E+01 0.  1.
</event>
<event>
 5   0  0.4139830E-05  0.2304851E+04  0.7818609E-02  0.8476011E-01
        1   -1    0    0  501    0  0.00000000000E+00  0.00000000000E+00  0.11653573520E+04  0.11653573520E+04  0.50400001928E-02 0. -1.
       -1   -1    0    0    0  501  0.00000000000E+00  0.00000000000E+00 -0.11396370414E+04  0.11396370414E+04  0.50400001928E-02 0.  1.
    10030    2    1    2    0    0  0.00000000000E+00  0.00000000000E+00  0.25720310606E+02  0.23049943934E+04  0.23048508887E+04 0.  0.
        1    1    3    3  502    0 -0.40926120897E+03 -0.87167687640E+03 -0.62024252016E+03  0.11454327121E+04  0.50400001928E-02 0.  1.
       -1    1    3    3    0  502  0.40926120897E+03  0.87167687640E+03  0.64596283077E+03  0.11595616813E+04  0.50400001928E-02 0. -1.
</event>
<event>
 5   0  0.9535394E-05  0.2223477E+04  0.7818609E-02  0.8508719E-01
        2   -1    0    0  501    0  0.00000000000E+00  0.00000000000E+00  0.72478205116E+03  0.72478205117E+03  0.25500000920E-02 0.  1.
       -2   -1    0    0    0  501  0.00000000000E+00  0.00000000000E+00 -0.17052886882E+04  0.17052886882E+04  0.25500000920E-02 0. -1.
    10030    2    1    2    0    0  0.00000000000E+00  0.00000000000E+00 -0.98050663705E+03  0.24300707394E+04  0.22234771267E+04 0.  0.
        2    1    3    3  502    0 -0.85043473588E+02 -0.83943845558E+03 -0.12814460256E+04  0.15342728667E+04  0.25500000920E-02 0. -1.
       -2    1    3    3    0  502  0.85043473588E+02  0.83943845558E+03  0.30093938850E+03  0.89579787267E+03  0.25500000920E-02 0.  1.
</event>
<event>
 5   0  0.3885219E-05  0.2279185E+04  0.7818609E-02  0.8486174E-01
       -1   -1    0    0    0  501  0.00000000000E+00  0.00000000000E+00  0.11149333970E+04  0.11149333970E+04  0.50400001928E-02 0.  1.
        1   -1    0    0  501    0  0.00000000000E+00  0.00000000000E+00 -0.11647972228E+04  0.11647972228E+04  0.50400001928E-02 0. -1.
    10030    2    1    2    0    0  0.00000000000E+00  0.00000000000E+00 -0.49863825728E+02  0.22797306198E+04  0.22791852267E+04 0.  0.
        2    1    3    3  502    0  0.44719676365E+03  0.26800681721E+03  0.98865095200E+03  0.11176955330E+04  0.25500000920E-02 0.  1.
       -2    1    3    3    0  502 -0.44719676365E+03 -0.26800681721E+03 -0.10385147777E+04  0.11620350868E+04  0.25500000920E-02 0. -1.
</event>
<event>
 5   0  0.3885219E-05  0.2314692E+04  0.7818609E-02  0.8472151E-01
       -1   -1    0    0    0  501  0.00000000000E+00  0.00000000000E+00  0.68033373823E+03  0.68033373824E+03  0.50400001928E-02 0. -1.
        1   -1    0    0  501    0  0.00000000000E+00  0.00000000000E+00 -0.19688131156E+04  0.19688131156E+04  0.50400001928E-02 0.  1.
    10030    2    1    2    0    0  0.00000000000E+00  0.00000000000E+00 -0.12884793773E+04  0.26491468538E+04  0.23146921928E+04 0.  0.
        2    1    3    3  502    0  0.16362412453E+03  0.13384978922E+03  0.65805015375E+03  0.69117192149E+03  0.25500000920E-02 0. -1.
       -2    1    3    3    0  502 -0.16362412453E+03 -0.13384978922E+03 -0.19465295311E+04  0.19579749323E+04  0.25500000920E-02 0.  1.
</event>
<event>
 5   0  0.4005462E-05  0.2244779E+04  0.7818609E-02  0.8500018E-01
       -1   -1    0    0    0  501  0.00000000000E+00  0.00000000000E+00  0.13794652197E+04  0.13794652197E+04  0.50400001928E-02 0.  1.
        1   -1    0    0  501    0  0.00000000000E+00  0.00000000000E+00 -0.91322192850E+03  0.91322192852E+03  0.50400001928E-02 0. -1.
    10030    2    1    2    0    0  0.00000000000E+00  0.00000000000E+00  0.46624329117E+03  0.22926871482E+04  0.22447787314E+04 0.  0.
        4    1    3    3  502    0  0.22199113229E+03  0.62675609322E+03  0.11566617901E+04  0.13341556778E+04  0.12699999809E+01 0.  1.
       -4    1    3    3    0  502 -0.22199113229E+03 -0.62675609322E+03 -0.69041849888E+03  0.95853147037E+03  0.12699999809E+01 0. -1.
</event>
<event>
 5   0  0.4005462E-05  0.2183752E+04  0.7818609E-02  0.8525221E-01
       -1   -1    0    0    0  501  0.00000000000E+00  0.00000000000E+00  0.65291595394E+03  0.65291595396E+03  0.50400001928E-02 0.  1.
        1   -1    0    0  501    0  0.00000000000E+00  0.00000000000E+00 -0.18259525788E+04  0.18259525788E+04  0.50400001928E-02 0. -1.
    10030    2    1    2    0    0  0.00000000000E+00  0.00000000000E+00 -0.11730366249E+04  0.24788685328E+04  0.21837523393E+04 0.  0.
        4    1    3    3  502    0 -0.33760895820E+03  0.10381005001E+04 -0.61336867460E+03  0.12521402481E+04  0.12699999809E+01 0. -1.
       -4    1    3    3    0  502  0.33760895820E+03 -0.10381005001E+04 -0.55966795026E+03  0.12267282847E+04  0.12699999809E+01 0.  1.
</event>
<event>
 5   0  0.4295775E-05  0.2094920E+04  0.7818609E-02  0.8563484E-01
        1   -1    0    0  501    0  0.00000000000E+00  0.00000000000E+00  0.92148732802E+03  0.92148732804E+03  0.50400001928E-02 0.  1.
       -1   -1    0    0    0  501  0.00000000000E+00  0.00000000000E+00 -0.11906541779E+04  0.11906541779E+04  0.50400001928E-02 0. -1.
    10030    2    1    2    0    0  0.00000000000E+00  0.00000000000E+00 -0.26916684985E+03  0.21121415059E+04  0.20949202725E+04 0.  0.
        5    1    3    3  502    0 -0.78106349437E+03  0.66625723231E+02  0.56585882067E+03  0.96680787345E+03  0.46999998093E+01 0. -1.
       -5    1    3    3    0  502  0.78106349437E+03 -0.66625723231E+02 -0.83502567052E+03  0.11453336325E+04  0.46999998093E+01 0.  1.
</event>
<event>
 5   0  0.4095451E-05  0.2307017E+04  0.7818609E-02  0.8475159E-01
        1   -1    0    0  501    0  0.00000000000E+00  0.00000000000E+00  0.10425935377E+04  0.10425935377E+04  0.50400001928E-02 0.  1.
       -1   -1    0    0    0  501  0.00000000000E+00  0.00000000000E+00 -0.12762233661E+04  0.12762233661E+04  0.50400001928E-02 0. -1.
    10030    2    1    2    0    0  0.00000000000E+00  0.00000000000E+00 -0.23362982838E+03  0.23188169038E+04  0.23070173248E+04 0.  0.
        3    1    3    3  502    0  0.61484182373E+03 -0.57987499374E+03  0.67224601504E+03  0.10799074921E+04  0.10100000352E+00 0.  1.
       -3    1    3    3    0  502 -0.61484182373E+03  0.57987499374E+03 -0.90587584342E+03  0.12389094117E+04  0.10100000352E+00 0. -1.
</event>
<event>
 5   0  0.9483073E-05  0.1630117E+04  0.7818609E-02  0.8802257E-01
        2   -1    0    0  501    0  0.00000000000E+00  0.00000000000E+00  0.56151192242E+03  0.56151192242E+03  0.25500000920E-02 0.  1.
       -2   -1    0    0    0  501  0.00000000000E+00  0.00000000000E+00 -0.11830923753E+04  0.11830923753E+04  0.25500000920E-02 0. -1.
    10030    2    1    2    0    0  0.00000000000E+00  0.00000000000E+00 -0.62158045288E+03  0.17446042977E+04  0.16301171419E+04 0.  0.
        5    1    3    3  502    0  0.49329095878E+03 -0.40356867208E+03  0.23292025003E+03  0.67858498065E+03  0.46999998093E+01 0.  1.
       -5    1    3    3    0  502 -0.49329095878E+03  0.40356867208E+03 -0.85450070291E+03  0.10660193171E+04  0.46999998093E+01 0. -1.
</event>
<event>
 5   0  0.4295775E-05  0.2197998E+04  0.7818609E-02  0.8519262E-01
        1   -1    0    0  501    0  0.00000000000E+00  0.00000000000E+00  0.12664099728E+04  0.12664099728E+04  0.50400001928E-02 0.  1.
       -1   -1    0    0    0  501  0.00000000000E+00  0.00000000000E+00 -0.95371902611E+03  0.95371902613E+03  0.50400001928E-02 0. -1.
    10030    2    1    2    0    0  0.00000000000E+00  0.00000000000E+00  0.31269094664E+03  0.22201289989E+04  0.21979984403E+04 0.  0.
        5    1    3    3  502    0 -0.69156131639E+03  0.80428146472E+02 -0.70254034482E+03  0.98909593426E+03  0.46999998093E+01 0. -1.
       -5    1    3    3    0  502  0.69156131639E+03 -0.80428146472E+02  0.10152312915E+04  0.12310330646E+04  0.46999998093E+01 0.  1.
</event>
<event>
 5   0  0.9313463E-05  0.2313593E+04  0.7818609E-02  0.8472581E-01
        2   -1    0    0  501    0  0.00000000000E+00  0.00000000000E+00  0.12510504490E+04  0.12510504490E+04  0.25500000920E-02 0.  1.
       -2   -1    0    0    0  501  0.00000000000E+00  0.00000000000E+00 -0.10696436986E+04  0.10696436986E+04  0.25500000920E-02 0. -1.
    10030    2    1    2    0    0  0.00000000000E+00  0.00000000000E+00  0.18140675035E+03  0.23206941476E+04  0.23135930752E+04 0.  0.
        1    1    3    3  502    0 -0.56833664402E+03 -0.89637164308E+03  0.55221288821E+03  0.11964228924E+04  0.50400001928E-02 0.  1.
       -1    1    3    3    0  502  0.56833664402E+03  0.89637164308E+03 -0.37080613786E+03  0.11242712552E+04  0.50400001928E-02 0. -1.
</event>
<event>
 5   0  0.4095451E-05  0.2283573E+04  0.7818609E-02  0.8484426E-01
        1   -1    0    0  501    0  0.00000000000E+00  0.00000000000E+00  0.15406141287E+04  0.15406141287E+04  0.50400001928E-02 0. -1.
       -1   -1    0    0    0  501  0.00000000000E+00  0.00000000000E+00 -0.84620534484E+03  0.84620534485E+03  0.50400001928E-02 0.  1.
    10030    2    1    2    0    0  0.00000000000E+00  0.00000000000E+00  0.69440878387E+03  0.23868194736E+04  0.22835725608E+04 0.  0.
        3    1    3    3  502    0 -0.30169421358E+03 -0.23711465706E+03  0.14712010530E+04  0.15204194512E+04  0.10100000352E+00 0. -1.
       -3    1    3    3    0  502  0.30169421358E+03  0.23711465706E+03 -0.77679226914E+03  0.86640002233E+03  0.10100000352E+00 0.  1.
</event>
<event>
 5   0  0.4005462E-05  0.2441020E+04  0.7818609E-02  0.8424304E-01
        1   -1    0    0  501    0  0.00000000000E+00  0.00000000000E+00  0.14484506142E+04  0.14484506142E+04  0.50400001928E-02 0. -1.
       -1   -1    0    0    0  501  0.00000000000E+00  0.00000000000E+00 -0.10284401813E+04  0.10284401813E+04  0.50400001928E-02 0.  1.
    10030    2    1    2    0    0  0.00000000000E+00  0.00000000000E+00  0.42001043290E+03  0.24768907956E+04  0.24410201247E+04 0.  0.
        4    1    3    3  502    0 -0.12016992474E+04  0.17087256822E+03  0.80200848729E+02  0.12164342583E+04  0.12699999809E+01 0. -1.
       -4    1    3    3    0  502  0.12016992474E+04 -0.17087256822E+03  0.33980958417E+03  0.12604565372E+04  0.12699999809E+01 0.  1.
</event>
<event>
 5   0  0.9313463E-05  0.2262981E+04  0.7818609E-02  0.8492662E-01
       -2   -1    0    0    0  501  0.00000000000E+00  0.00000000000E+00  0.87092149455E+03  0.87092149455E+03  0.25500000920E-02 0.  1.
        2   -1    0    0  501    0  0.00000000000E+00  0.00000000000E+00 -0.14700181264E+04  0.14700181264E+04  0.25500000920E-02 0. -1.
    10030    2    1    2    0    0  0.00000000000E+00  0.00000000000E+00 -0.59909663185E+03  0.23409396209E+04  0.22629806748E+04 0.  0.
        1    1    3    3  502    0  0.93611688932E+03 -0.19850416792E+03  0.32503287324E+03  0.10106260950E+04  0.50400001928E-02 0.  1.
       -1    1    3    3    0  502 -0.93611688932E+03  0.19850416792E+03 -0.92412950509E+03  0.13303135260E+04  0.50400001928E-02 0. -1.
</event>
<event>
 5   0  0.9641157E-05  0.2433916E+04  0.7818609E-02  0.8426914E-01
       -2   -1    0    0    0  501  0.00000000000E+00  0.00000000000E+00  0.22688514374E+04  0.22688514374E+04  0.25500000920E-02 0. -1.
        2   -1    0    0  501    0  0.00000000000E+00  0.00000000000E+00 -0.65274709301E+03  0.65274709302E+03  0.25500000920E-02 0.  1.
    10030    2    1    2    0    0  0.00000000000E+00  0.00000000000E+00  0.16161043444E+04  0.29215985304E+04  0.24339155123E+04 0.  0.
        3    1    3    3  502    0  0.99255010847E+03 -0.57490045201E+03  0.12961171391E+04  0.17307760964E+04  0.10100000352E+00 0. -1.
       -3    1    3    3    0  502 -0.99255010847E+03  0.57490045201E+03  0.31998720532E+03  0.11908224340E+04  0.10100000352E+00 0.  1.
</event>
<event>
 5   0  0.9313463E-05  0.2274576E+04  0.7818609E-02  0.8488013E-01
        2   -1    0    0  501    0  0.00000000000E+00  0.00000000000E+00  0.16505405756E+04  0.16505405757E+04  0.25500000920E-02 0.  1.
       -2   -1    0    0    0  501  0.00000000000E+00  0.00000000000E+00 -0.78363678758E+03  0.78363678758E+03  0.25500000920E-02 0. -1.
    10030    2    1    2    0    0  0.00000000000E+00  0.00000000000E+00  0.86690378807E+03  0.24341773632E+04  0.22745762810E+04 0.  0.
        1    1    3    3  502    0  0.26867360181E+03 -0.29293850394E+03 -0.70687955208E+03  0.81097297894E+03  0.50400001928E-02 0. -1.
       -1    1    3    3    0  502 -0.26867360181E+03  0.29293850394E+03  0.15737833402E+04  0.16232043843E+04  0.50400001928E-02 0.  1.
</event>
<event>
 5   0  0.9641157E-05  0.2267965E+04  0.7818609E-02  0.8490660E-01
       -2   -1    0    0    0  501  0.00000000000E+00  0.00000000000E+00  0.75389328445E+03  0.75389328446E+03  0.25500000920E-02 0. -1.
        2   -1    0    0  501    0  0.00000000000E+00  0.00000000000E+00 -0.17057011646E+04  0.17057011646E+04  0.25500000920E-02 0.  1.
    10030    2    1    2    0    0  0.00000000000E+00  0.00000000000E+00 -0.95180788010E+03  0.24595944490E+04  0.22679653024E+04 0.  0.
        3    1    3    3  502    0 -0.41653025563E+03  0.41482328867E+03  0.57574247264E+03  0.82283365249E+03  0.10100000352E+00 0. -1.
       -3    1    3    3    0  502  0.41653025563E+03 -0.41482328867E+03 -0.15275503527E+04  0.16367607965E+04  0.10100000352E+00 0.  1.
</event>
<event>
 5   0  0.9535394E-05  0.2376059E+04  0.7818609E-02  0.8448521E-01
        2   -1    0    0  501    0  0.00000000000E+00  0.00000000000E+00  0.99135581077E+03  0.99135581077E+03  0.25500000920E-02 0.  1.
       -2   -1    0    0    0  501  0.00000000000E+00  0.00000000000E+00 -0.14237209679E+04  0.14237209679E+04  0.25500000920E-02 0. -1.
    10030    2    1    2    0    0  0.00000000000E+00  0.00000000000E+00 -0.43236515715E+03  0.24150767787E+04  0.23760589677E+04 0.  0.
        2    1    3    3  502    0 -0.40835551248E+03  0.30741115006E+03 -0.13062478922E+04  0.14026900569E+04  0.25500000920E-02 0. -1.
       -2    1    3    3    0  502  0.40835551248E+03 -0.30741115006E+03  0.87388273510E+03  0.10123867218E+04  0.25500000920E-02 0.  1.
</event>
<event>
 5   0  0.9313463E-05  0.2318001E+04  0.7818609E-02  0.8470857E-01
       -2   -1    0    0    0  501  0.00000000000E+00  0.00000000000E+00  0.10722697668E+04  0.10722697668E+04  0.25500000920E-02 0.  1.
        2   -1    0    0  501    0  0.00000000000E+00  0.00000000000E+00 -0.12527466671E+04  0.12527466671E+04  0.25500000920E-02 0. -1.
    10030    2    1    2    0    0  0.00000000000E+00  0.00000000000E+00 -0.18047690029E+03  0.23250164340E+04  0.23180011878E+04 0.  0.
        1    1    3    3  502    0  0.11559674205E+04 -0.65846901836E+02 -0.38256080069E+02  0.11584731414E+04  0.50400001928E-02 0.  1.
       -1    1    3    3    0  502 -0.11559674205E+04  0.65846901836E+02 -0.14222082022E+03  0.11665432926E+04  0.50400001928E-02 0. -1.
</event>
<event>
 5   0  0.4295775E-05  0.2231232E+04  0.7818609E-02  0.8505540E-01
       -1   -1    0    0    0  501  0.00000000000E+00  0.00000000000E+00  0.90609978571E+03  0.90609978572E+03  0.50400001928E-02 0.  1.
        1   -1    0    0  501    0  0.00000000000E+00  0.00000000000E+00 -0.13735789424E+04  0.13735789424E+04  0.50400001928E-02 0. -1.
    10030    2    1    2    0    0  0.00000000000E+00  0.00000000000E+00 -0.46747915671E+03  0.22796787282E+04  0.22312324714E+04 0.  0.
        5    1    3    3  502    0 -0.62595472343E+03  0.81681134073E+03  0.20640097347E+03  0.10495825522E+04  0.46999998093E+01 0.  1.
       -5    1    3    3    0  502  0.62595472343E+03 -0.81681134073E+03 -0.67388013018E+03  0.12300961759E+04  0.46999998093E+01 0. -1.
</event>
<event>
 5   0  0.4295775E-05  0.2293672E+04  0.7818609E-02  0.8480420E-01
        1   -1    0    0  501    0  0.00000000000E+00  0.00000000000E+00  0.46711478948E+03  0.46711478951E+03  0.50400001928E-02 0. -1.
       -1   -1    0    0    0  501  0.00000000000E+00  0.00000000000E+00 -0.28156533930E+04  0.28156533930E+04  0.50400001928E-02 0.  1.
    10030    2    1    2    0    0  0.00000000000E+00  0.00000000000E+00 -0.23485386035E+04  0.32827681825E+04  0.22936724631E+04 0.  0.
        5    1    3    3  502    0 -0.63542180899E+03 -0.11518596753E+03  0.18214114572E+03  0.67098894880E+03  0.46999998093E+01 0. -1.
       -5    1    3    3    0  502  0.63542180899E+03  0.11518596753E+03 -0.25306797493E+04  0.26117792337E+04  0.46999998093E+01 0.  1.
</event>
<event>
 5   0  0.9535394E-05  0.2346289E+04  0.7818609E-02  0.8459890E-01
       -2   -1    0    0    0  501  0.00000000000E+00  0.00000000000E+00  0.15543705563E+04  0.15543705563E+04  0.25500000920E-02 0. -1.
        2   -1    0    0  501    0  0.00000000000E+00  0.00000000000E+00 -0.88541811097E+03  0.88541811097E+03  0.25500000920E-02 0.  1.
    10030    2    1    2    0    0  0.00000000000E+00  0.00000000000E+00  0.66895244530E+03  0.24397886672E+04  0.23462888498E+04 0.  0.
        2    1    3    3  502    0 -0.77600093302E+03 -0.43807035226E+03 -0.45894013379E+03  0.10023517985E+04  0.25500000920E-02 0.  1.
       -2    1    3    3    0  502  0.77600093302E+03  0.43807035226E+03  0.11278925791E+04  0.14374368687E+04  0.25500000920E-02 0. -1.
</event>
<event>
 5   0  0.4095451E-05  0.2236267E+04  0.7818609E-02  0.8503483E-01
        1   -1    0    0  501    0  0.00000000000E+00  0.00000000000E+00  0.12753239776E+04  0.12753239777E+04  0.50400001928E-02 0.  1.
       -1   -1    0    0    0  501  0.00000000000E+00  0.00000000000E+00 -0.98031777240E+03  0.98031777241E+03  0.50400001928E-02 0. -1.
    10030    2    1    2    0    0  0.00000000000E+00  0.00000000000E+00  0.29500620525E+03  0.22556417501E+04  0.22362672120E+04 0.  0.
        3    1    3    3  502    0 -0.56002672033E+03 -0.96733031480E+03  0.11783937844E+03  0.11239412773E+04  0.10100000352E+00 0. -1.
       -3    1    3    3    0  502  0.56002672033E+03  0.96733031480E+03  0.17716682681E+03  0.11317004728E+04  0.10100000352E+00 0.  1.
</event>
<event>
 5   0  0.4295775E-05  0.1465818E+04  0.7818609E-02  0.8907507E-01
       -1   -1    0    0    0  501  0.00000000000E+00  0.00000000000E+00  0.70738183153E+03  0.70738183155E+03  0.50400001928E-02 0.  1.
        1   -1    0    0  501    0  0.00000000000E+00  0.00000000000E+00 -0.75935770619E+03  0.75935770621E+03  0.50400001928E-02 0. -1.
    10030    2    1    2    0    0  0.00000000000E+00  0.00000000000E+00 -0.51975874658E+02  0.14667395378E+04  0.14658183312E+04 0.  0.
        5    1    3    3  502    0  0.69690489315E+03 -0.21640303839E+03  0.42077233974E+02  0.73095778862E+03  0.46999998093E+01 0.  1.
       -5    1    3    3    0  502 -0.69690489315E+03  0.21640303839E+03 -0.94053108632E+02  0.73578174914E+03  0.46999998093E+01 0. -1.
</event>
<event>
 5   0  0.3261500E-05  0.2317855E+04  0.7818609E-02  0.8470914E-01
        4   -1    0    0  501    0  0.00000000000E+00  0.00000000000E+00  0.11899566305E+04  0.11899573082E+04  0.12699999809E+01 0. -1.
       -4   -1    0    0    0  501  0.00000000000E+00  0.00000000000E+00 -0.11287056608E+04  0.11287063753E+04  0.12699999809E+01 0.  1.
    10030    2    1    2    0    0  0.00000000000E+00  0.00000000000E+00  0.61250969725E+02  0.23186636835E+04  0.23178545243E+04 0.  0.
        3    1    3    3  502    0  0.34558598569E+03 -0.63757674275E+03 -0.87366941357E+03  0.11354435392E+04  0.10100000352E+00 0.  1.
       -3    1    3    3    0  502 -0.34558598569E+03  0.63757674275E+03  0.93492038329E+03  0.11832201442E+04  0.10100000352E+00 0. -1.
</event>
<event>
 5   0  0.9641157E-05  0.2280766E+04  0.7818609E-02  0.8485543E-01
       -2   -1    0    0    0  501  0.00000000000E+00  0.00000000000E+00  0.10908812554E+04  0.10908812554E+04  0.25500000920E-02 0. -1.
        2   -1    0    0  501    0  0.00000000000E+00  0.00000000000E+00 -0.11921315423E+04  0.11921315423E+04  0.25500000920E-02 0.  1.
    10030    2    1    2    0    0  0.00000000000E+00  0.00000000000E+00 -0.10125028694E+03  0.22830127977E+04  0.22807664970E+04 0.  0.
        3    1    3    3  502    0 -0.53266565393E+02  0.41260245222E+02  0.10888871061E+04  0.10909696947E+04  0.10100000352E+00 0. -1.
       -3    1    3    3    0  502  0.53266565393E+02 -0.41260245222E+02 -0.11901373930E+04  0.11920431029E+04  0.10100000352E+00 0.  1.
</event>
<event>
 5   0  0.4295775E-05  0.2290204E+04  0.7818609E-02  0.8481794E-01
       -1   -1    0    0    0  501  0.00000000000E+00  0.00000000000E+00  0.59707348482E+03  0.59707348484E+03  0.50400001928E-02 0.  1.
        1   -1    0    0  501    0  0.00000000000E+00  0.00000000000E+00 -0.21961420169E+04  0.21961420169E+04  0.50400001928E-02 0. -1.
    10030    2    1    2    0    0  0.00000000000E+00  0.00000000000E+00 -0.15990685321E+04  0.27932155017E+04  0.22902036304E+04 0.  0.
        5    1    3    3  502    0  0.10899984381E+04  0.29100975021E+02 -0.37302304523E+03  0.11524373060E+04  0.46999998093E+01 0.  1.
       -5    1    3    3    0  502 -0.10899984381E+04 -0.29100975021E+02 -0.12260454868E+04  0.16407781958E+04  0.46999998093E+01 0. -1.
</event>
<event>
 5   0  0.9535394E-05  0.1529906E+04  0.7818609E-02  0.8864806E-01
        2   -1    0    0  501    0  0.00000000000E+00  0.00000000000E+00  0.77833175238E+03  0.77833175238E+03  0.25500000920E-02 0.  1.
       -2   -1    0    0    0  501  0.00000000000E+00  0.00000000000E+00 -0.75180458726E+03  0.75180458726E+03  0.25500000920E-02 0. -1.
    10030    2    1    2    0    0  0.00000000000E+00  0.00000000000E+00  0.26527165120E+02  0.15301363396E+04  0.15299063786E+04 0.  0.
        2    1    3    3  502    0  0.63159689429E+03  0.10388070002E+03  0.43219113276E+03  0.77233089538E+03  0.25500000920E-02 0.  1.
       -2    1    3    3    0  502 -0.63159689429E+03 -0.10388070002E+03 -0.40566396764E+03  0.75780544427E+03  0.25500000920E-02 0. -1.
</event>
<event>
 5   0  0.4139830E-05  0.2336651E+04  0.7818609E-02  0.8463609E-01
        1   -1    0    0  501    0  0.00000000000E+00  0.00000000000E+00  0.12147042249E+04  0.12147042249E+04  0.50400001928E-02 0. -1.
       -1   -1    0    0    0  501  0.00000000000E+00  0.00000000000E+00 -0.11237173483E+04  0.11237173483E+04  0.50400001928E-02 0.  1.
    10030    2    1    2    0    0  0.00000000000E+00  0.00000000000E+00  0.90986876566E+02  0.23384215732E+04  0.23366507745E+04 0.  0.
        1    1    3    3  502    0  0.32400924405E+03  0.91198571676E+03 -0.60943683079E+03  0.11437277598E+04  0.50400001928E-02 0.  1.
       -1    1    3    3    0  502 -0.32400924405E+03 -0.91198571676E+03  0.70042370736E+03  0.11946938134E+04  0.50400001928E-02 0. -1.
</event>
<event>
 5   0  0.3261500E-05  0.2746726E+04  0.7818609E-02  0.8320001E-01
        3   -1    0    0  501    0  0.00000000000E+00  0.00000000000E+00  0.21839678632E+04  0.21839678656E+04  0.10100000352E+00 0.  1.
       -3   -1    0    0    0  501  0.00000000000E+00  0.00000000000E+00 -0.86362323363E+03  0.86362323954E+03  0.10100000352E+00 0. -1.
    10030    2    1    2    0    0  0.00000000000E+00  0.00000000000E+00  0.13203446296E+04  0.30475911051E+04  0.27467256148E+04 0.  0.
        5    1    3    3  502    0  0.32627072883E+03 -0.10412970574E+04 -0.26504448871E+03  0.11229527244E+04  0.46999998093E+01 0. -1.
       -5    1    3    3    0  502 -0.32627072883E+03  0.10412970574E+04  0.15853891183E+04  0.19246383807E+04  0.46999998093E+01 0.  1.
</event>
<event>
 5   0  0.9641157E-05  0.2334141E+04  0.7818609E-02  0.8464580E-01
        2   -1    0    0  501    0  0.00000000000E+00  0.00000000000E+00  0.91404795836E+03  0.91404795837E+03  0.25500000920E-02 0. -1.
       -2   -1    0    0    0  501  0.00000000000E+00  0.00000000000E+00 -0.14901338594E+04  0.14901338594E+04  0.25500000920E-02 0.  1.
    10030    2    1    2    0    0  0.00000000000E+00  0.00000000000E+00 -0.57608590101E+03  0.24041818177E+04  0.23341412227E+04 0.  0.
        3    1    3    3  502    0 -0.32146048801E+03 -0.78284094357E+03 -0.11158232644E+04  0.14004422001E+04  0.10100000352E+00 0.  1.
       -3    1    3    3    0  502  0.32146048801E+03  0.78284094357E+03  0.53973736342E+03  0.10037396176E+04  0.10100000352E+00 0. -1.
</event>
<event>
 5   0  0.3885219E-05  0.2390986E+04  0.7818609E-02  0.8442886E-01
        1   -1    0    0  501    0  0.00000000000E+00  0.00000000000E+00  0.14524975379E+04  0.14524975379E+04  0.50400001928E-02 0.  1.
       -1   -1    0    0    0  501  0.00000000000E+00  0.00000000000E+00 -0.98396280444E+03  0.98396280445E+03  0.50400001928E-02 0. -1.
    10030    2    1    2    0    0  0.00000000000E+00  0.00000000000E+00  0.46853473345E+03  0.24364603423E+04  0.23909860316E+04 0.  0.
        2    1    3    3  502    0  0.94924561185E+03 -0.49449352163E+02 -0.50456789122E+03  0.10761511171E+04  0.25500000920E-02 0. -1.
       -2    1    3    3    0  502 -0.94924561185E+03  0.49449352163E+02  0.97310262467E+03  0.13603092252E+04  0.25500000920E-02 0.  1.
</event>
<event>
 5   0  0.4095451E-05  0.2293083E+04  0.7818609E-02  0.8480653E-01
       -1   -1    0    0    0  501  0.00000000000E+00  0.00000000000E+00  0.93643249096E+03  0.93643249097E+03  0.50400001928E-02 0.  1.
        1   -1    0    0  501    0  0.00000000000E+00  0.00000000000E+00 -0.14037928626E+04  0.14037928626E+04  0.50400001928E-02 0. -1.
    10030    2    1    2    0    0  0.00000000000E+00  0.00000000000E+00 -0.46736037165E+03  0.23402253536E+04  0.22930828569E+04 0.  0.
        3    1    3    3  502    0  0.13239226502E+03  0.40749875247E+03  0.85165604045E+03  0.95336297733E+03  0.10100000352E+00 0.  1.
       -3    1    3    3    0  502 -0.13239226502E+03 -0.40749875247E+03 -0.13190164121E+04  0.13868623763E+04  0.10100000352E+00 0. -1.
</event>
<event>
 5   0  0.4295775E-05  0.2136131E+04  0.7818609E-02  0.8545492E-01
        1   -1    0    0  501    0  0.00000000000E+00  0.00000000000E+00  0.10522075842E+04  0.10522075842E+04  0.50400001928E-02 0.  1.
       -1   -1    0    0    0  501  0.00000000000E+00  0.00000000000E+00 -0.10841626761E+04  0.10841626761E+04  0.50400001928E-02 0. -1.
    10030    2    1    2    0    0  0.00000000000E+00  0.00000000000E+00 -0.31955091895E+02  0.21363702604E+04  0.21361312604E+04 0.  0.
        5    1    3    3  502    0  0.42943287584E+03 -0.22256729808E+03 -0.96834104114E+03  0.10824302559E+04  0.46999998093E+01 0. -1.
       -5    1    3    3    0  502 -0.42943287584E+03  0.22256729808E+03  0.93638594924E+03  0.10539400044E+04  0.46999998093E+01 0.  1.
</event>
<event>
 5   0  0.3885219E-05  0.2227047E+04  0.7818609E-02  0.8507254E-01
        1   -1    0    0  501    0  0.00000000000E+00  0.00000000000E+00  0.13055497226E+04  0.13055497226E+04  0.50400001928E-02 0.  1.
       -1   -1    0    0    0  501  0.00000000000E+00  0.00000000000E+00 -0.94974133916E+03  0.94974133918E+03  0.50400001928E-02 0. -1.
    10030    2    1    2    0    0  0.00000000000E+00  0.00000000000E+00  0.35580838346E+03  0.22552910618E+04  0.22270469613E+04 0.  0.
        2    1    3    3  502    0 -0.23980103930E+03 -0.94484639369E+03  0.72296373154E+03  0.12136374266E+04  0.25500000920E-02 0.  1.
       -2    1    3    3    0  502  0.23980103930E+03  0.94484639369E+03 -0.36715534807E+03  0.10416536352E+04  0.25500000920E-02 0. -1.
</event>
<event>
 5   0  0.9312074E-05  0.2104685E+04  0.7818609E-02  0.8559182E-01
       -2   -1    0    0    0  501  0.00000000000E+00  0.00000000000E+00  0.46787910705E+03  0.46787910706E+03  0.25500000920E-02 0. -1.
        2   -1    0    0  501    0  0.00000000000E+00  0.00000000000E+00 -0.23669043192E+04  0.23669043192E+04  0.25500000920E-02 0.  1.
    10030    2    1    2    0    0  0.00000000000E+00  0.00000000000E+00 -0.18990252121E+04  0.28347834262E+04  0.21046853250E+04 0.  0.
        4    1    3    3  502    0  0.56261344259E+03  0.76919334976E+03 -0.34832314853E+03  0.10146540907E+04  0.12699999809E+01 0. -1.
       -4    1    3    3    0  502 -0.56261344259E+03 -0.76919334976E+03 -0.15507020636E+04  0.18201293355E+04  0.12699999809E+01 0.  1.
</event>
<event>
 5   0  0.4005462E-05  0.2290285E+04  0.7818609E-02  0.8481761E-01
       -1   -1    0    0    0  501  0.00000000000E+00  0.00000000000E+00  0.67296900635E+03  0.67296900637E+03  0.50400001928E-02 0.  1.
        1   -1    0    0  501    0  0.00000000000E+00  0.00000000000E+00 -0.19486062665E+04  0.19486062665E+04  0.50400001928E-02 0. -1.
    10030    2    1    2    0    0  0.00000000000E+00  0.00000000000E+00 -0.12756372601E+04  0.26215752728E+04  0.22902852425E+04 0.  0.
        4    1    3    3  502    0  0.40089137913E+03 -0.53967633188E+03  0.42330695409E+03  0.79445253561E+03  0.12699999809E+01 0.  1.
       -4    1    3    3    0  502 -0.40089137913E+03  0.53967633188E+03 -0.16989442142E+04  0.18271227372E+04  0.12699999809E+01 0. -1.
</event>
<event>
 5   0  0.4295775E-05  0.2258816E+04  0.7818609E-02  0.8494339E-01
       -1   -1    0    0    0  501  0.00000000000E+00  0.00000000000E+00  0.64597154811E+03  0.64597154813E+03  0.50400001928E-02 0.  1.
        1   -1    0    0  501    0  0.00000000000E+00  0.00000000000E+00 -0.19746425946E+04  0.19746425946E+04  0.50400001928E-02 0. -1.
    10030    2    1    2    0    0  0.00000000000E+00  0.00000000000E+00 -0.13286710465E+04  0.26206141428E+04  0.22588164457E+04 0.  0.
        5    1    3    3  502    0 -0.10050144880E+04  0.45501465113E+03 -0.94481973241E+03  0.14525146714E+04  0.46999998093E+01 0. -1.
       -5    1    3    3    0  502  0.10050144880E+04 -0.45501465113E+03 -0.38385131410E+03  0.11680994714E+04  0.46999998093E+01 0.  1.
</event>
<event>
 5   0  0.3885219E-05  0.1874354E+04  0.7818609E-02  0.8667728E-01
        1   -1    0    0  501    0  0.00000000000E+00  0.00000000000E+00  0.13544685098E+04  0.13544685098E+04  0.50400001928E-02 0. -1.
       -1   -1    0    0    0  501  0.00000000000E+00  0.00000000000E+00 -0.64844698539E+03  0.64844698541E+03  0.50400001928E-02 0.  1.
    10030    2    1    2    0    0  0.00000000000E+00  0.00000000000E+00  0.70602152445E+03  0.20029154953E+04  0.18743543123E+04 0.  0.
        2    1    3    3  502    0  0.17860499074E+03  0.17733121439E+02 -0.62990975501E+03  0.65498130185E+03  0.25500000920E-02 0.  1.
       -2    1    3    3    0  502 -0.17860499074E+03 -0.17733121439E+02  0.13359312795E+04  0.13479341934E+04  0.25500000920E-02 0. -1.
</event>
<event>
 5   0  0.9313463E-05  0.2268530E+04  0.7818609E-02  0.8490434E-01
        2   -1    0    0  501    0  0.00000000000E+00  0.00000000000E+00  0.17166133538E+04  0.17166133538E+04  0.25500000920E-02 0.  1.
       -2   -1    0    0    0  501  0.00000000000E+00  0.00000000000E+00 -0.74947396281E+03  0.74947396281E+03  0.25500000920E-02 0. -1.
    10030    2    1    2    0    0  0.00000000000E+00  0.00000000000E+00  0.96713939096E+03  0.24660873166E+04  0.22685299318E+04 0.  0.
        1    1    3    3  502    0 -0.53413811421E+03  0.97747832573E+03  0.71618988777E+03  0.13242716329E+04  0.50400001928E-02 0.  1.
       -1    1    3    3    0  502  0.53413811421E+03 -0.97747832573E+03  0.25094950319E+03  0.11418156837E+04  0.50400001928E-02 0. -1.
</event>
<event>
 5   0  0.9641157E-05  0.2351479E+04  0.7818609E-02  0.8457896E-01
       -2   -1    0    0    0  501  0.00000000000E+00  0.00000000000E+00  0.18308952510E+04  0.18308952510E+04  0.25500000920E-02 0. -1.
        2   -1    0    0  501    0  0.00000000000E+00  0.00000000000E+00 -0.75502021121E+03  0.75502021121E+03  0.25500000920E-02 0.  1.
    10030    2    1    2    0    0  0.00000000000E+00  0.00000000000E+00  0.10758750397E+04  0.25859154622E+04  0.23514786149E+04 0.  0.
        3    1    3    3  502    0 -0.51405732029E+03 -0.20486184970E+03  0.16787324870E+04  0.17675876440E+04  0.10100000352E+00 0. -1.
       -3    1    3    3    0  502  0.51405732029E+03  0.20486184970E+03 -0.60285744730E+03  0.81832781816E+03  0.10100000352E+00 0.  1.
</event>
<event>
 5   0  0.9641157E-05  0.2481534E+04  0.7818609E-02  0.8409594E-01
        2   -1    0    0  501    0  0.00000000000E+00  0.00000000000E+00  0.16040162701E+04  0.16040162701E+04  0.25500000920E-02 0.  1.
       -2   -1    0    0    0  501  0.00000000000E+00  0.00000000000E+00 -0.95977973689E+03  0.95977973690E+03  0.25500000920E-02 0. -1.
    10030    2    1    2    0    0  0.00000000000E+00  0.00000000000E+00  0.64423653323E+03  0.25637960070E+04  0.24815336498E+04 0.  0.
        3    1    3    3  502    0 -0.23221003717E+03 -0.54635692996E+03  0.14477656356E+04  0.15647532528E+04  0.10100000352E+00 0.  1.
       -3    1    3    3    0  502  0.23221003717E+03  0.54635692996E+03 -0.80352910236E+03  0.99904275425E+03  0.10100000352E+00 0. -1.
</event>
<event>
 5   0  0.4005462E-05  0.2282604E+04  0.7818609E-02  0.8484812E-01
        1   -1    0    0  501    0  0.00000000000E+00  0.00000000000E+00  0.82137458555E+03  0.82137458556E+03  0.50400001928E-02 0.  1.
       -1   -1    0    0    0  501  0.00000000000E+00  0.00000000000E+00 -0.15858417327E+04  0.15858417327E+04  0.50400001928E-02 0. -1.
    10030    2    1    2    0    0  0.00000000000E+00  0.00000000000E+00 -0.76446714713E+03  0.24072163183E+04  0.22826038605E+04 0.  0.
        4    1    3    3  502    0  0.77230181015E+02 -0.64949396427E+02 -0.15811271119E+04  0.15843444960E+04  0.12699999809E+01 0. -1.
       -4    1    3    3    0  502 -0.77230181015E+02  0.64949396427E+02  0.81665996478E+03  0.82287182230E+03  0.12699999809E+01 0.  1.
</event>
<event>
 5   0  0.9313463E-05  0.2850766E+04  0.7818609E-02  0.8287679E-01
        2   -1    0    0  501    0  0.00000000000E+00  0.00000000000E+00  0.17763579556E+04  0.17763579556E+04  0.25500000920E-02 0.  1.
       -2   -1    0    0    0  501  0.00000000000E+00  0.00000000000E+00 -0.11437538249E+04  0.11437538249E+04  0.25500000920E-02 0. -1.
    10030    2    1    2    0    0  0.00000000000E+00  0.00000000000E+00  0.63260413065E+03  0.29201117805E+04  0.28507656558E+04 0.  0.
        1    1    3    3  502    0  0.94313372733E+03 -0.86695042504E+03 -0.32389063064E+03  0.13213664926E+04  0.50400001928E-02 0. -1.
       -1    1    3    3    0  502 -0.94313372733E+03  0.86695042504E+03  0.95649476129E+03  0.15987452879E+04  0.50400001928E-02 0.  1.
</event>
<event>
 5   0  0.3885219E-05  0.2296153E+04  0.7818609E-02  0.8479440E-01
       -1   -1    0    0    0  501  0.00000000000E+00  0.00000000000E+00  0.68167855881E+03  0.68167855883E+03  0.50400001928E-02 0. -1.
        1   -1    0    0  501    0  0.00000000000E+00  0.00000000000E+00 -0.19335786099E+04  0.19335786099E+04  0.50400001928E-02 0.  1.
    10030    2    1    2    0    0  0.00000000000E+00  0.00000000000E+00 -0.12519000511E+04  0.26152571687E+04  0.22961525038E+04 0.  0.
        2    1    3    3  502    0  0.29045913557E+02  0.29467101219E+03 -0.18893405387E+04  0.19124022437E+04  0.25500000920E-02 0.  1.
       -2    1    3    3    0  502 -0.29045913557E+02 -0.29467101219E+03  0.63744048756E+03  0.70285492508E+03  0.25500000920E-02 0. -1.
</event>
<event>
 5   0  0.4139830E-05  0.2312759E+04  0.7818609E-02  0.8472907E-01
        1   -1    0    0  501    0  0.00000000000E+00  0.00000000000E+00  0.93375160804E+03  0.93375160806E+03  0.50400001928E-02 0. -1.
       -1   -1    0    0    0  501  0.00000000000E+00  0.00000000000E+00 -0.14320866045E+04  0.14320866045E+04  0.50400001928E-02 0.  1.
    10030    2    1    2    0    0  0.00000000000E+00  0.00000000000E+00 -0.49833499642E+03  0.23658382125E+04  0.23127586729E+04 0.  0.
        1    1    3    3  502    0 -0.26198595634E+03  0.11122993176E+04 -0.43033885230E+03  0.12210806448E+04  0.50400001928E-02 0.  1.
       -1    1    3    3    0  502  0.26198595634E+03 -0.11122993176E+04 -0.67996144118E+02  0.11447575677E+04  0.50400001928E-02 0. -1.
</event>
<event>
 5   0  0.4295775E-05  0.2273630E+04  0.7818609E-02  0.8488392E-01
        1   -1    0    0  501    0  0.00000000000E+00  0.00000000000E+00  0.12618570830E+04  0.12618570830E+04  0.50400001928E-02 0. -1.
       -1   -1    0    0    0  501  0.00000000000E+00  0.00000000000E+00 -0.10241635781E+04  0.10241635781E+04  0.50400001928E-02 0.  1.
    10030    2    1    2    0    0  0.00000000000E+00  0.00000000000E+00  0.23769350488E+03  0.22860206611E+04  0.22736297545E+04 0.  0.
        5    1    3    3  502    0 -0.73428896674E+03  0.11502203011E+03  0.98371809138E+03  0.12329370330E+04  0.46999998093E+01 0. -1.
       -5    1    3    3    0  502  0.73428896674E+03 -0.11502203011E+03 -0.74602458650E+03  0.10530836281E+04  0.46999998093E+01 0.  1.
</event>
<event>
 5   0  0.9535394E-05  0.2297904E+04  0.7818609E-02  0.8478748E-01
       -2   -1    0    0    0  501  0.00000000000E+00  0.00000000000E+00  0.70222846978E+03  0.70222846978E+03  0.25500000920E-02 0. -1.
        2   -1    0    0  501    0  0.00000000000E+00  0.00000000000E+00 -0.18798587850E+04  0.18798587850E+04  0.25500000920E-02 0.  1.
    10030    2    1    2    0    0  0.00000000000E+00  0.00000000000E+00 -0.11776303152E+04  0.25820872547E+04  0.22979037038E+04 0.  0.
        2    1    3    3  502    0  0.46444851097E+02  0.18639948109E+03  0.68405560999E+03  0.71051669109E+03  0.25500000920E-02 0. -1.
       -2    1    3    3    0  502 -0.46444851097E+02 -0.18639948109E+03 -0.18616859252E+04  0.18715705636E+04  0.25500000920E-02 0.  1.
</event>
<event>
 5   0  0.9313463E-05  0.2293105E+04  0.7818609E-02  0.8480645E-01
       -2   -1    0    0    0  501  0.00000000000E+00  0.00000000000E+00  0.66016707140E+03  0.66016707141E+03  0.25500000920E-02 0.  1.
        2   -1    0    0  501    0  0.00000000000E+00  0.00000000000E+00 -0.19912878311E+04  0.19912878312E+04  0.25500000920E-02 0. -1.
    10030    2    1    2    0    0  0.00000000000E+00  0.00000000000E+00 -0.13311207597E+04  0.26514549026E+04  0.22931050179E+04 0.  0.
        1    1    3    3  502    0 -0.55831530134E+03 -0.60121663431E+03 -0.15915935676E+04  0.17906276837E+04  0.50400001928E-02 0. -1.
       -1    1    3    3    0  502  0.55831530134E+03  0.60121663431E+03  0.26047280787E+03  0.86082721887E+03  0.50400001928E-02 0.  1.
</event>
<event>
 5   0  0.9483073E-05  0.2306638E+04  0.7818609E-02  0.8475309E-01
        2   -1    0    0  501    0  0.00000000000E+00  0.00000000000E+00  0.11996222180E+04  0.11996222180E+04  0.25500000920E-02 0.  1.
       -2   -1    0    0    0  501  0.00000000000E+00  0.00000000000E+00 -0.11088026360E+04  0.11088026360E+04  0.25500000920E-02 0. -1.
    10030    2    1    2    0    0  0.00000000000E+00  0.00000000000E+00  0.90819582044E+02  0.23084248540E+04  0.23066376200E+04 0.  0.
        5    1    3    3  502    0  0.38811038508E+03  0.10458201257E+04 -0.24765286264E+03  0.11426825617E+04  0.46999998093E+01 0. -1.
       -5    1    3    3    0  502 -0.38811038508E+03 -0.10458201257E+04  0.33847244468E+03  0.11657422924E+04  0.46999998093E+01 0.  1.
</event>
<event>
 5   0  0.3261500E-05  0.2354422E+04  0.7818609E-02  0.8456767E-01
        3   -1    0    0  501    0  0.00000000000E+00  0.00000000000E+00  0.96295413169E+03  0.96295413699E+03  0.10100000352E+00 0. -1.
       -3   -1    0    0    0  501  0.00000000000E+00  0.00000000000E+00 -0.14391398761E+04  0.14391398797E+04  0.10100000352E+00 0.  1.
    10030    2    1    2    0    0  0.00000000000E+00  0.00000000000E+00 -0.47618574446E+03  0.24020940167E+04  0.23544219676E+04 0.  0.
        1    1    3    3  502    0 -0.73984832039E+03 -0.65539723122E+02 -0.11699063823E+04  0.13857676341E+04  0.50400001928E-02 0.  1.
       -1    1    3    3    0  502  0.73984832039E+03  0.65539723122E+02  0.69372063782E+03  0.10163263825E+04  0.50400001928E-02 0. -1.
</event>
<event>
 5   0  0.3885219E-05  0.2286454E+04  0.7818609E-02  0.8483281E-01
       -1   -1    0    0    0  501  0.00000000000E+00  0.00000000000E+00  0.11579198030E+04  0.11579198030E+04  0.50400001928E-02 0. -1.
        1   -1    0    0  501    0  0.00000000000E+00  0.00000000000E+00 -0.11287203754E+04  0.11287203754E+04  0.50400001928E-02 0.  1.
    10030    2    1    2    0    0  0.00000000000E+00  0.00000000000E+00  0.29199427517E+02  0.22866401784E+04  0.22864537386E+04 0.  0.
        2    1    3    3  502    0 -0.13986236163E+03  0.65210244695E+03 -0.91400634005E+03  0.11314621828E+04  0.25500000920E-02 0.  1.
       -2    1    3    3    0  502  0.13986236163E+03 -0.65210244695E+03  0.94320576756E+03  0.11551779956E+04  0.25500000920E-02 0. -1.
</event>
<event>
 5   0  0.9312074E-05  0.2325223E+04  0.7818609E-02  0.8468042E-01
       -2   -1    0    0    0  501  0.00000000000E+00  0.00000000000E+00  0.67605281030E+03  0.67605281031E+03  0.25500000920E-02 0. -1.
        2   -1    0    0  501    0  0.00000000000E+00  0.00000000000E+00 -0.19993494987E+04  0.19993494987E+04  0.25500000920E-02 0.  1.
    10030    2    1    2    0    0  0.00000000000E+00  0.00000000000E+00 -0.13232966884E+04  0.26754023091E+04  0.23252232989E+04 0.  0.
        4    1    3    3  502    0  0.23822270190E+03 -0.69798580241E+03 -0.16957364381E+04  0.18491776325E+04  0.12699999809E+01 0.  1.
       -4    1    3    3    0  502 -0.23822270190E+03  0.69798580241E+03  0.37243974970E+03  0.82622467654E+03  0.12699999809E+01 0. -1.
</event>
<event>
 5   0  0.9313463E-05  0.2308285E+04  0.7818609E-02  0.8474662E-01
       -2   -1    0    0    0  501  0.00000000000E+00  0.00000000000E+00  0.15536161198E+04  0.15536161198E+04  0.25500000920E-02 0. -1.
        2   -1    0    0  501    0  0.00000000000E+00  0.00000000000E+00 -0.85738353532E+03  0.85738353533E+03  0.25500000920E-02 0.  1.
    10030    2    1    2    0    0  0.00000000000E+00  0.00000000000E+00  0.69623258451E+03  0.24109996552E+04  0.23082849749E+04 0.  0.
        1    1    3    3  502    0 -0.24721196522E+03  0.64312219900E+03 -0.61900391630E+03  0.92622123006E+03  0.50400001928E-02 0.  1.
       -1    1    3    3    0  502  0.24721196522E+03 -0.64312219900E+03  0.13152365008E+04  0.14847784251E+04  0.50400001928E-02 0. -1.
</event>
<event>
 5   0  0.4139830E-05  0.2315542E+04  0.7818609E-02  0.8471818E-01
       -1   -1    0    0    0  501  0.00000000000E+00  0.00000000000E+00  0.20281987585E+04  0.20281987586E+04  0.50400001928E-02 0.  1.
        1   -1    0    0  501    0  0.00000000000E+00  0.00000000000E+00 -0.66089836460E+03  0.66089836462E+03  0.50400001928E-02 0. -1.
    10030    2    1    2    0    0  0.00000000000E+00  0.00000000000E+00  0.13673003939E+04  0.26890971232E+04  0.23155416150E+04 0.  0.
        1    1    3    3  502    0 -0.11206937522E+02 -0.18556127919E+03 -0.64345284503E+03  0.66976872694E+03  0.50400001928E-02 0. -1.
       -1    1    3    3    0  502  0.11206937522E+02  0.18556127919E+03  0.20107532390E+04  0.20193283962E+04  0.50400001928E-02 0.  1.
</event>
<event>
 5   0  0.4295775E-05  0.2349733E+04  0.7818609E-02  0.8458566E-01
        1   -1    0    0  501    0  0.00000000000E+00  0.00000000000E+00  0.21298820671E+04  0.21298820671E+04  0.50400001928E-02 0. -1.
       -1   -1    0    0    0  501  0.00000000000E+00  0.00000000000E+00 -0.64806926427E+03  0.64806926429E+03  0.50400001928E-02 0.  1.
    10030    2    1    2    0    0  0.00000000000E+00  0.00000000000E+00  0.14818128028E+04  0.27779513314E+04  0.23497328395E+04 0.  0.
        5    1    3    3  502    0 -0.11824104968E+03  0.49928012344E+03 -0.50859878912E+03  0.72246550491E+03  0.46999998093E+01 0.  1.
       -5    1    3    3    0  502  0.11824104968E+03 -0.49928012344E+03  0.19904115919E+04  0.20554858265E+04  0.46999998093E+01 0. -1.
</event>
<event>
 5   0  0.9483073E-05  0.2241645E+04  0.7818609E-02  0.8501292E-01
        2   -1    0    0  501    0  0.00000000000E+00  0.00000000000E+00  0.12144612195E+04  0.12144612195E+04  0.25500000920E-02 0.  1.
       -2   -1    0    0    0  501  0.00000000000E+00  0.00000000000E+00 -0.10344037602E+04  0.10344037602E+04  0.25500000920E-02 0. -1.
    10030    2    1    2    0    0  0.00000000000E+00  0.00000000000E+00  0.18005745930E+03  0.22488649798E+04  0.22416451567E+04 0.  0.
        5    1    3    3  502    0  0.21560405552E+03 -0.21870897234E+03 -0.99135877363E+03  0.10378501970E+04  0.46999998093E+01 0. -1.
       -5    1    3    3    0  502 -0.21560405552E+03  0.21870897234E+03  0.11714162329E+04  0.12110147828E+04  0.46999998093E+01 0.  1.
</event>
<event>
 5   0  0.9483073E-05  0.2369098E+04  0.7818609E-02  0.8451164E-01
       -2   -1    0    0    0  501  0.00000000000E+00  0.00000000000E+00  0.13890783541E+04  0.13890783541E+04  0.25500000920E-02 0. -1.
        2   -1    0    0  501    0  0.00000000000E+00  0.00000000000E+00 -0.10101350949E+04  0.10101350949E+04  0.25500000920E-02 0.  1.
    10030    2    1    2    0    0  0.00000000000E+00  0.00000000000E+00  0.37894325923E+03  0.23992134490E+04  0.23690983898E+04 0.  0.
        5    1    3    3  502    0 -0.22864306720E+03 -0.11391794956E+04  0.42289480142E+03  0.12364746979E+04  0.46999998093E+01 0. -1.
       -5    1    3    3    0  502  0.22864306720E+03  0.11391794956E+04 -0.43951542185E+02  0.11627387512E+04  0.46999998093E+01 0.  1.
</event>
<event>
 5   0  0.9483073E-05  0.2315355E+04  0.7818609E-02  0.8471891E-01
       -2   -1    0    0    0  501  0.00000000000E+00  0.00000000000E+00  0.78394017953E+03  0.78394017953E+03  0.25500000920E-02 0. -1.
        2   -1    0    0  501    0  0.00000000000E+00  0.00000000000E+00 -0.17095907224E+04  0.17095907224E+04  0.25500000920E-02 0.  1.
    10030    2    1    2    0    0  0.00000000000E+00  0.00000000000E+00 -0.92565054291E+03  0.24935309020E+04  0.23153547096E+04 0.  0.
        5    1    3    3  502    0  0.52595280977E+03  0.87573051660E+03 -0.10494089712E+04  0.14645175228E+04  0.46999998093E+01 0.  1.
       -5    1    3    3    0  502 -0.52595280977E+03 -0.87573051660E+03  0.12375842833E+03  0.10290133791E+04  0.46999998093E+01 0. -1.
</event>
<event>
 5   0  0.9312074E-05  0.2308329E+04  0.7818609E-02  0.8474645E-01
        2   -1    0    0  501    0  0.00000000000E+00  0.00000000000E+00  0.18821349640E+04  0.18821349640E+04  0.25500000920E-02 0.  1.
       -2   -1    0    0    0  501  0.00000000000E+00  0.00000000000E+00 -0.70775752093E+03  0.70775752094E+03  0.25500000920E-02 0. -1.
    10030    2    1    2    0    0  0.00000000000E+00  0.00000000000E+00  0.11743774431E+04  0.25898924849E+04  0.23083285522E+04 0.  0.
        4    1    3    3  502    0  0.23439018200E+02 -0.45029129076E+03  0.17792240753E+04  0.18354703912E+04  0.12699999809E+01 0.  1.
       -4    1    3    3    0  502 -0.23439018200E+02  0.45029129076E+03 -0.60484663220E+03  0.75442209372E+03  0.12699999809E+01 0. -1.
</event>
<event>
 5   0  0.9312074E-05  0.2174718E+04  0.7818609E-02  0.8529025E-01
       -2   -1    0    0    0  501  0.00000000000E+00  0.00000000000E+00  0.13676434140E+04  0.13676434140E+04  0.25500000920E-02 0. -1.
        2   -1    0    0  501    0  0.00000000000E+00  0.00000000000E+00 -0.86451617782E+03  0.86451617782E+03  0.25500000920E-02 0.  1.
    10030    2    1    2    0    0  0.00000000000E+00  0.00000000000E+00  0.50312723616E+03  0.22321595918E+04  0.21747182409E+04 0.  0.
        4    1    3    3  502    0  0.13906989874E+03 -0.10397232945E+04  0.54545366931E+03  0.11823224112E+04  0.12699999809E+01 0.  1.
       -4    1    3    3    0  502 -0.13906989874E+03  0.10397232945E+04 -0.42326433146E+02  0.10498371806E+04  0.12699999809E+01 0. -1.
</event>
<event>
 5   0  0.4295775E-05  0.2151266E+04  0.7818609E-02  0.8538990E-01
        1   -1    0    0  501    0  0.00000000000E+00  0.00000000000E+00  0.22359963229E+04  0.22359963229E+04  0.50400001928E-02 0.  1.
       -1   -1    0    0    0  501  0.00000000000E+00  0.00000000000E+00 -0.51743666817E+03  0.51743666819E+03  0.50400001928E-02 0. -1.
    10030    2    1    2    0    0  0.00000000000E+00  0.00000000000E+00  0.17185596547E+04  0.27534329911E+04  0.21512661271E+04 0.  0.
        5    1    3    3  502    0 -0.27918322555E+03  0.76243620171E+03  0.17622418803E+04  0.19403017213E+04  0.46999998093E+01 0.  1.
       -5    1    3    3    0  502  0.27918322555E+03 -0.76243620171E+03 -0.43682225521E+02  0.81313126981E+03  0.46999998093E+01 0. -1.
</event>
<event>
 5   0  0.9641157E-05  0.2306893E+04  0.7818609E-02  0.8475208E-01
       -2   -1    0    0    0  501  0.00000000000E+00  0.00000000000E+00  0.68621009435E+03  0.68621009435E+03  0.25500000920E-02 0.  1.
        2   -1    0    0  501    0  0.00000000000E+00  0.00000000000E+00 -0.19388207766E+04  0.19388207766E+04  0.25500000920E-02 0. -1.
    10030    2    1    2    0    0  0.00000000000E+00  0.00000000000E+00 -0.12526106822E+04  0.26250308709E+04  0.23068926182E+04 0.  0.
        3    1    3    3  502    0 -0.71108285624E+03  0.46183668913E+03 -0.15161363725E+04  0.17371244820E+04  0.10100000352E+00 0. -1.
       -3    1    3    3    0  502  0.71108285624E+03 -0.46183668913E+03  0.26352569025E+03  0.88790638892E+03  0.10100000352E+00 0.  1.
</event>
<event>
 5   0  0.9535394E-05  0.2337220E+04  0.7818609E-02  0.8463389E-01
       -2   -1    0    0    0  501  0.00000000000E+00  0.00000000000E+00  0.11182700754E+04  0.11182700754E+04  0.25500000920E-02 0.  1.
        2   -1    0    0  501    0  0.00000000000E+00  0.00000000000E+00 -0.12212158244E+04  0.12212158244E+04  0.25500000920E-02 0. -1.
    10030    2    1    2    0    0  0.00000000000E+00  0.00000000000E+00 -0.10294574891E+03  0.23394858998E+04  0.23372198117E+04 0.  0.
        2    1    3    3  502    0  0.21682009063E+03  0.48919774707E+03  0.98843947267E+03  0.11239830864E+04  0.25500000920E-02 0.  1.
       -2    1    3    3    0  502 -0.21682009063E+03 -0.48919774707E+03 -0.10913852216E+04  0.12155028134E+04  0.25500000920E-02 0. -1.
</event>
<event>
 5   0  0.4095451E-05  0.2258215E+04  0.7818609E-02  0.8494581E-01
        1   -1    0    0  501    0  0.00000000000E+00  0.00000000000E+00  0.17076903458E+04  0.17076903458E+04  0.50400001928E-02 0. -1.
       -1   -1    0    0    0  501  0.00000000000E+00  0.00000000000E+00 -0.74655469826E+03  0.74655469827E+03  0.50400001928E-02 0.  1.
    10030    2    1    2    0    0  0.00000000000E+00  0.00000000000E+00  0.96113564758E+03  0.24542450441E+04  0.22582154467E+04 0.  0.
        3    1    3    3  502    0  0.36317435970E+02  0.83223107232E+03 -0.34780232702E+03  0.90271478484E+03  0.10100000352E+00 0.  1.
       -3    1    3    3    0  502 -0.36317435970E+02 -0.83223107232E+03  0.13089379746E+04  0.15515302593E+04  0.10100000352E+00 0. -1.
</event>
<event>
 5   0  0.9483073E-05  0.2345136E+04  0.7818609E-02  0.8460334E-01
        2   -1    0    0  501    0  0.00000000000E+00  0.00000000000E+00  0.10674812427E+04  0.10674812427E+04  0.25500000920E-02 0.  1.
       -2   -1    0    0    0  501  0.00000000000E+00  0.00000000000E+00 -0.12879998710E+04  0.12879998710E+04  0.25500000920E-02 0. -1.
    10030    2    1    2    0    0  0.00000000000E+00  0.00000000000E+00 -0.22051862828E+03  0.23554811137E+04  0.23451359900E+04 0.  0.
        5    1    3    3  502    0 -0.38355166063E+03  0.33644570626E+03 -0.11706560717E+04  0.12770142199E+04  0.46999998093E+01 0. -1.
       -5    1    3    3    0  502  0.38355166063E+03 -0.33644570626E+03  0.95013744341E+03  0.10784668938E+04  0.46999998093E+01 0.  1.
</event>
<event>
 5   0  0.9535394E-05  0.2345077E+04  0.7818609E-02  0.8460357E-01
       -2   -1    0    0    0  501  0.00000000000E+00  0.00000000000E+00  0.13110241345E+04  0.13110241345E+04  0.25500000920E-02 0. -1.
        2   -1    0    0  501    0  0.00000000000E+00  0.00000000000E+00 -0.10486816836E+04  0.10486816836E+04  0.25500000920E-02 0.  1.
    10030    2    1    2    0    0  0.00000000000E+00  0.00000000000E+00  0.26234245085E+03  0.23597058181E+04  0.23450773945E+04 0.  0.
        2    1    3    3  502    0  0.51768846368E+03  0.64281419697E+03 -0.70687188028E+03  0.10866827009E+04  0.25500000920E-02 0.  1.
       -2    1    3    3    0  502 -0.51768846368E+03 -0.64281419697E+03  0.96921433114E+03  0.12730231172E+04  0.25500000920E-02 0. -1.
</event>
<event>
 5   0  0.4139830E-05  0.2132481E+04  0.7818609E-02  0.8547069E-01
        1   -1    0    0  501    0  0.00000000000E+00  0.00000000000E+00  0.96416847960E+03  0.96416847961E+03  0.50400001928E-02 0. -1.
       -1   -1    0    0    0  501  0.00000000000E+00  0.00000000000E+00 -0.11791185339E+04  0.11791185339E+04  0.50400001928E-02 0.  1.
    10030    2    1    2    0    0  0.00000000000E+00  0.00000000000E+00 -0.21495005428E+03  0.21432870135E+04  0.21324811128E+04 0.  0.
        1    1    3    3  502    0  0.85546173763E+03 -0.43858919081E+03 -0.57099922682E+03  0.11181303054E+04  0.50400001928E-02 0.  1.
       -1    1    3    3    0  502 -0.85546173763E+03  0.43858919081E+03  0.35604917254E+03  0.10251567081E+04  0.50400001928E-02 0. -1.
</event>
<event>
 5   0  0.9483073E-05  0.2334624E+04  0.7818609E-02  0.8464393E-01
        2   -1    0    0  501    0  0.00000000000E+00  0.00000000000E+00  0.19398431499E+04  0.19398431499E+04  0.25500000920E-02 0. -1.
       -2   -1    0    0    0  501  0.00000000000E+00  0.00000000000E+00 -0.70243706081E+03  0.70243706081E+03  0.25500000920E-02 0.  1.
    10030    2    1    2    0    0  0.00000000000E+00  0.00000000000E+00  0.12374060891E+04  0.26422802107E+04  0.23346243558E+04 0.  0.
        5    1    3    3  502    0  0.96474172400E+03 -0.69009048312E+02 -0.12095348757E+03  0.97475159858E+03  0.46999998093E+01 0.  1.
       -5    1    3    3    0  502 -0.96474172400E+03  0.69009048312E+02  0.13583595766E+04  0.16675286121E+04  0.46999998093E+01 0. -1.
</event>
<event>
 5   0  0.3261500E-05  0.2296082E+04  0.7818609E-02  0.8479468E-01
       -4   -1    0    0    0  501  0.00000000000E+00  0.00000000000E+00  0.11530625465E+04  0.11530632459E+04  0.12699999809E+01 0. -1.
        4   -1    0    0  501    0  0.00000000000E+00  0.00000000000E+00 -0.11430397404E+04  0.11430404459E+04  0.12699999809E+01 0.  1.
    10030    2    1    2    0    0  0.00000000000E+00  0.00000000000E+00  0.10022806133E+02  0.22961036918E+04  0.22960818162E+04 0.  0.
        1    1    3    3  502    0  0.80583877673E+03  0.63803881442E+03 -0.50639181091E+03  0.11458195010E+04  0.50400001928E-02 0.  1.
       -1    1    3    3    0  502 -0.80583877673E+03 -0.63803881442E+03  0.51641461705E+03  0.11502841908E+04  0.50400001928E-02 0. -1.
</event>
<event>
 5   0  0.9641157E-05  0.2320189E+04  0.7818609E-02  0.8470003E-01
       -2   -1    0    0    0  501  0.00000000000E+00  0.00000000000E+00  0.12176913919E+04  0.12176913919E+04  0.25500000920E-02 0. -1.
        2   -1    0    0  501    0  0.00000000000E+00  0.00000000000E+00 -0.11052223256E+04  0.11052223257E+04  0.25500000920E-02 0.  1.
    10030    2    1    2    0    0  0.00000000000E+00  0.00000000000E+00  0.11246906628E+03  0.23229137176E+04  0.23201893993E+04 0.  0.
        3    1    3    3  502    0  0.99439469403E+03 -0.59725714166E+03  0.39398094927E+02  0.11606416850E+04  0.10100000352E+00 0. -1.
       -3    1    3    3    0  502 -0.99439469403E+03  0.59725714166E+03  0.73070971355E+02  0.11622720326E+04  0.10100000352E+00 0.  1.
</event>
<event>
 5   0  0.3885219E-05  0.2258222E+04  0.7818609E-02  0.8494578E-01
       -1   -1    0    0    0  501  0.00000000000E+00  0.00000000000E+00  0.12681836130E+04  0.12681836130E+04  0.50400001928E-02 0.  1.
        1   -1    0    0  501    0  0.00000000000E+00  0.00000000000E+00 -0.10052894233E+04  0.10052894233E+04  0.50400001928E-02 0. -1.
    10030    2    1    2    0    0  0.00000000000E+00  0.00000000000E+00  0.26289418967E+03  0.22734730364E+04  0.22582219315E+04 0.  0.
        2    1    3    3  502    0 -0.83414169341E+03 -0.49885681393E+02 -0.63303005349E+03  0.10483358214E+04  0.25500000920E-02 0. -1.
       -2    1    3    3    0  502  0.83414169341E+03  0.49885681393E+02  0.89592424316E+03  0.12251372149E+04  0.25500000920E-02 0.  1.
</event>
<event>
 5   0  0.4295775E-05  0.2404024E+04  0.7818609E-02  0.8437999E-01
       -1   -1    0    0    0  501  0.00000000000E+00  0.00000000000E+00  0.66718828897E+03  0.66718828899E+03  0.50400001928E-02 0.  1.
        1   -1    0    0  501    0  0.00000000000E+00  0.00000000000E+00 -0.21655540372E+04  0.21655540372E+04  0.50400001928E-02 0. -1.
    10030    2    1    2    0    0  0.00000000000E+00  0.00000000000E+00 -0.14983657483E+04  0.28327423262E+04  0.24040235380E+04 0.  0.
        5    1    3    3  502    0  0.10268360485E+04  0.47159700946E+03 -0.26618931284E+03  0.11608939875E+04  0.46999998093E+01 0.  1.
       -5    1    3    3    0  502 -0.10268360485E+04 -0.47159700946E+03 -0.12321764354E+04  0.16718483388E+04  0.46999998093E+01 0. -1.
</event>
<event>
 5   0  0.9535394E-05  0.2308861E+04  0.7818609E-02  0.8474436E-01
       -2   -1    0    0    0  501  0.00000000000E+00  0.00000000000E+00  0.14151101957E+04  0.14151101957E+04  0.25500000920E-02 0.  1.
        2   -1    0    0  501    0  0.00000000000E+00  0.00000000000E+00 -0.94177097412E+03  0.94177097412E+03  0.25500000920E-02 0. -1.
    10030    2    1    2    0    0  0.00000000000E+00  0.00000000000E+00  0.47333922159E+03  0.23568811698E+04  0.23088609378E+04 0.  0.
        2    1    3    3  502    0 -0.31336441560E+03 -0.37609489439E+03  0.13039116419E+04  0.13927778704E+04  0.25500000920E-02 0.  1.
       -2    1    3    3    0  502  0.31336441560E+03  0.37609489439E+03 -0.83057242029E+03  0.96410329939E+03  0.25500000920E-02 0. -1.
</event>
<event>
 5   0  0.9313463E-05  0.2295713E+04  0.7818609E-02  0.8479613E-01
       -2   -1    0    0    0  501  0.00000000000E+00  0.00000000000E+00  0.77116259516E+03  0.77116259517E+03  0.25500000920E-02 0.  1.
        2   -1    0    0  501    0  0.00000000000E+00  0.00000000000E+00 -0.17085554578E+04  0.17085554578E+04  0.25500000920E-02 0. -1.
    10030    2    1    2    0    0  0.00000000000E+00  0.00000000000E+00 -0.93739286269E+03  0.24797180530E+04  0.22957125786E+04 0.  0.
        1    1    3    3  502    0 -0.69987406927E+03  0.17249590666E+00 -0.14514270065E+04  0.16113547399E+04  0.50400001928E-02 0. -1.
       -1    1    3    3    0  502  0.69987406927E+03 -0.17249590666E+00  0.51403414379E+03  0.86836331313E+03  0.50400001928E-02 0.  1.
</event>
<event>
 5   0  0.3885219E-05  0.2286945E+04  0.7818609E-02  0.8483087E-01
        1   -1    0    0  501    0  0.00000000000E+00  0.00000000000E+00  0.10847345400E+04  0.10847345400E+04  0.50400001928E-02 0. -1.
       -1   -1    0    0    0  501  0.00000000000E+00  0.00000000000E+00 -0.12053906127E+04  0.12053906127E+04  0.50400001928E-02 0.  1.
    10030    2    1    2    0    0  0.00000000000E+00  0.00000000000E+00 -0.12065607277E+03  0.22901251527E+04  0.22869445396E+04 0.  0.
        2    1    3    3  502    0 -0.80129548095E+03  0.75942009675E+02 -0.87366893481E+03  0.11879137360E+04  0.25500000920E-02 0.  1.
       -2    1    3    3    0  502  0.80129548095E+03 -0.75942009675E+02  0.75301286204E+03  0.11022114167E+04  0.25500000920E-02 0. -1.
</event>
<event>
 5   0  0.4095451E-05  0.2230788E+04  0.7818609E-02  0.8505722E-01
        1   -1    0    0  501    0  0.00000000000E+00  0.00000000000E+00  0.16068909911E+04  0.16068909911E+04  0.50400001928E-02 0. -1.
       -1   -1    0    0    0  501  0.00000000000E+00  0.00000000000E+00 -0.77423017724E+03  0.77423017725E+03  0.50400001928E-02 0.  1.
    10030    2    1    2    0    0  0.00000000000E+00  0.00000000000E+00  0.83266081386E+03  0.23811211684E+04  0.22307877504E+04 0.  0.
        3    1    3    3  502    0 -0.10717785392E+04  0.27387775052E+03  0.26393179032E+03  0.11372678926E+04  0.10100000352E+00 0.  1.
       -3    1    3    3    0  502  0.10717785392E+04 -0.27387775052E+03  0.56872902355E+03  0.12438532758E+04  0.10100000352E+00 0. -1.
</event>
<event>
 5   0  0.9535394E-05  0.1860641E+04  0.7818609E-02  0.8674700E-01
        2   -1    0    0  501    0  0.00000000000E+00  0.00000000000E+00  0.21178121773E+04  0.21178121773E+04  0.25500000920E-02 0.  1.
       -2   -1    0    0    0  501  0.00000000000E+00  0.00000000000E+00 -0.40867472970E+03  0.40867472970E+03  0.25500000920E-02 0. -1.
    10030    2    1    2    0    0  0.00000000000E+00  0.00000000000E+00  0.17091374476E+04  0.25264869070E+04  0.18606410929E+04 0.  0.
        2    1    3    3  502    0 -0.42772739542E+03  0.74223044178E+03  0.36190831381E+03  0.92996472036E+03  0.25500000920E-02 0. -1.
       -2    1    3    3    0  502  0.42772739542E+03 -0.74223044178E+03  0.13472291338E+04  0.15965221866E+04  0.25500000920E-02 0.  1.
</event>
<event>
 5   0  0.4139830E-05  0.2349319E+04  0.7818609E-02  0.8458725E-01
       -1   -1    0    0    0  501  0.00000000000E+00  0.00000000000E+00  0.77948536295E+03  0.77948536296E+03  0.50400001928E-02 0. -1.
        1   -1    0    0  501    0  0.00000000000E+00  0.00000000000E+00 -0.17701744216E+04  0.17701744216E+04  0.50400001928E-02 0.  1.
    10030    2    1    2    0    0  0.00000000000E+00  0.00000000000E+00 -0.99068905861E+03  0.25496597845E+04  0.23493190941E+04 0.  0.
        1    1    3    3  502    0 -0.86151618647E+03  0.40670997910E+03  0.25042406906E+03  0.98505601924E+03  0.50400001928E-02 0. -1.
       -1    1    3    3    0  502  0.86151618647E+03 -0.40670997910E+03 -0.12411131277E+04  0.15646037653E+04  0.50400001928E-02 0.  1.
</event>
<event>
 5   0  0.4139830E-05  0.2267895E+04  0.7818609E-02  0.8490688E-01
        1   -1    0    0  501    0  0.00000000000E+00  0.00000000000E+00  0.17272464016E+04  0.17272464016E+04  0.50400001928E-02 0.  1.
       -1   -1    0    0    0  501  0.00000000000E+00  0.00000000000E+00 -0.74444324670E+03  0.74444324671E+03  0.50400001928E-02 0. -1.
    10030    2    1    2    0    0  0.00000000000E+00  0.00000000000E+00  0.98280315488E+03  0.24716896483E+04  0.22678949879E+04 0.  0.
        1    1    3    3  502    0 -0.10820155868E+04  0.18112469662E+03  0.17879381903E+03  0.11115444730E+04  0.50400001928E-02 0. -1.
       -1    1    3    3    0  502  0.10820155868E+04 -0.18112469662E+03  0.80400933585E+03  0.13601451753E+04  0.50400001928E-02 0.  1.
</event>
<event>
 5   0  0.3885219E-05  0.2332792E+04  0.7818609E-02  0.8465103E-01
        1   -1    0    0  501    0  0.00000000000E+00  0.00000000000E+00  0.22828417288E+04  0.22828417288E+04  0.50400001928E-02 0.  1.
       -1   -1    0    0    0  501  0.00000000000E+00  0.00000000000E+00 -0.59595867244E+03  0.59595867246E+03  0.50400001928E-02 0. -1.
    10030    2    1    2    0    0  0.00000000000E+00  0.00000000000E+00  0.16868830564E+04  0.28788004013E+04  0.23327917405E+04 0.  0.
        2    1    3    3  502    0  0.24145080891E+03 -0.34548501987E+03 -0.49869002518E+03  0.65295492440E+03  0.25500000920E-02 0. -1.
       -2    1    3    3    0  502 -0.24145080891E+03  0.34548501987E+03  0.21855730815E+04  0.22258454769E+04  0.25500000920E-02 0.  1.
</event>
<event>
 5   0  0.9312074E-05  0.2249909E+04  0.7818609E-02  0.8497937E-01
        2   -1    0    0  501    0  0.00000000000E+00  0.00000000000E+00  0.14224968056E+04  0.14224968056E+04  0.25500000920E-02 0.  1.
       -2   -1    0    0    0  501  0.00000000000E+00  0.00000000000E+00 -0.88964856189E+03  0.88964856189E+03  0.25500000920E-02 0. -1.
    10030    2    1    2    0    0  0.00000000000E+00  0.00000000000E+00  0.53284824371E+03  0.23121453675E+04  0.22499086536E+04 0.  0.
        4    1    3    3  502    0  0.64611815838E+03  0.90276002846E+03  0.79524430125E+02  0.11130004903E+04  0.12699999809E+01 0. -1.
       -4    1    3    3    0  502 -0.64611815838E+03 -0.90276002846E+03  0.45332381359E+03  0.11991448772E+04  0.12699999809E+01 0.  1.
</event>
<event>
 5   0  0.3261500E-05  0.2315791E+04  0.7818609E-02  0.8471721E-01
        4   -1    0    0  501    0  0.00000000000E+00  0.00000000000E+00  0.11612521071E+04  0.11612528016E+04  0.12699999809E+01 0. -1.
       -4   -1    0    0    0  501  0.00000000000E+00  0.00000000000E+00 -0.11545468348E+04  0.11545475333E+04  0.12699999809E+01 0.  1.
    10030    2    1    2    0    0  0.00000000000E+00  0.00000000000E+00  0.67052723678E+01  0.23158003349E+04  0.23157906275E+04 0.  0.
        5    1    3    3  502    0  0.10047904865E+03  0.58157826652E+03  0.99953458140E+03  0.11607845574E+04  0.46999998093E+01 0. -1.
       -5    1    3    3    0  502 -0.10047904865E+03 -0.58157826652E+03 -0.99282930903E+03  0.11550157775E+04  0.46999998093E+01 0.  1.
</event>
<event>
 5   0  0.9312074E-05  0.2306330E+04  0.7818609E-02  0.8475430E-01
        2   -1    0    0  501    0  0.00000000000E+00  0.00000000000E+00  0.27271821153E+04  0.27271821153E+04  0.25500000920E-02 0. -1.
       -2   -1    0    0    0  501  0.00000000000E+00  0.00000000000E+00 -0.48760560900E+03  0.48760560900E+03  0.25500000920E-02 0.  1.
    10030    2    1    2    0    0  0.00000000000E+00  0.00000000000E+00  0.22395765063E+04  0.32147877243E+04  0.23063298083E+04 0.  0.
        4    1    3    3  502    0  0.87872661893E+03 -0.60360670916E+03  0.17326058967E+04  0.20343122514E+04  0.12699999809E+01 0. -1.
       -4    1    3    3    0  502 -0.87872661893E+03  0.60360670916E+03  0.50697060963E+03  0.11804754729E+04  0.12699999809E+01 0.  1.
</event>
<event>
 5   0  0.9313463E-05  0.2300931E+04  0.7818609E-02  0.8477554E-01
        2   -1    0    0  501    0  0.00000000000E+00  0.00000000000E+00  0.22315702395E+04  0.22315702395E+04  0.25500000920E-02 0. -1.
       -2   -1    0    0    0  501  0.00000000000E+00  0.00000000000E+00 -0.59311180713E+03  0.59311180713E+03  0.25500000920E-02 0.  1.
    10030    2    1    2    0    0  0.00000000000E+00  0.00000000000E+00  0.16384584324E+04  0.28246820467E+04  0.23009308182E+04 0.  0.
        1    1    3    3  502    0  0.42986620677E+03 -0.56880919260E+03 -0.28920322829E+03  0.76939415164E+03  0.50400001928E-02 0.  1.
       -1    1    3    3    0  502 -0.42986620677E+03  0.56880919260E+03  0.19276616607E+04  0.20552878950E+04  0.50400001928E-02 0. -1.
</event>
<event>
 5   0  0.3261500E-05  0.2106074E+04  0.7818609E-02  0.8558572E-01
        4   -1    0    0  501    0  0.00000000000E+00  0.00000000000E+00  0.13169391412E+04  0.13169397535E+04  0.12699999809E+01 0. -1.
       -4   -1    0    0    0  501  0.00000000000E+00  0.00000000000E+00 -0.84201744171E+03  0.84201839946E+03  0.12699999809E+01 0.  1.
    10030    2    1    2    0    0  0.00000000000E+00  0.00000000000E+00  0.47492169947E+03  0.21589581530E+04  0.21060744730E+04 0.  0.
        4    1    3    3  502    0 -0.20019163853E+03 -0.99093104890E+03 -0.64668102206E+02  0.10130175774E+04  0.12699999809E+01 0.  1.
       -4    1    3    3    0  502  0.20019163853E+03  0.99093104890E+03  0.53958980168E+03  0.11459405756E+04  0.12699999809E+01 0. -1.
</event>
<event>
 5   0  0.9641157E-05  0.2318908E+04  0.7818609E-02  0.8470503E-01
       -2   -1    0    0    0  501  0.00000000000E+00  0.00000000000E+00  0.86679226564E+03  0.86679226564E+03  0.25500000920E-02 0.  1.
        2   -1    0    0  501    0  0.00000000000E+00  0.00000000000E+00 -0.15509297478E+04  0.15509297478E+04  0.25500000920E-02 0. -1.
    10030    2    1    2    0    0  0.00000000000E+00  0.00000000000E+00 -0.68413748213E+03  0.24177220134E+04  0.23189082862E+04 0.  0.
        3    1    3    3  502    0  0.66881441597E+03  0.45791868802E+03  0.52231375596E+03  0.96426859210E+03  0.10100000352E+00 0.  1.
       -3    1    3    3    0  502 -0.66881441597E+03 -0.45791868802E+03 -0.12064512381E+04  0.14534534213E+04  0.10100000352E+00 0. -1.
</event>
<event>
 5   0  0.9312074E-05  0.2313714E+04  0.7818609E-02  0.8472533E-01
        2   -1    0    0  501    0  0.00000000000E+00  0.00000000000E+00  0.14847015337E+04  0.14847015337E+04  0.25500000920E-02 0. -1.
       -2   -1    0    0    0  501  0.00000000000E+00  0.00000000000E+00 -0.90140558462E+03  0.90140558462E+03  0.25500000920E-02 0.  1.
    10030    2    1    2    0    0  0.00000000000E+00  0.00000000000E+00  0.58329594912E+03  0.23861071184E+04  0.23137141172E+04 0.  0.
        4    1    3    3  502    0  0.65653225303E+03 -0.26220112319E+03 -0.65271775624E+03  0.96219858162E+03  0.12699999809E+01 0.  1.
       -4    1    3    3    0  502 -0.65653225303E+03  0.26220112319E+03  0.12360137054E+04  0.14239085367E+04  0.12699999809E+01 0. -1.
</event>
<event>
 5   0  0.4095451E-05  0.2226073E+04  0.7818609E-02  0.8507654E-01
       -1   -1    0    0    0  501  0.00000000000E+00  0.00000000000E+00  0.97124965222E+03  0.97124965223E+03  0.50400001928E-02 0.  1.
        1   -1    0    0  501    0  0.00000000000E+00  0.00000000000E+00 -0.12755215571E+04  0.12755215571E+04  0.50400001928E-02 0. -1.
    10030    2    1    2    0    0  0.00000000000E+00  0.00000000000E+00 -0.30427190483E+03  0.22467712093E+04  0.22260726571E+04 0.  0.
        3    1    3    3  502    0 -0.91655612354E+02  0.53335878154E+03 -0.11337933016E+04  0.12563278243E+04  0.10100000352E+00 0. -1.
       -3    1    3    3    0  502  0.91655612354E+02 -0.53335878154E+03  0.82952139674E+03  0.99044338504E+03  0.10100000352E+00 0.  1.
</event>
<event>
 5   0  0.3885219E-05  0.2298586E+04  0.7818609E-02  0.8478479E-01
        1   -1    0    0  501    0  0.00000000000E+00  0.00000000000E+00  0.14184668817E+04  0.14184668817E+04  0.50400001928E-02 0.  1.
       -1   -1    0    0    0  501  0.00000000000E+00  0.00000000000E+00 -0.93119896894E+03  0.93119896895E+03  0.50400001928E-02 0. -1.
    10030    2    1    2    0    0  0.00000000000E+00  0.00000000000E+00  0.48726791278E+03  0.23496658507E+04  0.22985864332E+04 0.  0.
        2    1    3    3  502    0  0.65467094512E+03  0.13023669512E+03  0.12000095992E+04  0.13731637489E+04  0.25500000920E-02 0.  1.
       -2    1    3    3    0  502 -0.65467094512E+03 -0.13023669512E+03 -0.71274168644E+03  0.97650210176E+03  0.25500000920E-02 0. -1.
</event>
<event>
 5   0  0.4295775E-05  0.2309094E+04  0.7818609E-02  0.8474344E-01
        1   -1    0    0  501    0  0.00000000000E+00  0.00000000000E+00  0.14189176686E+04  0.14189176686E+04  0.50400001928E-02 0. -1.
       -1   -1    0    0    0  501  0.00000000000E+00  0.00000000000E+00 -0.93943320705E+03  0.93943320706E+03  0.50400001928E-02 0.  1.
    10030    2    1    2    0    0  0.00000000000E+00  0.00000000000E+00  0.47948446158E+03  0.23583508757E+04  0.23090936542E+04 0.  0.
        5    1    3    3  502    0 -0.11542977708E+04  0.38420343225E+01  0.26343583149E+03  0.11839926656E+04  0.46999998093E+01 0.  1.
       -5    1    3    3    0  502  0.11542977708E+04 -0.38420343225E+01  0.21604863009E+03  0.11743582101E+04  0.46999998093E+01 0. -1.
</event>
<event>
 5   0  0.9312074E-05  0.2343681E+04  0.7818609E-02  0.8460895E-01
       -2   -1    0    0    0  501  0.00000000000E+00  0.00000000000E+00  0.10873840397E+04  0.10873840397E+04  0.25500000920E-02 0. -1.
        2   -1    0    0  501    0  0.00000000000E+00  0.00000000000E+00 -0.12628561815E+04  0.12628561815E+04  0.25500000920E-02 0.  1.
    10030    2    1    2    0    0  0.00000000000E+00  0.00000000000E+00 -0.17547214182E+03  0.23502402212E+04  0.23436805723E+04 0.  0.
        4    1    3    3  502    0  0.53173484050E+03  0.49576510054E+02 -0.11337318525E+04  0.12532155829E+04  0.12699999809E+01 0.  1.
       -4    1    3    3    0  502 -0.53173484050E+03 -0.49576510054E+02  0.95825971070E+03  0.10970246383E+04  0.12699999809E+01 0. -1.
</event>
<event>
 5   0  0.4139830E-05  0.2258661E+04  0.7818609E-02  0.8494401E-01
       -1   -1    0    0    0  501  0.00000000000E+00  0.00000000000E+00  0.79154687103E+03  0.79154687105E+03  0.50400001928E-02 0.  1.
        1   -1    0    0  501    0  0.00000000000E+00  0.00000000000E+00 -0.16112591656E+04  0.16112591656E+04  0.50400001928E-02 0. -1.
    10030    2    1    2    0    0  0.00000000000E+00  0.00000000000E+00 -0.81971229460E+03  0.24028060367E+04  0.22586607988E+04 0.  0.
        1    1    3    3  502    0 -0.49944919651E+02  0.19726278457E+03 -0.15915956936E+04  0.16045510130E+04  0.50400001928E-02 0. -1.
       -1    1    3    3    0  502  0.49944919651E+02 -0.19726278457E+03  0.77188339903E+03  0.79825502373E+03  0.50400001928E-02 0.  1.
</event>
<event>
 5   0  0.4295775E-05  0.2301401E+04  0.7818609E-02  0.8477369E-01
        1   -1    0    0  501    0  0.00000000000E+00  0.00000000000E+00  0.12030383411E+04  0.12030383411E+04  0.50400001928E-02 0.  1.
       -1   -1    0    0    0  501  0.00000000000E+00  0.00000000000E+00 -0.11006400655E+04  0.11006400656E+04  0.50400001928E-02 0. -1.
    10030    2    1    2    0    0  0.00000000000E+00  0.00000000000E+00  0.10239827553E+03  0.23036784066E+04  0.23014014848E+04 0.  0.
        5    1    3    3  502    0 -0.18170207799E+03  0.10386052930E+03  0.11838164807E+04  0.12021839313E+04  0.46999998093E+01 0.  1.
       -5    1    3    3    0  502  0.18170207799E+03 -0.10386052930E+03 -0.10814182052E+04  0.11014944753E+04  0.46999998093E+01 0. -1.
</event>
<event>
 5   0  0.4139830E-05  0.2396752E+04  0.7818609E-02  0.8440721E-01
        1   -1    0    0  501    0  0.00000000000E+00  0.00000000000E+00  0.12469066651E+04  0.12469066651E+04  0.50400001928E-02 0. -1.
       -1   -1    0    0    0  501  0.00000000000E+00  0.00000000000E+00 -0.11517341234E+04  0.11517341234E+04  0.50400001928E-02 0.  1.
    10030    2    1    2    0    0  0.00000000000E+00  0.00000000000E+00  0.95172541628E+02  0.23986407885E+04  0.23967519312E+04 0.  0.
        1    1    3    3  502    0 -0.70850811351E+03 -0.29433118825E+03  0.96890417691E+03  0.12358761667E+04  0.50400001928E-02 0. -1.
       -1    1    3    3    0  502  0.70850811351E+03  0.29433118825E+03 -0.87373163529E+03  0.11627646218E+04  0.50400001928E-02 0.  1.
</event>
<event>
 5   0  0.3885219E-05  0.2254973E+04  0.7818609E-02  0.8495889E-01
        1   -1    0    0  501    0  0.00000000000E+00  0.00000000000E+00  0.85383068539E+03  0.85383068540E+03  0.50400001928E-02 0. -1.
       -1   -1    0    0    0  501  0.00000000000E+00  0.00000000000E+00 -0.14888502585E+04  0.14888502585E+04  0.50400001928E-02 0.  1.
    10030    2    1    2    0    0  0.00000000000E+00  0.00000000000E+00 -0.63501957313E+03  0.23426809439E+04  0.22549732031E+04 0.  0.
        2    1    3    3  502    0 -0.11133140369E+04 -0.17050248022E+03 -0.26365936451E+03  0.11567434898E+04  0.25500000920E-02 0. -1.
       -2    1    3    3    0  502  0.11133140369E+04  0.17050248022E+03 -0.37136020862E+03  0.11859374542E+04  0.25500000920E-02 0.  1.
</event>
<event>
 5   0  0.9483073E-05  0.2269526E+04  0.7818609E-02  0.8490035E-01
       -2   -1    0    0    0  501  0.00000000000E+00  0.00000000000E+00  0.12613465706E+04  0.12613465706E+04  0.25500000920E-02 0.  1.
        2   -1    0    0  501    0  0.00000000000E+00  0.00000000000E+00 -0.10208826032E+04  0.10208826032E+04  0.25500000920E-02 0. -1.
    10030    2    1    2    0    0  0.00000000000E+00  0.00000000000E+00  0.24046396744E+03  0.22822291738E+04  0.22695257395E+04 0.  0.
        5    1    3    3  502    0  0.20051500433E+03 -0.57524318228E+03 -0.84249489304E+03  0.10396781812E+04  0.46999998093E+01 0. -1.
       -5    1    3    3    0  502 -0.20051500433E+03  0.57524318228E+03  0.10829588605E+04  0.12425509926E+04  0.46999998093E+01 0.  1.
</event>
<event>
 5   0  0.9312074E-05  0.2314299E+04  0.7818609E-02  0.8472305E-01
        2   -1    0    0  501    0  0.00000000000E+00  0.00000000000E+00  0.25083190654E+04  0.25083190654E+04  0.25500000920E-02 0.  1.
       -2   -1    0    0    0  501  0.00000000000E+00  0.00000000000E+00 -0.53382160627E+03  0.53382160627E+03  0.25500000920E-02 0. -1.
    10030    2    1    2    0    0  0.00000000000E+00  0.00000000000E+00  0.19744974592E+04  0.30421406717E+04  0.23142989544E+04 0.  0.
        4    1    3    3  502    0  0.39666099532E+03 -0.71351595148E+03 -0.90758283688E+02  0.82139128141E+03  0.12699999809E+01 0. -1.
       -4    1    3    3    0  502 -0.39666099532E+03  0.71351595148E+03  0.20652557428E+04  0.22207493903E+04  0.12699999809E+01 0.  1.
</event>
<event>
 5   0  0.4095451E-05  0.2237512E+04  0.7818609E-02  0.8502975E-01
        1   -1    0    0  501    0  0.00000000000E+00  0.00000000000E+00  0.88481400881E+03  0.88481400882E+03  0.50400001928E-02 0. -1.
       -1   -1    0    0    0  501  0.00000000000E+00  0.00000000000E+00 -0.14145512120E+04  0.14145512120E+04  0.50400001928E-02 0.  1.
    10030    2    1    2    0    0  0.00000000000E+00  0.00000000000E+00 -0.52973720321E+03  0.22993652208E+04  0.22375117685E+04 0.  0.
        3    1    3    3  502    0 -0.50922027453E+03 -0.95913903045E+03  0.11569029408E+02  0.10859957736E+04  0.10100000352E+00 0. -1.
       -3    1    3    3    0  502  0.50922027453E+03  0.95913903045E+03 -0.54130623261E+03  0.12133694472E+04  0.10100000352E+00 0.  1.
</event>
<event>
 5   0  0.3885219E-05  0.2328600E+04  0.7818609E-02  0.8466729E-01
       -1   -1    0    0    0  501  0.00000000000E+00  0.00000000000E+00  0.15062514576E+04  0.15062514576E+04  0.50400001928E-02 0.  1.
        1   -1    0    0  501    0  0.00000000000E+00  0.00000000000E+00 -0.89997899436E+03  0.89997899438E+03  0.50400001928E-02 0. -1.
    10030    2    1    2    0    0  0.00000000000E+00  0.00000000000E+00  0.60627246322E+03  0.24062304520E+04  0.23286001564E+04 0.  0.
        2    1    3    3  502    0 -0.54467646128E+03  0.84903328937E+03  0.90395322506E+03  0.13544967357E+04  0.25500000920E-02 0.  1.
       -2    1    3    3    0  502  0.54467646128E+03 -0.84903328937E+03 -0.29768076184E+03  0.10517337163E+04  0.25500000920E-02 0. -1.
</event>
<event>
 5   0  0.9312074E-05  0.2286620E+04  0.7818609E-02  0.8483215E-01
       -2   -1    0    0    0  501  0.00000000000E+00  0.00000000000E+00  0.63048058553E+03  0.63048058553E+03  0.25500000920E-02 0. -1.
        2   -1    0    0  501    0  0.00000000000E+00  0.00000000000E+00 -0.20732723784E+04  0.20732723784E+04  0.25500000920E-02 0.  1.
    10030    2    1    2    0    0  0.00000000000E+00  0.00000000000E+00 -0.14427917929E+04  0.27037529640E+04  0.22866201986E+04 0.  0.
        4    1    3    3  502    0  0.27503210743E+03  0.26140410280E+03 -0.19966500181E+04  0.20323847255E+04  0.12699999809E+01 0.  1.
       -4    1    3    3    0  502 -0.27503210743E+03 -0.26140410280E+03  0.55385822516E+03  0.67136823842E+03  0.12699999809E+01 0. -1.
</event>
<event>
 5   0  0.4139830E-05  0.2123571E+04  0.7818609E-02  0.8550931E-01
       -1   -1    0    0    0  501  0.00000000000E+00  0.00000000000E+00  0.72998393864E+03  0.72998393866E+03  0.50400001928E-02 0.  1.
        1   -1    0    0  501    0  0.00000000000E+00  0.00000000000E+00 -0.15444010509E+04  0.15444010509E+04  0.50400001928E-02 0. -1.
    10030    2    1    2    0    0  0.00000000000E+00  0.00000000000E+00 -0.81441711229E+03  0.22743849896E+04  0.21235705423E+04 0.  0.
        1    1    3    3  502    0  0.20839322427E+03  0.60660689271E+03  0.49904610251E+03  0.81267870075E+03  0.50400001928E-02 0.  1.
       -1    1    3    3    0  502 -0.20839322427E+03 -0.60660689271E+03 -0.13134632148E+04  0.14617062888E+04  0.50400001928E-02 0. -1.
</event>
<event>
 5   0  0.9313463E-05  0.2332883E+04  0.7818609E-02  0.8465068E-01
       -2   -1    0    0    0  501  0.00000000000E+00  0.00000000000E+00  0.10030446911E+04  0.10030446911E+04  0.25500000920E-02 0.  1.
        2   -1    0    0  501    0  0.00000000000E+00  0.00000000000E+00 -0.13564558283E+04  0.13564558283E+04  0.25500000920E-02 0. -1.
    10030    2    1    2    0    0  0.00000000000E+00  0.00000000000E+00 -0.35341113725E+03  0.23595005194E+04  0.23328830381E+04 0.  0.
        1    1    3    3  502    0  0.88160401005E+03  0.13594709357E+03 -0.93686495604E+03  0.12936085918E+04  0.50400001928E-02 0. -1.
       -1    1    3    3    0  502 -0.88160401005E+03 -0.13594709357E+03  0.58345381879E+03  0.10658919277E+04  0.50400001928E-02 0.  1.
</event>
<event>
 5   0  0.4139830E-05  0.2462887E+04  0.7818609E-02  0.8416328E-01
       -1   -1    0    0    0  501  0.00000000000E+00  0.00000000000E+00  0.91029229783E+03  0.91029229785E+03  0.50400001928E-02 0.  1.
        1   -1    0    0  501    0  0.00000000000E+00  0.00000000000E+00 -0.16658965429E+04  0.16658965429E+04  0.50400001928E-02 0. -1.
    10030    2    1    2    0    0  0.00000000000E+00  0.00000000000E+00 -0.75560424507E+03  0.25761888408E+04  0.24628867550E+04 0.  0.
        1    1    3    3  502    0  0.11714019012E+04  0.33769240171E+03 -0.55968115408E+03  0.13414401092E+04  0.50400001928E-02 0. -1.
       -1    1    3    3    0  502 -0.11714019012E+04 -0.33769240171E+03 -0.19592309099E+03  0.12347487315E+04  0.50400001928E-02 0.  1.
</event>
<event>
 5   0  0.4139830E-05  0.2333956E+04  0.7818609E-02  0.8464652E-01
        1   -1    0    0  501    0  0.00000000000E+00  0.00000000000E+00  0.12171334691E+04  0.12171334691E+04  0.50400001928E-02 0.  1.
       -1   -1    0    0    0  501  0.00000000000E+00  0.00000000000E+00 -0.11188895464E+04  0.11188895464E+04  0.50400001928E-02 0. -1.
    10030    2    1    2    0    0  0.00000000000E+00  0.00000000000E+00  0.98243922713E+02  0.23360230156E+04  0.23339562251E+04 0.  0.
        1    1    3    3  502    0 -0.54966818900E+01 -0.62648398182E+03 -0.93629318860E+03  0.11265688297E+04  0.50400001928E-02 0. -1.
       -1    1    3    3    0  502  0.54966818900E+01  0.62648398182E+03  0.10345371113E+04  0.12094541859E+04  0.50400001928E-02 0.  1.
</event>
<event>
 5   0  0.9483073E-05  0.2315914E+04  0.7818609E-02  0.8471673E-01
        2   -1    0    0  501    0  0.00000000000E+00  0.00000000000E+00  0.21413316350E+04  0.21413316350E+04  0.25500000920E-02 0.  1.
       -2   -1    0    0    0  501  0.00000000000E+00  0.00000000000E+00 -0.62618239337E+03  0.62618239338E+03  0.25500000920E-02 0. -1.
    10030    2    1    2    0    0  0.00000000000E+00  0.00000000000E+00  0.15151492416E+04  0.27675140283E+04  0.23159137879E+04 0.  0.
        5    1    3    3  502    0 -0.10094706729E+04 -0.36912501496E+03  0.12723372444E+04  0.16655775183E+04  0.46999998093E+01 0.  1.
       -5    1    3    3    0  502  0.10094706729E+04  0.36912501496E+03  0.24281199718E+03  0.11019365100E+04  0.46999998093E+01 0. -1.
</event>
<event>
 5   0  0.4295775E-05  0.2257258E+04  0.7818609E-02  0.8494967E-01
        1   -1    0    0  501    0  0.00000000000E+00  0.00000000000E+00  0.18931668002E+04  0.18931668002E+04  0.50400001928E-02 0.  1.
       -1   -1    0    0    0  501  0.00000000000E+00  0.00000000000E+00 -0.67284286657E+03  0.67284286659E+03  0.50400001928E-02 0. -1.
    10030    2    1    2    0    0  0.00000000000E+00  0.00000000000E+00  0.12203239336E+04  0.25660096668E+04  0.22572583164E+04 0.  0.
        5    1    3    3  502    0  0.75959466928E+03 -0.58754187514E+03  0.12842189678E+04  0.16035678857E+04  0.46999998093E+01 0.  1.
       -5    1    3    3    0  502 -0.75959466928E+03  0.58754187514E+03 -0.63895034198E+02  0.96244178111E+03  0.46999998093E+01 0. -1.
</event>
<event>
 5   0  0.9641157E-05  0.2328634E+04  0.7818609E-02  0.8466716E-01
       -2   -1    0    0    0  501  0.00000000000E+00  0.00000000000E+00  0.84538042461E+03  0.84538042462E+03  0.25500000920E-02 0. -1.
        2   -1    0    0  501    0  0.00000000000E+00  0.00000000000E+00 -0.16035790195E+04  0.16035790195E+04  0.25500000920E-02 0.  1.
    10030    2    1    2    0    0  0.00000000000E+00  0.00000000000E+00 -0.75819859486E+03  0.24489594441E+04  0.23286342026E+04 0.  0.
        3    1    3    3  502    0  0.53903781758E+03  0.94827244504E+03 -0.80739187799E+03  0.13570792363E+04  0.10100000352E+00 0.  1.
       -3    1    3    3    0  502 -0.53903781758E+03 -0.94827244504E+03  0.49193283133E+02  0.10918802078E+04  0.10100000352E+00 0. -1.
</event>
<event>
 5   0  0.9312074E-05  0.2291866E+04  0.7818609E-02  0.8481135E-01
       -2   -1    0    0    0  501  0.00000000000E+00  0.00000000000E+00  0.61823003560E+03  0.61823003561E+03  0.25500000920E-02 0. -1.
        2   -1    0    0  501    0  0.00000000000E+00  0.00000000000E+00 -0.21240684070E+04  0.21240684070E+04  0.25500000920E-02 0.  1.
    10030    2    1    2    0    0  0.00000000000E+00  0.00000000000E+00 -0.15058383714E+04  0.27422984426E+04  0.22918663896E+04 0.  0.
        4    1    3    3  502    0  0.20268243523E+03 -0.86646583244E+03  0.11100734054E+03  0.89675384075E+03  0.12699999809E+01 0. -1.
       -4    1    3    3    0  502 -0.20268243523E+03  0.86646583244E+03 -0.16168457119E+04  0.18455446019E+04  0.12699999809E+01 0.  1.
</event>
<event>
 5   0  0.9641157E-05  0.1765066E+04  0.7818609E-02  0.8725101E-01
       -2   -1    0    0    0  501  0.00000000000E+00  0.00000000000E+00  0.69041275972E+03  0.69041275973E+03  0.25500000920E-02 0. -1.
        2   -1    0    0  501    0  0.00000000000E+00  0.00000000000E+00 -0.11281139968E+04  0.11281139968E+04  0.25500000920E-02 0.  1.
    10030    2    1    2    0    0  0.00000000000E+00  0.00000000000E+00 -0.43770123709E+03  0.18185267565E+04  0.17650657754E+04 0.  0.
        3    1    3    3  502    0  0.34627173190E+03  0.50814538674E+03 -0.87107153478E+03  0.10662464421E+04  0.10100000352E+00 0.  1.
       -3    1    3    3    0  502 -0.34627173190E+03 -0.50814538674E+03  0.43337029770E+03  0.75228031445E+03  0.10100000352E+00 0. -1.
</event>
<event>
 5   0  0.9313463E-05  0.2332029E+04  0.7818609E-02  0.8465399E-01
       -2   -1    0    0    0  501  0.00000000000E+00  0.00000000000E+00  0.82766006118E+03  0.82766006119E+03  0.25500000920E-02 0. -1.
        2   -1    0    0  501    0  0.00000000000E+00  0.00000000000E+00 -0.16426909762E+04  0.16426909762E+04  0.25500000920E-02 0.  1.
    10030    2    1    2    0    0  0.00000000000E+00  0.00000000000E+00 -0.81503091503E+03  0.24703510374E+04  0.23320289140E+04 0.  0.
        1    1    3    3  502    0  0.72486539158E+03 -0.61621119398E+03  0.30659395300E+03  0.99957287055E+03  0.50400001928E-02 0. -1.
       -1    1    3    3    0  502 -0.72486539158E+03  0.61621119398E+03 -0.11216248680E+04  0.14707781669E+04  0.50400001928E-02 0.  1.
</event>
<event>
 5   0  0.3885219E-05  0.2302196E+04  0.7818609E-02  0.8477056E-01
        1   -1    0    0  501    0  0.00000000000E+00  0.00000000000E+00  0.18367467117E+04  0.18367467117E+04  0.50400001928E-02 0.  1.
       -1   -1    0    0    0  501  0.00000000000E+00  0.00000000000E+00 -0.72139887629E+03  0.72139887630E+03  0.50400001928E-02 0. -1.
    10030    2    1    2    0    0  0.00000000000E+00  0.00000000000E+00  0.11153478355E+04  0.25581455880E+04  0.23021963547E+04 0.  0.
        2    1    3    3  502    0  0.36457294182E+03  0.51181517775E+03 -0.51399700351E+03  0.81182579764E+03  0.25500000920E-02 0. -1.
       -2    1    3    3    0  502 -0.36457294182E+03 -0.51181517775E+03  0.16293448390E+04  0.17463197904E+04  0.25500000920E-02 0.  1.
</event>
<event>
 5   0  0.4005462E-05  0.2311154E+04  0.7818609E-02  0.8473536E-01
        1   -1    0    0  501    0  0.00000000000E+00  0.00000000000E+00  0.14086077637E+04  0.14086077637E+04  0.50400001928E-02 0.  1.
       -1   -1    0    0    0  501  0.00000000000E+00  0.00000000000E+00 -0.94799882461E+03  0.94799882462E+03  0.50400001928E-02 0. -1.
    10030    2    1    2    0    0  0.00000000000E+00  0.00000000000E+00  0.46060893909E+03  0.23566065883E+04  0.23111542608E+04 0.  0.
        4    1    3    3  502    0 -0.99308349477E+03  0.23955305093E+03 -0.32046308600E+03  0.10706533959E+04  0.12699999809E+01 0. -1.
       -4    1    3    3    0  502  0.99308349477E+03 -0.23955305093E+03  0.78107202509E+03  0.12859531924E+04  0.12699999809E+01 0.  1.
</event>
<event>
 5   0  0.9483073E-05  0.2419521E+04  0.7818609E-02  0.8432231E-01
       -2   -1    0    0    0  501  0.00000000000E+00  0.00000000000E+00  0.10429993638E+04  0.10429993638E+04  0.25500000920E-02 0.  1.
        2   -1    0    0  501    0  0.00000000000E+00  0.00000000000E+00 -0.14031845669E+04  0.14031845669E+04  0.25500000920E-02 0. -1.
    10030    2    1    2    0    0  0.00000000000E+00  0.00000000000E+00 -0.36018520311E+03  0.24461839308E+04  0.24195211184E+04 0.  0.
        5    1    3    3  502    0 -0.18910145152E+03  0.77459164390E+03 -0.10999245410E+04  0.13585314349E+04  0.46999998093E+01 0. -1.
       -5    1    3    3    0  502  0.18910145152E+03 -0.77459164390E+03  0.73973933787E+03  0.10876524959E+04  0.46999998093E+01 0.  1.
</event>
<event>
 5   0  0.4139830E-05  0.2246748E+04  0.7818609E-02  0.8499219E-01
       -1   -1    0    0    0  501  0.00000000000E+00  0.00000000000E+00  0.14620216449E+04  0.14620216449E+04  0.50400001928E-02 0.  1.
        1   -1    0    0  501    0  0.00000000000E+00  0.00000000000E+00 -0.86316707600E+03  0.86316707602E+03  0.50400001928E-02 0. -1.
    10030    2    1    2    0    0  0.00000000000E+00  0.00000000000E+00  0.59885456891E+03  0.23251887209E+04  0.22467478259E+04 0.  0.
        1    1    3    3  502    0 -0.55002572084E+03 -0.87677095608E+03 -0.15252690818E+03  0.10461931278E+04  0.50400001928E-02 0. -1.
       -1    1    3    3    0  502  0.55002572084E+03  0.87677095608E+03  0.75138147708E+03  0.12789955931E+04  0.50400001928E-02 0.  1.
</event>
<event>
 5   0  0.4005462E-05  0.2230376E+04  0.7818609E-02  0.8505890E-01
        1   -1    0    0  501    0  0.00000000000E+00  0.00000000000E+00  0.12725680091E+04  0.12725680091E+04  0.50400001928E-02 0. -1.
       -1   -1    0    0    0  501  0.00000000000E+00  0.00000000000E+00 -0.97727127101E+03  0.97727127102E+03  0.50400001928E-02 0.  1.
    10030    2    1    2    0    0  0.00000000000E+00  0.00000000000E+00  0.29529673810E+03  0.22498392801E+04  0.22303758927E+04 0.  0.
        4    1    3    3  502    0 -0.11955227919E+03  0.54601442634E+03  0.11210658100E+04  0.12526829864E+04  0.12699999809E+01 0. -1.
       -4    1    3    3    0  502  0.11955227919E+03 -0.54601442634E+03 -0.82576907185E+03  0.99715629375E+03  0.12699999809E+01 0.  1.
</event>
<event>
 5   0  0.4295775E-05  0.2322234E+04  0.7818609E-02  0.8469206E-01
       -1   -1    0    0    0  501  0.00000000000E+00  0.00000000000E+00  0.11775368577E+04  0.11775368577E+04  0.50400001928E-02 0. -1.
        1   -1    0    0  501    0  0.00000000000E+00  0.00000000000E+00 -0.11449256998E+04  0.11449256998E+04  0.50400001928E-02 0.  1.
    10030    2    1    2    0    0  0.00000000000E+00  0.00000000000E+00  0.32611157913E+02  0.23224625575E+04  0.23222335893E+04 0.  0.
        5    1    3    3  502    0  0.44125077076E+03 -0.10555421628E+04 -0.18195276420E+03  0.11584474086E+04  0.46999998093E+01 0.  1.
       -5    1    3    3    0  502 -0.44125077076E+03  0.10555421628E+04  0.21456392211E+03  0.11640151489E+04  0.46999998093E+01 0. -1.
</event>
<event>
 5   0  0.9312074E-05  0.2080828E+04  0.7818609E-02  0.8569736E-01
        2   -1    0    0  501    0  0.00000000000E+00  0.00000000000E+00  0.10813590972E+04  0.10813590972E+04  0.25500000920E-02 0. -1.
       -2   -1    0    0    0  501  0.00000000000E+00  0.00000000000E+00 -0.10010197323E+04  0.10010197323E+04  0.25500000920E-02 0.  1.
    10030    2    1    2    0    0  0.00000000000E+00  0.00000000000E+00  0.80339364932E+02  0.20823788295E+04  0.20808284831E+04 0.  0.
        4    1    3    3  502    0 -0.37010306500E+03 -0.96280285701E+03 -0.95926351154E+02  0.10359387520E+04  0.12699999809E+01 0. -1.
       -4    1    3    3    0  502  0.37010306500E+03  0.96280285701E+03  0.17626571609E+03  0.10464400775E+04  0.12699999809E+01 0.  1.
</event>
<event>
 5   0  0.4139830E-05  0.2279504E+04  0.7818609E-02  0.8486046E-01
       -1   -1    0    0    0  501  0.00000000000E+00  0.00000000000E+00  0.90325124818E+03  0.90325124819E+03  0.50400001928E-02 0. -1.
        1   -1    0    0  501    0  0.00000000000E+00  0.00000000000E+00 -0.14381766237E+04  0.14381766237E+04  0.50400001928E-02 0.  1.
    10030    2    1    2    0    0  0.00000000000E+00  0.00000000000E+00 -0.53492537549E+03  0.23414278719E+04  0.22795041833E+04 0.  0.
        1    1    3    3  502    0 -0.49999559787E+03  0.10241983218E+04 -0.25970570161E+03  0.11689417657E+04  0.50400001928E-02 0. -1.
       -1    1    3    3    0  502  0.49999559787E+03 -0.10241983218E+04 -0.27521967388E+03  0.11724861061E+04  0.50400001928E-02 0.  1.
</event>
<event>
 5   0  0.9535394E-05  0.2297934E+04  0.7818609E-02  0.8478736E-01
       -2   -1    0    0    0  501  0.00000000000E+00  0.00000000000E+00  0.11655179395E+04  0.11655179395E+04  0.25500000920E-02 0.  1.
        2   -1    0    0  501    0  0.00000000000E+00  0.00000000000E+00 -0.11326507112E+04  0.11326507112E+04  0.25500000920E-02 0. -1.
    10030    2    1    2    0    0  0.00000000000E+00  0.00000000000E+00  0.32867228282E+02  0.22981686507E+04  0.22979336136E+04 0.  0.
        2    1    3    3  502    0  0.46530554258E+02  0.34284952054E+03 -0.10793124380E+04  0.11334135278E+04  0.25500000920E-02 0. -1.
       -2    1    3    3    0  502 -0.46530554258E+02 -0.34284952054E+03  0.11121796663E+04  0.11647551229E+04  0.25500000920E-02 0.  1.
</event>
<event>
 5   0  0.9483073E-05  0.2226474E+04  0.7818609E-02  0.8507489E-01
       -2   -1    0    0    0  501  0.00000000000E+00  0.00000000000E+00  0.91227721738E+03  0.91227721738E+03  0.25500000920E-02 0. -1.
        2   -1    0    0  501    0  0.00000000000E+00  0.00000000000E+00 -0.13584648766E+04  0.13584648766E+04  0.25500000920E-02 0.  1.
    10030    2    1    2    0    0  0.00000000000E+00  0.00000000000E+00 -0.44618765919E+03  0.22707420940E+04  0.22264739455E+04 0.  0.
        5    1    3    3  502    0 -0.53111412726E+03  0.81620968498E+03 -0.77325788387E+03  0.12434750946E+04  0.46999998093E+01 0.  1.
       -5    1    3    3    0  502  0.53111412726E+03 -0.81620968498E+03  0.32707022468E+03  0.10272669993E+04  0.46999998093E+01 0. -1.
</event>
<event>
 5   0  0.4095451E-05  0.2334979E+04  0.7818609E-02  0.8464256E-01
        1   -1    0    0  501    0  0.00000000000E+00  0.00000000000E+00  0.13894995726E+04  0.13894995727E+04  0.50400001928E-02 0.  1.
       -1   -1    0    0    0  501  0.00000000000E+00  0.00000000000E+00 -0.98095185832E+03  0.98095185834E+03  0.50400001928E-02 0. -1.
    10030    2    1    2    0    0  0.00000000000E+00  0.00000000000E+00  0.40854771432E+03  0.23704514310E+04  0.23349793900E+04 0.  0.
        3    1    3    3  502    0  0.10574007531E+04 -0.42449356956E+03  0.46258183964E+03  0.12297451410E+04  0.10100000352E+00 0. -1.
       -3    1    3    3    0  502 -0.10574007531E+04  0.42449356956E+03 -0.54034125321E+02  0.11407062900E+04  0.10100000352E+00 0.  1.
</event>
<event>
 5   0  0.4295775E-05  0.2303047E+04  0.7818609E-02  0.8476721E-01
       -1   -1    0    0    0  501  0.00000000000E+00  0.00000000000E+00  0.15725825078E+04  0.15725825078E+04  0.50400001928E-02 0.  1.
        1   -1    0    0  501    0  0.00000000000E+00  0.00000000000E+00 -0.84320340407E+03  0.84320340409E+03  0.50400001928E-02 0. -1.
    10030    2    1    2    0    0  0.00000000000E+00  0.00000000000E+00  0.72937910370E+03  0.24157859119E+04  0.23030474800E+04 0.  0.
        5    1    3    3  502    0  0.23008009429E+03  0.10687936434E+04 -0.14573102406E+02  0.10933851871E+04  0.46999998093E+01 0.  1.
       -5    1    3    3    0  502 -0.23008009429E+03 -0.10687936434E+04  0.74395220611E+03  0.13224007248E+04  0.46999998093E+01 0. -1.
</event>
<event>
 5   0  0.9535394E-05  0.2138798E+04  0.7818609E-02  0.8544342E-01
        2   -1    0    0  501    0  0.00000000000E+00  0.00000000000E+00  0.16519121585E+04  0.16519121585E+04  0.25500000920E-02 0. -1.
       -2   -1    0    0    0  501  0.00000000000E+00  0.00000000000E+00 -0.69229746085E+03  0.69229746086E+03  0.25500000920E-02 0.  1.
    10030    2    1    2    0    0  0.00000000000E+00  0.00000000000E+00  0.95961469761E+03  0.23442096193E+04  0.21387983475E+04 0.  0.
        2    1    3    3  502    0 -0.66821271509E+03  0.79124225321E+03  0.18767182694E+03  0.10525175773E+04  0.25500000920E-02 0.  1.
       -2    1    3    3    0  502  0.66821271509E+03 -0.79124225321E+03  0.77194287067E+03  0.12916920420E+04  0.25500000920E-02 0. -1.
</event>
<event>
 5   0  0.4005462E-05  0.1581495E+04  0.7818609E-02  0.8831998E-01
       -1   -1    0    0    0  501  0.00000000000E+00  0.00000000000E+00  0.42151940985E+03  0.42151940988E+03  0.50400001928E-02 0.  1.
        1   -1    0    0  501    0  0.00000000000E+00  0.00000000000E+00 -0.14833987510E+04  0.14833987510E+04  0.50400001928E-02 0. -1.
    10030    2    1    2    0    0  0.00000000000E+00  0.00000000000E+00 -0.10618793412E+04  0.19049181609E+04  0.15814946932E+04 0.  0.
        4    1    3    3  502    0 -0.55552102304E+03  0.54491556746E+03 -0.36169420895E+03  0.85811473381E+03  0.12699999809E+01 0.  1.
       -4    1    3    3    0  502  0.55552102304E+03 -0.54491556746E+03 -0.70018513223E+03  0.10468034271E+04  0.12699999809E+01 0. -1.
</event>
<event>
 5   0  0.9641157E-05  0.2345383E+04  0.7818609E-02  0.8460239E-01
        2   -1    0    0  501    0  0.00000000000E+00  0.00000000000E+00  0.17987976406E+04  0.17987976406E+04  0.25500000920E-02 0. -1.
       -2   -1    0    0    0  501  0.00000000000E+00  0.00000000000E+00 -0.76451351891E+03  0.76451351891E+03  0.25500000920E-02 0.  1.
    10030    2    1    2    0    0  0.00000000000E+00  0.00000000000E+00  0.10342841216E+04  0.25633111595E+04  0.23453827952E+04 0.  0.
        3    1    3    3  502    0 -0.52244266908E+03  0.16089187112E+02  0.16644456987E+04  0.17445872574E+04  0.10100000352E+00 0. -1.
       -3    1    3    3    0  502  0.52244266908E+03 -0.16089187112E+02 -0.63016157708E+03  0.81872390209E+03  0.10100000352E+00 0.  1.
</event>
<event>
 5   0  0.9483073E-05  0.2434434E+04  0.7818609E-02  0.8426723E-01
        2   -1    0    0  501    0  0.00000000000E+00  0.00000000000E+00  0.87094946547E+03  0.87094946547E+03  0.25500000920E-02 0. -1.
       -2   -1    0    0    0  501  0.00000000000E+00  0.00000000000E+00 -0.17011521379E+04  0.17011521379E+04  0.25500000920E-02 0.  1.
    10030    2    1    2    0    0  0.00000000000E+00  0.00000000000E+00 -0.83020267241E+03  0.25721016034E+04  0.24344342630E+04 0.  0.
        5    1    3    3  502    0 -0.33420658562E+03 -0.69575320323E+03 -0.14095102056E+04  0.16070182548E+04  0.46999998093E+01 0.  1.
       -5    1    3    3    0  502  0.33420658562E+03  0.69575320323E+03  0.57930753316E+03  0.96508334855E+03  0.46999998093E+01 0. -1.
</event>
<event>
 5   0  0.9313463E-05  0.2438754E+04  0.7818609E-02  0.8425135E-01
        2   -1    0    0  501    0  0.00000000000E+00  0.00000000000E+00  0.10845359242E+04  0.10845359242E+04  0.25500000920E-02 0.  1.
       -2   -1    0    0    0  501  0.00000000000E+00  0.00000000000E+00 -0.13709833854E+04  0.13709833854E+04  0.25500000920E-02 0. -1.
    10030    2    1    2    0    0  0.00000000000E+00  0.00000000000E+00 -0.28644746125E+03  0.24555193096E+04  0.24387543812E+04 0.  0.
        1    1    3    3  502    0  0.94146370236E+03  0.18223127180E+03 -0.90160709840E+03  0.13162285133E+04  0.50400001928E-02 0.  1.
       -1    1    3    3    0  502 -0.94146370236E+03 -0.18223127180E+03  0.61515963715E+03  0.11392907963E+04  0.50400001928E-02 0. -1.
</event>
<event>
 5   0  0.4005462E-05  0.2176157E+04  0.7818609E-02  0.8528418E-01
        1   -1    0    0  501    0  0.00000000000E+00  0.00000000000E+00  0.15446913132E+04  0.15446913132E+04  0.50400001928E-02 0. -1.
       -1   -1    0    0    0  501  0.00000000000E+00  0.00000000000E+00 -0.76644119338E+03  0.76644119339E+03  0.50400001928E-02 0.  1.
    10030    2    1    2    0    0  0.00000000000E+00  0.00000000000E+00  0.77825011979E+03  0.23111325066E+04  0.21761572126E+04 0.  0.
        4    1    3    3  502    0 -0.10395366316E+04 -0.20260344091E+03  0.12419541091E+03  0.10663539167E+04  0.12699999809E+01 0. -1.
       -4    1    3    3    0  502  0.10395366316E+04  0.20260344091E+03  0.65405470889E+03  0.12447785899E+04  0.12699999809E+01 0.  1.
</event>
<event>
 5   0  0.9313463E-05  0.1954555E+04  0.7818609E-02  0.8628167E-01
       -2   -1    0    0    0  501  0.00000000000E+00  0.00000000000E+00  0.64739824847E+03  0.64739824848E+03  0.25500000920E-02 0. -1.
        2   -1    0    0  501    0  0.00000000000E+00  0.00000000000E+00 -0.14752459509E+04  0.14752459509E+04  0.25500000920E-02 0.  1.
    10030    2    1    2    0    0  0.00000000000E+00  0.00000000000E+00 -0.82784770242E+03  0.21226441994E+04  0.19545553404E+04 0.  0.
        1    1    3    3  502    0 -0.54721656161E+03  0.27739109046E+03  0.41220619291E+03  0.73912497446E+03  0.50400001928E-02 0. -1.
       -1    1    3    3    0  502  0.54721656161E+03 -0.27739109046E+03 -0.12400538953E+04  0.13835192249E+04  0.50400001928E-02 0.  1.
</event>
<event>
 5   0  0.4005462E-05  0.2228469E+04  0.7818609E-02  0.8506671E-01
        1   -1    0    0  501    0  0.00000000000E+00  0.00000000000E+00  0.13812535210E+04  0.13812535210E+04  0.50400001928E-02 0.  1.
       -1   -1    0    0    0  501  0.00000000000E+00  0.00000000000E+00 -0.89883489898E+03  0.89883489899E+03  0.50400001928E-02 0. -1.
    10030    2    1    2    0    0  0.00000000000E+00  0.00000000000E+00  0.48241862200E+03  0.22800884200E+04  0.22284693123E+04 0.  0.
        4    1    3    3  502    0  0.34063898330E+03 -0.97037701259E+03  0.67991956395E+03  0.12328660470E+04  0.12699999809E+01 0.  1.
       -4    1    3    3    0  502 -0.34063898330E+03  0.97037701259E+03 -0.19750094195E+03  0.10472223730E+04  0.12699999809E+01 0. -1.
</event>
<event>
 5   0  0.9312074E-05  0.2349942E+04  0.7818609E-02  0.8458486E-01
       -2   -1    0    0    0  501  0.00000000000E+00  0.00000000000E+00  0.76019587877E+03  0.76019587877E+03  0.25500000920E-02 0.  1.
        2   -1    0    0  501    0  0.00000000000E+00  0.00000000000E+00 -0.18160546453E+04  0.18160546453E+04  0.25500000920E-02 0. -1.
    10030    2    1    2    0    0  0.00000000000E+00  0.00000000000E+00 -0.10558587665E+04  0.25762505241E+04  0.23499423457E+04 0.  0.
        4    1    3    3  502    0  0.12228294697E+02 -0.42988383585E+03 -0.17266691945E+04  0.17794206258E+04  0.12699999809E+01 0. -1.
       -4    1    3    3    0  502 -0.12228294697E+02  0.42988383585E+03  0.67081042798E+03  0.79682989822E+03  0.12699999809E+01 0.  1.
</event>
<event>
 5   0  0.4139830E-05  0.2326465E+04  0.7818609E-02  0.8467559E-01
       -1   -1    0    0    0  501  0.00000000000E+00  0.00000000000E+00  0.75420224865E+03  0.75420224867E+03  0.50400001928E-02 0.  1.
        1   -1    0    0  501    0  0.00000000000E+00  0.00000000000E+00 -0.17940942325E+04  0.17940942325E+04  0.50400001928E-02 0. -1.
    10030    2    1    2    0    0  0.00000000000E+00  0.00000000000E+00 -0.10398919838E+04  0.25482964812E+04  0.23264650476E+04 0.  0.
        1    1    3    3  502    0 -0.67501042308E+02 -0.76960409409E+03  0.43260857578E+03  0.88543606896E+03  0.50400001928E-02 0.  1.
       -1    1    3    3    0  502  0.67501042308E+02  0.76960409409E+03 -0.14725005596E+04  0.16628604122E+04  0.50400001928E-02 0. -1.
</event>
<event>
 5   0  0.9483073E-05  0.2318212E+04  0.7818609E-02  0.8470775E-01
        2   -1    0    0  501    0  0.00000000000E+00  0.00000000000E+00  0.15010605544E+04  0.15010605544E+04  0.25500000920E-02 0. -1.
       -2   -1    0    0    0  501  0.00000000000E+00  0.00000000000E+00 -0.89505158334E+03  0.89505158335E+03  0.25500000920E-02 0.  1.
    10030    2    1    2    0    0  0.00000000000E+00  0.00000000000E+00  0.60600897102E+03  0.23961121377E+04  0.23182119195E+04 0.  0.
        5    1    3    3  502    0  0.50895527869E+03 -0.17728602785E+03  0.13636644485E+04  0.14663112322E+04  0.46999998093E+01 0. -1.
       -5    1    3    3    0  502 -0.50895527869E+03  0.17728602785E+03 -0.75765547750E+03  0.92980090555E+03  0.46999998093E+01 0.  1.
</event>
<event>
 5   0  0.9483073E-05  0.1698030E+04  0.7818609E-02  0.8762489E-01
        2   -1    0    0  501    0  0.00000000000E+00  0.00000000000E+00  0.11732722600E+04  0.11732722600E+04  0.25500000920E-02 0. -1.
       -2   -1    0    0    0  501  0.00000000000E+00  0.00000000000E+00 -0.61437245122E+03  0.61437245122E+03  0.25500000920E-02 0.  1.
    10030    2    1    2    0    0  0.00000000000E+00  0.00000000000E+00  0.55889980877E+03  0.17876447112E+04  0.16980296279E+04 0.  0.
        5    1    3    3  502    0 -0.45846407661E+02 -0.34094238241E+03 -0.53769715146E+03  0.63834467015E+03  0.46999998093E+01 0.  1.
       -5    1    3    3    0  502  0.45846407661E+02  0.34094238241E+03  0.10965969602E+04  0.11493000411E+04  0.46999998093E+01 0. -1.
</event>
<event>
 5   0  0.9535394E-05  0.2250574E+04  0.7818609E-02  0.8497668E-01
       -2   -1    0    0    0  501  0.00000000000E+00  0.00000000000E+00  0.58048849868E+03  0.58048849868E+03  0.25500000920E-02 0. -1.
        2   -1    0    0  501    0  0.00000000000E+00  0.00000000000E+00 -0.21813887400E+04  0.21813887400E+04  0.25500000920E-02 0.  1.
    10030    2    1    2    0    0  0.00000000000E+00  0.00000000000E+00 -0.16009002413E+04  0.27618772387E+04  0.22505742154E+04 0.  0.
        2    1    3    3  502    0  0.30033032498E+03  0.85552859893E+02 -0.21271493911E+04  0.21499493315E+04  0.25500000920E-02 0.  1.
       -2    1    3    3    0  502 -0.30033032498E+03 -0.85552859893E+02  0.52624914978E+03  0.61192790718E+03  0.25500000920E-02 0. -1.
</event>
<event>
 5   0  0.9535394E-05  0.2273098E+04  0.7818609E-02  0.8488604E-01
        2   -1    0    0  501    0  0.00000000000E+00  0.00000000000E+00  0.82542659421E+03  0.82542659422E+03  0.25500000920E-02 0.  1.
       -2   -1    0    0    0  501  0.00000000000E+00  0.00000000000E+00 -0.15649411843E+04  0.15649411843E+04  0.25500000920E-02 0. -1.
    10030    2    1    2    0    0  0.00000000000E+00  0.00000000000E+00 -0.73951459008E+03  0.23903677785E+04  0.22730983893E+04 0.  0.
        2    1    3    3  502    0 -0.58123040003E+03  0.86339074457E+03 -0.84989969902E+03  0.13437268525E+04  0.25500000920E-02 0.  1.
       -2    1    3    3    0  502  0.58123040003E+03 -0.86339074457E+03  0.11038510894E+03  0.10466409260E+04  0.25500000920E-02 0. -1.
</event>
<event>
 5   0  0.9313463E-05  0.2388008E+04  0.7818609E-02  0.8444007E-01
        2   -1    0    0  501    0  0.00000000000E+00  0.00000000000E+00  0.10733387678E+04  0.10733387678E+04  0.25500000920E-02 0.  1.
       -2   -1    0    0    0  501  0.00000000000E+00  0.00000000000E+00 -0.13282343519E+04  0.13282343519E+04  0.25500000920E-02 0. -1.
    10030    2    1    2    0    0  0.00000000000E+00  0.00000000000E+00 -0.25489558415E+03  0.24015731197E+04  0.23880078916E+04 0.  0.
        1    1    3    3  502    0  0.83056025905E+03 -0.26029016386E+03  0.69454711469E+03  0.11135425487E+04  0.50400001928E-02 0.  1.
       -1    1    3    3    0  502 -0.83056025905E+03  0.26029016386E+03 -0.94944269884E+03  0.12880305710E+04  0.50400001928E-02 0. -1.
</event>
<event>
 5   0  0.4095451E-05  0.1804624E+04  0.7818609E-02  0.8703844E-01
        1   -1    0    0  501    0  0.00000000000E+00  0.00000000000E+00  0.36142262420E+03  0.36142262423E+03  0.50400001928E-02 0.  1.
       -1   -1    0    0    0  501  0.00000000000E+00  0.00000000000E+00 -0.22526739979E+04  0.22526739979E+04  0.50400001928E-02 0. -1.
    10030    2    1    2    0    0  0.00000000000E+00  0.00000000000E+00 -0.18912513737E+04  0.26140966221E+04  0.18046244460E+04 0.  0.
        3    1    3    3  502    0  0.14987615618E+03 -0.65256518464E+03 -0.18218073046E+04  0.19409497798E+04  0.10100000352E+00 0. -1.
       -3    1    3    3    0  502 -0.14987615618E+03  0.65256518464E+03 -0.69444069077E+02  0.67314684232E+03  0.10100000352E+00 0.  1.
</event>
<event>
 5   0  0.4095451E-05  0.1543613E+04  0.7818609E-02  0.8855958E-01
        1   -1    0    0  501    0  0.00000000000E+00  0.00000000000E+00  0.16957688296E+04  0.16957688297E+04  0.50400001928E-02 0. -1.
       -1   -1    0    0    0  501  0.00000000000E+00  0.00000000000E+00 -0.35127754726E+03  0.35127754729E+03  0.50400001928E-02 0.  1.
    10030    2    1    2    0    0  0.00000000000E+00  0.00000000000E+00  0.13444912824E+04  0.20470463769E+04  0.15436133133E+04 0.  0.
        3    1    3    3  502    0  0.61353951615E+03  0.36598816315E+03  0.28491433570E+03  0.76912564795E+03  0.10100000352E+00 0.  1.
       -3    1    3    3    0  502 -0.61353951615E+03 -0.36598816315E+03  0.10595769467E+04  0.12779207290E+04  0.10100000352E+00 0. -1.
</event>
<event>
 5   0  0.9641157E-05  0.2298012E+04  0.7818609E-02  0.8478705E-01
        2   -1    0    0  501    0  0.00000000000E+00  0.00000000000E+00  0.10727812820E+04  0.10727812820E+04  0.25500000920E-02 0. -1.
       -2   -1    0    0    0  501  0.00000000000E+00  0.00000000000E+00 -0.12306472519E+04  0.12306472519E+04  0.25500000920E-02 0.  1.
    10030    2    1    2    0    0  0.00000000000E+00  0.00000000000E+00 -0.15786596988E+03  0.23034285339E+04  0.22980124774E+04 0.  0.
        3    1    3    3  502    0  0.76672392553E+03  0.75940698771E+03 -0.47438883478E+03  0.11788169187E+04  0.10100000352E+00 0.  1.
       -3    1    3    3    0  502 -0.76672392553E+03 -0.75940698771E+03  0.31652286490E+03  0.11246116153E+04  0.10100000352E+00 0. -1.
</event>
<event>
 5   0  0.4139830E-05  0.2205435E+04  0.7818609E-02  0.8516169E-01
       -1   -1    0    0    0  501  0.00000000000E+00  0.00000000000E+00  0.15507135812E+04  0.15507135812E+04  0.50400001928E-02 0.  1.
        1   -1    0    0  501    0  0.00000000000E+00  0.00000000000E+00 -0.78414633830E+03  0.78414633832E+03  0.50400001928E-02 0. -1.
    10030    2    1    2    0    0  0.00000000000E+00  0.00000000000E+00  0.76656724285E+03  0.23348599195E+04  0.22054354458E+04 0.  0.
        1    1    3    3  502    0 -0.81481349787E+03 -0.70990932535E+03  0.61545695397E+03  0.12436557195E+04  0.50400001928E-02 0. -1.
       -1    1    3    3    0  502  0.81481349787E+03  0.70990932535E+03  0.15111028889E+03  0.10912041999E+04  0.50400001928E-02 0.  1.
</event>
<event>
 5   0  0.9535394E-05  0.2227605E+04  0.7818609E-02  0.8507025E-01
       -2   -1    0    0    0  501  0.00000000000E+00  0.00000000000E+00  0.92676862718E+03  0.92676862718E+03  0.25500000920E-02 0. -1.
        2   -1    0    0  501    0  0.00000000000E+00  0.00000000000E+00 -0.13385824692E+04  0.13385824692E+04  0.25500000920E-02 0.  1.
    10030    2    1    2    0    0  0.00000000000E+00  0.00000000000E+00 -0.41181384205E+03  0.22653510964E+04  0.22276052050E+04 0.  0.
        2    1    3    3  502    0 -0.15829816822E+03 -0.88638072098E+03  0.46081420463E+03  0.10114735903E+04  0.25500000920E-02 0. -1.
       -2    1    3    3    0  502  0.15829816822E+03  0.88638072098E+03 -0.87262804668E+03  0.12538775062E+04  0.25500000920E-02 0.  1.
</event>
<event>
 5   0  0.4005462E-05  0.1920059E+04  0.7818609E-02  0.8644936E-01
       -1   -1    0    0    0  501  0.00000000000E+00  0.00000000000E+00  0.82084052518E+03  0.82084052520E+03  0.50400001928E-02 0.  1.
        1   -1    0    0  501    0  0.00000000000E+00  0.00000000000E+00 -0.11228203654E+04  0.11228203655E+04  0.50400001928E-02 0. -1.
    10030    2    1    2    0    0  0.00000000000E+00  0.00000000000E+00 -0.30197984026E+03  0.19436608907E+04  0.19200588100E+04 0.  0.
        4    1    3    3  502    0  0.45277603505E+03 -0.77439045103E+03 -0.49720003456E+03  0.10256199081E+04  0.12699999809E+01 0. -1.
       -4    1    3    3    0  502 -0.45277603505E+03  0.77439045103E+03  0.19522019429E+03  0.91804098259E+03  0.12699999809E+01 0.  1.
</event>
<event>
 5   0  0.4139830E-05  0.2283370E+04  0.7818609E-02  0.8484507E-01
       -1   -1    0    0    0  501  0.00000000000E+00  0.00000000000E+00  0.16730279703E+04  0.16730279703E+04  0.50400001928E-02 0. -1.
        1   -1    0    0  501    0  0.00000000000E+00  0.00000000000E+00 -0.77909304386E+03  0.77909304387E+03  0.50400001928E-02 0.  1.
    10030    2    1    2    0    0  0.00000000000E+00  0.00000000000E+00  0.89393492644E+03  0.24521210142E+04  0.22833698376E+04 0.  0.
        1    1    3    3  502    0 -0.80906020765E+03  0.79397969808E+02  0.13078088875E+04  0.15398852371E+04  0.50400001928E-02 0. -1.
       -1    1    3    3    0  502  0.80906020765E+03 -0.79397969808E+02 -0.41387396109E+03  0.91223577704E+03  0.50400001928E-02 0.  1.
</event>
<event>
 5   0  0.3885219E-05  0.2315254E+04  0.7818609E-02  0.8471931E-01
        1   -1    0    0  501    0  0.00000000000E+00  0.00000000000E+00  0.92812569857E+03  0.92812569859E+03  0.50400001928E-02 0.  1.
       -1   -1    0    0    0  501  0.00000000000E+00  0.00000000000E+00 -0.14438773894E+04  0.14438773894E+04  0.50400001928E-02 0. -1.
    10030    2    1    2    0    0  0.00000000000E+00  0.00000000000E+00 -0.51575169085E+03  0.23720030880E+04  0.23152535159E+04 0.  0.
        2    1    3    3  502    0  0.13944959573E+03  0.89664392334E+03  0.47854973586E+03  0.10258783382E+04  0.25500000920E-02 0.  1.
       -2    1    3    3    0  502 -0.13944959573E+03 -0.89664392334E+03 -0.99430142671E+03  0.13461247499E+04  0.25500000920E-02 0. -1.
</event>
<event>
 5   0  0.4095451E-05  0.2315264E+04  0.7818609E-02  0.8471927E-01
        1   -1    0    0  501    0  0.00000000000E+00  0.00000000000E+00  0.19907234580E+04  0.19907234580E+04  0.50400001928E-02 0. -1.
       -1   -1    0    0    0  501  0.00000000000E+00  0.00000000000E+00 -0.67317819937E+03  0.67317819938E+03  0.50400001928E-02 0.  1.
    10030    2    1    2    0    0  0.00000000000E+00  0.00000000000E+00  0.13175452587E+04  0.26639016574E+04  0.23152638147E+04 0.  0.
        3    1    3    3  502    0 -0.40116093863E+03  0.31490390229E+03  0.18545023139E+04  0.19233495285E+04  0.10100000352E+00 0. -1.
       -3    1    3    3    0  502  0.40116093863E+03 -0.31490390229E+03 -0.53695705520E+03  0.74055212895E+03  0.10100000352E+00 0.  1.
</event>
<event>
 5   0  0.9312074E-05  0.2305093E+04  0.7818609E-02  0.8475916E-01
        2   -1    0    0  501    0  0.00000000000E+00  0.00000000000E+00  0.10154493411E+04  0.10154493411E+04  0.25500000920E-02 0.  1.
       -2   -1    0    0    0  501  0.00000000000E+00  0.00000000000E+00 -0.13081528492E+04  0.13081528492E+04  0.25500000920E-02 0. -1.
    10030    2    1    2    0    0  0.00000000000E+00  0.00000000000E+00 -0.29270350808E+03  0.23236021903E+04  0.23050925784E+04 0.  0.
        4    1    3    3  502    0 -0.85431757339E+03 -0.43449887122E+03 -0.79158029342E+03  0.12430803510E+04  0.12699999809E+01 0. -1.
       -4    1    3    3    0  502  0.85431757339E+03  0.43449887122E+03  0.49887678534E+03  0.10805218393E+04  0.12699999809E+01 0.  1.
</event>
<event>
 5   0  0.9312074E-05  0.2321243E+04  0.7818609E-02  0.8469592E-01
        2   -1    0    0  501    0  0.00000000000E+00  0.00000000000E+00  0.22022883334E+04  0.22022883334E+04  0.25500000920E-02 0. -1.
       -2   -1    0    0    0  501  0.00000000000E+00  0.00000000000E+00 -0.61165576827E+03  0.61165576827E+03  0.25500000920E-02 0.  1.
    10030    2    1    2    0    0  0.00000000000E+00  0.00000000000E+00  0.15906325651E+04  0.28139441016E+04  0.23212430829E+04 0.  0.
        4    1    3    3  502    0  0.17078170987E+03  0.27042014474E+03 -0.55717800763E+03  0.64245030328E+03  0.12699999809E+01 0.  1.
       -4    1    3    3    0  502 -0.17078170987E+03 -0.27042014474E+03  0.21478105727E+04  0.21714937983E+04  0.12699999809E+01 0. -1.
</event>
<event>
 5   0  0.3885219E-05  0.2285617E+04  0.7818609E-02  0.8483614E-01
       -1   -1    0    0    0  501  0.00000000000E+00  0.00000000000E+00  0.13692973622E+04  0.13692973622E+04  0.50400001928E-02 0. -1.
        1   -1    0    0  501    0  0.00000000000E+00  0.00000000000E+00 -0.95378166024E+03  0.95378166025E+03  0.50400001928E-02 0.  1.
    10030    2    1    2    0    0  0.00000000000E+00  0.00000000000E+00  0.41551570194E+03  0.23230790224E+04  0.22856165133E+04 0.  0.
        2    1    3    3  502    0 -0.11300494210E+03 -0.34275518076E+03  0.13098549587E+04  0.13586652435E+04  0.25500000920E-02 0. -1.
       -2    1    3    3    0  502  0.11300494210E+03  0.34275518076E+03 -0.89433925678E+03  0.96441377899E+03  0.25500000920E-02 0.  1.
</event>
<event>
 5   0  0.9312074E-05  0.2289094E+04  0.7818609E-02  0.8482234E-01
        2   -1    0    0  501    0  0.00000000000E+00  0.00000000000E+00  0.13637410180E+04  0.13637410180E+04  0.25500000920E-02 0. -1.
       -2   -1    0    0    0  501  0.00000000000E+00  0.00000000000E+00 -0.96058385558E+03  0.96058385558E+03  0.25500000920E-02 0.  1.
    10030    2    1    2    0    0  0.00000000000E+00  0.00000000000E+00  0.40315716237E+03  0.23243248735E+04  0.22890937989E+04 0.  0.
        4    1    3    3  502    0  0.10163799085E+04  0.47019909689E+03 -0.38429149754E+02  0.11205327847E+04  0.12699999809E+01 0.  1.
       -4    1    3    3    0  502 -0.10163799085E+04 -0.47019909689E+03  0.44158631213E+03  0.12037920888E+04  0.12699999809E+01 0. -1.
</event>
<event>
 5   0  0.9313463E-05  0.2263126E+04  0.7818609E-02  0.8492603E-01
        2   -1    0    0  501    0  0.00000000000E+00  0.00000000000E+00  0.23456934067E+04  0.23456934067E+04  0.25500000920E-02 0.  1.
       -2   -1    0    0    0  501  0.00000000000E+00  0.00000000000E+00 -0.54586631706E+03  0.54586631707E+03  0.25500000920E-02 0. -1.
    10030    2    1    2    0    0  0.00000000000E+00  0.00000000000E+00  0.17998270896E+04  0.28915597237E+04  0.22631261749E+04 0.  0.
        1    1    3    3  502    0  0.17188547304E+03  0.89253287153E+03  0.38755136485E+02  0.90975903581E+03  0.50400001928E-02 0. -1.
       -1    1    3    3    0  502 -0.17188547304E+03 -0.89253287153E+03  0.17610719531E+04  0.19818006879E+04  0.50400001928E-02 0.  1.
</event>
<event>
 5   0  0.9312074E-05  0.2391991E+04  0.7818609E-02  0.8442508E-01
        2   -1    0    0  501    0  0.00000000000E+00  0.00000000000E+00  0.11532785305E+04  0.11532785305E+04  0.25500000920E-02 0. -1.
       -2   -1    0    0    0  501  0.00000000000E+00  0.00000000000E+00 -0.12402943974E+04  0.12402943974E+04  0.25500000920E-02 0.  1.
    10030    2    1    2    0    0  0.00000000000E+00  0.00000000000E+00 -0.87015866885E+02  0.23935729279E+04  0.23919907190E+04 0.  0.
        4    1    3    3  502    0  0.79877770913E+03  0.42033077089E+03  0.74166355546E+03  0.11682423670E+04  0.12699999809E+01 0. -1.
       -4    1    3    3    0  502 -0.79877770913E+03 -0.42033077089E+03 -0.82867942235E+03  0.12253305609E+04  0.12699999809E+01 0.  1.
</event>
<event>
 5   0  0.4095451E-05  0.2250949E+04  0.7818609E-02  0.8497516E-01
        1   -1    0    0  501    0  0.00000000000E+00  0.00000000000E+00  0.21481729991E+04  0.21481729991E+04  0.50400001928E-02 0. -1.
       -1   -1    0    0    0  501  0.00000000000E+00  0.00000000000E+00 -0.58966077032E+03  0.58966077034E+03  0.50400001928E-02 0.  1.
    10030    2    1    2    0    0  0.00000000000E+00  0.00000000000E+00  0.15585122287E+04  0.27378337694E+04  0.22509494401E+04 0.  0.
        3    1    3    3  502    0 -0.52175647855E+03  0.61094084509E+03  0.17379108708E+04  0.19146312293E+04  0.10100000352E+00 0. -1.
       -3    1    3    3    0  502  0.52175647855E+03 -0.61094084509E+03 -0.17939864205E+03  0.82320254013E+03  0.10100000352E+00 0.  1.
</event>
<event>
 5   0  0.9483073E-05  0.2284834E+04  0.7818609E-02  0.8483925E-01
        2   -1    0    0  501    0  0.00000000000E+00  0.00000000000E+00  0.16891042600E+04  0.16891042600E+04  0.25500000920E-02 0.  1.
       -2   -1    0    0    0  501  0.00000000000E+00  0.00000000000E+00 -0.77266808521E+03  0.77266808522E+03  0.25500000920E-02 0. -1.
    10030    2    1    2    0    0  0.00000000000E+00  0.00000000000E+00  0.91643617476E+03  0.24617723452E+04  0.22848343085E+04 0.  0.
        5    1    3    3  502    0 -0.86304619244E+03  0.67205864815E+03  0.10318019213E+03  0.10987173426E+04  0.46999998093E+01 0. -1.
       -5    1    3    3    0  502  0.86304619244E+03 -0.67205864815E+03  0.81325598263E+03  0.13630550026E+04  0.46999998093E+01 0.  1.
</event>
<event>
 5   0  0.4095451E-05  0.2333121E+04  0.7818609E-02  0.8464975E-01
        1   -1    0    0  501    0  0.00000000000E+00  0.00000000000E+00  0.13600493728E+04  0.13600493728E+04  0.50400001928E-02 0.  1.
       -1   -1    0    0    0  501  0.00000000000E+00  0.00000000000E+00 -0.10005986895E+04  0.10005986895E+04  0.50400001928E-02 0. -1.
    10030    2    1    2    0    0  0.00000000000E+00  0.00000000000E+00  0.35945068335E+03  0.23606480623E+04  0.23331211885E+04 0.  0.
        3    1    3    3  502    0 -0.65564241067E+03 -0.51963442997E+03 -0.64287147014E+03  0.10550690256E+04  0.10100000352E+00 0. -1.
       -3    1    3    3    0  502  0.65564241067E+03  0.51963442997E+03  0.10023221535E+04  0.13055790367E+04  0.10100000352E+00 0.  1.
</event>
<event>
 5   0  0.4095451E-05  0.2284198E+04  0.7818609E-02  0.8484178E-01
       -1   -1    0    0    0  501  0.00000000000E+00  0.00000000000E+00  0.65274002330E+03  0.65274002332E+03  0.50400001928E-02 0.  1.
        1   -1    0    0  501    0  0.00000000000E+00  0.00000000000E+00 -0.19983304542E+04  0.19983304542E+04  0.50400001928E-02 0. -1.
    10030    2    1    2    0    0  0.00000000000E+00  0.00000000000E+00 -0.13455904309E+04  0.26510704775E+04  0.22841981239E+04 0.  0.
        3    1    3    3  502    0  0.22718926051E+02 -0.21579898523E+03 -0.19741862422E+04  0.19860756987E+04  0.10100000352E+00 0. -1.
       -3    1    3    3    0  502 -0.22718926051E+02  0.21579898523E+03  0.62859581135E+03  0.66499477884E+03  0.10100000352E+00 0.  1.
</event>
<event>
 5   0  0.9483073E-05  0.2294131E+04  0.7818609E-02  0.8480239E-01
       -2   -1    0    0    0  501  0.00000000000E+00  0.00000000000E+00  0.97087612564E+03  0.97087612564E+03  0.25500000920E-02 0. -1.
        2   -1    0    0  501    0  0.00000000000E+00  0.00000000000E+00 -0.13552285373E+04  0.13552285374E+04  0.25500000920E-02 0.  1.
    10030    2    1    2    0    0  0.00000000000E+00  0.00000000000E+00 -0.38435241171E+03  0.23261046630E+04  0.22941307999E+04 0.  0.
        5    1    3    3  502    0  0.45211407817E+03  0.10015768032E+04  0.14130544086E+03  0.11079497055E+04  0.46999998093E+01 0.  1.
       -5    1    3    3    0  502 -0.45211407817E+03 -0.10015768032E+04 -0.52565785257E+03  0.12181549575E+04  0.46999998093E+01 0. -1.
</event>
<event>
 5   0  0.4139830E-05  0.2302602E+04  0.7818609E-02  0.8476896E-01
       -1   -1    0    0    0  501  0.00000000000E+00  0.00000000000E+00  0.63004275973E+03  0.63004275975E+03  0.50400001928E-02 0.  1.
        1   -1    0    0  501    0  0.00000000000E+00  0.00000000000E+00 -0.21038166194E+04  0.21038166194E+04  0.50400001928E-02 0. -1.
    10030    2    1    2    0    0  0.00000000000E+00  0.00000000000E+00 -0.14737738597E+04  0.27338593792E+04  0.23026023789E+04 0.  0.
        1    1    3    3  502    0  0.13174984500E+03  0.81920834017E+02  0.61757517787E+03  0.63676380633E+03  0.50400001928E-02 0.  1.
       -1    1    3    3    0  502 -0.13174984500E+03 -0.81920834017E+02 -0.20913490375E+04  0.20970955728E+04  0.50400001928E-02 0. -1.
</event>
<event>
 5   0  0.4005462E-05  0.2287587E+04  0.7818609E-02  0.8482831E-01
        1   -1    0    0  501    0  0.00000000000E+00  0.00000000000E+00  0.11434427156E+04  0.11434427156E+04  0.50400001928E-02 0.  1.
       -1   -1    0    0    0  501  0.00000000000E+00  0.00000000000E+00 -0.11441448645E+04  0.11441448645E+04  0.50400001928E-02 0. -1.
    10030    2    1    2    0    0  0.00000000000E+00  0.00000000000E+00 -0.70214886705E+00  0.22875875801E+04  0.22875874724E+04 0.  0.
        4    1    3    3  502    0 -0.24292569652E+02 -0.24098620267E+03 -0.11182053301E+04  0.11441369027E+04  0.12699999809E+01 0. -1.
       -4    1    3    3    0  502  0.24292569652E+02  0.24098620267E+03  0.11175031813E+04  0.11434506775E+04  0.12699999809E+01 0.  1.
</event>
<event>
 5   0  0.4295775E-05  0.2329751E+04  0.7818609E-02  0.8466282E-01
        1   -1    0    0  501    0  0.00000000000E+00  0.00000000000E+00  0.14579412459E+04  0.14579412459E+04  0.50400001928E-02 0. -1.
       -1   -1    0    0    0  501  0.00000000000E+00  0.00000000000E+00 -0.93072002040E+03  0.93072002042E+03  0.50400001928E-02 0.  1.
    10030    2    1    2    0    0  0.00000000000E+00  0.00000000000E+00  0.52722122546E+03  0.23886612663E+04  0.23297511508E+04 0.  0.
        5    1    3    3  502    0 -0.17055715211E+03 -0.11016414970E+04  0.61010463031E+03  0.12708081995E+04  0.46999998093E+01 0.  1.
       -5    1    3    3    0  502  0.17055715211E+03  0.11016414970E+04 -0.82883404848E+02  0.11178530668E+04  0.46999998093E+01 0. -1.
</event>
<event>
 5   0  0.4005462E-05  0.2385149E+04  0.7818609E-02  0.8445084E-01
       -1   -1    0    0    0  501  0.00000000000E+00  0.00000000000E+00  0.16050221161E+04  0.16050221161E+04  0.50400001928E-02 0. -1.
        1   -1    0    0  501    0  0.00000000000E+00  0.00000000000E+00 -0.88611520650E+03  0.88611520651E+03  0.50400001928E-02 0.  1.
    10030    2    1    2    0    0  0.00000000000E+00  0.00000000000E+00  0.71890690961E+03  0.24911373226E+04  0.23851494745E+04 0.  0.
        4    1    3    3  502    0 -0.27057259400E+03 -0.56383018144E+03  0.14200163744E+04  0.15516320823E+04  0.12699999809E+01 0. -1.
       -4    1    3    3    0  502  0.27057259400E+03  0.56383018144E+03 -0.70110946482E+03  0.93950524037E+03  0.12699999809E+01 0.  1.
</event>
<event>
 5   0  0.4139830E-05  0.2320857E+04  0.7818609E-02  0.8469743E-01
       -1   -1    0    0    0  501  0.00000000000E+00  0.00000000000E+00  0.25257786128E+04  0.25257786128E+04  0.50400001928E-02 0.  1.
        1   -1    0    0  501    0  0.00000000000E+00  0.00000000000E+00 -0.53314023003E+03  0.53314023005E+03  0.50400001928E-02 0. -1.
    10030    2    1    2    0    0  0.00000000000E+00  0.00000000000E+00  0.19926383828E+04  0.30589188429E+04  0.23208569027E+04 0.  0.
        1    1    3    3  502    0 -0.10900811286E+04 -0.30241126542E+03  0.13371338020E+04  0.17514725932E+04  0.50400001928E-02 0. -1.
       -1    1    3    3    0  502  0.10900811286E+04  0.30241126542E+03  0.65550458076E+03  0.13074462496E+04  0.50400001928E-02 0.  1.
</event>
<event>
 5   0  0.9312074E-05  0.1432982E+04  0.7818609E-02  0.8930285E-01
        2   -1    0    0  501    0  0.00000000000E+00  0.00000000000E+00  0.96550007076E+03  0.96550007076E+03  0.25500000920E-02 0.  1.
       -2   -1    0    0    0  501  0.00000000000E+00  0.00000000000E+00 -0.53170297797E+03  0.53170297797E+03  0.25500000920E-02 0. -1.
    10030    2    1    2    0    0  0.00000000000E+00  0.00000000000E+00  0.43379709279E+03  0.14972030487E+04  0.14329818741E+04 0.  0.
        4    1    3    3  502    0  0.45420574336E+03  0.44324044511E+03 -0.13056019105E+03  0.64792941427E+03  0.12699999809E+01 0. -1.
       -4    1    3    3    0  502 -0.45420574336E+03 -0.44324044511E+03  0.56435728384E+03  0.84927363447E+03  0.12699999809E+01 0.  1.
</event>
<event>
 5   0  0.4005462E-05  0.2215197E+04  0.7818609E-02  0.8512129E-01
       -1   -1    0    0    0  501  0.00000000000E+00  0.00000000000E+00  0.61854249222E+03  0.61854249225E+03  0.50400001928E-02 0. -1.
        1   -1    0    0  501    0  0.00000000000E+00  0.00000000000E+00 -0.19833315746E+04  0.19833315747E+04  0.50400001928E-02 0.  1.
    10030    2    1    2    0    0  0.00000000000E+00  0.00000000000E+00 -0.13647890824E+04  0.26018740669E+04  0.22151973773E+04 0.  0.
        4    1    3    3  502    0 -0.87375598786E+02  0.76729472903E+03  0.25017472941E+03  0.81176641011E+03  0.12699999809E+01 0. -1.
       -4    1    3    3    0  502  0.87375598786E+02 -0.76729472903E+03 -0.16149638118E+04  0.17901076568E+04  0.12699999809E+01 0.  1.
</event>
<event>
 5   0  0.4139830E-05  0.2210062E+04  0.7818609E-02  0.8514252E-01
       -1   -1    0    0    0  501  0.00000000000E+00  0.00000000000E+00  0.11699027471E+04  0.11699027471E+04  0.50400001928E-02 0. -1.
        1   -1    0    0  501    0  0.00000000000E+00  0.00000000000E+00 -0.10437568747E+04  0.10437568747E+04  0.50400001928E-02 0.  1.
    10030    2    1    2    0    0  0.00000000000E+00  0.00000000000E+00  0.12614587241E+03  0.22136596218E+04  0.22100624742E+04 0.  0.
        1    1    3    3  502    0 -0.46309053778E+03 -0.24407205977E+03 -0.91168625068E+03  0.10512829478E+04  0.50400001928E-02 0.  1.
       -1    1    3    3    0  502  0.46309053778E+03  0.24407205977E+03  0.10378321231E+04  0.11623766740E+04  0.50400001928E-02 0. -1.
</event>
<event>
 5   0  0.4095451E-05  0.2308830E+04  0.7818609E-02  0.8474448E-01
       -1   -1    0    0    0  501  0.00000000000E+00  0.00000000000E+00  0.70020403689E+03  0.70020403691E+03  0.50400001928E-02 0.  1.
        1   -1    0    0  501    0  0.00000000000E+00  0.00000000000E+00 -0.19032659221E+04  0.19032659222E+04  0.50400001928E-02 0. -1.
    10030    2    1    2    0    0  0.00000000000E+00  0.00000000000E+00 -0.12030618853E+04  0.26034699591E+04  0.23088304243E+04 0.  0.
        3    1    3    3  502    0 -0.90900942493E+03  0.69775616403E+03 -0.44401703180E+03  0.12289478971E+04  0.10100000352E+00 0. -1.
       -3    1    3    3    0  502  0.90900942493E+03 -0.69775616403E+03 -0.75904485345E+03  0.13745220620E+04  0.10100000352E+00 0.  1.
</event>
<event>
 5   0  0.4095451E-05  0.2260619E+04  0.7818609E-02  0.8493612E-01
        1   -1    0    0  501    0  0.00000000000E+00  0.00000000000E+00  0.11424457318E+04  0.11424457318E+04  0.50400001928E-02 0. -1.
       -1   -1    0    0    0  501  0.00000000000E+00  0.00000000000E+00 -0.11183023481E+04  0.11183023481E+04  0.50400001928E-02 0.  1.
    10030    2    1    2    0    0  0.00000000000E+00  0.00000000000E+00  0.24143383747E+02  0.22607480799E+04  0.22606191581E+04 0.  0.
        3    1    3    3  502    0  0.16089196103E+03  0.11014603016E+04 -0.18415039218E+03  0.11282785101E+04  0.10100000352E+00 0.  1.
       -3    1    3    3    0  502 -0.16089196103E+03 -0.11014603016E+04  0.20829377592E+03  0.11324695698E+04  0.10100000352E+00 0. -1.
</event>
<event>
 5   0  0.9312074E-05  0.2377113E+04  0.7818609E-02  0.8448122E-01
        2   -1    0    0  501    0  0.00000000000E+00  0.00000000000E+00  0.21715780058E+04  0.21715780058E+04  0.25500000920E-02 0.  1.
       -2   -1    0    0    0  501  0.00000000000E+00  0.00000000000E+00 -0.65052520844E+03  0.65052520845E+03  0.25500000920E-02 0. -1.
    10030    2    1    2    0    0  0.00000000000E+00  0.00000000000E+00  0.15210527973E+04  0.28221032142E+04  0.23771127317E+04 0.  0.
        4    1    3    3  502    0 -0.72458177019E+02  0.52839773929E+03  0.20215352599E+04  0.20907082002E+04  0.12699999809E+01 0.  1.
       -4    1    3    3    0  502  0.72458177019E+02 -0.52839773929E+03 -0.50048246259E+03  0.73139501404E+03  0.12699999809E+01 0. -1.
</event>
<event>
 5   0  0.3885219E-05  0.2179453E+04  0.7818609E-02  0.8527029E-01
        1   -1    0    0  501    0  0.00000000000E+00  0.00000000000E+00  0.70320638663E+03  0.70320638665E+03  0.50400001928E-02 0.  1.
       -1   -1    0    0    0  501  0.00000000000E+00  0.00000000000E+00 -0.16886988005E+04  0.16886988005E+04  0.50400001928E-02 0. -1.
    10030    2    1    2    0    0  0.00000000000E+00  0.00000000000E+00 -0.98549241391E+03  0.23919051872E+04  0.21794529421E+04 0.  0.
        2    1    3    3  502    0 -0.22178608034E+03  0.86591613268E+03  0.19131378885E+03  0.91411201725E+03  0.25500000920E-02 0.  1.
       -2    1    3    3    0  502  0.22178608034E+03 -0.86591613268E+03 -0.11768062028E+04  0.14777931699E+04  0.25500000920E-02 0. -1.
</event>
<event>
 5   0  0.4005462E-05  0.2306732E+04  0.7818609E-02  0.8475271E-01
        1   -1    0    0  501    0  0.00000000000E+00  0.00000000000E+00  0.15099151491E+04  0.15099151491E+04  0.50400001928E-02 0.  1.
       -1   -1    0    0    0  501  0.00000000000E+00  0.00000000000E+00 -0.88101213527E+03  0.88101213529E+03  0.50400001928E-02 0. -1.
    10030    2    1    2    0    0  0.00000000000E+00  0.00000000000E+00  0.62890301381E+03  0.23909272844E+04  0.23067323812E+04 0.  0.
        4    1    3    3  502    0  0.11205933503E+04  0.10680700494E+03  0.54055310539E+02  0.11269697345E+04  0.12699999809E+01 0. -1.
       -4    1    3    3    0  502 -0.11205933503E+04 -0.10680700494E+03  0.57484770327E+03  0.12639575499E+04  0.12699999809E+01 0.  1.
</event>
<event>
 5   0  0.9312074E-05  0.2303881E+04  0.7818609E-02  0.8476393E-01
        2   -1    0    0  501    0  0.00000000000E+00  0.00000000000E+00  0.12169021580E+04  0.12169021580E+04  0.25500000920E-02 0. -1.
       -2   -1    0    0    0  501  0.00000000000E+00  0.00000000000E+00 -0.10904465245E+04  0.10904465245E+04  0.25500000920E-02 0.  1.
    10030    2    1    2    0    0  0.00000000000E+00  0.00000000000E+00  0.12645563347E+03  0.23073486825E+04  0.23038808379E+04 0.  0.
        4    1    3    3  502    0  0.40906973524E+03 -0.77162422362E+03  0.81550633027E+03  0.11949034180E+04  0.12699999809E+01 0. -1.
       -4    1    3    3    0  502 -0.40906973524E+03  0.77162422362E+03 -0.68905069680E+03  0.11124452645E+04  0.12699999809E+01 0.  1.
</event>
<event>
 5   0  0.9483073E-05  0.2346375E+04  0.7818609E-02  0.8459857E-01
       -2   -1    0    0    0  501  0.00000000000E+00  0.00000000000E+00  0.77642205495E+03  0.77642205495E+03  0.25500000920E-02 0.  1.
        2   -1    0    0  501    0  0.00000000000E+00  0.00000000000E+00 -0.17727076672E+04  0.17727076672E+04  0.25500000920E-02 0. -1.
    10030    2    1    2    0    0  0.00000000000E+00  0.00000000000E+00 -0.99628561223E+03  0.25491297221E+04  0.23463753577E+04 0.  0.
        5    1    3    3  502    0 -0.94125022877E+02  0.95992169444E+02  0.76801552649E+03  0.77970760895E+03  0.46999998093E+01 0.  1.
       -5    1    3    3    0  502  0.94125022877E+02 -0.95992169444E+02 -0.17643011387E+04  0.17694221132E+04  0.46999998093E+01 0. -1.
</event>
<event>
 5   0  0.4005462E-05  0.2291886E+04  0.7818609E-02  0.8481127E-01
        1   -1    0    0  501    0  0.00000000000E+00  0.00000000000E+00  0.11853036587E+04  0.11853036587E+04  0.50400001928E-02 0.  1.
       -1   -1    0    0    0  501  0.00000000000E+00  0.00000000000E+00 -0.11078897993E+04  0.11078897993E+04  0.50400001928E-02 0. -1.
    10030    2    1    2    0    0  0.00000000000E+00  0.00000000000E+00  0.77413859343E+02  0.22931934580E+04  0.22918864130E+04 0.  0.
        4    1    3    3  502    0  0.56604187284E+03  0.99630629584E+03  0.51147150325E+02  0.11470166873E+04  0.12699999809E+01 0. -1.
       -4    1    3    3    0  502 -0.56604187284E+03 -0.99630629584E+03  0.26266709018E+02  0.11461767708E+04  0.12699999809E+01 0.  1.
</event>
<event>
 5   0  0.9312074E-05  0.2335558E+04  0.7818609E-02  0.8464032E-01
        2   -1    0    0  501    0  0.00000000000E+00  0.00000000000E+00  0.90295499889E+03  0.90295499890E+03  0.25500000920E-02 0.  1.
       -2   -1    0    0    0  501  0.00000000000E+00  0.00000000000E+00 -0.15102716807E+04  0.15102716807E+04  0.25500000920E-02 0. -1.
    10030    2    1    2    0    0  0.00000000000E+00  0.00000000000E+00 -0.60731668178E+03  0.24132266796E+04  0.23355576326E+04 0.  0.
        4    1    3    3  502    0 -0.99575993810E+03 -0.14400148731E+03 -0.91618903048E+03  0.13607638425E+04  0.12699999809E+01 0. -1.
       -4    1    3    3    0  502  0.99575993810E+03  0.14400148731E+03  0.30887234870E+03  0.10524628370E+04  0.12699999809E+01 0.  1.
</event>
<event>
 5   0  0.9641157E-05  0.2287195E+04  0.7818609E-02  0.8482987E-01
        2   -1    0    0  501    0  0.00000000000E+00  0.00000000000E+00  0.14333363102E+04  0.14333363102E+04  0.25500000920E-02 0.  1.
       -2   -1    0    0    0  501  0.00000000000E+00  0.00000000000E+00 -0.91242756221E+03  0.91242756221E+03  0.25500000920E-02 0. -1.
    10030    2    1    2    0    0  0.00000000000E+00  0.00000000000E+00  0.52090874802E+03  0.23457638724E+04  0.22871952740E+04 0.  0.
        3    1    3    3  502    0  0.87339517991E+03  0.24691437579E+02  0.10171736843E+04  0.13409217433E+04  0.10100000352E+00 0.  1.
       -3    1    3    3    0  502 -0.87339517991E+03 -0.24691437579E+02 -0.49626493627E+03  0.10048421292E+04  0.10100000352E+00 0. -1.
</event>
<event>
 5   0  0.4295775E-05  0.2150547E+04  0.7818609E-02  0.8539298E-01
       -1   -1    0    0    0  501  0.00000000000E+00  0.00000000000E+00  0.43102635104E+03  0.43102635107E+03  0.50400001928E-02 0. -1.
        1   -1    0    0  501    0  0.00000000000E+00  0.00000000000E+00 -0.26824648454E+04  0.26824648454E+04  0.50400001928E-02 0.  1.
    10030    2    1    2    0    0  0.00000000000E+00  0.00000000000E+00 -0.22514384944E+04  0.31134911965E+04  0.21505469390E+04 0.  0.
        5    1    3    3  502    0  0.10581625261E+04  0.18366670305E+03 -0.10498038441E+04  0.15018493901E+04  0.46999998093E+01 0. -1.
       -5    1    3    3    0  502 -0.10581625261E+04 -0.18366670305E+03 -0.12016346503E+04  0.16116418064E+04  0.46999998093E+01 0.  1.
</event>
<event>
 5   0  0.9535394E-05  0.2257953E+04  0.7818609E-02  0.8494687E-01
       -2   -1    0    0    0  501  0.00000000000E+00  0.00000000000E+00  0.97888987049E+03  0.97888987050E+03  0.25500000920E-02 0. -1.
        2   -1    0    0  501    0  0.00000000000E+00  0.00000000000E+00 -0.13020751352E+04  0.13020751352E+04  0.25500000920E-02 0.  1.
    10030    2    1    2    0    0  0.00000000000E+00  0.00000000000E+00 -0.32318526471E+03  0.22809650057E+04  0.22579531975E+04 0.  0.
        2    1    3    3  502    0  0.96262135755E+03 -0.36137725295E+02 -0.75635638802E+03  0.12247533625E+04  0.25500000920E-02 0.  1.
       -2    1    3    3    0  502 -0.96262135755E+03  0.36137725295E+02  0.43317112330E+03  0.10562116432E+04  0.25500000920E-02 0. -1.
</event>
<event>
 5   0  0.4295775E-05  0.2328184E+04  0.7818609E-02  0.8466891E-01
        1   -1    0    0  501    0  0.00000000000E+00  0.00000000000E+00  0.14643741151E+04  0.14643741152E+04  0.50400001928E-02 0. -1.
       -1   -1    0    0    0  501  0.00000000000E+00  0.00000000000E+00 -0.92538494673E+03  0.92538494674E+03  0.50400001928E-02 0.  1.
    10030    2    1    2    0    0  0.00000000000E+00  0.00000000000E+00  0.53898916842E+03  0.23897590619E+04  0.23281836376E+04 0.  0.
        5    1    3    3  502    0  0.62502361365E+03 -0.61319187725E+03 -0.51788449805E+03  0.10172930941E+04  0.46999998093E+01 0.  1.
       -5    1    3    3    0  502 -0.62502361365E+03  0.61319187725E+03  0.10568736665E+04  0.13724659678E+04  0.46999998093E+01 0. -1.
</event>
<event>
 5   0  0.9535394E-05  0.2310504E+04  0.7818609E-02  0.8473791E-01
       -2   -1    0    0    0  501  0.00000000000E+00  0.00000000000E+00  0.10072932878E+04  0.10072932878E+04  0.25500000920E-02 0.  1.
        2   -1    0    0  501    0  0.00000000000E+00  0.00000000000E+00 -0.13249444746E+04  0.13249444746E+04  0.25500000920E-02 0. -1.
    10030    2    1    2    0    0  0.00000000000E+00  0.00000000000E+00 -0.31765118684E+03  0.23322377624E+04  0.23105044263E+04 0.  0.
        2    1    3    3  502    0 -0.59108401122E+03  0.93487477062E+03  0.17783302457E+03  0.11202659192E+04  0.25500000920E-02 0.  1.
       -2    1    3    3    0  502  0.59108401122E+03 -0.93487477062E+03 -0.49548421141E+03  0.12119718432E+04  0.25500000920E-02 0. -1.
</event>
<event>
 5   0  0.4095451E-05  0.2319443E+04  0.7818609E-02  0.8470294E-01
       -1   -1    0    0    0  501  0.00000000000E+00  0.00000000000E+00  0.95832336157E+03  0.95832336158E+03  0.50400001928E-02 0.  1.
        1   -1    0    0  501    0  0.00000000000E+00  0.00000000000E+00 -0.14034451629E+04  0.14034451629E+04  0.50400001928E-02 0. -1.
    10030    2    1    2    0    0  0.00000000000E+00  0.00000000000E+00 -0.44512180136E+03  0.23617685245E+04  0.23194432835E+04 0.  0.
        3    1    3    3  502    0 -0.44525770082E+03 -0.99595186458E+03  0.17803880759E+03  0.11053833561E+04  0.10100000352E+00 0.  1.
       -3    1    3    3    0  502  0.44525770082E+03  0.99595186458E+03 -0.62316060896E+03  0.12563851684E+04  0.10100000352E+00 0. -1.
</event>
<event>
 5   0  0.9641157E-05  0.2264183E+04  0.7818609E-02  0.8492178E-01
       -2   -1    0    0    0  501  0.00000000000E+00  0.00000000000E+00  0.16218041149E+04  0.16218041149E+04  0.25500000920E-02 0.  1.
        2   -1    0    0  501    0  0.00000000000E+00  0.00000000000E+00 -0.79025050722E+03  0.79025050723E+03  0.25500000920E-02 0. -1.
    10030    2    1    2    0    0  0.00000000000E+00  0.00000000000E+00  0.83155360772E+03  0.24120546222E+04  0.22641833181E+04 0.  0.
        3    1    3    3  502    0  0.49634346866E+03 -0.10158971713E+04  0.47629922008E+03  0.12268923583E+04  0.10100000352E+00 0.  1.
       -3    1    3    3    0  502 -0.49634346866E+03  0.10158971713E+04  0.35525438764E+03  0.11851622639E+04  0.10100000352E+00 0. -1.
</event>
<event>
 5   0  0.4005462E-05  0.2294729E+04  0.7818609E-02  0.8480002E-01
       -1   -1    0    0    0  501  0.00000000000E+00  0.00000000000E+00  0.10207809730E+04  0.10207809730E+04  0.50400001928E-02 0.  1.
        1   -1    0    0  501    0  0.00000000000E+00  0.00000000000E+00 -0.12896453155E+04  0.12896453156E+04  0.50400001928E-02 0. -1.
    10030    2    1    2    0    0  0.00000000000E+00  0.00000000000E+00 -0.26886434256E+03  0.23104262886E+04  0.22947290908E+04 0.  0.
        4    1    3    3  502    0  0.22569746358E+03 -0.36856676773E+03  0.93569439191E+03  0.10306824997E+04  0.12699999809E+01 0.  1.
       -4    1    3    3    0  502 -0.22569746358E+03  0.36856676773E+03 -0.12045587345E+04  0.12797437888E+04  0.12699999809E+01 0. -1.
</event>
<event>
 5   0  0.4139830E-05  0.2307208E+04  0.7818609E-02  0.8475085E-01
        1   -1    0    0  501    0  0.00000000000E+00  0.00000000000E+00  0.15780650785E+04  0.15780650785E+04  0.50400001928E-02 0.  1.
       -1   -1    0    0    0  501  0.00000000000E+00  0.00000000000E+00 -0.84331238956E+03  0.84331238957E+03  0.50400001928E-02 0. -1.
    10030    2    1    2    0    0  0.00000000000E+00  0.00000000000E+00  0.73475268898E+03  0.24213774681E+04  0.23072076909E+04 0.  0.
        1    1    3    3  502    0 -0.10097668343E+04 -0.50979891994E+03  0.60502788936E+03  0.12828026915E+04  0.50400001928E-02 0.  1.
       -1    1    3    3    0  502  0.10097668343E+04  0.50979891994E+03  0.12972479962E+03  0.11385747766E+04  0.50400001928E-02 0. -1.
</event>
<event>
 5   0  0.9535394E-05  0.2315221E+04  0.7818609E-02  0.8471944E-01
       -2   -1    0    0    0  501  0.00000000000E+00  0.00000000000E+00  0.11309825850E+04  0.11309825850E+04  0.25500000920E-02 0. -1.
        2   -1    0    0  501    0  0.00000000000E+00  0.00000000000E+00 -0.11848648343E+04  0.11848648343E+04  0.25500000920E-02 0.  1.
    10030    2    1    2    0    0  0.00000000000E+00  0.00000000000E+00 -0.53882249284E+02  0.23158474194E+04  0.23152205020E+04 0.  0.
        2    1    3    3  502    0 -0.11092587522E+04 -0.11696709166E+03  0.28286069868E+03  0.11507156273E+04  0.25500000920E-02 0. -1.
       -2    1    3    3    0  502  0.11092587522E+04  0.11696709166E+03 -0.33674294796E+03  0.11651317921E+04  0.25500000920E-02 0.  1.
</event>
<event>
 5   0  0.4095451E-05  0.2313323E+04  0.7818609E-02  0.8472686E-01
       -1   -1    0    0    0  501  0.00000000000E+00  0.00000000000E+00  0.10973092434E+04  0.10973092434E+04  0.50400001928E-02 0.  1.
        1   -1    0    0  501    0  0.00000000000E+00  0.00000000000E+00 -0.12192241721E+04  0.12192241721E+04  0.50400001928E-02 0. -1.
    10030    2    1    2    0    0  0.00000000000E+00  0.00000000000E+00 -0.12191492862E+03  0.23165334155E+04  0.23133231109E+04 0.  0.
        3    1    3    3  502    0 -0.97493264641E+03 -0.29187360934E+03  0.48951629582E+03  0.11292962777E+04  0.10100000352E+00 0.  1.
       -3    1    3    3    0  502  0.97493264641E+03  0.29187360934E+03 -0.61143122444E+03  0.11872371378E+04  0.10100000352E+00 0. -1.
</event>
<event>
 5   0  0.9312074E-05  0.2234265E+04  0.7818609E-02  0.8504300E-01
       -2   -1    0    0    0  501  0.00000000000E+00  0.00000000000E+00  0.50819630823E+03  0.50819630824E+03  0.25500000920E-02 0.  1.
        2   -1    0    0  501    0  0.00000000000E+00  0.00000000000E+00 -0.24557134319E+04  0.24557134319E+04  0.25500000920E-02 0. -1.
    10030    2    1    2    0    0  0.00000000000E+00  0.00000000000E+00 -0.19475171236E+04  0.29639097401E+04  0.22342645324E+04 0.  0.
        4    1    3    3  502    0  0.46480827787E+02 -0.43950964561E+03 -0.23348056207E+04  0.23762676817E+04  0.12699999809E+01 0. -1.
       -4    1    3    3    0  502 -0.46480827787E+02  0.43950964561E+03  0.38728849704E+03  0.58764205838E+03  0.12699999809E+01 0.  1.
</event>
<event>
 5   0  0.9641157E-05  0.2275233E+04  0.7818609E-02  0.8487751E-01
        2   -1    0    0  501    0  0.00000000000E+00  0.00000000000E+00  0.16006152952E+04  0.16006152952E+04  0.25500000920E-02 0. -1.
       -2   -1    0    0    0  501  0.00000000000E+00  0.00000000000E+00 -0.80854619022E+03  0.80854619022E+03  0.25500000920E-02 0.  1.
    10030    2    1    2    0    0  0.00000000000E+00  0.00000000000E+00  0.79206910494E+03  0.24091614854E+04  0.22752330860E+04 0.  0.
        3    1    3    3  502    0 -0.41093086172E+03  0.60163527092E+03 -0.52908882996E+03  0.90042444021E+03  0.10100000352E+00 0.  1.
       -3    1    3    3    0  502  0.41093086172E+03 -0.60163527092E+03  0.13211579349E+04  0.15087370452E+04  0.10100000352E+00 0. -1.
</event>
<event>
 5   0  0.9483073E-05  0.2349461E+04  0.7818609E-02  0.8458671E-01
       -2   -1    0    0    0  501  0.00000000000E+00  0.00000000000E+00  0.88303605267E+03  0.88303605267E+03  0.25500000920E-02 0.  1.
        2   -1    0    0  501    0  0.00000000000E+00  0.00000000000E+00 -0.15627807861E+04  0.15627807862E+04  0.25500000920E-02 0. -1.
    10030    2    1    2    0    0  0.00000000000E+00  0.00000000000E+00 -0.67974473348E+03  0.24458168388E+04  0.23494610247E+04 0.  0.
        5    1    3    3  502    0 -0.18511037569E+03  0.11125907127E+04 -0.68173937070E+03  0.13179205609E+04  0.46999998093E+01 0.  1.
       -5    1    3    3    0  502  0.18511037569E+03 -0.11125907127E+04  0.19946372153E+01  0.11278962779E+04  0.46999998093E+01 0. -1.
</event>
<event>
 5   0  0.4005462E-05  0.2036169E+04  0.7818609E-02  0.8589895E-01
       -1   -1    0    0    0  501  0.00000000000E+00  0.00000000000E+00  0.59277005533E+03  0.59277005535E+03  0.50400001928E-02 0.  1.
        1   -1    0    0  501    0  0.00000000000E+00  0.00000000000E+00 -0.17485640773E+04  0.17485640773E+04  0.50400001928E-02 0. -1.
    10030    2    1    2    0    0  0.00000000000E+00  0.00000000000E+00 -0.11557940219E+04  0.23413341326E+04  0.20361693690E+04 0.  0.
        4    1    3    3  502    0 -0.87747412323E+03 -0.51443967250E+03 -0.62783109940E+03  0.11953169102E+04  0.12699999809E+01 0. -1.
       -4    1    3    3    0  502  0.87747412323E+03  0.51443967250E+03 -0.52796292253E+03  0.11460172224E+04  0.12699999809E+01 0.  1.
</event>
<event>
 5   0  0.4095451E-05  0.2300450E+04  0.7818609E-02  0.8477744E-01
       -1   -1    0    0    0  501  0.00000000000E+00  0.00000000000E+00  0.13665828743E+04  0.13665828743E+04  0.50400001928E-02 0. -1.
        1   -1    0    0  501    0  0.00000000000E+00  0.00000000000E+00 -0.96812104532E+03  0.96812104534E+03  0.50400001928E-02 0.  1.
    10030    2    1    2    0    0  0.00000000000E+00  0.00000000000E+00  0.39846182898E+03  0.23347039196E+04  0.23004500784E+04 0.  0.
        3    1    3    3  502    0 -0.65553884785E+03  0.67779305935E+03 -0.46927511024E+03  0.10532586347E+04  0.10100000352E+00 0.  1.
       -3    1    3    3    0  502  0.65553884785E+03 -0.67779305935E+03  0.86773693922E+03  0.12814452849E+04  0.10100000352E+00 0. -1.
</event>
<event>
 5   0  0.4295775E-05  0.2281346E+04  0.7818609E-02  0.8485313E-01
       -1   -1    0    0    0  501  0.00000000000E+00  0.00000000000E+00  0.96348363955E+03  0.96348363956E+03  0.50400001928E-02 0. -1.
        1   -1    0    0  501    0  0.00000000000E+00  0.00000000000E+00 -0.13504479792E+04  0.13504479792E+04  0.50400001928E-02 0.  1.
    10030    2    1    2    0    0  0.00000000000E+00  0.00000000000E+00 -0.38696433962E+03  0.23139316187E+04  0.22813456854E+04 0.  0.
        5    1    3    3  502    0  0.10842304696E+04 -0.89558240822E+02 -0.54121442469E+03  0.12151179092E+04  0.46999998093E+01 0.  1.
       -5    1    3    3    0  502 -0.10842304696E+04  0.89558240822E+02  0.15425008507E+03  0.10988137096E+04  0.46999998093E+01 0. -1.
</event>
<event>
 5   0  0.9312074E-05  0.2280168E+04  0.7818609E-02  0.8485782E-01
        2   -1    0    0  501    0  0.00000000000E+00  0.00000000000E+00  0.14196969656E+04  0.14196969656E+04  0.25500000920E-02 0. -1.
       -2   -1    0    0    0  501  0.00000000000E+00  0.00000000000E+00 -0.91554134329E+03  0.91554134330E+03  0.25500000920E-02 0.  1.
    10030    2    1    2    0    0  0.00000000000E+00  0.00000000000E+00  0.50415562229E+03  0.23352383089E+04  0.22801677719E+04 0.  0.
        4    1    3    3  502    0 -0.95764517875E+03 -0.57104844426E+03  0.49575074840E+03  0.12202258117E+04  0.12699999809E+01 0.  1.
       -4    1    3    3    0  502  0.95764517875E+03  0.57104844426E+03  0.84048738918E+01  0.11150124972E+04  0.12699999809E+01 0. -1.
</event>
<event>
 5   0  0.9313463E-05  0.2295658E+04  0.7818609E-02  0.8479635E-01
        2   -1    0    0  501    0  0.00000000000E+00  0.00000000000E+00  0.77460879625E+03  0.77460879626E+03  0.25500000920E-02 0. -1.
       -2   -1    0    0    0  501  0.00000000000E+00  0.00000000000E+00 -0.17008735933E+04  0.17008735933E+04  0.25500000920E-02 0.  1.
    10030    2    1    2    0    0  0.00000000000E+00  0.00000000000E+00 -0.92626479700E+03  0.24754823895E+04  0.22956582034E+04 0.  0.
        1    1    3    3  502    0  0.23434153175E+03  0.11125780819E+04 -0.63283088110E+03  0.13012382050E+04  0.50400001928E-02 0.  1.
       -1    1    3    3    0  502 -0.23434153175E+03 -0.11125780819E+04 -0.29343391590E+03  0.11742441846E+04  0.50400001928E-02 0. -1.
</event>
<event>
 5   0  0.9483073E-05  0.2309034E+04  0.7818609E-02  0.8474368E-01
        2   -1    0    0  501    0  0.00000000000E+00  0.00000000000E+00  0.10358023102E+04  0.10358023102E+04  0.25500000920E-02 0. -1.
       -2   -1    0    0    0  501  0.00000000000E+00  0.00000000000E+00 -0.12868373567E+04  0.12868373567E+04  0.25500000920E-02 0.  1.
    10030    2    1    2    0    0  0.00000000000E+00  0.00000000000E+00 -0.25103504651E+03  0.23226396670E+04  0.23090336567E+04 0.  0.
        5    1    3    3  502    0 -0.67083931948E+03  0.59509998576E+03 -0.85693186554E+03  0.12403724029E+04  0.46999998093E+01 0.  1.
       -5    1    3    3    0  502  0.67083931948E+03 -0.59509998576E+03  0.60589681903E+03  0.10822672641E+04  0.46999998093E+01 0. -1.
</event>
<event>
 5   0  0.9312074E-05  0.2310661E+04  0.7818609E-02  0.8473730E-01
       -2   -1    0    0    0  501  0.00000000000E+00  0.00000000000E+00  0.13001003145E+04  0.13001003145E+04  0.25500000920E-02 0.  1.
        2   -1    0    0  501    0  0.00000000000E+00  0.00000000000E+00 -0.10266809081E+04  0.10266809081E+04  0.25500000920E-02 0. -1.
    10030    2    1    2    0    0  0.00000000000E+00  0.00000000000E+00  0.27341940645E+03  0.23267812226E+04  0.23106606600E+04 0.  0.
        4    1    3    3  502    0 -0.63653939106E+03  0.96232082368E+03  0.19664633884E+03  0.11704337485E+04  0.12699999809E+01 0.  1.
       -4    1    3    3    0  502  0.63653939106E+03 -0.96232082368E+03  0.76773067607E+02  0.11563474741E+04  0.12699999809E+01 0. -1.
</event>
<event>
 5   0  0.9535394E-05  0.2280860E+04  0.7818609E-02  0.8485506E-01
        2   -1    0    0  501    0  0.00000000000E+00  0.00000000000E+00  0.13414341889E+04  0.13414341889E+04  0.25500000920E-02 0. -1.
       -2   -1    0    0    0  501  0.00000000000E+00  0.00000000000E+00 -0.96954493329E+03  0.96954493329E+03  0.25500000920E-02 0.  1.
    10030    2    1    2    0    0  0.00000000000E+00  0.00000000000E+00  0.37188925557E+03  0.23109791222E+04  0.22808601195E+04 0.  0.
        2    1    3    3  502    0  0.66104083121E+03 -0.44468233748E+03 -0.64083530874E+03  0.10224418099E+04  0.25500000920E-02 0.  1.
       -2    1    3    3    0  502 -0.66104083121E+03  0.44468233748E+03  0.10127245643E+04  0.12885373122E+04  0.25500000920E-02 0. -1.
</event>
<event>
 5   0  0.9483073E-05  0.2279578E+04  0.7818609E-02  0.8486017E-01
       -2   -1    0    0    0  501  0.00000000000E+00  0.00000000000E+00  0.59805751101E+03  0.59805751101E+03  0.25500000920E-02 0.  1.
        2   -1    0    0  501    0  0.00000000000E+00  0.00000000000E+00 -0.21722314986E+04  0.21722314986E+04  0.25500000920E-02 0. -1.
    10030    2    1    2    0    0  0.00000000000E+00  0.00000000000E+00 -0.15741739875E+04  0.27702890096E+04  0.22795783499E+04 0.  0.
        5    1    3    3  502    0 -0.40730943761E+03 -0.60629102292E+03  0.27625665749E+03  0.78091588103E+03  0.46999998093E+01 0.  1.
       -5    1    3    3    0  502  0.40730943761E+03  0.60629102292E+03 -0.18504306450E+04  0.19893731285E+04  0.46999998093E+01 0. -1.
</event>
<event>
 5   0  0.9483073E-05  0.2272096E+04  0.7818609E-02  0.8489005E-01
        2   -1    0    0  501    0  0.00000000000E+00  0.00000000000E+00  0.13227924751E+04  0.13227924751E+04  0.25500000920E-02 0. -1.
       -2   -1    0    0    0  501  0.00000000000E+00  0.00000000000E+00 -0.97566703068E+03  0.97566703069E+03  0.25500000920E-02 0.  1.
    10030    2    1    2    0    0  0.00000000000E+00  0.00000000000E+00  0.34712544439E+03  0.22984595058E+04  0.22720959543E+04 0.  0.
        5    1    3    3  502    0 -0.13604771597E+03 -0.92199706098E+03 -0.48358653847E+03  0.10499836149E+04  0.46999998093E+01 0.  1.
       -5    1    3    3    0  502  0.13604771597E+03  0.92199706098E+03  0.83071198286E+03  0.12484758908E+04  0.46999998093E+01 0. -1.
</event>
<event>
 5   0  0.3885219E-05  0.2266292E+04  0.7818609E-02  0.8491332E-01
        1   -1    0    0  501    0  0.00000000000E+00  0.00000000000E+00  0.10221689771E+04  0.10221689771E+04  0.50400001928E-02 0.  1.
       -1   -1    0    0    0  501  0.00000000000E+00  0.00000000000E+00 -0.12561713470E+04  0.12561713470E+04  0.50400001928E-02 0. -1.
    10030    2    1    2    0    0  0.00000000000E+00  0.00000000000E+00 -0.23400236986E+03  0.22783403242E+04  0.22662915796E+04 0.  0.
        2    1    3    3  502    0 -0.10215308277E+04  0.33714781584E+03 -0.47502020695E+03  0.11759413585E+04  0.25500000920E-02 0.  1.
       -2    1    3    3    0  502  0.10215308277E+04 -0.33714781584E+03  0.24101783709E+03  0.11023989656E+04  0.25500000920E-02 0. -1.
</event>
<event>
 5   0  0.3885219E-05  0.2174954E+04  0.7818609E-02  0.8528926E-01
        1   -1    0    0  501    0  0.00000000000E+00  0.00000000000E+00  0.25512924889E+04  0.25512924889E+04  0.50400001928E-02 0.  1.
       -1   -1    0    0    0  501  0.00000000000E+00  0.00000000000E+00 -0.46353207012E+03  0.46353207015E+03  0.50400001928E-02 0. -1.
    10030    2    1    2    0    0  0.00000000000E+00  0.00000000000E+00  0.20877604188E+04  0.30148245591E+04  0.21749536905E+04 0.  0.
        2    1    3    3  502    0 -0.69456747342E+02 -0.33742083846E+03  0.24736572478E+04  0.24975302283E+04  0.25500000920E-02 0.  1.
       -2    1    3    3    0  502  0.69456747342E+02  0.33742083846E+03 -0.38589682898E+03  0.51729433073E+03  0.25500000920E-02 0. -1.
</event>
<event>
 5   0  0.3885219E-05  0.2275205E+04  0.7818609E-02  0.8487762E-01
       -1   -1    0    0    0  501  0.00000000000E+00  0.00000000000E+00  0.12387806012E+04  0.12387806012E+04  0.50400001928E-02 0. -1.
        1   -1    0    0  501    0  0.00000000000E+00  0.00000000000E+00 -0.10446882950E+04  0.10446882951E+04  0.50400001928E-02 0.  1.
    10030    2    1    2    0    0  0.00000000000E+00  0.00000000000E+00  0.19409230612E+03  0.22834688962E+04  0.22752051285E+04 0.  0.
        2    1    3    3  502    0  0.89265926777E+03 -0.12240715252E+03 -0.59996569186E+03  0.10824892197E+04  0.25500000920E-02 0.  1.
       -2    1    3    3    0  502 -0.89265926777E+03  0.12240715252E+03  0.79405799797E+03  0.12009796765E+04  0.25500000920E-02 0. -1.
</event>
<event>
 5   0  0.4295775E-05  0.2302647E+04  0.7818609E-02  0.8476878E-01
       -1   -1    0    0    0  501  0.00000000000E+00  0.00000000000E+00  0.10195605938E+04  0.10195605938E+04  0.50400001928E-02 0.  1.
        1   -1    0    0  501    0  0.00000000000E+00  0.00000000000E+00 -0.13001142956E+04  0.13001142956E+04  0.50400001928E-02 0. -1.
    10030    2    1    2    0    0  0.00000000000E+00  0.00000000000E+00 -0.28055370176E+03  0.23196748894E+04  0.23026465671E+04 0.  0.
        5    1    3    3  502    0  0.66893613730E+03 -0.10179380497E+03 -0.10786618416E+04  0.12733306691E+04  0.46999998093E+01 0. -1.
       -5    1    3    3    0  502 -0.66893613730E+03  0.10179380497E+03  0.79810813980E+03  0.10463442203E+04  0.46999998093E+01 0.  1.
</event>
<event>
 5   0  0.9641157E-05  0.1893756E+04  0.7818609E-02  0.8657971E-01
       -2   -1    0    0    0  501  0.00000000000E+00  0.00000000000E+00  0.57519827779E+03  0.57519827779E+03  0.25500000920E-02 0.  1.
        2   -1    0    0  501    0  0.00000000000E+00  0.00000000000E+00 -0.15587287865E+04  0.15587287865E+04  0.25500000920E-02 0. -1.
    10030    2    1    2    0    0  0.00000000000E+00  0.00000000000E+00 -0.98353050867E+03  0.21339270643E+04  0.18937561760E+04 0.  0.
        3    1    3    3  502    0 -0.89939310127E+01 -0.77343062501E+03 -0.11072025291E+04  0.13506195886E+04  0.10100000352E+00 0.  1.
       -3    1    3    3    0  502  0.89939310127E+01  0.77343062501E+03  0.12367202046E+03  0.78330747561E+03  0.10100000352E+00 0. -1.
</event>
<event>
 5   0  0.4139830E-05  0.2369880E+04  0.7818609E-02  0.8450867E-01
       -1   -1    0    0    0  501  0.00000000000E+00  0.00000000000E+00  0.14753740851E+04  0.14753740851E+04  0.50400001928E-02 0.  1.
        1   -1    0    0  501    0  0.00000000000E+00  0.00000000000E+00 -0.95167881163E+03  0.95167881165E+03  0.50400001928E-02 0. -1.
    10030    2    1    2    0    0  0.00000000000E+00  0.00000000000E+00  0.52369527343E+03  0.24270528967E+04  0.23698795379E+04 0.  0.
        1    1    3    3  502    0 -0.39080801387E+03 -0.43630828848E+03 -0.79304408728E+03  0.98590808430E+03  0.50400001928E-02 0. -1.
       -1    1    3    3    0  502  0.39080801387E+03  0.43630828848E+03  0.13167393607E+04  0.14411448124E+04  0.50400001928E-02 0.  1.
</event>
<event>
 5   0  0.3885219E-05  0.2309110E+04  0.7818609E-02  0.8474338E-01
        1   -1    0    0  501    0  0.00000000000E+00  0.00000000000E+00  0.81061258927E+03  0.81061258928E+03  0.50400001928E-02 0. -1.
       -1   -1    0    0    0  501  0.00000000000E+00  0.00000000000E+00 -0.16444316581E+04  0.16444316581E+04  0.50400001928E-02 0.  1.
    10030    2    1    2    0    0  0.00000000000E+00  0.00000000000E+00 -0.83381906878E+03  0.24550442473E+04  0.23091097888E+04 0.  0.
        2    1    3    3  502    0  0.58631312907E+03  0.60469889158E+03 -0.12564825115E+04  0.15126705314E+04  0.25500000920E-02 0.  1.
       -2    1    3    3    0  502 -0.58631312907E+03 -0.60469889158E+03  0.42266344269E+03  0.94237371599E+03  0.25500000920E-02 0. -1.
</event>
<event>
 5   0  0.4295775E-05  0.2356551E+04  0.7818609E-02  0.8455952E-01
       -1   -1    0    0    0  501  0.00000000000E+00  0.00000000000E+00  0.68653425063E+03  0.68653425065E+03  0.50400001928E-02 0. -1.
        1   -1    0    0  501    0  0.00000000000E+00  0.00000000000E+00 -0.20222340204E+04  0.20222340204E+04  0.50400001928E-02 0.  1.
    10030    2    1    2    0    0  0.00000000000E+00  0.00000000000E+00 -0.13356997697E+04  0.27087682710E+04  0.23565507996E+04 0.  0.
        5    1    3    3  502    0  0.47874404716E+03  0.84146000252E+03 -0.14398408531E+04  0.17350546305E+04  0.46999998093E+01 0. -1.
       -5    1    3    3    0  502 -0.47874404716E+03 -0.84146000252E+03  0.10414108335E+03  0.97371364054E+03  0.46999998093E+01 0.  1.
</event>
<event>
 5   0  0.9535394E-05  0.2153147E+04  0.7818609E-02  0.8538186E-01
        2   -1    0    0  501    0  0.00000000000E+00  0.00000000000E+00  0.27960984551E+04  0.27960984551E+04  0.25500000920E-02 0. -1.
       -2   -1    0    0    0  501  0.00000000000E+00  0.00000000000E+00 -0.41451007873E+03  0.41451007874E+03  0.25500000920E-02 0.  1.
    10030    2    1    2    0    0  0.00000000000E+00  0.00000000000E+00  0.23815883764E+04  0.32106085339E+04  0.21531474550E+04 0.  0.
        2    1    3    3  502    0  0.14770052194E+03 -0.92254284095E+01 -0.39927091365E+03  0.42581429662E+03  0.25500000920E-02 0.  1.
       -2    1    3    3    0  502 -0.14770052194E+03  0.92254284095E+01  0.27808592900E+04  0.27847942372E+04  0.25500000920E-02 0. -1.
</event>
<event>
 5   0  0.9312074E-05  0.2300668E+04  0.7818609E-02  0.8477658E-01
       -2   -1    0    0    0  501  0.00000000000E+00  0.00000000000E+00  0.12214351473E+04  0.12214351473E+04  0.25500000920E-02 0.  1.
        2   -1    0    0  501    0  0.00000000000E+00  0.00000000000E+00 -0.10833713179E+04  0.10833713179E+04  0.25500000920E-02 0. -1.
    10030    2    1    2    0    0  0.00000000000E+00  0.00000000000E+00  0.13806382940E+03  0.23048064652E+04  0.23006675599E+04 0.  0.
        4    1    3    3  502    0 -0.97205970253E+03 -0.60824905508E+03  0.16084401456E+03  0.11579030133E+04  0.12699999809E+01 0.  1.
       -4    1    3    3    0  502  0.97205970253E+03  0.60824905508E+03 -0.22780185159E+02  0.11469034519E+04  0.12699999809E+01 0. -1.
</event>
<event>
 5   0  0.4095451E-05  0.2296685E+04  0.7818609E-02  0.8479229E-01
        1   -1    0    0  501    0  0.00000000000E+00  0.00000000000E+00  0.12921361401E+04  0.12921361401E+04  0.50400001928E-02 0. -1.
       -1   -1    0    0    0  501  0.00000000000E+00  0.00000000000E+00 -0.10205510600E+04  0.10205510600E+04  0.50400001928E-02 0.  1.
    10030    2    1    2    0    0  0.00000000000E+00  0.00000000000E+00  0.27158508013E+03  0.23126872001E+04  0.22966853572E+04 0.  0.
        3    1    3    3  502    0 -0.71634121684E+03 -0.58219384907E+03  0.82363047591E+03  0.12371182595E+04  0.10100000352E+00 0. -1.
       -3    1    3    3    0  502  0.71634121684E+03  0.58219384907E+03 -0.55204539579E+03  0.10755689406E+04  0.10100000352E+00 0.  1.
</event>
<event>
 5   0  0.9535394E-05  0.2514324E+04  0.7818609E-02  0.8397900E-01
       -2   -1    0    0    0  501  0.00000000000E+00  0.00000000000E+00  0.14556405249E+04  0.14556405249E+04  0.25500000920E-02 0.  1.
        2   -1    0    0  501    0  0.00000000000E+00  0.00000000000E+00 -0.10857460398E+04  0.10857460398E+04  0.25500000920E-02 0. -1.
    10030    2    1    2    0    0  0.00000000000E+00  0.00000000000E+00  0.36989448512E+03  0.25413865647E+04  0.25143237145E+04 0.  0.
        2    1    3    3  502    0 -0.16794215548E+03 -0.56856362572E+03 -0.93558186415E+03  0.11076021798E+04  0.25500000920E-02 0. -1.
       -2    1    3    3    0  502  0.16794215548E+03  0.56856362572E+03  0.13054763493E+04  0.14337843850E+04  0.25500000920E-02 0.  1.
</event>
<event>
 5   0  0.4295775E-05  0.2244759E+04  0.7818609E-02  0.8500026E-01
       -1   -1    0    0    0  501  0.00000000000E+00  0.00000000000E+00  0.54634310546E+03  0.54634310548E+03  0.50400001928E-02 0.  1.
        1   -1    0    0  501    0  0.00000000000E+00  0.00000000000E+00 -0.23057602371E+04  0.23057602371E+04  0.50400001928E-02 0. -1.
    10030    2    1    2    0    0  0.00000000000E+00  0.00000000000E+00 -0.17594171317E+04  0.28521033426E+04  0.22447594156E+04 0.  0.
        5    1    3    3  502    0  0.74689849178E+02 -0.93424675960E+03 -0.16642925071E+04  0.19100490100E+04  0.46999998093E+01 0. -1.
       -5    1    3    3    0  502 -0.74689849178E+02  0.93424675960E+03 -0.95124624568E+02  0.94205433261E+03  0.46999998093E+01 0.  1.
</event>
<event>
 5   0  0.4005462E-05  0.2335235E+04  0.7818609E-02  0.8464157E-01
       -1   -1    0    0    0  501  0.00000000000E+00  0.00000000000E+00  0.10863172441E+04  0.10863172441E+04  0.50400001928E-02 0.  1.
        1   -1    0    0  501    0  0.00000000000E+00  0.00000000000E+00 -0.12550020399E+04  0.12550020399E+04  0.50400001928E-02 0. -1.
    10030    2    1    2    0    0  0.00000000000E+00  0.00000000000E+00 -0.16868479581E+03  0.23413192839E+04  0.23352347696E+04 0.  0.
        4    1    3    3  502    0  0.78512208278E+03  0.26050270530E+03 -0.91053461317E+03  0.12301842297E+04  0.12699999809E+01 0. -1.
       -4    1    3    3    0  502 -0.78512208278E+03 -0.26050270530E+03  0.74184981736E+03  0.11111350542E+04  0.12699999809E+01 0.  1.
</event>
<event>
 5   0  0.3885219E-05  0.2179976E+04  0.7818609E-02  0.8526809E-01
       -1   -1    0    0    0  501  0.00000000000E+00  0.00000000000E+00  0.13230259170E+04  0.13230259170E+04  0.50400001928E-02 0.  1.
        1   -1    0    0  501    0  0.00000000000E+00  0.00000000000E+00 -0.89799753136E+03  0.89799753137E+03  0.50400001928E-02 0. -1.
    10030    2    1    2    0    0  0.00000000000E+00  0.00000000000E+00  0.42502838566E+03  0.22210234484E+04  0.21799761535E+04 0.  0.
        2    1    3    3  502    0 -0.76922368615E+03 -0.66673522561E+03 -0.18448039225E+03  0.10345404562E+04  0.25500000920E-02 0. -1.
       -2    1    3    3    0  502  0.76922368615E+03  0.66673522561E+03  0.60950877791E+03  0.11864829922E+04  0.25500000920E-02 0.  1.
</event>
<event>
 5   0  0.4295775E-05  0.2314724E+04  0.7818609E-02  0.8472138E-01
        1   -1    0    0  501    0  0.00000000000E+00  0.00000000000E+00  0.13945717900E+04  0.13945717900E+04  0.50400001928E-02 0. -1.
       -1   -1    0    0    0  501  0.00000000000E+00  0.00000000000E+00 -0.96050053951E+03  0.96050053953E+03  0.50400001928E-02 0.  1.
    10030    2    1    2    0    0  0.00000000000E+00  0.00000000000E+00  0.43407125051E+03  0.23550723296E+04  0.23147241362E+04 0.  0.
        5    1    3    3  502    0 -0.39519550481E+03  0.10611678303E+04 -0.26315977218E+02  0.11326832178E+04  0.46999998093E+01 0.  1.
       -5    1    3    3    0  502  0.39519550481E+03 -0.10611678303E+04  0.46038722772E+03  0.12223891118E+04  0.46999998093E+01 0. -1.
</event>
<event>
 5   0  0.4139830E-05  0.2301756E+04  0.7818609E-02  0.8477229E-01
       -1   -1    0    0    0  501  0.00000000000E+00  0.00000000000E+00  0.89073175832E+03  0.89073175834E+03  0.50400001928E-02 0.  1.
        1   -1    0    0  501    0  0.00000000000E+00  0.00000000000E+00 -0.14870028798E+04  0.14870028798E+04  0.50400001928E-02 0. -1.
    10030    2    1    2    0    0  0.00000000000E+00  0.00000000000E+00 -0.59627112152E+03  0.23777346382E+04  0.23017564509E+04 0.  0.
        1    1    3    3  502    0 -0.97631347941E+03 -0.16296162157E+03  0.30842287675E+03  0.10367589745E+04  0.50400001928E-02 0.  1.
       -1    1    3    3    0  502  0.97631347941E+03  0.16296162157E+03 -0.90469399827E+03  0.13409756637E+04  0.50400001928E-02 0. -1.
</event>
<event>
 5   0  0.9641157E-05  0.2175742E+04  0.7818609E-02  0.8528593E-01
        2   -1    0    0  501    0  0.00000000000E+00  0.00000000000E+00  0.13681403373E+04  0.13681403373E+04  0.25500000920E-02 0.  1.
       -2   -1    0    0    0  501  0.00000000000E+00  0.00000000000E+00 -0.86501590664E+03  0.86501590665E+03  0.25500000920E-02 0. -1.
    10030    2    1    2    0    0  0.00000000000E+00  0.00000000000E+00  0.50312443061E+03  0.22331562439E+04  0.21757418544E+04 0.  0.
        3    1    3    3  502    0  0.48166876731E+03  0.64450539173E+03 -0.49992735605E+03  0.94726942995E+03  0.10100000352E+00 0. -1.
       -3    1    3    3    0  502 -0.48166876731E+03 -0.64450539173E+03  0.10030517867E+04  0.12858868140E+04  0.10100000352E+00 0.  1.
</event>
<event>
 5   0  0.9641157E-05  0.2316266E+04  0.7818609E-02  0.8471535E-01
       -2   -1    0    0    0  501  0.00000000000E+00  0.00000000000E+00  0.12958708661E+04  0.12958708661E+04  0.25500000920E-02 0. -1.
        2   -1    0    0  501    0  0.00000000000E+00  0.00000000000E+00 -0.10350352060E+04  0.10350352060E+04  0.25500000920E-02 0.  1.
    10030    2    1    2    0    0  0.00000000000E+00  0.00000000000E+00  0.26083566016E+03  0.23309060721E+04  0.23162659336E+04 0.  0.
        3    1    3    3  502    0 -0.68085638899E+03  0.31561129874E+03  0.10180907213E+04  0.12647864015E+04  0.10100000352E+00 0. -1.
       -3    1    3    3    0  502  0.68085638899E+03 -0.31561129874E+03 -0.75725506113E+03  0.10661196706E+04  0.10100000352E+00 0.  1.
</event>
<event>
 5   0  0.4295775E-05  0.2291123E+04  0.7818609E-02  0.8481429E-01
       -1   -1    0    0    0  501  0.00000000000E+00  0.00000000000E+00  0.95932104581E+03  0.95932104582E+03  0.50400001928E-02 0. -1.
        1   -1    0    0  501    0  0.00000000000E+00  0.00000000000E+00 -0.13679587332E+04  0.13679587332E+04  0.50400001928E-02 0.  1.
    10030    2    1    2    0    0  0.00000000000E+00  0.00000000000E+00 -0.40863768741E+03  0.23272797790E+04  0.22911233948E+04 0.  0.
        5    1    3    3  502    0  0.76982686299E+03 -0.84794252591E+03 -0.17842964742E+03  0.11590941098E+04  0.46999998093E+01 0.  1.
       -5    1    3    3    0  502 -0.76982686299E+03  0.84794252591E+03 -0.23020803999E+03  0.11681856693E+04  0.46999998093E+01 0. -1.
</event>
<event>
 5   0  0.4095451E-05  0.2212517E+04  0.7818609E-02  0.8513236E-01
        1   -1    0    0  501    0  0.00000000000E+00  0.00000000000E+00  0.21162002164E+04  0.21162002164E+04  0.50400001928E-02 0. -1.
       -1   -1    0    0    0  501  0.00000000000E+00  0.00000000000E+00 -0.57830420548E+03  0.57830420551E+03  0.50400001928E-02 0.  1.
    10030    2    1    2    0    0  0.00000000000E+00  0.00000000000E+00  0.15378960109E+04  0.26945044219E+04  0.22125166529E+04 0.  0.
        3    1    3    3  502    0  0.69724357966E+03  0.10054195071E+03  0.18077286028E+04  0.19401391715E+04  0.10100000352E+00 0. -1.
       -3    1    3    3    0  502 -0.69724357966E+03 -0.10054195071E+03 -0.26983259186E+03  0.75436525043E+03  0.10100000352E+00 0.  1.
</event>
<event>
 5   0  0.4095451E-05  0.2174553E+04  0.7818609E-02  0.8529095E-01
        1   -1    0    0  501    0  0.00000000000E+00  0.00000000000E+00  0.16880540036E+04  0.16880540037E+04  0.50400001928E-02 0.  1.
       -1   -1    0    0    0  501  0.00000000000E+00  0.00000000000E+00 -0.70031534600E+03  0.70031534601E+03  0.50400001928E-02 0. -1.
    10030    2    1    2    0    0  0.00000000000E+00  0.00000000000E+00  0.98773865765E+03  0.23883693497E+04  0.21745529413E+04 0.  0.
        3    1    3    3  502    0 -0.34000486474E+03  0.81968100846E+03 -0.19614718192E+03  0.90882010918E+03  0.10100000352E+00 0. -1.
       -3    1    3    3    0  502  0.34000486474E+03 -0.81968100846E+03  0.11838858396E+04  0.14795492405E+04  0.10100000352E+00 0.  1.
</event>
<event>
 5   0  0.9535394E-05  0.1684783E+04  0.7818609E-02  0.8770091E-01
       -2   -1    0    0    0  501  0.00000000000E+00  0.00000000000E+00  0.49638349842E+03  0.49638349842E+03  0.25500000920E-02 0.  1.
        2   -1    0    0  501    0  0.00000000000E+00  0.00000000000E+00 -0.14295877817E+04  0.14295877817E+04  0.25500000920E-02 0. -1.
    10030    2    1    2    0    0  0.00000000000E+00  0.00000000000E+00 -0.93320428327E+03  0.19259712801E+04  0.16847834097E+04 0.  0.
        2    1    3    3  502    0  0.49006624853E+03  0.66104642918E+03 -0.67261302818E+03  0.10628055303E+04  0.25500000920E-02 0. -1.
       -2    1    3    3    0  502 -0.49006624853E+03 -0.66104642918E+03 -0.26059125509E+03  0.86316574985E+03  0.25500000920E-02 0.  1.
</event>
<event>
 5   0  0.9535394E-05  0.2305019E+04  0.7818609E-02  0.8475945E-01
       -2   -1    0    0    0  501  0.00000000000E+00  0.00000000000E+00  0.16075368253E+04  0.16075368253E+04  0.25500000920E-02 0.  1.
        2   -1    0    0  501    0  0.00000000000E+00  0.00000000000E+00 -0.82628138329E+03  0.82628138329E+03  0.25500000920E-02 0. -1.
    10030    2    1    2    0    0  0.00000000000E+00  0.00000000000E+00  0.78125544204E+03  0.24338182086E+04  0.23050186565E+04 0.  0.
        2    1    3    3  502    0 -0.44458515015E+03 -0.17626126474E+03 -0.71656169504E+03  0.86150139407E+03  0.25500000920E-02 0. -1.
       -2    1    3    3    0  502  0.44458515015E+03  0.17626126474E+03  0.14978171371E+04  0.15723168146E+04  0.25500000920E-02 0.  1.
</event>
<event>
 5   0  0.4005462E-05  0.2261611E+04  0.7818609E-02  0.8493213E-01
       -1   -1    0    0    0  501  0.00000000000E+00  0.00000000000E+00  0.11015788419E+04  0.11015788420E+04  0.50400001928E-02 0.  1.
        1   -1    0    0  501    0  0.00000000000E+00  0.00000000000E+00 -0.11608072588E+04  0.11608072588E+04  0.50400001928E-02 0. -1.
    10030    2    1    2    0    0  0.00000000000E+00  0.00000000000E+00 -0.59228416866E+02  0.22623861008E+04  0.22616106790E+04 0.  0.
        4    1    3    3  502    0 -0.96311290044E+03  0.59060562780E+03 -0.77772550868E+02  0.11324538177E+04  0.12699999809E+01 0. -1.
       -4    1    3    3    0  502  0.96311290044E+03 -0.59060562780E+03  0.18544134002E+02  0.11299322831E+04  0.12699999809E+01 0.  1.
</event>
<event>
 5   0  0.9313463E-05  0.2356564E+04  0.7818609E-02  0.8455947E-01
       -2   -1    0    0    0  501  0.00000000000E+00  0.00000000000E+00  0.12287786576E+04  0.12287786576E+04  0.25500000920E-02 0.  1.
        2   -1    0    0  501    0  0.00000000000E+00  0.00000000000E+00 -0.11298609667E+04  0.11298609667E+04  0.25500000920E-02 0. -1.
    10030    2    1    2    0    0  0.00000000000E+00  0.00000000000E+00  0.98917690844E+02  0.23586396243E+04  0.23565644841E+04 0.  0.
        1    1    3    3  502    0  0.84397188791E+03  0.80837644814E+03 -0.10096658788E+03  0.11730112026E+04  0.50400001928E-02 0. -1.
       -1    1    3    3    0  502 -0.84397188791E+03 -0.80837644814E+03  0.19988427872E+03  0.11856284217E+04  0.50400001928E-02 0.  1.
</event>
<event>
 5   0  0.3261500E-05  0.2298768E+04  0.7818609E-02  0.8478407E-01
       -3   -1    0    0    0  501  0.00000000000E+00  0.00000000000E+00  0.59565162887E+03  0.59565163743E+03  0.10100000352E+00 0. -1.
        3   -1    0    0  501    0  0.00000000000E+00  0.00000000000E+00 -0.22178794321E+04  0.22178794344E+04  0.10100000352E+00 0.  1.
    10030    2    1    2    0    0  0.00000000000E+00  0.00000000000E+00 -0.16222278033E+04  0.28135310719E+04  0.22987679410E+04 0.  0.
        5    1    3    3  502    0  0.16148672664E+02  0.93242636022E+03  0.11182840914E+02  0.93264507868E+03  0.46999998093E+01 0.  1.
       -5    1    3    3    0  502 -0.16148672664E+02 -0.93242636022E+03 -0.16334106442E+04  0.18808859932E+04  0.46999998093E+01 0. -1.
</event>
<event>
 5   0  0.9483073E-05  0.2303603E+04  0.7818609E-02  0.8476502E-01
       -2   -1    0    0    0  501  0.00000000000E+00  0.00000000000E+00  0.56949063642E+03  0.56949063642E+03  0.25500000920E-02 0.  1.
        2   -1    0    0  501    0  0.00000000000E+00  0.00000000000E+00 -0.23295326470E+04  0.23295326470E+04  0.25500000920E-02 0. -1.
    10030    2    1    2    0    0  0.00000000000E+00  0.00000000000E+00 -0.17600420106E+04  0.28990232834E+04  0.23036032902E+04 0.  0.
        5    1    3    3  502    0  0.65147283738E+03  0.78106160132E+03 -0.19980382712E+03  0.10365412400E+04  0.46999998093E+01 0. -1.
       -5    1    3    3    0  502 -0.65147283738E+03 -0.78106160132E+03 -0.15602381834E+04  0.18624820434E+04  0.46999998093E+01 0.  1.
</event>
<event>
 5   0  0.9483073E-05  0.2317896E+04  0.7818609E-02  0.8470898E-01
       -2   -1    0    0    0  501  0.00000000000E+00  0.00000000000E+00  0.65583404080E+03  0.65583404081E+03  0.25500000920E-02 0. -1.
        2   -1    0    0  501    0  0.00000000000E+00  0.00000000000E+00 -0.20480186926E+04  0.20480186926E+04  0.25500000920E-02 0.  1.
    10030    2    1    2    0    0  0.00000000000E+00  0.00000000000E+00 -0.13921846518E+04  0.27038527334E+04  0.23178959207E+04 0.  0.
        5    1    3    3  502    0 -0.31139500365E+03  0.18354513664E+03  0.58838624596E+03  0.69056218396E+03  0.46999998093E+01 0. -1.
       -5    1    3    3    0  502  0.31139500365E+03 -0.18354513664E+03 -0.19805708978E+04  0.20132905495E+04  0.46999998093E+01 0.  1.
</event>
<event>
 5   0  0.9535394E-05  0.2282878E+04  0.7818609E-02  0.8484703E-01
       -2   -1    0    0    0  501  0.00000000000E+00  0.00000000000E+00  0.83882761096E+03  0.83882761097E+03  0.25500000920E-02 0.  1.
        2   -1    0    0  501    0  0.00000000000E+00  0.00000000000E+00 -0.15532192598E+04  0.15532192598E+04  0.25500000920E-02 0. -1.
    10030    2    1    2    0    0  0.00000000000E+00  0.00000000000E+00 -0.71439164884E+03  0.23920468708E+04  0.22828781842E+04 0.  0.
        2    1    3    3  502    0  0.30236197840E+03  0.80344584745E+03 -0.11454573015E+04  0.14314399831E+04  0.25500000920E-02 0. -1.
       -2    1    3    3    0  502 -0.30236197840E+03 -0.80344584745E+03  0.43106565262E+03  0.96060688767E+03  0.25500000920E-02 0.  1.
</event>
<event>
 5   0  0.4295775E-05  0.2209631E+04  0.7818609E-02  0.8514430E-01
        1   -1    0    0  501    0  0.00000000000E+00  0.00000000000E+00  0.25595360000E+04  0.25595360000E+04  0.50400001928E-02 0. -1.
       -1   -1    0    0    0  501  0.00000000000E+00  0.00000000000E+00 -0.47688986263E+03  0.47688986266E+03  0.50400001928E-02 0.  1.
    10030    2    1    2    0    0  0.00000000000E+00  0.00000000000E+00  0.20826461374E+04  0.30364258627E+04  0.22096305315E+04 0.  0.
        5    1    3    3  502    0 -0.91386522924E+03  0.39239014021E+03  0.38018058017E+03  0.10647436513E+04  0.46999998093E+01 0.  1.
       -5    1    3    3    0  502  0.91386522924E+03 -0.39239014021E+03  0.17024655572E+04  0.19716822114E+04  0.46999998093E+01 0. -1.
</event>
<event>
 5   0  0.9641157E-05  0.2294787E+04  0.7818609E-02  0.8479979E-01
       -2   -1    0    0    0  501  0.00000000000E+00  0.00000000000E+00  0.12143942177E+04  0.12143942177E+04  0.25500000920E-02 0.  1.
        2   -1    0    0  501    0  0.00000000000E+00  0.00000000000E+00 -0.10840896645E+04  0.10840896645E+04  0.25500000920E-02 0. -1.
    10030    2    1    2    0    0  0.00000000000E+00  0.00000000000E+00  0.13030455326E+03  0.22984838822E+04  0.22947873279E+04 0.  0.
        3    1    3    3  502    0  0.88507054904E+03  0.62797583193E+03  0.43832281037E+03  0.11703975472E+04  0.10100000352E+00 0. -1.
       -3    1    3    3    0  502 -0.88507054904E+03 -0.62797583193E+03 -0.30801825711E+03  0.11280863350E+04  0.10100000352E+00 0.  1.
</event>
<event>
 5   0  0.4095451E-05  0.1424251E+04  0.7818609E-02  0.8936449E-01
        1   -1    0    0  501    0  0.00000000000E+00  0.00000000000E+00  0.87630476540E+03  0.87630476541E+03  0.50400001928E-02 0.  1.
       -1   -1    0    0    0  501  0.00000000000E+00  0.00000000000E+00 -0.57870590410E+03  0.57870590412E+03  0.50400001928E-02 0. -1.
    10030    2    1    2    0    0  0.00000000000E+00  0.00000000000E+00  0.29759886130E+03  0.14550106695E+04  0.14242510194E+04 0.  0.
        3    1    3    3  502    0  0.67367503020E+03 -0.19891599419E+02 -0.86143485556E+02  0.67945156733E+03  0.10100000352E+00 0. -1.
       -3    1    3    3    0  502 -0.67367503020E+03  0.19891599419E+02  0.38374234686E+03  0.77555910221E+03  0.10100000352E+00 0.  1.
</event>
<event>
 5   0  0.9312074E-05  0.2321074E+04  0.7818609E-02  0.8469658E-01
       -2   -1    0    0    0  501  0.00000000000E+00  0.00000000000E+00  0.87084460596E+03  0.87084460597E+03  0.25500000920E-02 0. -1.
        2   -1    0    0  501    0  0.00000000000E+00  0.00000000000E+00 -0.15465981305E+04  0.15465981305E+04  0.25500000920E-02 0.  1.
    10030    2    1    2    0    0  0.00000000000E+00  0.00000000000E+00 -0.67575352458E+03  0.24174427365E+04  0.23210744405E+04 0.  0.
        4    1    3    3  502    0  0.80932715762E+03  0.26452623977E+03 -0.11591990226E+04  0.14383075354E+04  0.12699999809E+01 0.  1.
       -4    1    3    3    0  502 -0.80932715762E+03 -0.26452623977E+03  0.48344549800E+03  0.97913520109E+03  0.12699999809E+01 0. -1.
</event>
<event>
 5   0  0.3885219E-05  0.2338989E+04  0.7818609E-02  0.8462705E-01
       -1   -1    0    0    0  501  0.00000000000E+00  0.00000000000E+00  0.90438075472E+03  0.90438075473E+03  0.50400001928E-02 0. -1.
        1   -1    0    0  501    0  0.00000000000E+00  0.00000000000E+00 -0.15123247396E+04  0.15123247396E+04  0.50400001928E-02 0.  1.
    10030    2    1    2    0    0  0.00000000000E+00  0.00000000000E+00 -0.60794398489E+03  0.24167054943E+04  0.23389890033E+04 0.  0.
        2    1    3    3  502    0 -0.63212749115E+03 -0.82129973691E+03 -0.86382344673E+03  0.13491884116E+04  0.25500000920E-02 0.  1.
       -2    1    3    3    0  502  0.63212749115E+03  0.82129973691E+03  0.25587946185E+03  0.10675170827E+04  0.25500000920E-02 0. -1.
</event>
<event>
 5   0  0.4139830E-05  0.1907854E+04  0.7818609E-02  0.8650957E-01
       -1   -1    0    0    0  501  0.00000000000E+00  0.00000000000E+00  0.94762258725E+03  0.94762258726E+03  0.50400001928E-02 0. -1.
        1   -1    0    0  501    0  0.00000000000E+00  0.00000000000E+00 -0.96027311816E+03  0.96027311818E+03  0.50400001928E-02 0.  1.
    10030    2    1    2    0    0  0.00000000000E+00  0.00000000000E+00 -0.12650530915E+02  0.19078957054E+04  0.19078537645E+04 0.  0.
        1    1    3    3  502    0 -0.89689301772E+03  0.30923085868E+03  0.93354844604E+02  0.95328691181E+03  0.50400001928E-02 0. -1.
       -1    1    3    3    0  502  0.89689301772E+03 -0.30923085868E+03 -0.10600537552E+03  0.95460879362E+03  0.50400001928E-02 0.  1.
</event>
<event>
 5   0  0.9483073E-05  0.2253517E+04  0.7818609E-02  0.8496478E-01
        2   -1    0    0  501    0  0.00000000000E+00  0.00000000000E+00  0.13016546871E+04  0.13016546871E+04  0.25500000920E-02 0. -1.
       -2   -1    0    0    0  501  0.00000000000E+00  0.00000000000E+00 -0.97536177218E+03  0.97536177218E+03  0.25500000920E-02 0.  1.
    10030    2    1    2    0    0  0.00000000000E+00  0.00000000000E+00  0.32629291490E+03  0.22770164593E+04  0.22535165607E+04 0.  0.
        5    1    3    3  502    0  0.89319670439E+03 -0.14958184916E+03 -0.51420753121E+03  0.10414444572E+04  0.46999998093E+01 0.  1.
       -5    1    3    3    0  502 -0.89319670439E+03  0.14958184916E+03  0.84050044611E+03  0.12355720020E+04  0.46999998093E+01 0. -1.
</event>
<event>
 5   0  0.4295775E-05  0.1896235E+04  0.7818609E-02  0.8656733E-01
       -1   -1    0    0    0  501  0.00000000000E+00  0.00000000000E+00  0.10138984244E+04  0.10138984244E+04  0.50400001928E-02 0.  1.
        1   -1    0    0  501    0  0.00000000000E+00  0.00000000000E+00 -0.88660460008E+03  0.88660460010E+03  0.50400001928E-02 0. -1.
    10030    2    1    2    0    0  0.00000000000E+00  0.00000000000E+00  0.12729382435E+03  0.19005030245E+04  0.18962352250E+04 0.  0.
        5    1    3    3  502    0 -0.15051095285E+02 -0.56833723219E+03  0.82408453605E+03  0.10011848768E+04  0.46999998093E+01 0.  1.
       -5    1    3    3    0  502  0.15051095285E+02  0.56833723219E+03 -0.69679071170E+03  0.89931814775E+03  0.46999998093E+01 0. -1.
</event>
<event>
 5   0  0.9641157E-05  0.2281944E+04  0.7818609E-02  0.8485075E-01
       -2   -1    0    0    0  501  0.00000000000E+00  0.00000000000E+00  0.21103872970E+04  0.21103872970E+04  0.25500000920E-02 0.  1.
        2   -1    0    0  501    0  0.00000000000E+00  0.00000000000E+00 -0.61686157108E+03  0.61686157109E+03  0.25500000920E-02 0. -1.
    10030    2    1    2    0    0  0.00000000000E+00  0.00000000000E+00  0.14935257259E+04  0.27272488681E+04  0.22819437536E+04 0.  0.
        3    1    3    3  502    0  0.77384647649E+03 -0.52096052030E+03  0.15319076938E+04  0.17935939968E+04  0.10100000352E+00 0.  1.
       -3    1    3    3    0  502 -0.77384647649E+03  0.52096052030E+03 -0.38381967946E+02  0.93365487122E+03  0.10100000352E+00 0. -1.
</event>
<event>
 5   0  0.9313463E-05  0.2264459E+04  0.7818609E-02  0.8492068E-01
        2   -1    0    0  501    0  0.00000000000E+00  0.00000000000E+00  0.14191504826E+04  0.14191504826E+04  0.25500000920E-02 0. -1.
       -2   -1    0    0    0  501  0.00000000000E+00  0.00000000000E+00 -0.90331738816E+03  0.90331738817E+03  0.25500000920E-02 0.  1.
    10030    2    1    2    0    0  0.00000000000E+00  0.00000000000E+00  0.51583309448E+03  0.23224678708E+04  0.22644587057E+04 0.  0.
        1    1    3    3  502    0  0.10530470690E+04  0.39738059571E+03  0.38404595171E+03  0.11892479811E+04  0.50400001928E-02 0.  1.
       -1    1    3    3    0  502 -0.10530470690E+04 -0.39738059571E+03  0.13178714277E+03  0.11332198897E+04  0.50400001928E-02 0. -1.
</event>
<event>
 5   0  0.3885219E-05  0.2291654E+04  0.7818609E-02  0.8481219E-01
       -1   -1    0    0    0  501  0.00000000000E+00  0.00000000000E+00  0.53173310947E+03  0.53173310949E+03  0.50400001928E-02 0.  1.
        1   -1    0    0  501    0  0.00000000000E+00  0.00000000000E+00 -0.24691333406E+04  0.24691333406E+04  0.50400001928E-02 0. -1.
    10030    2    1    2    0    0  0.00000000000E+00  0.00000000000E+00 -0.19374002311E+04  0.30008664501E+04  0.22916543796E+04 0.  0.
        2    1    3    3  502    0  0.87196454205E+03  0.99447457507E+02 -0.19333742997E+04  0.21232400105E+04  0.25500000920E-02 0. -1.
       -2    1    3    3    0  502 -0.87196454205E+03 -0.99447457507E+02 -0.40259314561E+01  0.87762643963E+03  0.25500000920E-02 0.  1.
</event>
<event>
 5   0  0.3885219E-05  0.2306668E+04  0.7818609E-02  0.8475297E-01
       -1   -1    0    0    0  501  0.00000000000E+00  0.00000000000E+00  0.91568721508E+03  0.91568721509E+03  0.50400001928E-02 0.  1.
        1   -1    0    0  501    0  0.00000000000E+00  0.00000000000E+00 -0.14526569232E+04  0.14526569233E+04  0.50400001928E-02 0. -1.
    10030    2    1    2    0    0  0.00000000000E+00  0.00000000000E+00 -0.53696970817E+03  0.23683441383E+04  0.23066680494E+04 0.  0.
        2    1    3    3  502    0 -0.33211696536E+03  0.89470993995E+03  0.39641973374E+03  0.10334196440E+04  0.25500000920E-02 0.  1.
       -2    1    3    3    0  502  0.33211696536E+03 -0.89470993995E+03 -0.93338944190E+03  0.13349244943E+04  0.25500000920E-02 0. -1.
</event>
<event>
 5   0  0.9641157E-05  0.2210363E+04  0.7818609E-02  0.8514127E-01
        2   -1    0    0  501    0  0.00000000000E+00  0.00000000000E+00  0.18710649062E+04  0.18710649062E+04  0.25500000920E-02 0.  1.
       -2   -1    0    0    0  501  0.00000000000E+00  0.00000000000E+00 -0.65279707442E+03  0.65279707442E+03  0.25500000920E-02 0. -1.
    10030    2    1    2    0    0  0.00000000000E+00  0.00000000000E+00  0.12182678318E+04  0.25238619807E+04  0.22103625918E+04 0.  0.
        3    1    3    3  502    0  0.57750834983E+03 -0.34976787208E+03  0.16082021828E+04  0.17441811057E+04  0.10100000352E+00 0.  1.
       -3    1    3    3    0  502 -0.57750834983E+03  0.34976787208E+03 -0.38993435101E+03  0.77968087495E+03  0.10100000352E+00 0. -1.
</event>
<event>
 5   0  0.9483073E-05  0.2359557E+04  0.7818609E-02  0.8454802E-01
       -2   -1    0    0    0  501  0.00000000000E+00  0.00000000000E+00  0.11744106744E+04  0.11744106744E+04  0.25500000920E-02 0. -1.
        2   -1    0    0  501    0  0.00000000000E+00  0.00000000000E+00 -0.11851704767E+04  0.11851704767E+04  0.25500000920E-02 0.  1.
    10030    2    1    2    0    0  0.00000000000E+00  0.00000000000E+00 -0.10759802341E+02  0.23595811511E+04  0.23595566184E+04 0.  0.
        5    1    3    3  502    0  0.71997827676E+03  0.49460303895E+01 -0.93998128668E+03  0.11840524024E+04  0.46999998093E+01 0. -1.
       -5    1    3    3    0  502 -0.71997827676E+03 -0.49460303895E+01  0.92922148433E+03  0.11755287488E+04  0.46999998093E+01 0.  1.
</event>
<event>
 5   0  0.4005462E-05  0.2307183E+04  0.7818609E-02  0.8475094E-01
       -1   -1    0    0    0  501  0.00000000000E+00  0.00000000000E+00  0.17077403461E+04  0.17077403461E+04  0.50400001928E-02 0.  1.
        1   -1    0    0  501    0  0.00000000000E+00  0.00000000000E+00 -0.77925983798E+03  0.77925983800E+03  0.50400001928E-02 0. -1.
    10030    2    1    2    0    0  0.00000000000E+00  0.00000000000E+00  0.92848050808E+03  0.24870001841E+04  0.23071831010E+04 0.  0.
        4    1    3    3  502    0  0.52902642395E+03  0.88508848518E+03  0.10217762516E+04  0.14516469629E+04  0.12699999809E+01 0.  1.
       -4    1    3    3    0  502 -0.52902642395E+03 -0.88508848518E+03 -0.93295743503E+02  0.10353532211E+04  0.12699999809E+01 0. -1.
</event>
<event>
 5   0  0.4005462E-05  0.2321395E+04  0.7818609E-02  0.8469533E-01
       -1   -1    0    0    0  501  0.00000000000E+00  0.00000000000E+00  0.11406088171E+04  0.11406088171E+04  0.50400001928E-02 0. -1.
        1   -1    0    0  501    0  0.00000000000E+00  0.00000000000E+00 -0.11811399646E+04  0.11811399646E+04  0.50400001928E-02 0.  1.
    10030    2    1    2    0    0  0.00000000000E+00  0.00000000000E+00 -0.40531147498E+02  0.23217487817E+04  0.23213949753E+04 0.  0.
        4    1    3    3  502    0  0.20993434435E+03  0.59822176696E+03  0.95213531910E+03  0.11438990297E+04  0.12699999809E+01 0. -1.
       -4    1    3    3    0  502 -0.20993434435E+03 -0.59822176696E+03 -0.99266646660E+03  0.11778497520E+04  0.12699999809E+01 0.  1.
</event>
<event>
 5   0  0.4139830E-05  0.2259791E+04  0.7818609E-02  0.8493946E-01
        1   -1    0    0  501    0  0.00000000000E+00  0.00000000000E+00  0.13111616611E+04  0.13111616612E+04  0.50400001928E-02 0. -1.
       -1   -1    0    0    0  501  0.00000000000E+00  0.00000000000E+00 -0.97368907699E+03  0.97368907700E+03  0.50400001928E-02 0.  1.
    10030    2    1    2    0    0  0.00000000000E+00  0.00000000000E+00  0.33747258415E+03  0.22848507382E+04  0.22597909529E+04 0.  0.
        1    1    3    3  502    0  0.38351966028E+03 -0.63465074430E+03  0.10307129421E+04  0.12697393694E+04  0.50400001928E-02 0. -1.
       -1    1    3    3    0  502 -0.38351966028E+03  0.63465074430E+03 -0.69324035798E+03  0.10151113688E+04  0.50400001928E-02 0.  1.
</event>
<event>
 5   0  0.4139830E-05  0.2399634E+04  0.7818609E-02  0.8439641E-01
        1   -1    0    0  501    0  0.00000000000E+00  0.00000000000E+00  0.12653410350E+04  0.12653410351E+04  0.50400001928E-02 0.  1.
       -1   -1    0    0    0  501  0.00000000000E+00  0.00000000000E+00 -0.11376862849E+04  0.11376862849E+04  0.50400001928E-02 0. -1.
    10030    2    1    2    0    0  0.00000000000E+00  0.00000000000E+00  0.12765475013E+03  0.24030273200E+04  0.23996342566E+04 0.  0.
        1    1    3    3  502    0  0.39029492756E+03  0.11064189996E+04 -0.18766117269E+03  0.11881539668E+04  0.50400001928E-02 0. -1.
       -1    1    3    3    0  502 -0.39029492756E+03 -0.11064189996E+04  0.31531592283E+03  0.12148733532E+04  0.50400001928E-02 0.  1.
</event>
<event>
 5   0  0.3885219E-05  0.2282397E+04  0.7818609E-02  0.8484894E-01
       -1   -1    0    0    0  501  0.00000000000E+00  0.00000000000E+00  0.15185030730E+04  0.15185030730E+04  0.50400001928E-02 0.  1.
        1   -1    0    0  501    0  0.00000000000E+00  0.00000000000E+00 -0.85764368780E+03  0.85764368781E+03  0.50400001928E-02 0. -1.
    10030    2    1    2    0    0  0.00000000000E+00  0.00000000000E+00  0.66085938520E+03  0.23761467608E+04  0.22823974899E+04 0.  0.
        2    1    3    3  502    0 -0.43957101598E+03  0.22277786059E+02 -0.76572657715E+03  0.88320788538E+03  0.25500000920E-02 0. -1.
       -2    1    3    3    0  502  0.43957101598E+03 -0.22277786059E+02  0.14265859623E+04  0.14929388754E+04  0.25500000920E-02 0.  1.
</event>
<event>
 5   0  0.4295775E-05  0.2286038E+04  0.7818609E-02  0.8483447E-01
        1   -1    0    0  501    0  0.00000000000E+00  0.00000000000E+00  0.73574009223E+03  0.73574009225E+03  0.50400001928E-02 0.  1.
       -1   -1    0    0    0  501  0.00000000000E+00  0.00000000000E+00 -0.17757519967E+04  0.17757519967E+04  0.50400001928E-02 0. -1.
    10030    2    1    2    0    0  0.00000000000E+00  0.00000000000E+00 -0.10400119045E+04  0.25114920890E+04  0.22860375656E+04 0.  0.
        5    1    3    3  502    0  0.10587021968E+04 -0.40344787275E+03 -0.68607362313E+03  0.13245148674E+04  0.46999998093E+01 0. -1.
       -5    1    3    3    0  502 -0.10587021968E+04  0.40344787275E+03 -0.35393828138E+03  0.11869772216E+04  0.46999998093E+01 0.  1.
</event>
<event>
 5   0  0.3885219E-05  0.2305691E+04  0.7818609E-02  0.8475680E-01
        1   -1    0    0  501    0  0.00000000000E+00  0.00000000000E+00  0.12409921722E+04  0.12409921722E+04  0.50400001928E-02 0.  1.
       -1   -1    0    0    0  501  0.00000000000E+00  0.00000000000E+00 -0.10709602787E+04  0.10709602787E+04  0.50400001928E-02 0. -1.
    10030    2    1    2    0    0  0.00000000000E+00  0.00000000000E+00  0.17003189343E+03  0.23119524509E+04  0.23056914994E+04 0.  0.
        2    1    3    3  502    0  0.87249011328E+03 -0.41702592393E+03 -0.54430578861E+03  0.11096929352E+04  0.25500000920E-02 0. -1.
       -2    1    3    3    0  502 -0.87249011328E+03  0.41702592393E+03  0.71433768204E+03  0.12022595157E+04  0.25500000920E-02 0.  1.
</event>
<event>
 5   0  0.9313463E-05  0.2333078E+04  0.7818609E-02  0.8464992E-01
        2   -1    0    0  501    0  0.00000000000E+00  0.00000000000E+00  0.17641974882E+04  0.17641974882E+04  0.25500000920E-02 0. -1.
       -2   -1    0    0    0  501  0.00000000000E+00  0.00000000000E+00 -0.77134941552E+03  0.77134941552E+03  0.25500000920E-02 0.  1.
    10030    2    1    2    0    0  0.00000000000E+00  0.00000000000E+00  0.99284807265E+03  0.25355469037E+04  0.23330775395E+04 0.  0.
        1    1    3    3  502    0 -0.61712556564E+03 -0.49509280939E+03 -0.43520361718E+03  0.90297455230E+03  0.50400001928E-02 0.  1.
       -1    1    3    3    0  502  0.61712556564E+03  0.49509280939E+03  0.14280516898E+04  0.16325723514E+04  0.50400001928E-02 0. -1.
</event>
<event>
 5   0  0.9313463E-05  0.2368502E+04  0.7818609E-02  0.8451391E-01
       -2   -1    0    0    0  501  0.00000000000E+00  0.00000000000E+00  0.86094684670E+03  0.86094684671E+03  0.25500000920E-02 0. -1.
        2   -1    0    0  501    0  0.00000000000E+00  0.00000000000E+00 -0.16289623259E+04  0.16289623259E+04  0.25500000920E-02 0.  1.
    10030    2    1    2    0    0  0.00000000000E+00  0.00000000000E+00 -0.76801547918E+03  0.24899091726E+04  0.23685016174E+04 0.  0.
        1    1    3    3  502    0 -0.10687607967E+04  0.24523729875E+03  0.86199023395E+02  0.10999187447E+04  0.50400001928E-02 0.  1.
       -1    1    3    3    0  502  0.10687607967E+04 -0.24523729875E+03 -0.85421450257E+03  0.13899904279E+04  0.50400001928E-02 0. -1.
</event>
<event>
 5   0  0.9535394E-05  0.2086452E+04  0.7818609E-02  0.8567235E-01
       -2   -1    0    0    0  501  0.00000000000E+00  0.00000000000E+00  0.66324711579E+03  0.66324711579E+03  0.25500000920E-02 0. -1.
        2   -1    0    0  501    0  0.00000000000E+00  0.00000000000E+00 -0.16408970836E+04  0.16408970836E+04  0.25500000920E-02 0.  1.
    10030    2    1    2    0    0  0.00000000000E+00  0.00000000000E+00 -0.97764996778E+03  0.23041441994E+04  0.20864517804E+04 0.  0.
        2    1    3    3  502    0  0.73887898210E+03  0.58128016105E+03 -0.98821391724E+03  0.13639631674E+04  0.25500000920E-02 0.  1.
       -2    1    3    3    0  502 -0.73887898210E+03 -0.58128016105E+03  0.10563949452E+02  0.94018103196E+03  0.25500000920E-02 0. -1.
</event>
<event>
 5   0  0.4005462E-05  0.2329608E+04  0.7818609E-02  0.8466338E-01
       -1   -1    0    0    0  501  0.00000000000E+00  0.00000000000E+00  0.11734835267E+04  0.11734835268E+04  0.50400001928E-02 0.  1.
        1   -1    0    0  501    0  0.00000000000E+00  0.00000000000E+00 -0.11561882596E+04  0.11561882596E+04  0.50400001928E-02 0. -1.
    10030    2    1    2    0    0  0.00000000000E+00  0.00000000000E+00  0.17295267132E+02  0.23296717864E+04  0.23296075863E+04 0.  0.
        4    1    3    3  502    0  0.49643841296E+03 -0.13890978479E+03 -0.10358998147E+04  0.11570812699E+04  0.12699999809E+01 0. -1.
       -4    1    3    3    0  502 -0.49643841296E+03  0.13890978479E+03  0.10531950818E+04  0.11725905165E+04  0.12699999809E+01 0.  1.
</event>
<event>
 5   0  0.4005462E-05  0.2339175E+04  0.7818609E-02  0.8462633E-01
        1   -1    0    0  501    0  0.00000000000E+00  0.00000000000E+00  0.75496906551E+03  0.75496906553E+03  0.50400001928E-02 0.  1.
       -1   -1    0    0    0  501  0.00000000000E+00  0.00000000000E+00 -0.18119087956E+04  0.18119087956E+04  0.50400001928E-02 0. -1.
    10030    2    1    2    0    0  0.00000000000E+00  0.00000000000E+00 -0.10569397301E+04  0.25668778611E+04  0.23391751454E+04 0.  0.
        4    1    3    3  502    0  0.73975032011E+02 -0.11436078849E+04 -0.78493419376E+03  0.13890408926E+04  0.12699999809E+01 0. -1.
       -4    1    3    3    0  502 -0.73975032011E+02  0.11436078849E+04 -0.27200553633E+03  0.11778369686E+04  0.12699999809E+01 0.  1.
</event>
<event>
 5   0  0.4139830E-05  0.2327567E+04  0.7818609E-02  0.8467130E-01
       -1   -1    0    0    0  501  0.00000000000E+00  0.00000000000E+00  0.70209525372E+03  0.70209525374E+03  0.50400001928E-02 0.  1.
        1   -1    0    0  501    0  0.00000000000E+00  0.00000000000E+00 -0.19290724005E+04  0.19290724005E+04  0.50400001928E-02 0. -1.
    10030    2    1    2    0    0  0.00000000000E+00  0.00000000000E+00 -0.12269771468E+04  0.26311676543E+04  0.23275674654E+04 0.  0.
        1    1    3    3  502    0 -0.63005901688E+03 -0.49890975059E+03 -0.15650096221E+04  0.17593011173E+04  0.50400001928E-02 0. -1.
       -1    1    3    3    0  502  0.63005901688E+03  0.49890975059E+03  0.33803247527E+03  0.87186653700E+03  0.50400001928E-02 0.  1.
</event>
<event>
 5   0  0.3885219E-05  0.2321973E+04  0.7818609E-02  0.8469307E-01
        1   -1    0    0  501    0  0.00000000000E+00  0.00000000000E+00  0.17482376669E+04  0.17482376669E+04  0.50400001928E-02 0. -1.
       -1   -1    0    0    0  501  0.00000000000E+00  0.00000000000E+00 -0.77099925928E+03  0.77099925930E+03  0.50400001928E-02 0.  1.
    10030    2    1    2    0    0  0.00000000000E+00  0.00000000000E+00  0.97723840765E+03  0.25192369262E+04  0.23219732525E+04 0.  0.
        2    1    3    3  502    0 -0.21533308519E+02  0.35035896186E+03  0.16892851753E+04  0.17253693776E+04  0.25500000920E-02 0. -1.
       -2    1    3    3    0  502  0.21533308519E+02 -0.35035896186E+03 -0.71204676764E+03  0.79386754868E+03  0.25500000920E-02 0.  1.
</event>
<event>
 5   0  0.3885219E-05  0.2125827E+04  0.7818609E-02  0.8549951E-01
        1   -1    0    0  501    0  0.00000000000E+00  0.00000000000E+00  0.11202682139E+04  0.11202682139E+04  0.50400001928E-02 0.  1.
       -1   -1    0    0    0  501  0.00000000000E+00  0.00000000000E+00 -0.10084956071E+04  0.10084956071E+04  0.50400001928E-02 0. -1.
    10030    2    1    2    0    0  0.00000000000E+00  0.00000000000E+00  0.11177260681E+03  0.21287638211E+04  0.21258274366E+04 0.  0.
        2    1    3    3  502    0 -0.50644545288E+03  0.93360026655E+03  0.97041955079E+02  0.10665428240E+04  0.25500000920E-02 0. -1.
       -2    1    3    3    0  502  0.50644545288E+03 -0.93360026655E+03  0.14730651735E+02  0.10622209970E+04  0.25500000920E-02 0.  1.
</event>
<event>
 5   0  0.9641157E-05  0.2300571E+04  0.7818609E-02  0.8477696E-01
       -2   -1    0    0    0  501  0.00000000000E+00  0.00000000000E+00  0.12291195820E+04  0.12291195820E+04  0.25500000920E-02 0.  1.
        2   -1    0    0  501    0  0.00000000000E+00  0.00000000000E+00 -0.10765081365E+04  0.10765081365E+04  0.25500000920E-02 0. -1.
    10030    2    1    2    0    0  0.00000000000E+00  0.00000000000E+00  0.15261144548E+03  0.23056277185E+04  0.23005714340E+04 0.  0.
        3    1    3    3  502    0  0.19171255062E+02 -0.61668888590E+03 -0.89664438472E+03  0.10884134701E+04  0.10100000352E+00 0. -1.
       -3    1    3    3    0  502 -0.19171255062E+02  0.61668888590E+03  0.10492558302E+04  0.12172142484E+04  0.10100000352E+00 0.  1.
</event>
<event>
 5   0  0.9313463E-05  0.2285664E+04  0.7818609E-02  0.8483595E-01
        2   -1    0    0  501    0  0.00000000000E+00  0.00000000000E+00  0.13122731212E+04  0.13122731212E+04  0.25500000920E-02 0. -1.
       -2   -1    0    0    0  501  0.00000000000E+00  0.00000000000E+00 -0.99526894125E+03  0.99526894125E+03  0.25500000920E-02 0.  1.
    10030    2    1    2    0    0  0.00000000000E+00  0.00000000000E+00  0.31700417990E+03  0.23075420624E+04  0.22856637372E+04 0.  0.
        1    1    3    3  502    0 -0.33507988718E+03  0.49540064777E+03 -0.82465948690E+03  0.10187068283E+04  0.50400001928E-02 0.  1.
       -1    1    3    3    0  502  0.33507988718E+03 -0.49540064777E+03  0.11416636668E+04  0.12888352341E+04  0.50400001928E-02 0. -1.
</event>
<event>
 5   0  0.9641157E-05  0.2282660E+04  0.7818609E-02  0.8484789E-01
        2   -1    0    0  501    0  0.00000000000E+00  0.00000000000E+00  0.14750092533E+04  0.14750092533E+04  0.25500000920E-02 0.  1.
       -2   -1    0    0    0  501  0.00000000000E+00  0.00000000000E+00 -0.88313640842E+03  0.88313640842E+03  0.25500000920E-02 0. -1.
    10030    2    1    2    0    0  0.00000000000E+00  0.00000000000E+00  0.59187284486E+03  0.23581456617E+04  0.22826601800E+04 0.  0.
        3    1    3    3  502    0 -0.56469890580E+03 -0.27354255376E+02 -0.72831458795E+03  0.92199525960E+03  0.10100000352E+00 0. -1.
       -3    1    3    3    0  502  0.56469890580E+03  0.27354255376E+02  0.13201874328E+04  0.14361504021E+04  0.10100000352E+00 0.  1.
</event>
<event>
 5   0  0.4139830E-05  0.2269741E+04  0.7818609E-02  0.8489948E-01
       -1   -1    0    0    0  501  0.00000000000E+00  0.00000000000E+00  0.10562300072E+04  0.10562300072E+04  0.50400001928E-02 0. -1.
        1   -1    0    0  501    0  0.00000000000E+00  0.00000000000E+00 -0.12193666105E+04  0.12193666105E+04  0.50400001928E-02 0.  1.
    10030    2    1    2    0    0  0.00000000000E+00  0.00000000000E+00 -0.16313660330E+03  0.22755966177E+04  0.22697414864E+04 0.  0.
        1    1    3    3  502    0  0.10963045995E+04 -0.22996720827E+03  0.10100833948E+03  0.11247094631E+04  0.50400001928E-02 0.  1.
       -1    1    3    3    0  502 -0.10963045995E+04  0.22996720827E+03 -0.26414494278E+03  0.11508871546E+04  0.50400001928E-02 0. -1.
</event>
<event>
 5   0  0.9535394E-05  0.2388978E+04  0.7818609E-02  0.8443642E-01
        2   -1    0    0  501    0  0.00000000000E+00  0.00000000000E+00  0.11829041524E+04  0.11829041524E+04  0.25500000920E-02 0. -1.
       -2   -1    0    0    0  501  0.00000000000E+00  0.00000000000E+00 -0.12061872268E+04  0.12061872268E+04  0.25500000920E-02 0.  1.
    10030    2    1    2    0    0  0.00000000000E+00  0.00000000000E+00 -0.23283074414E+02  0.23890913792E+04  0.23889779230E+04 0.  0.
        2    1    3    3  502    0  0.48355359170E+03  0.74931622505E+03 -0.80635216483E+03  0.12022906033E+04  0.25500000920E-02 0.  1.
       -2    1    3    3    0  502 -0.48355359170E+03 -0.74931622505E+03  0.78306909041E+03  0.11868007758E+04  0.25500000920E-02 0. -1.
</event>
<event>
 5   0  0.9535394E-05  0.2311795E+04  0.7818609E-02  0.8473285E-01
       -2   -1    0    0    0  501  0.00000000000E+00  0.00000000000E+00  0.85412922459E+03  0.85412922460E+03  0.25500000920E-02 0. -1.
        2   -1    0    0  501    0  0.00000000000E+00  0.00000000000E+00 -0.15642824565E+04  0.15642824565E+04  0.25500000920E-02 0.  1.
    10030    2    1    2    0    0  0.00000000000E+00  0.00000000000E+00 -0.71015323186E+03  0.24184116811E+04  0.23117952864E+04 0.  0.
        2    1    3    3  502    0  0.69220178986E+02  0.52258303430E+03 -0.14312141871E+04  0.15252076942E+04  0.25500000920E-02 0.  1.
       -2    1    3    3    0  502 -0.69220178986E+02 -0.52258303430E+03  0.72106095528E+03  0.89320398687E+03  0.25500000920E-02 0. -1.
</event>
<event>
 5   0  0.4139830E-05  0.2292516E+04  0.7818609E-02  0.8480878E-01
        1   -1    0    0  501    0  0.00000000000E+00  0.00000000000E+00  0.16238998665E+04  0.16238998665E+04  0.50400001928E-02 0. -1.
       -1   -1    0    0    0  501  0.00000000000E+00  0.00000000000E+00 -0.80910592444E+03  0.80910592446E+03  0.50400001928E-02 0.  1.
    10030    2    1    2    0    0  0.00000000000E+00  0.00000000000E+00  0.81479394202E+03  0.24330057909E+04  0.22925156511E+04 0.  0.
        1    1    3    3  502    0 -0.74379634184E+03  0.61322384680E+03 -0.25079518659E+03  0.99607967054E+03  0.50400001928E-02 0.  1.
       -1    1    3    3    0  502  0.74379634184E+03 -0.61322384680E+03  0.10655891286E+04  0.14369261204E+04  0.50400001928E-02 0. -1.
</event>
<event>
 5   0  0.4005462E-05  0.2220383E+04  0.7818609E-02  0.8509992E-01
       -1   -1    0    0    0  501  0.00000000000E+00  0.00000000000E+00  0.17376452657E+04  0.17376452657E+04  0.50400001928E-02 0. -1.
        1   -1    0    0  501    0  0.00000000000E+00  0.00000000000E+00 -0.70930751256E+03  0.70930751258E+03  0.50400001928E-02 0.  1.
    10030    2    1    2    0    0  0.00000000000E+00  0.00000000000E+00  0.10283377532E+04  0.24469527783E+04  0.22203827068E+04 0.  0.
        4    1    3    3  502    0 -0.66100009060E+03 -0.53488290391E+03 -0.27246177303E+03  0.89289297865E+03  0.12699999809E+01 0.  1.
       -4    1    3    3    0  502  0.66100009060E+03  0.53488290391E+03  0.13007995262E+04  0.15540597997E+04  0.12699999809E+01 0. -1.
</event>
<event>
 5   0  0.4295775E-05  0.2293256E+04  0.7818609E-02  0.8480585E-01
       -1   -1    0    0    0  501  0.00000000000E+00  0.00000000000E+00  0.51388060412E+03  0.51388060414E+03  0.50400001928E-02 0.  1.
        1   -1    0    0  501    0  0.00000000000E+00  0.00000000000E+00 -0.25584857383E+04  0.25584857383E+04  0.50400001928E-02 0. -1.
    10030    2    1    2    0    0  0.00000000000E+00  0.00000000000E+00 -0.20446051342E+04  0.30723663424E+04  0.22932563719E+04 0.  0.
        5    1    3    3  502    0 -0.28811842846E+03 -0.85232359990E+03 -0.69987661970E+02  0.90243454643E+03  0.46999998093E+01 0.  1.
       -5    1    3    3    0  502  0.28811842846E+03  0.85232359990E+03 -0.19746174722E+04  0.21699317960E+04  0.46999998093E+01 0. -1.
</event>
<event>
 5   0  0.9312074E-05  0.2281430E+04  0.7818609E-02  0.8485279E-01
        2   -1    0    0  501    0  0.00000000000E+00  0.00000000000E+00  0.15739470071E+04  0.15739470071E+04  0.25500000920E-02 0. -1.
       -2   -1    0    0    0  501  0.00000000000E+00  0.00000000000E+00 -0.82673104866E+03  0.82673104867E+03  0.25500000920E-02 0.  1.
    10030    2    1    2    0    0  0.00000000000E+00  0.00000000000E+00  0.74721595847E+03  0.24006780558E+04  0.22814301302E+04 0.  0.
        4    1    3    3  502    0  0.26970694570E+03  0.91317334617E+03 -0.28739940090E+03  0.99459912792E+03  0.12699999809E+01 0.  1.
       -4    1    3    3    0  502 -0.26970694570E+03 -0.91317334617E+03  0.10346153594E+04  0.14060789279E+04  0.12699999809E+01 0. -1.
</event>
<event>
 5   0  0.4295775E-05  0.2276238E+04  0.7818609E-02  0.8487350E-01
        1   -1    0    0  501    0  0.00000000000E+00  0.00000000000E+00  0.11853313938E+04  0.11853313939E+04  0.50400001928E-02 0. -1.
       -1   -1    0    0    0  501  0.00000000000E+00  0.00000000000E+00 -0.10927866494E+04  0.10927866494E+04  0.50400001928E-02 0.  1.
    10030    2    1    2    0    0  0.00000000000E+00  0.00000000000E+00  0.92544744436E+02  0.22781180433E+04  0.22762375292E+04 0.  0.
        5    1    3    3  502    0 -0.59370822579E+03  0.46292876318E+03  0.90049946895E+03  0.11737605721E+04  0.46999998093E+01 0. -1.
       -5    1    3    3    0  502  0.59370822579E+03 -0.46292876318E+03 -0.80795472452E+03  0.11043574711E+04  0.46999998093E+01 0.  1.
</event>
<event>
 5   0  0.9313463E-05  0.1868991E+04  0.7818609E-02  0.8670448E-01
       -2   -1    0    0    0  501  0.00000000000E+00  0.00000000000E+00  0.70514988367E+03  0.70514988367E+03  0.25500000920E-02 0. -1.
        2   -1    0    0  501    0  0.00000000000E+00  0.00000000000E+00 -0.12384339264E+04  0.12384339265E+04  0.25500000920E-02 0.  1.
    10030    2    1    2    0    0  0.00000000000E+00  0.00000000000E+00 -0.53328404278E+03  0.19435838101E+04  0.18689906786E+04 0.  0.
        1    1    3    3  502    0 -0.44866959602E+02 -0.80387713303E+03  0.22668589769E+03  0.83643169794E+03  0.50400001928E-02 0. -1.
       -1    1    3    3    0  502  0.44866959602E+02  0.80387713303E+03 -0.75996994047E+03  0.11071521122E+04  0.50400001928E-02 0.  1.
</event>
<event>
 5   0  0.4295775E-05  0.2295913E+04  0.7818609E-02  0.8479534E-01
       -1   -1    0    0    0  501  0.00000000000E+00  0.00000000000E+00  0.86773850883E+03  0.86773850884E+03  0.50400001928E-02 0. -1.
        1   -1    0    0  501    0  0.00000000000E+00  0.00000000000E+00 -0.15186647218E+04  0.15186647218E+04  0.50400001928E-02 0.  1.
    10030    2    1    2    0    0  0.00000000000E+00  0.00000000000E+00 -0.65092621298E+03  0.23864032307E+04  0.22959127694E+04 0.  0.
        5    1    3    3  502    0 -0.58409908253E+03 -0.72575182604E+03 -0.10226411477E+04  0.13833670728E+04  0.46999998093E+01 0. -1.
       -5    1    3    3    0  502  0.58409908253E+03  0.72575182604E+03  0.37171493472E+03  0.10030361578E+04  0.46999998093E+01 0.  1.
</event>
<event>
 5   0  0.4095451E-05  0.2280870E+04  0.7818609E-02  0.8485502E-01
        1   -1    0    0  501    0  0.00000000000E+00  0.00000000000E+00  0.13729708050E+04  0.13729708050E+04  0.50400001928E-02 0.  1.
       -1   -1    0    0    0  501  0.00000000000E+00  0.00000000000E+00 -0.94728333870E+03  0.94728333871E+03  0.50400001928E-02 0. -1.
    10030    2    1    2    0    0  0.00000000000E+00  0.00000000000E+00  0.42568746634E+03  0.23202541438E+04  0.22808703323E+04 0.  0.
        3    1    3    3  502    0  0.79501402940E+03  0.54632824517E+03 -0.40599458026E+03  0.10465913567E+04  0.10100000352E+00 0. -1.
       -3    1    3    3    0  502 -0.79501402940E+03 -0.54632824517E+03  0.83168204660E+03  0.12736627871E+04  0.10100000352E+00 0.  1.
</event>
<event>
 5   0  0.4095451E-05  0.2254528E+04  0.7818609E-02  0.8496069E-01
        1   -1    0    0  501    0  0.00000000000E+00  0.00000000000E+00  0.19141447122E+04  0.19141447122E+04  0.50400001928E-02 0.  1.
       -1   -1    0    0    0  501  0.00000000000E+00  0.00000000000E+00 -0.66386001868E+03  0.66386001870E+03  0.50400001928E-02 0. -1.
    10030    2    1    2    0    0  0.00000000000E+00  0.00000000000E+00  0.12502846935E+04  0.25780047309E+04  0.22545280166E+04 0.  0.
        3    1    3    3  502    0 -0.25425847824E+03  0.61596906273E+03 -0.41451742429E+03  0.78478657305E+03  0.10100000352E+00 0. -1.
       -3    1    3    3    0  502  0.25425847824E+03 -0.61596906273E+03  0.16648021178E+04  0.17932181579E+04  0.10100000352E+00 0.  1.
</event>
<event>
 5   0  0.4295775E-05  0.2171428E+04  0.7818609E-02  0.8530415E-01
       -1   -1    0    0    0  501  0.00000000000E+00  0.00000000000E+00  0.88443727468E+03  0.88443727469E+03  0.50400001928E-02 0.  1.
        1   -1    0    0  501    0  0.00000000000E+00  0.00000000000E+00 -0.13327969309E+04  0.13327969309E+04  0.50400001928E-02 0. -1.
    10030    2    1    2    0    0  0.00000000000E+00  0.00000000000E+00 -0.44835965624E+03  0.22172342056E+04  0.21714283643E+04 0.  0.
        5    1    3    3  502    0 -0.46485939824E+03  0.52492146529E+03 -0.10705906697E+04  0.12797746977E+04  0.46999998093E+01 0. -1.
       -5    1    3    3    0  502  0.46485939824E+03 -0.52492146529E+03  0.62223101346E+03  0.93745950791E+03  0.46999998093E+01 0.  1.
</event>
<event>
 5   0  0.9312074E-05  0.2295262E+04  0.7818609E-02  0.8479792E-01
        2   -1    0    0  501    0  0.00000000000E+00  0.00000000000E+00  0.13113694266E+04  0.13113694266E+04  0.25500000920E-02 0. -1.
       -2   -1    0    0    0  501  0.00000000000E+00  0.00000000000E+00 -0.10043368455E+04  0.10043368455E+04  0.25500000920E-02 0.  1.
    10030    2    1    2    0    0  0.00000000000E+00  0.00000000000E+00  0.30703258107E+03  0.23157062721E+04  0.22952617570E+04 0.  0.
        4    1    3    3  502    0  0.11212112238E+04  0.23312335161E+03  0.22897496609E+03  0.11678579766E+04  0.12699999809E+01 0.  1.
       -4    1    3    3    0  502 -0.11212112238E+04 -0.23312335161E+03  0.78057614985E+02  0.11478482956E+04  0.12699999809E+01 0. -1.
</event>
<event>
 5   0  0.9641157E-05  0.2320480E+04  0.7818609E-02  0.8469890E-01
       -2   -1    0    0    0  501  0.00000000000E+00  0.00000000000E+00  0.11224945741E+04  0.11224945741E+04  0.25500000920E-02 0.  1.
        2   -1    0    0  501    0  0.00000000000E+00  0.00000000000E+00 -0.11992544567E+04  0.11992544567E+04  0.25500000920E-02 0. -1.
    10030    2    1    2    0    0  0.00000000000E+00  0.00000000000E+00 -0.76759882639E+02  0.23217490308E+04  0.23204797957E+04 0.  0.
        3    1    3    3  502    0  0.60150791916E+03 -0.33806950700E+03  0.89489702223E+03  0.11300192295E+04  0.10100000352E+00 0.  1.
       -3    1    3    3    0  502 -0.60150791916E+03  0.33806950700E+03 -0.97165690487E+03  0.11917298013E+04  0.10100000352E+00 0. -1.
</event>
<event>
 5   0  0.9535394E-05  0.1618532E+04  0.7818609E-02  0.8809243E-01
       -2   -1    0    0    0  501  0.00000000000E+00  0.00000000000E+00  0.59045413265E+03  0.59045413266E+03  0.25500000920E-02 0.  1.
        2   -1    0    0  501    0  0.00000000000E+00  0.00000000000E+00 -0.11091658320E+04  0.11091658320E+04  0.25500000920E-02 0. -1.
    10030    2    1    2    0    0  0.00000000000E+00  0.00000000000E+00 -0.51871169933E+03  0.16996199646E+04  0.16185321119E+04 0.  0.
        2    1    3    3  502    0  0.29496392494E+03 -0.43750865419E+01 -0.10506940185E+04  0.10913206581E+04  0.25500000920E-02 0. -1.
       -2    1    3    3    0  502 -0.29496392494E+03  0.43750865419E+01  0.53198231915E+03  0.60829930650E+03  0.25500000920E-02 0.  1.
</event>
<event>
 5   0  0.9313463E-05  0.2312134E+04  0.7818609E-02  0.8473152E-01
        2   -1    0    0  501    0  0.00000000000E+00  0.00000000000E+00  0.16169270282E+04  0.16169270282E+04  0.25500000920E-02 0. -1.
       -2   -1    0    0    0  501  0.00000000000E+00  0.00000000000E+00 -0.82656206620E+03  0.82656206620E+03  0.25500000920E-02 0.  1.
    10030    2    1    2    0    0  0.00000000000E+00  0.00000000000E+00  0.79036496196E+03  0.24434890944E+04  0.23121336858E+04 0.  0.
        1    1    3    3  502    0  0.22688747645E+03 -0.59997422345E+03  0.14116150057E+04  0.15505173072E+04  0.50400001928E-02 0. -1.
       -1    1    3    3    0  502 -0.22688747645E+03  0.59997422345E+03 -0.62125004371E+03  0.89297178713E+03  0.50400001928E-02 0.  1.
</event>
<event>
 5   0  0.9483073E-05  0.2151955E+04  0.7818609E-02  0.8538696E-01
        2   -1    0    0  501    0  0.00000000000E+00  0.00000000000E+00  0.14780304422E+04  0.14780304422E+04  0.25500000920E-02 0. -1.
       -2   -1    0    0    0  501  0.00000000000E+00  0.00000000000E+00 -0.78329096043E+03  0.78329096044E+03  0.25500000920E-02 0.  1.
    10030    2    1    2    0    0  0.00000000000E+00  0.00000000000E+00  0.69473948180E+03  0.22613214027E+04  0.21519552827E+04 0.  0.
        5    1    3    3  502    0  0.71870344998E+03  0.79271889112E+03  0.46610750785E+03  0.11671401751E+04  0.46999998093E+01 0. -1.
       -5    1    3    3    0  502 -0.71870344998E+03 -0.79271889112E+03  0.22863197394E+03  0.10941812276E+04  0.46999998093E+01 0.  1.
</event>
<event>
 5   0  0.9641157E-05  0.2295846E+04  0.7818609E-02  0.8479561E-01
        2   -1    0    0  501    0  0.00000000000E+00  0.00000000000E+00  0.47654890124E+03  0.47654890124E+03  0.25500000920E-02 0. -1.
       -2   -1    0    0    0  501  0.00000000000E+00  0.00000000000E+00 -0.27651448794E+04  0.27651448794E+04  0.25500000920E-02 0.  1.
    10030    2    1    2    0    0  0.00000000000E+00  0.00000000000E+00 -0.22885959781E+04  0.32416937806E+04  0.22958455994E+04 0.  0.
        3    1    3    3  502    0 -0.22148899632E+03  0.83385952200E+03 -0.22134472369E+04  0.23756531226E+04  0.10100000352E+00 0.  1.
       -3    1    3    3    0  502  0.22148899632E+03 -0.83385952200E+03 -0.75148741239E+02  0.86604065807E+03  0.10100000352E+00 0. -1.
</event>
<event>
 5   0  0.4139830E-05  0.2247177E+04  0.7818609E-02  0.8499045E-01
       -1   -1    0    0    0  501  0.00000000000E+00  0.00000000000E+00  0.67850474657E+03  0.67850474659E+03  0.50400001928E-02 0.  1.
        1   -1    0    0  501    0  0.00000000000E+00  0.00000000000E+00 -0.18606369234E+04  0.18606369234E+04  0.50400001928E-02 0. -1.
    10030    2    1    2    0    0  0.00000000000E+00  0.00000000000E+00 -0.11821321768E+04  0.25391416700E+04  0.22471768815E+04 0.  0.
        1    1    3    3  502    0  0.11045747380E+04 -0.16722126357E+03 -0.72666972998E+03  0.13327029674E+04  0.50400001928E-02 0.  1.
       -1    1    3    3    0  502 -0.11045747380E+04  0.16722126357E+03 -0.45546244685E+03  0.12064387026E+04  0.50400001928E-02 0. -1.
</event>
<event>
 5   0  0.4095451E-05  0.2281830E+04  0.7818609E-02  0.8485120E-01
        1   -1    0    0  501    0  0.00000000000E+00  0.00000000000E+00  0.76116942616E+03  0.76116942618E+03  0.50400001928E-02 0.  1.
       -1   -1    0    0    0  501  0.00000000000E+00  0.00000000000E+00 -0.17101147074E+04  0.17101147074E+04  0.50400001928E-02 0. -1.
    10030    2    1    2    0    0  0.00000000000E+00  0.00000000000E+00 -0.94894528125E+03  0.24712841336E+04  0.22818299941E+04 0.  0.
        3    1    3    3  502    0  0.35242194321E+03  0.87665326352E+03  0.21812720042E+03  0.96969152634E+03  0.10100000352E+00 0.  1.
       -3    1    3    3    0  502 -0.35242194321E+03 -0.87665326352E+03 -0.11670724817E+04  0.15015926073E+04  0.10100000352E+00 0. -1.
</event>
<event>
 5   0  0.4295775E-05  0.1518658E+04  0.7818609E-02  0.8872139E-01
       -1   -1    0    0    0  501  0.00000000000E+00  0.00000000000E+00  0.52842984604E+03  0.52842984606E+03  0.50400001928E-02 0.  1.
        1   -1    0    0  501    0  0.00000000000E+00  0.00000000000E+00 -0.10911203468E+04  0.10911203469E+04  0.50400001928E-02 0. -1.
    10030    2    1    2    0    0  0.00000000000E+00  0.00000000000E+00 -0.56269050081E+03  0.16195501929E+04  0.15186580351E+04 0.  0.
        5    1    3    3  502    0  0.46229075819E+03  0.38511631709E+03 -0.77529138856E+03  0.98138990721E+03  0.46999998093E+01 0. -1.
       -5    1    3    3    0  502 -0.46229075819E+03 -0.38511631709E+03  0.21260088775E+03  0.63816028572E+03  0.46999998093E+01 0.  1.
</event>
<event>
 5   0  0.4095451E-05  0.2290630E+04  0.7818609E-02  0.8481625E-01
       -1   -1    0    0    0  501  0.00000000000E+00  0.00000000000E+00  0.13666888239E+04  0.13666888239E+04  0.50400001928E-02 0. -1.
        1   -1    0    0  501    0  0.00000000000E+00  0.00000000000E+00 -0.95979875636E+03  0.95979875637E+03  0.50400001928E-02 0.  1.
    10030    2    1    2    0    0  0.00000000000E+00  0.00000000000E+00  0.40689006753E+03  0.23264875803E+04  0.22906298117E+04 0.  0.
        3    1    3    3  502    0  0.28974724895E+03  0.90527987130E+03 -0.44551034396E+03  0.10497450121E+04  0.10100000352E+00 0.  1.
       -3    1    3    3    0  502 -0.28974724895E+03 -0.90527987130E+03  0.85240041149E+03  0.12767425682E+04  0.10100000352E+00 0. -1.
</event>
<event>
 5   0  0.9535394E-05  0.2320710E+04  0.7818609E-02  0.8469800E-01
       -2   -1    0    0    0  501  0.00000000000E+00  0.00000000000E+00  0.13066936929E+04  0.13066936929E+04  0.25500000920E-02 0.  1.
        2   -1    0    0  501    0  0.00000000000E+00  0.00000000000E+00 -0.10304049036E+04  0.10304049036E+04  0.25500000920E-02 0. -1.
    10030    2    1    2    0    0  0.00000000000E+00  0.00000000000E+00  0.27628878921E+03  0.23370985965E+04  0.23207098816E+04 0.  0.
        2    1    3    3  502    0  0.23602736285E+03  0.62255393174E+03  0.10951930741E+04  0.12816903618E+04  0.25500000920E-02 0.  1.
       -2    1    3    3    0  502 -0.23602736285E+03 -0.62255393174E+03 -0.81890428494E+03  0.10554082347E+04  0.25500000920E-02 0. -1.
</event>
<event>
 5   0  0.9641157E-05  0.2252206E+04  0.7818609E-02  0.8497008E-01
        2   -1    0    0  501    0  0.00000000000E+00  0.00000000000E+00  0.10060678641E+04  0.10060678641E+04  0.25500000920E-02 0.  1.
       -2   -1    0    0    0  501  0.00000000000E+00  0.00000000000E+00 -0.12604598356E+04  0.12604598356E+04  0.25500000920E-02 0. -1.
    10030    2    1    2    0    0  0.00000000000E+00  0.00000000000E+00 -0.25439197148E+03  0.22665276997E+04  0.22522061492E+04 0.  0.
        3    1    3    3  502    0  0.10962269311E+04  0.12467584100E+03  0.99738670441E+02  0.11077930142E+04  0.10100000352E+00 0.  1.
       -3    1    3    3    0  502 -0.10962269311E+04 -0.12467584100E+03 -0.35413064192E+03  0.11587346855E+04  0.10100000352E+00 0. -1.
</event>
<event>
 5   0  0.4095451E-05  0.1935489E+04  0.7818609E-02  0.8637390E-01
        1   -1    0    0  501    0  0.00000000000E+00  0.00000000000E+00  0.10423150890E+04  0.10423150890E+04  0.50400001928E-02 0. -1.
       -1   -1    0    0    0  501  0.00000000000E+00  0.00000000000E+00 -0.89850905636E+03  0.89850905637E+03  0.50400001928E-02 0.  1.
    10030    2    1    2    0    0  0.00000000000E+00  0.00000000000E+00  0.14380603262E+03  0.19408241454E+04  0.19354891341E+04 0.  0.
        3    1    3    3  502    0  0.54727324731E+03  0.38762946583E+03  0.77151153361E+03  0.10222498064E+04  0.10100000352E+00 0. -1.
       -3    1    3    3    0  502 -0.54727324731E+03 -0.38762946583E+03 -0.62770550099E+03  0.91857433895E+03  0.10100000352E+00 0.  1.
</event>
<event>
 5   0  0.3885219E-05  0.2291003E+04  0.7818609E-02  0.8481477E-01
       -1   -1    0    0    0  501  0.00000000000E+00  0.00000000000E+00  0.71955092071E+03  0.71955092073E+03  0.50400001928E-02 0. -1.
        1   -1    0    0  501    0  0.00000000000E+00  0.00000000000E+00 -0.18236004320E+04  0.18236004320E+04  0.50400001928E-02 0.  1.
    10030    2    1    2    0    0  0.00000000000E+00  0.00000000000E+00 -0.11040495113E+04  0.25431513528E+04  0.22910027236E+04 0.  0.
        2    1    3    3  502    0  0.47424861471E+03 -0.69682178890E+02 -0.17069176268E+04  0.17729453289E+04  0.25500000920E-02 0.  1.
       -2    1    3    3    0  502 -0.47424861471E+03  0.69682178890E+02  0.60286811545E+03  0.77020602389E+03  0.25500000920E-02 0. -1.
</event>
<event>
 5   0  0.9535394E-05  0.2146063E+04  0.7818609E-02  0.8541219E-01
        2   -1    0    0  501    0  0.00000000000E+00  0.00000000000E+00  0.12895857261E+04  0.12895857261E+04  0.25500000920E-02 0. -1.
       -2   -1    0    0    0  501  0.00000000000E+00  0.00000000000E+00 -0.89284237802E+03  0.89284237803E+03  0.25500000920E-02 0.  1.
    10030    2    1    2    0    0  0.00000000000E+00  0.00000000000E+00  0.39674334809E+03  0.21824281041E+04  0.21460631737E+04 0.  0.
        2    1    3    3  502    0 -0.41743588168E+03  0.94581173671E+03 -0.93872595950E+02  0.10380870006E+04  0.25500000920E-02 0. -1.
       -2    1    3    3    0  502  0.41743588168E+03 -0.94581173671E+03  0.49061594404E+03  0.11443411035E+04  0.25500000920E-02 0.  1.
</event>
<event>
 5   0  0.4005462E-05  0.2135981E+04  0.7818609E-02  0.8545557E-01
        1   -1    0    0  501    0  0.00000000000E+00  0.00000000000E+00  0.21221496050E+04  0.21221496050E+04  0.50400001928E-02 0. -1.
       -1   -1    0    0    0  501  0.00000000000E+00  0.00000000000E+00 -0.53747539520E+03  0.53747539522E+03  0.50400001928E-02 0.  1.
    10030    2    1    2    0    0  0.00000000000E+00  0.00000000000E+00  0.15846742098E+04  0.26596250002E+04  0.21359805221E+04 0.  0.
        4    1    3    3  502    0 -0.67209889122E+03  0.39224312354E+03 -0.11844016733E+03  0.78714755522E+03  0.12699999809E+01 0.  1.
       -4    1    3    3    0  502  0.67209889122E+03 -0.39224312354E+03  0.17031143771E+04  0.18724774450E+04  0.12699999809E+01 0. -1.
</event>
<event>
 5   0  0.9313463E-05  0.2064302E+04  0.7818609E-02  0.8577134E-01
       -2   -1    0    0    0  501  0.00000000000E+00  0.00000000000E+00  0.90592330383E+03  0.90592330383E+03  0.25500000920E-02 0. -1.
        2   -1    0    0  501    0  0.00000000000E+00  0.00000000000E+00 -0.11759664954E+04  0.11759664954E+04  0.25500000920E-02 0.  1.
    10030    2    1    2    0    0  0.00000000000E+00  0.00000000000E+00 -0.27004319162E+03  0.20818897993E+04  0.20643017732E+04 0.  0.
        1    1    3    3  502    0 -0.10126598156E+04 -0.12643904193E+03 -0.29083295296E+03  0.10611552855E+04  0.50400001928E-02 0. -1.
       -1    1    3    3    0  502  0.10126598156E+04  0.12643904193E+03  0.20789761344E+02  0.10207345138E+04  0.50400001928E-02 0.  1.
</event>
<event>
 5   0  0.4005462E-05  0.2342156E+04  0.7818609E-02  0.8461482E-01
        1   -1    0    0  501    0  0.00000000000E+00  0.00000000000E+00  0.11936600671E+04  0.11936600671E+04  0.50400001928E-02 0. -1.
       -1   -1    0    0    0  501  0.00000000000E+00  0.00000000000E+00 -0.11489235912E+04  0.11489235912E+04  0.50400001928E-02 0.  1.
    10030    2    1    2    0    0  0.00000000000E+00  0.00000000000E+00  0.44736475848E+02  0.23425836583E+04  0.23421564516E+04 0.  0.
        4    1    3    3  502    0 -0.10911981505E+04 -0.42412552115E+03  0.51126511714E+02  0.11718410278E+04  0.12699999809E+01 0. -1.
       -4    1    3    3    0  502  0.10911981505E+04  0.42412552115E+03 -0.63900358654E+01  0.11707426305E+04  0.12699999809E+01 0.  1.
</event>
<event>
 5   0  0.4095451E-05  0.2278799E+04  0.7818609E-02  0.8486327E-01
       -1   -1    0    0    0  501  0.00000000000E+00  0.00000000000E+00  0.69630959937E+03  0.69630959939E+03  0.50400001928E-02 0.  1.
        1   -1    0    0  501    0  0.00000000000E+00  0.00000000000E+00 -0.18644460724E+04  0.18644460724E+04  0.50400001928E-02 0. -1.
    10030    2    1    2    0    0  0.00000000000E+00  0.00000000000E+00 -0.11681364730E+04  0.25607556718E+04  0.22787994188E+04 0.  0.
        3    1    3    3  502    0  0.95480111909E+03  0.62031881569E+03 -0.53651071374E+03  0.12586835847E+04  0.10100000352E+00 0. -1.
       -3    1    3    3    0  502 -0.95480111909E+03 -0.62031881569E+03 -0.63162575929E+03  0.13020720871E+04  0.10100000352E+00 0.  1.
</event>
<event>
 5   0  0.3885219E-05  0.2366956E+04  0.7818609E-02  0.8451979E-01
        1   -1    0    0  501    0  0.00000000000E+00  0.00000000000E+00  0.12318509075E+04  0.12318509075E+04  0.50400001928E-02 0. -1.
       -1   -1    0    0    0  501  0.00000000000E+00  0.00000000000E+00 -0.11370047136E+04  0.11370047136E+04  0.50400001928E-02 0.  1.
    10030    2    1    2    0    0  0.00000000000E+00  0.00000000000E+00  0.94846193933E+02  0.23688556211E+04  0.23669560945E+04 0.  0.
        2    1    3    3  502    0  0.80513933929E+03  0.24089104960E+03 -0.78651774484E+03  0.11510377997E+04  0.25500000920E-02 0.  1.
       -2    1    3    3    0  502 -0.80513933929E+03 -0.24089104960E+03  0.88136393877E+03  0.12178178214E+04  0.25500000920E-02 0. -1.
</event>
<event>
 5   0  0.9313463E-05  0.2261009E+04  0.7818609E-02  0.8493455E-01
       -2   -1    0    0    0  501  0.00000000000E+00  0.00000000000E+00  0.73326691573E+03  0.73326691573E+03  0.25500000920E-02 0.  1.
        2   -1    0    0  501    0  0.00000000000E+00  0.00000000000E+00 -0.17429406179E+04  0.17429406179E+04  0.25500000920E-02 0. -1.
    10030    2    1    2    0    0  0.00000000000E+00  0.00000000000E+00 -0.10096737022E+04  0.24762075337E+04  0.22610092359E+04 0.  0.
        1    1    3    3  502    0 -0.15557874833E+03 -0.10167340207E+04  0.89497368735E+01  0.10286072689E+04  0.50400001928E-02 0.  1.
       -1    1    3    3    0  502  0.15557874833E+03  0.10167340207E+04 -0.10186234391E+04  0.14476002647E+04  0.50400001928E-02 0. -1.
</event>
<event>
 5   0  0.9483073E-05  0.2383321E+04  0.7818609E-02  0.8445774E-01
        2   -1    0    0  501    0  0.00000000000E+00  0.00000000000E+00  0.13456050623E+04  0.13456050623E+04  0.25500000920E-02 0.  1.
       -2   -1    0    0    0  501  0.00000000000E+00  0.00000000000E+00 -0.10553280454E+04  0.10553280454E+04  0.25500000920E-02 0. -1.
    10030    2    1    2    0    0  0.00000000000E+00  0.00000000000E+00  0.29027701683E+03  0.24009331077E+04  0.23833210109E+04 0.  0.
        5    1    3    3  502    0  0.87690599797E+03  0.76910544461E+03 -0.10068389874E+03  0.11707461944E+04  0.46999998093E+01 0.  1.
       -5    1    3    3    0  502 -0.87690599797E+03 -0.76910544461E+03  0.39096091557E+03  0.12301869133E+04  0.46999998093E+01 0. -1.
</event>
<event>
 5   0  0.4295775E-05  0.2315229E+04  0.7818609E-02  0.8471941E-01
       -1   -1    0    0    0  501  0.00000000000E+00  0.00000000000E+00  0.13375246930E+04  0.13375246930E+04  0.50400001928E-02 0. -1.
        1   -1    0    0  501    0  0.00000000000E+00  0.00000000000E+00 -0.10019035819E+04  0.10019035819E+04  0.50400001928E-02 0.  1.
    10030    2    1    2    0    0  0.00000000000E+00  0.00000000000E+00  0.33562111112E+03  0.23394282749E+04  0.23152285250E+04 0.  0.
        5    1    3    3  502    0  0.26596507164E+02  0.10270175296E+04 -0.37122230590E+03  0.10923829323E+04  0.46999998093E+01 0.  1.
       -5    1    3    3    0  502 -0.26596507164E+02 -0.10270175296E+04  0.70684341702E+03  0.12470453426E+04  0.46999998093E+01 0. -1.
</event>
<event>
 5   0  0.9312074E-05  0.2283523E+04  0.7818609E-02  0.8484446E-01
        2   -1    0    0  501    0  0.00000000000E+00  0.00000000000E+00  0.14118866685E+04  0.14118866685E+04  0.25500000920E-02 0.  1.
       -2   -1    0    0    0  501  0.00000000000E+00  0.00000000000E+00 -0.92331754601E+03  0.92331754601E+03  0.25500000920E-02 0. -1.
    10030    2    1    2    0    0  0.00000000000E+00  0.00000000000E+00  0.48856912245E+03  0.23352042145E+04  0.22835233601E+04 0.  0.
        4    1    3    3  502    0  0.10442170212E+04 -0.24031659788E+03 -0.15894493815E+03  0.10832388291E+04  0.12699999809E+01 0.  1.
       -4    1    3    3    0  502 -0.10442170212E+04  0.24031659788E+03  0.64751406060E+03  0.12519653854E+04  0.12699999809E+01 0. -1.
</event>
<event>
 5   0  0.4139830E-05  0.2274293E+04  0.7818609E-02  0.8488127E-01
       -1   -1    0    0    0  501  0.00000000000E+00  0.00000000000E+00  0.66223483840E+03  0.66223483842E+03  0.50400001928E-02 0. -1.
        1   -1    0    0  501    0  0.00000000000E+00  0.00000000000E+00 -0.19526331452E+04  0.19526331452E+04  0.50400001928E-02 0.  1.
    10030    2    1    2    0    0  0.00000000000E+00  0.00000000000E+00 -0.12903983068E+04  0.26148679836E+04  0.22742925893E+04 0.  0.
        1    1    3    3  502    0 -0.87895102644E+03 -0.70643838677E+03 -0.47664566416E+03  0.12242553616E+04  0.50400001928E-02 0.  1.
       -1    1    3    3    0  502  0.87895102644E+03  0.70643838677E+03 -0.81375264266E+03  0.13906126221E+04  0.50400001928E-02 0. -1.
</event>
<event>
 5   0  0.4295775E-05  0.2304133E+04  0.7818609E-02  0.8476293E-01
        1   -1    0    0  501    0  0.00000000000E+00  0.00000000000E+00  0.14862881316E+04  0.14862881316E+04  0.50400001928E-02 0. -1.
       -1   -1    0    0    0  501  0.00000000000E+00  0.00000000000E+00 -0.89300144460E+03  0.89300144461E+03  0.50400001928E-02 0.  1.
    10030    2    1    2    0    0  0.00000000000E+00  0.00000000000E+00  0.59328668699E+03  0.23792895762E+04  0.23041331981E+04 0.  0.
        5    1    3    3  502    0 -0.41434047760E+03  0.78466978799E+02  0.14037140676E+04  0.14656979128E+04  0.46999998093E+01 0. -1.
       -5    1    3    3    0  502  0.41434047760E+03 -0.78466978799E+02 -0.81042738061E+03  0.91359166336E+03  0.46999998093E+01 0.  1.
</event>
<event>
 5   0  0.3885219E-05  0.2284082E+04  0.7818609E-02  0.8484224E-01
        1   -1    0    0  501    0  0.00000000000E+00  0.00000000000E+00  0.82161653017E+03  0.82161653019E+03  0.50400001928E-02 0. -1.
       -1   -1    0    0    0  501  0.00000000000E+00  0.00000000000E+00 -0.15874291374E+04  0.15874291374E+04  0.50400001928E-02 0.  1.
    10030    2    1    2    0    0  0.00000000000E+00  0.00000000000E+00 -0.76581260727E+03  0.24090456676E+04  0.22840823276E+04 0.  0.
        2    1    3    3  502    0  0.77979325290E+02 -0.42691852294E+03 -0.14970709805E+04  0.15587051424E+04  0.25500000920E-02 0.  1.
       -2    1    3    3    0  502 -0.77979325290E+02  0.42691852294E+03  0.73125837322E+03  0.85034052521E+03  0.25500000920E-02 0. -1.
</event>
<event>
 5   0  0.3885219E-05  0.2297149E+04  0.7818609E-02  0.8479046E-01
        1   -1    0    0  501    0  0.00000000000E+00  0.00000000000E+00  0.14130465218E+04  0.14130465218E+04  0.50400001928E-02 0.  1.
       -1   -1    0    0    0  501  0.00000000000E+00  0.00000000000E+00 -0.93360228724E+03  0.93360228725E+03  0.50400001928E-02 0. -1.
    10030    2    1    2    0    0  0.00000000000E+00  0.00000000000E+00  0.47944423451E+03  0.23466488090E+04  0.22971490720E+04 0.  0.
        2    1    3    3  502    0 -0.24557433803E+03  0.14429254028E+03  0.13763966917E+04  0.14055585885E+04  0.25500000920E-02 0.  1.
       -2    1    3    3    0  502  0.24557433803E+03 -0.14429254028E+03 -0.89695245721E+03  0.94109022053E+03  0.25500000920E-02 0. -1.
</event>
<event>
 5   0  0.4295775E-05  0.2288017E+04  0.7818609E-02  0.8482661E-01
       -1   -1    0    0    0  501  0.00000000000E+00  0.00000000000E+00  0.14293532693E+04  0.14293532694E+04  0.50400001928E-02 0. -1.
        1   -1    0    0  501    0  0.00000000000E+00  0.00000000000E+00 -0.91562739976E+03  0.91562739978E+03  0.50400001928E-02 0.  1.
    10030    2    1    2    0    0  0.00000000000E+00  0.00000000000E+00  0.51372586958E+03  0.23449806691E+04  0.22880166235E+04 0.  0.
        5    1    3    3  502    0 -0.11315809708E+04  0.31367262542E+02  0.87604329433E+02  0.11354100612E+04  0.46999998093E+01 0. -1.
       -5    1    3    3    0  502  0.11315809708E+04 -0.31367262542E+02  0.42612154014E+03  0.12095706079E+04  0.46999998093E+01 0.  1.
</event>
<event>
 5   0  0.4295775E-05  0.2281567E+04  0.7818609E-02  0.8485224E-01
        1   -1    0    0  501    0  0.00000000000E+00  0.00000000000E+00  0.82000981817E+03  0.82000981819E+03  0.50400001928E-02 0. -1.
       -1   -1    0    0    0  501  0.00000000000E+00  0.00000000000E+00 -0.15870389516E+04  0.15870389516E+04  0.50400001928E-02 0.  1.
    10030    2    1    2    0    0  0.00000000000E+00  0.00000000000E+00 -0.76702913339E+03  0.24070487698E+04  0.22815674631E+04 0.  0.
        5    1    3    3  502    0  0.34390477957E+03 -0.14505227131E+03 -0.15207879481E+04  0.15659274351E+04  0.46999998093E+01 0.  1.
       -5    1    3    3    0  502 -0.34390477957E+03  0.14505227131E+03  0.75375881474E+03  0.84112133466E+03  0.46999998093E+01 0. -1.
</event>
<event>
 5   0  0.3885219E-05  0.2286655E+04  0.7818609E-02  0.8483201E-01
       -1   -1    0    0    0  501  0.00000000000E+00  0.00000000000E+00  0.77542022338E+03  0.77542022340E+03  0.50400001928E-02 0. -1.
        1   -1    0    0  501    0  0.00000000000E+00  0.00000000000E+00 -0.16857934187E+04  0.16857934187E+04  0.50400001928E-02 0.  1.
    10030    2    1    2    0    0  0.00000000000E+00  0.00000000000E+00 -0.91037319531E+03  0.24612136421E+04  0.22866554697E+04 0.  0.
        2    1    3    3  502    0 -0.63705437973E+03  0.56439976490E+03 -0.12768863746E+04  0.15345436426E+04  0.25500000920E-02 0.  1.
       -2    1    3    3    0  502  0.63705437973E+03 -0.56439976490E+03  0.36651317931E+03  0.92666999949E+03  0.25500000920E-02 0. -1.
</event>
<event>
 5   0  0.3885219E-05  0.1527057E+04  0.7818609E-02  0.8866657E-01
       -1   -1    0    0    0  501  0.00000000000E+00  0.00000000000E+00  0.30526192196E+03  0.30526192200E+03  0.50400001928E-02 0. -1.
        1   -1    0    0  501    0  0.00000000000E+00  0.00000000000E+00 -0.19097555563E+04  0.19097555563E+04  0.50400001928E-02 0.  1.
    10030    2    1    2    0    0  0.00000000000E+00  0.00000000000E+00 -0.16044936343E+04  0.22150174783E+04  0.15270568446E+04 0.  0.
        2    1    3    3  502    0  0.11858366567E+03  0.15002730526E+03 -0.18744557828E+04  0.18841854367E+04  0.25500000920E-02 0.  1.
       -2    1    3    3    0  502 -0.11858366567E+03 -0.15002730526E+03  0.26996214852E+03  0.33083204157E+03  0.25500000920E-02 0. -1.
</event>
<event>
 5   0  0.3885219E-05  0.2221299E+04  0.7818609E-02  0.8509615E-01
       -1   -1    0    0    0  501  0.00000000000E+00  0.00000000000E+00  0.12106123559E+04  0.12106123559E+04  0.50400001928E-02 0.  1.
        1   -1    0    0  501    0  0.00000000000E+00  0.00000000000E+00 -0.10189409580E+04  0.10189409580E+04  0.50400001928E-02 0. -1.
    10030    2    1    2    0    0  0.00000000000E+00  0.00000000000E+00  0.19167139793E+03  0.22295533139E+04  0.22212991817E+04 0.  0.
        2    1    3    3  502    0 -0.88806455494E+03  0.35637341694E+03 -0.47006948133E+03  0.10661266263E+04  0.25500000920E-02 0. -1.
       -2    1    3    3    0  502  0.88806455494E+03 -0.35637341694E+03  0.66174087926E+03  0.11634266876E+04  0.25500000920E-02 0.  1.
</event>
<event>
 5   0  0.9313463E-05  0.1955665E+04  0.7818609E-02  0.8627634E-01
       -2   -1    0    0    0  501  0.00000000000E+00  0.00000000000E+00  0.82861046715E+03  0.82861046715E+03  0.25500000920E-02 0.  1.
        2   -1    0    0  501    0  0.00000000000E+00  0.00000000000E+00 -0.11539269496E+04  0.11539269496E+04  0.25500000920E-02 0. -1.
    10030    2    1    2    0    0  0.00000000000E+00  0.00000000000E+00 -0.32531648244E+03  0.19825374167E+04  0.19556645405E+04 0.  0.
        1    1    3    3  502    0 -0.43398740328E+03 -0.87301877228E+03 -0.23885155888E+03  0.10037713436E+04  0.50400001928E-02 0. -1.
       -1    1    3    3    0  502  0.43398740328E+03  0.87301877228E+03 -0.86464923555E+02  0.97876607317E+03  0.50400001928E-02 0.  1.
</event>
<event>
 5   0  0.4295775E-05  0.2279645E+04  0.7818609E-02  0.8485990E-01
        1   -1    0    0  501    0  0.00000000000E+00  0.00000000000E+00  0.21738215992E+04  0.21738215992E+04  0.50400001928E-02 0. -1.
       -1   -1    0    0    0  501  0.00000000000E+00  0.00000000000E+00 -0.59765510062E+03  0.59765510064E+03  0.50400001928E-02 0.  1.
    10030    2    1    2    0    0  0.00000000000E+00  0.00000000000E+00  0.15761664986E+04  0.27714766998E+04  0.22796452063E+04 0.  0.
        5    1    3    3  502    0 -0.64600355263E+03 -0.32917330385E+03 -0.28115261868E+03  0.77765322539E+03  0.46999998093E+01 0.  1.
       -5    1    3    3    0  502  0.64600355263E+03  0.32917330385E+03  0.18573191172E+04  0.19938234744E+04  0.46999998093E+01 0. -1.
</event>
<event>
 5   0  0.3885219E-05  0.2238921E+04  0.7818609E-02  0.8502401E-01
        1   -1    0    0  501    0  0.00000000000E+00  0.00000000000E+00  0.23739912207E+04  0.23739912207E+04  0.50400001928E-02 0.  1.
       -1   -1    0    0    0  501  0.00000000000E+00  0.00000000000E+00 -0.52788391441E+03  0.52788391444E+03  0.50400001928E-02 0. -1.
    10030    2    1    2    0    0  0.00000000000E+00  0.00000000000E+00  0.18461073063E+04  0.29018751351E+04  0.22389209708E+04 0.  0.
        2    1    3    3  502    0  0.13373047040E+03  0.85798539226E+03  0.18387758954E+04  0.20334993399E+04  0.25500000920E-02 0.  1.
       -2    1    3    3    0  502 -0.13373047040E+03 -0.85798539226E+03  0.73314108609E+01  0.86837579517E+03  0.25500000920E-02 0. -1.
</event>
<event>
 5   0  0.4139830E-05  0.2291847E+04  0.7818609E-02  0.8481143E-01
        1   -1    0    0  501    0  0.00000000000E+00  0.00000000000E+00  0.14802681514E+04  0.14802681515E+04  0.50400001928E-02 0. -1.
       -1   -1    0    0    0  501  0.00000000000E+00  0.00000000000E+00 -0.88709634049E+03  0.88709634051E+03  0.50400001928E-02 0.  1.
    10030    2    1    2    0    0  0.00000000000E+00  0.00000000000E+00  0.59317181095E+03  0.23673644920E+04  0.22918468187E+04 0.  0.
        1    1    3    3  502    0  0.46318200742E+03 -0.94294844302E+03 -0.17615250187E+03  0.10652319194E+04  0.50400001928E-02 0.  1.
       -1    1    3    3    0  502 -0.46318200742E+03  0.94294844302E+03  0.76932431282E+03  0.13021325726E+04  0.50400001928E-02 0. -1.
</event>
<event>
 5   0  0.9483073E-05  0.2298237E+04  0.7818609E-02  0.8478617E-01
       -2   -1    0    0    0  501  0.00000000000E+00  0.00000000000E+00  0.12263306589E+04  0.12263306589E+04  0.25500000920E-02 0.  1.
        2   -1    0    0  501    0  0.00000000000E+00  0.00000000000E+00 -0.10767675689E+04  0.10767675689E+04  0.25500000920E-02 0. -1.
    10030    2    1    2    0    0  0.00000000000E+00  0.00000000000E+00  0.14956309001E+03  0.23030982277E+04  0.22982367869E+04 0.  0.
        5    1    3    3  502    0  0.10407846604E+03  0.11151063532E+04  0.33253464918E+03  0.11682875883E+04  0.46999998093E+01 0.  1.
       -5    1    3    3    0  502 -0.10407846604E+03 -0.11151063532E+04 -0.18297155918E+03  0.11348106395E+04  0.46999998093E+01 0. -1.
</event>
<event>
 5   0  0.9483073E-05  0.2330189E+04  0.7818609E-02  0.8466112E-01
        2   -1    0    0  501    0  0.00000000000E+00  0.00000000000E+00  0.16012957373E+04  0.16012957373E+04  0.25500000920E-02 0. -1.
       -2   -1    0    0    0  501  0.00000000000E+00  0.00000000000E+00 -0.84771656475E+03  0.84771656475E+03  0.25500000920E-02 0.  1.
    10030    2    1    2    0    0  0.00000000000E+00  0.00000000000E+00  0.75357917251E+03  0.24490123020E+04  0.23301887662E+04 0.  0.
        5    1    3    3  502    0  0.88078930881E+03 -0.55906687805E+03  0.92196762566E+03  0.13922614601E+04  0.46999998093E+01 0. -1.
       -5    1    3    3    0  502 -0.88078930881E+03  0.55906687805E+03 -0.16838845314E+03  0.10567508419E+04  0.46999998093E+01 0.  1.
</event>
<event>
 5   0  0.9312074E-05  0.2282054E+04  0.7818609E-02  0.8485031E-01
       -2   -1    0    0    0  501  0.00000000000E+00  0.00000000000E+00  0.61874356931E+03  0.61874356931E+03  0.25500000920E-02 0. -1.
        2   -1    0    0  501    0  0.00000000000E+00  0.00000000000E+00 -0.21041716497E+04  0.21041716497E+04  0.25500000920E-02 0.  1.
    10030    2    1    2    0    0  0.00000000000E+00  0.00000000000E+00 -0.14854280803E+04  0.27229152190E+04  0.22820540545E+04 0.  0.
        4    1    3    3  502    0 -0.54375838534E+03  0.12904052389E+03  0.44426114468E+03  0.71392871914E+03  0.12699999809E+01 0. -1.
       -4    1    3    3    0  502  0.54375838534E+03 -0.12904052389E+03 -0.19296892250E+04  0.20089864998E+04  0.12699999809E+01 0.  1.
</event>
<event>
 5   0  0.4295775E-05  0.2307000E+04  0.7818609E-02  0.8475166E-01
        1   -1    0    0  501    0  0.00000000000E+00  0.00000000000E+00  0.98992073429E+03  0.98992073430E+03  0.50400001928E-02 0.  1.
       -1   -1    0    0    0  501  0.00000000000E+00  0.00000000000E+00 -0.13441094898E+04  0.13441094898E+04  0.50400001928E-02 0. -1.
    10030    2    1    2    0    0  0.00000000000E+00  0.00000000000E+00 -0.35418875551E+03  0.23340302241E+04  0.23069996559E+04 0.  0.
        5    1    3    3  502    0 -0.10304825827E+04 -0.55845696010E+02  0.34423598435E+03  0.10879033035E+04  0.46999998093E+01 0.  1.
       -5    1    3    3    0  502  0.10304825827E+04  0.55845696010E+02 -0.69842473986E+03  0.12461269206E+04  0.46999998093E+01 0. -1.
</event>
<event>
 5   0  0.9535394E-05  0.2329897E+04  0.7818609E-02  0.8466226E-01
       -2   -1    0    0    0  501  0.00000000000E+00  0.00000000000E+00  0.18875067964E+04  0.18875067964E+04  0.25500000920E-02 0. -1.
        2   -1    0    0  501    0  0.00000000000E+00  0.00000000000E+00 -0.71899341705E+03  0.71899341706E+03  0.25500000920E-02 0.  1.
    10030    2    1    2    0    0  0.00000000000E+00  0.00000000000E+00  0.11685133794E+04  0.26065002135E+04  0.23298969602E+04 0.  0.
        2    1    3    3  502    0 -0.14461892864E+03  0.38255787101E+03 -0.63603961580E+03  0.75618222147E+03  0.25500000920E-02 0.  1.
       -2    1    3    3    0  502  0.14461892864E+03 -0.38255787101E+03  0.18045529952E+04  0.18503179920E+04  0.25500000920E-02 0. -1.
</event>
<event>
 5   0  0.3885219E-05  0.2311646E+04  0.7818609E-02  0.8473343E-01
        1   -1    0    0  501    0  0.00000000000E+00  0.00000000000E+00  0.10976129379E+04  0.10976129379E+04  0.50400001928E-02 0. -1.
       -1   -1    0    0    0  501  0.00000000000E+00  0.00000000000E+00 -0.12171198286E+04  0.12171198286E+04  0.50400001928E-02 0.  1.
    10030    2    1    2    0    0  0.00000000000E+00  0.00000000000E+00 -0.11950689071E+03  0.23147327665E+04  0.23116457089E+04 0.  0.
        2    1    3    3  502    0 -0.34520116030E+03 -0.25677853697E+02 -0.11639968540E+04  0.12143771528E+04  0.25500000920E-02 0.  1.
       -2    1    3    3    0  502  0.34520116030E+03  0.25677853697E+02  0.10444899633E+04  0.11003556137E+04  0.25500000920E-02 0. -1.
</event>
<event>
 5   0  0.9535394E-05  0.2173599E+04  0.7818609E-02  0.8529498E-01
       -2   -1    0    0    0  501  0.00000000000E+00  0.00000000000E+00  0.17004010239E+04  0.17004010239E+04  0.25500000920E-02 0. -1.
        2   -1    0    0  501    0  0.00000000000E+00  0.00000000000E+00 -0.69462024516E+03  0.69462024517E+03  0.25500000920E-02 0.  1.
    10030    2    1    2    0    0  0.00000000000E+00  0.00000000000E+00  0.10057807787E+04  0.23950212690E+04  0.21735988370E+04 0.  0.
        2    1    3    3  502    0  0.36610638489E+02  0.34177261845E+03  0.16389297236E+04  0.16745863670E+04  0.25500000920E-02 0. -1.
       -2    1    3    3    0  502 -0.36610638489E+02 -0.34177261845E+03 -0.63314894493E+03  0.72043490202E+03  0.25500000920E-02 0.  1.
</event>
<event>
 5   0  0.4295775E-05  0.2280556E+04  0.7818609E-02  0.8485627E-01
       -1   -1    0    0    0  501  0.00000000000E+00  0.00000000000E+00  0.59307811610E+03  0.59307811613E+03  0.50400001928E-02 0. -1.
        1   -1    0    0  501    0  0.00000000000E+00  0.00000000000E+00 -0.21923491390E+04  0.21923491390E+04  0.50400001928E-02 0.  1.
    10030    2    1    2    0    0  0.00000000000E+00  0.00000000000E+00 -0.15992710229E+04  0.27854272551E+04  0.22805563332E+04 0.  0.
        5    1    3    3  502    0  0.37899100960E+03 -0.83363969649E+03  0.30205088091E+02  0.91625529536E+03  0.46999998093E+01 0. -1.
       -5    1    3    3    0  502 -0.37899100960E+03  0.83363969649E+03 -0.16294761110E+04  0.18691719598E+04  0.46999998093E+01 0.  1.
</event>
<event>
 5   0  0.9312074E-05  0.2281338E+04  0.7818609E-02  0.8485316E-01
        2   -1    0    0  501    0  0.00000000000E+00  0.00000000000E+00  0.14686878959E+04  0.14686878959E+04  0.25500000920E-02 0. -1.
       -2   -1    0    0    0  501  0.00000000000E+00  0.00000000000E+00 -0.88591016089E+03  0.88591016089E+03  0.25500000920E-02 0.  1.
    10030    2    1    2    0    0  0.00000000000E+00  0.00000000000E+00  0.58277773496E+03  0.23545980567E+04  0.22813377918E+04 0.  0.
        4    1    3    3  502    0  0.42322111570E+03  0.10474394650E+04  0.12859495487E+03  0.11370065176E+04  0.12699999809E+01 0. -1.
       -4    1    3    3    0  502 -0.42322111570E+03 -0.10474394650E+04  0.45418278009E+03  0.12175915392E+04  0.12699999809E+01 0.  1.
</event>
<event>
 5   0  0.4139830E-05  0.2283229E+04  0.7818609E-02  0.8484563E-01
       -1   -1    0    0    0  501  0.00000000000E+00  0.00000000000E+00  0.11701730504E+04  0.11701730504E+04  0.50400001928E-02 0. -1.
        1   -1    0    0  501    0  0.00000000000E+00  0.00000000000E+00 -0.11137532190E+04  0.11137532190E+04  0.50400001928E-02 0.  1.
    10030    2    1    2    0    0  0.00000000000E+00  0.00000000000E+00  0.56419831450E+02  0.22839262694E+04  0.22832292935E+04 0.  0.
        1    1    3    3  502    0 -0.19309587037E+02 -0.38721191129E+03 -0.10458860288E+04  0.11154297422E+04  0.50400001928E-02 0.  1.
       -1    1    3    3    0  502  0.19309587037E+02  0.38721191129E+03  0.11023058603E+04  0.11684965272E+04  0.50400001928E-02 0. -1.
</event>
<event>
 5   0  0.4295775E-05  0.2189179E+04  0.7818609E-02  0.8522946E-01
       -1   -1    0    0    0  501  0.00000000000E+00  0.00000000000E+00  0.14582319210E+04  0.14582319210E+04  0.50400001928E-02 0. -1.
        1   -1    0    0  501    0  0.00000000000E+00  0.00000000000E+00 -0.82162935830E+03  0.82162935832E+03  0.50400001928E-02 0.  1.
    10030    2    1    2    0    0  0.00000000000E+00  0.00000000000E+00  0.63660256269E+03  0.22798612793E+04  0.21891789854E+04 0.  0.
        5    1    3    3  502    0 -0.69001387717E+03  0.11518588321E+01  0.12031943951E+04  0.13870181397E+04  0.46999998093E+01 0. -1.
       -5    1    3    3    0  502  0.69001387717E+03 -0.11518588321E+01 -0.56659183239E+03  0.89284313964E+03  0.46999998093E+01 0.  1.
</event>
<event>
 5   0  0.4139830E-05  0.2325130E+04  0.7818609E-02  0.8468078E-01
       -1   -1    0    0    0  501  0.00000000000E+00  0.00000000000E+00  0.69959049310E+03  0.69959049312E+03  0.50400001928E-02 0. -1.
        1   -1    0    0  501    0  0.00000000000E+00  0.00000000000E+00 -0.19319268080E+04  0.19319268080E+04  0.50400001928E-02 0.  1.
    10030    2    1    2    0    0  0.00000000000E+00  0.00000000000E+00 -0.12323363149E+04  0.26315173012E+04  0.23251302142E+04 0.  0.
        1    1    3    3  502    0 -0.45653846638E+03 -0.23120359910E+03 -0.17975967410E+04  0.18690202029E+04  0.50400001928E-02 0.  1.
       -1    1    3    3    0  502  0.45653846638E+03  0.23120359910E+03  0.56526042609E+03  0.76249709826E+03  0.50400001928E-02 0. -1.
</event>
<event>
 5   0  0.9535394E-05  0.2301956E+04  0.7818609E-02  0.8477150E-01
       -2   -1    0    0    0  501  0.00000000000E+00  0.00000000000E+00  0.81864315675E+03  0.81864315675E+03  0.25500000920E-02 0.  1.
        2   -1    0    0  501    0  0.00000000000E+00  0.00000000000E+00 -0.16182273117E+04  0.16182273118E+04  0.25500000920E-02 0. -1.
    10030    2    1    2    0    0  0.00000000000E+00  0.00000000000E+00 -0.79958415500E+03  0.24368704685E+04  0.23019563113E+04 0.  0.
        2    1    3    3  502    0 -0.77882697370E+03 -0.75845599713E+03 -0.80000175390E+03  0.13497517404E+04  0.25500000920E-02 0. -1.
       -2    1    3    3    0  502  0.77882697370E+03  0.75845599713E+03  0.41759889688E+00  0.10871187281E+04  0.25500000920E-02 0.  1.
</event>
<event>
 5   0  0.9641157E-05  0.2323853E+04  0.7818609E-02  0.8468575E-01
        2   -1    0    0  501    0  0.00000000000E+00  0.00000000000E+00  0.99600387079E+03  0.99600387079E+03  0.25500000920E-02 0.  1.
       -2   -1    0    0    0  501  0.00000000000E+00  0.00000000000E+00 -0.13554899415E+04  0.13554899415E+04  0.25500000920E-02 0. -1.
    10030    2    1    2    0    0  0.00000000000E+00  0.00000000000E+00 -0.35948607076E+03  0.23514938123E+04  0.23238530320E+04 0.  0.
        3    1    3    3  502    0 -0.40154648529E+03 -0.77818833080E+03 -0.95253927127E+03  0.12938886086E+04  0.10100000352E+00 0. -1.
       -3    1    3    3    0  502  0.40154648529E+03  0.77818833080E+03  0.59305320051E+03  0.10576052037E+04  0.10100000352E+00 0.  1.
</event>
<event>
 5   0  0.4295775E-05  0.2005374E+04  0.7818609E-02  0.8604112E-01
       -1   -1    0    0    0  501  0.00000000000E+00  0.00000000000E+00  0.79083867845E+03  0.79083867847E+03  0.50400001928E-02 0.  1.
        1   -1    0    0  501    0  0.00000000000E+00  0.00000000000E+00 -0.12712845124E+04  0.12712845124E+04  0.50400001928E-02 0. -1.
    10030    2    1    2    0    0  0.00000000000E+00  0.00000000000E+00 -0.48044583393E+03  0.20621231909E+04  0.20053737444E+04 0.  0.
        5    1    3    3  502    0 -0.94389439681E+03 -0.33593830694E+03 -0.19950832232E+03  0.10215756649E+04  0.46999998093E+01 0. -1.
       -5    1    3    3    0  502  0.94389439681E+03  0.33593830694E+03 -0.28093751161E+03  0.10405475260E+04  0.46999998093E+01 0.  1.
</event>
<event>
 5   0  0.9483073E-05  0.2278255E+04  0.7818609E-02  0.8486544E-01
       -2   -1    0    0    0  501  0.00000000000E+00  0.00000000000E+00  0.67926226747E+03  0.67926226747E+03  0.25500000920E-02 0.  1.
        2   -1    0    0  501    0  0.00000000000E+00  0.00000000000E+00 -0.19103247068E+04  0.19103247068E+04  0.25500000920E-02 0. -1.
    10030    2    1    2    0    0  0.00000000000E+00  0.00000000000E+00 -0.12310624394E+04  0.25895869743E+04  0.22782550270E+04 0.  0.
        5    1    3    3  502    0 -0.16569259615E+03  0.75466663129E+03  0.33587822667E+03  0.84250343261E+03  0.46999998093E+01 0.  1.
       -5    1    3    3    0  502  0.16569259615E+03 -0.75466663129E+03 -0.15669406660E+04  0.17470835417E+04  0.46999998093E+01 0. -1.
</event>
<event>
 5   0  0.9483073E-05  0.1563304E+04  0.7818609E-02  0.8843415E-01
        2   -1    0    0  501    0  0.00000000000E+00  0.00000000000E+00  0.52472572866E+03  0.52472572866E+03  0.25500000920E-02 0.  1.
       -2   -1    0    0    0  501  0.00000000000E+00  0.00000000000E+00 -0.11643787973E+04  0.11643787973E+04  0.25500000920E-02 0. -1.
    10030    2    1    2    0    0  0.00000000000E+00  0.00000000000E+00 -0.63965306860E+03  0.16891045259E+04  0.15633035698E+04 0.  0.
        5    1    3    3  502    0  0.50656631683E+03 -0.99745413354E+02 -0.95390652303E+03  0.10846742947E+04  0.46999998093E+01 0. -1.
       -5    1    3    3    0  502 -0.50656631683E+03  0.99745413354E+02  0.31425345443E+03  0.60443023126E+03  0.46999998093E+01 0.  1.
</event>
<event>
 5   0  0.9483073E-05  0.1944401E+04  0.7818609E-02  0.8633065E-01
        2   -1    0    0  501    0  0.00000000000E+00  0.00000000000E+00  0.17099698784E+04  0.17099698784E+04  0.25500000920E-02 0. -1.
       -2   -1    0    0    0  501  0.00000000000E+00  0.00000000000E+00 -0.55274316467E+03  0.55274316468E+03  0.25500000920E-02 0.  1.
    10030    2    1    2    0    0  0.00000000000E+00  0.00000000000E+00  0.11572267137E+04  0.22627130431E+04  0.19444013599E+04 0.  0.
        5    1    3    3  502    0  0.33228697963E+03  0.39556269281E+03 -0.37978066769E+03  0.64120193880E+03  0.46999998093E+01 0.  1.
       -5    1    3    3    0  502 -0.33228697963E+03 -0.39556269281E+03  0.15370073814E+04  0.16215111043E+04  0.46999998093E+01 0. -1.
</event>
<event>
 5   0  0.4139830E-05  0.2250142E+04  0.7818609E-02  0.8497843E-01
       -1   -1    0    0    0  501  0.00000000000E+00  0.00000000000E+00  0.10094304744E+04  0.10094304744E+04  0.50400001928E-02 0. -1.
        1   -1    0    0  501    0  0.00000000000E+00  0.00000000000E+00 -0.12539592694E+04  0.12539592694E+04  0.50400001928E-02 0.  1.
    10030    2    1    2    0    0  0.00000000000E+00  0.00000000000E+00 -0.24452879500E+03  0.22633897438E+04  0.22501419512E+04 0.  0.
        1    1    3    3  502    0  0.12288428546E+03  0.47968049266E+03 -0.11384551694E+04  0.12414806062E+04  0.50400001928E-02 0.  1.
       -1    1    3    3    0  502 -0.12288428546E+03 -0.47968049266E+03  0.89392637444E+03  0.10219091376E+04  0.50400001928E-02 0. -1.
</event>
<event>
 5   0  0.9312074E-05  0.2261984E+04  0.7818609E-02  0.8493063E-01
        2   -1    0    0  501    0  0.00000000000E+00  0.00000000000E+00  0.13660105138E+04  0.13660105138E+04  0.25500000920E-02 0. -1.
       -2   -1    0    0    0  501  0.00000000000E+00  0.00000000000E+00 -0.93640782113E+03  0.93640782113E+03  0.25500000920E-02 0.  1.
    10030    2    1    2    0    0  0.00000000000E+00  0.00000000000E+00  0.42960269263E+03  0.23024183349E+04  0.22619840219E+04 0.  0.
        4    1    3    3  502    0  0.84145662523E+03  0.49034965104E+03  0.80010130731E+03  0.12604188777E+04  0.12699999809E+01 0. -1.
       -4    1    3    3    0  502 -0.84145662523E+03 -0.49034965104E+03 -0.37049861467E+03  0.10419994572E+04  0.12699999809E+01 0.  1.
</event>
<event>
 5   0  0.4139830E-05  0.2282050E+04  0.7818609E-02  0.8485032E-01
       -1   -1    0    0    0  501  0.00000000000E+00  0.00000000000E+00  0.93106815644E+03  0.93106815645E+03  0.50400001928E-02 0.  1.
        1   -1    0    0  501    0  0.00000000000E+00  0.00000000000E+00 -0.13983269072E+04  0.13983269072E+04  0.50400001928E-02 0. -1.
    10030    2    1    2    0    0  0.00000000000E+00  0.00000000000E+00 -0.46725875074E+03  0.23293950636E+04  0.22820496538E+04 0.  0.
        1    1    3    3  502    0  0.10293779655E+04 -0.39261588961E+03 -0.53672661846E+03  0.12254965098E+04  0.50400001928E-02 0. -1.
       -1    1    3    3    0  502 -0.10293779655E+04  0.39261588961E+03  0.69467867715E+02  0.11038985539E+04  0.50400001928E-02 0.  1.
</event>
<event>
 5   0  0.4139830E-05  0.2301650E+04  0.7818609E-02  0.8477271E-01
       -1   -1    0    0    0  501  0.00000000000E+00  0.00000000000E+00  0.53254426383E+03  0.53254426386E+03  0.50400001928E-02 0. -1.
        1   -1    0    0  501    0  0.00000000000E+00  0.00000000000E+00 -0.24869264924E+04  0.24869264924E+04  0.50400001928E-02 0.  1.
    10030    2    1    2    0    0  0.00000000000E+00  0.00000000000E+00 -0.19543822285E+04  0.30194707562E+04  0.23016502238E+04 0.  0.
        1    1    3    3  502    0 -0.15664518204E+03  0.47450557158E+03 -0.23371825540E+04  0.23900032513E+04  0.50400001928E-02 0.  1.
       -1    1    3    3    0  502  0.15664518204E+03 -0.47450557158E+03  0.38280032549E+03  0.62946750490E+03  0.50400001928E-02 0. -1.
</event>
<event>
 5   0  0.3885219E-05  0.2313273E+04  0.7818609E-02  0.8472706E-01
       -1   -1    0    0    0  501  0.00000000000E+00  0.00000000000E+00  0.10919500233E+04  0.10919500233E+04  0.50400001928E-02 0. -1.
        1   -1    0    0  501    0  0.00000000000E+00  0.00000000000E+00 -0.12251545558E+04  0.12251545558E+04  0.50400001928E-02 0.  1.
    10030    2    1    2    0    0  0.00000000000E+00  0.00000000000E+00 -0.13320453246E+03  0.23171045791E+04  0.23132726132E+04 0.  0.
        2    1    3    3  502    0  0.99365946837E+03 -0.51337868465E+03 -0.36186290114E+03  0.11755260831E+04  0.25500000920E-02 0.  1.
       -2    1    3    3    0  502 -0.99365946837E+03  0.51337868465E+03  0.22865836868E+03  0.11415784960E+04  0.25500000920E-02 0. -1.
</event>
<event>
 5   0  0.9312074E-05  0.2276012E+04  0.7818609E-02  0.8487440E-01
       -2   -1    0    0    0  501  0.00000000000E+00  0.00000000000E+00  0.77625192769E+03  0.77625192769E+03  0.25500000920E-02 0.  1.
        2   -1    0    0  501    0  0.00000000000E+00  0.00000000000E+00 -0.16683468771E+04  0.16683468771E+04  0.25500000920E-02 0. -1.
    10030    2    1    2    0    0  0.00000000000E+00  0.00000000000E+00 -0.89209494937E+03  0.24445988048E+04  0.22760118448E+04 0.  0.
        4    1    3    3  502    0  0.58638618648E+03 -0.54407072711E+03  0.42334941669E+03  0.90503483762E+03  0.12699999809E+01 0.  1.
       -4    1    3    3    0  502 -0.58638618648E+03  0.54407072711E+03 -0.13154443661E+04  0.15395639671E+04  0.12699999809E+01 0. -1.
</event>
<event>
 5   0  0.4005462E-05  0.2325385E+04  0.7818609E-02  0.8467979E-01
        1   -1    0    0  501    0  0.00000000000E+00  0.00000000000E+00  0.10997708912E+04  0.10997708912E+04  0.50400001928E-02 0. -1.
       -1   -1    0    0    0  501  0.00000000000E+00  0.00000000000E+00 -0.12292137164E+04  0.12292137164E+04  0.50400001928E-02 0.  1.
    10030    2    1    2    0    0  0.00000000000E+00  0.00000000000E+00 -0.12944282519E+03  0.23289846077E+04  0.23253846688E+04 0.  0.
        4    1    3    3  502    0  0.46191439907E+03 -0.80795198076E+03  0.63327968402E+03  0.11256980440E+04  0.12699999809E+01 0. -1.
       -4    1    3    3    0  502 -0.46191439907E+03  0.80795198076E+03 -0.76272250921E+03  0.12032865636E+04  0.12699999809E+01 0.  1.
</event>
<event>
 5   0  0.4095451E-05  0.2279667E+04  0.7818609E-02  0.8485982E-01
       -1   -1    0    0    0  501  0.00000000000E+00  0.00000000000E+00  0.10324956670E+04  0.10324956670E+04  0.50400001928E-02 0.  1.
        1   -1    0    0  501    0  0.00000000000E+00  0.00000000000E+00 -0.12583295974E+04  0.12583295974E+04  0.50400001928E-02 0. -1.
    10030    2    1    2    0    0  0.00000000000E+00  0.00000000000E+00 -0.22583393043E+03  0.22908252644E+04  0.22796665168E+04 0.  0.
        3    1    3    3  502    0 -0.50628308069E+03  0.10150155302E+04  0.64519384248E-01  0.11342747016E+04  0.10100000352E+00 0. -1.
       -3    1    3    3    0  502  0.50628308069E+03 -0.10150155302E+04 -0.22589844982E+03  0.11565505628E+04  0.10100000352E+00 0.  1.
</event>
<event>
 5   0  0.9313463E-05  0.2272277E+04  0.7818609E-02  0.8488933E-01
        2   -1    0    0  501    0  0.00000000000E+00  0.00000000000E+00  0.20836997460E+04  0.20836997460E+04  0.25500000920E-02 0.  1.
       -2   -1    0    0    0  501  0.00000000000E+00  0.00000000000E+00 -0.61948024138E+03  0.61948024139E+03  0.25500000920E-02 0. -1.
    10030    2    1    2    0    0  0.00000000000E+00  0.00000000000E+00  0.14642195046E+04  0.27031799873E+04  0.22722771148E+04 0.  0.
        1    1    3    3  502    0  0.15819899704E+03 -0.24412111001E+03  0.20386455446E+04  0.20592954367E+04  0.50400001928E-02 0.  1.
       -1    1    3    3    0  502 -0.15819899704E+03  0.24412111001E+03 -0.57442604006E+03  0.64388455063E+03  0.50400001928E-02 0. -1.
</event>
<event>
 5   0  0.9483073E-05  0.2287087E+04  0.7818609E-02  0.8483030E-01
        2   -1    0    0  501    0  0.00000000000E+00  0.00000000000E+00  0.99838497167E+03  0.99838497167E+03  0.25500000920E-02 0. -1.
       -2   -1    0    0    0  501  0.00000000000E+00  0.00000000000E+00 -0.13098065604E+04  0.13098065604E+04  0.25500000920E-02 0.  1.
    10030    2    1    2    0    0  0.00000000000E+00  0.00000000000E+00 -0.31142158870E+03  0.23081915320E+04  0.22870865184E+04 0.  0.
        5    1    3    3  502    0 -0.19098003251E+03  0.74909075421E+03  0.69471494420E+03  0.10393561827E+04  0.46999998093E+01 0. -1.
       -5    1    3    3    0  502  0.19098003251E+03 -0.74909075421E+03 -0.10061365329E+04  0.12688353493E+04  0.46999998093E+01 0.  1.
</event>
<event>
 5   0  0.4005462E-05  0.2297857E+04  0.7818609E-02  0.8478766E-01
       -1   -1    0    0    0  501  0.00000000000E+00  0.00000000000E+00  0.77655684079E+03  0.77655684080E+03  0.50400001928E-02 0. -1.
        1   -1    0    0  501    0  0.00000000000E+00  0.00000000000E+00 -0.16998585987E+04  0.16998585987E+04  0.50400001928E-02 0.  1.
    10030    2    1    2    0    0  0.00000000000E+00  0.00000000000E+00 -0.92330175790E+03  0.24764154395E+04  0.22978571089E+04 0.  0.
        4    1    3    3  502    0 -0.55122735140E+03  0.26024060137E+02  0.62437908876E+03  0.83329448818E+03  0.12699999809E+01 0. -1.
       -4    1    3    3    0  502  0.55122735140E+03 -0.26024060137E+02 -0.15476808467E+04  0.16431209513E+04  0.12699999809E+01 0.  1.
</event>
<event>
 5   0  0.9312074E-05  0.2252357E+04  0.7818609E-02  0.8496946E-01
        2   -1    0    0  501    0  0.00000000000E+00  0.00000000000E+00  0.10008813325E+04  0.10008813326E+04  0.25500000920E-02 0.  1.
       -2   -1    0    0    0  501  0.00000000000E+00  0.00000000000E+00 -0.12671616413E+04  0.12671616413E+04  0.25500000920E-02 0. -1.
    10030    2    1    2    0    0  0.00000000000E+00  0.00000000000E+00 -0.26628030872E+03  0.22680429738E+04  0.22523573714E+04 0.  0.
        4    1    3    3  502    0 -0.29544852389E+03  0.28207767026E+03 -0.11899340519E+04  0.12580947115E+04  0.12699999809E+01 0. -1.
       -4    1    3    3    0  502  0.29544852389E+03 -0.28207767026E+03  0.92365374320E+03  0.10099482623E+04  0.12699999809E+01 0.  1.
</event>
<event>
 5   0  0.9535394E-05  0.2265597E+04  0.7818609E-02  0.8491611E-01
       -2   -1    0    0    0  501  0.00000000000E+00  0.00000000000E+00  0.69407211958E+03  0.69407211959E+03  0.25500000920E-02 0.  1.
        2   -1    0    0  501    0  0.00000000000E+00  0.00000000000E+00 -0.18488453076E+04  0.18488453076E+04  0.25500000920E-02 0. -1.
    10030    2    1    2    0    0  0.00000000000E+00  0.00000000000E+00 -0.11547731880E+04  0.25429174272E+04  0.22655965938E+04 0.  0.
        2    1    3    3  502    0 -0.66297113566E+03  0.83710765475E+03 -0.10017567527E+04  0.14641709409E+04  0.25500000920E-02 0.  1.
       -2    1    3    3    0  502  0.66297113566E+03 -0.83710765475E+03 -0.15301643529E+03  0.10787464864E+04  0.25500000920E-02 0. -1.
</event>
<event>
 5   0  0.4139830E-05  0.2249911E+04  0.7818609E-02  0.8497936E-01
       -1   -1    0    0    0  501  0.00000000000E+00  0.00000000000E+00  0.11343659535E+04  0.11343659535E+04  0.50400001928E-02 0. -1.
        1   -1    0    0  501    0  0.00000000000E+00  0.00000000000E+00 -0.11156234097E+04  0.11156234097E+04  0.50400001928E-02 0.  1.
    10030    2    1    2    0    0  0.00000000000E+00  0.00000000000E+00  0.18742543838E+02  0.22499893632E+04  0.22499112986E+04 0.  0.
        1    1    3    3  502    0 -0.44255413230E+03 -0.12422904464E+02  0.10435815712E+04  0.11336097143E+04  0.50400001928E-02 0. -1.
       -1    1    3    3    0  502  0.44255413230E+03  0.12422904464E+02 -0.10248390273E+04  0.11163796489E+04  0.50400001928E-02 0.  1.
</event>
<event>
 5   0  0.9535394E-05  0.2326113E+04  0.7818609E-02  0.8467696E-01
       -2   -1    0    0    0  501  0.00000000000E+00  0.00000000000E+00  0.67459321830E+03  0.67459321830E+03  0.25500000920E-02 0. -1.
        2   -1    0    0  501    0  0.00000000000E+00  0.00000000000E+00 -0.20052092471E+04  0.20052092471E+04  0.25500000920E-02 0.  1.
    10030    2    1    2    0    0  0.00000000000E+00  0.00000000000E+00 -0.13306160288E+04  0.26798024654E+04  0.23261131179E+04 0.  0.
        2    1    3    3  502    0  0.53865320011E+03  0.71437024160E+03 -0.15214215023E+04  0.17649916430E+04  0.25500000920E-02 0.  1.
       -2    1    3    3    0  502 -0.53865320011E+03 -0.71437024160E+03  0.19080547352E+03  0.91481082241E+03  0.25500000920E-02 0. -1.
</event>
<event>
 5   0  0.3885219E-05  0.2322073E+04  0.7818609E-02  0.8469269E-01
       -1   -1    0    0    0  501  0.00000000000E+00  0.00000000000E+00  0.12325970709E+04  0.12325970709E+04  0.50400001928E-02 0.  1.
        1   -1    0    0  501    0  0.00000000000E+00  0.00000000000E+00 -0.10936303864E+04  0.10936303864E+04  0.50400001928E-02 0. -1.
    10030    2    1    2    0    0  0.00000000000E+00  0.00000000000E+00  0.13896668452E+03  0.23262274573E+04  0.23220728764E+04 0.  0.
        2    1    3    3  502    0 -0.41561165593E+03  0.30822021539E+03  0.11107046927E+04  0.12253153325E+04  0.25500000920E-02 0.  1.
       -2    1    3    3    0  502  0.41561165593E+03 -0.30822021539E+03 -0.97173800821E+03  0.11009121247E+04  0.25500000920E-02 0. -1.
</event>
<event>
 5   0  0.4005462E-05  0.2276839E+04  0.7818609E-02  0.8487109E-01
        1   -1    0    0  501    0  0.00000000000E+00  0.00000000000E+00  0.12294415398E+04  0.12294415398E+04  0.50400001928E-02 0.  1.
       -1   -1    0    0    0  501  0.00000000000E+00  0.00000000000E+00 -0.10541364700E+04  0.10541364700E+04  0.50400001928E-02 0. -1.
    10030    2    1    2    0    0  0.00000000000E+00  0.00000000000E+00  0.17530506981E+03  0.22835780098E+04  0.22768391817E+04 0.  0.
        4    1    3    3  502    0 -0.13069150005E+03 -0.53360696662E+03  0.10876898397E+04  0.12185595854E+04  0.12699999809E+01 0.  1.
       -4    1    3    3    0  502  0.13069150005E+03  0.53360696662E+03 -0.91238476985E+03  0.10650184243E+04  0.12699999809E+01 0. -1.
</event>
<event>
 5   0  0.9313463E-05  0.2278442E+04  0.7818609E-02  0.8486470E-01
        2   -1    0    0  501    0  0.00000000000E+00  0.00000000000E+00  0.24283728848E+04  0.24283728848E+04  0.25500000920E-02 0.  1.
       -2   -1    0    0    0  501  0.00000000000E+00  0.00000000000E+00 -0.53444213505E+03  0.53444213506E+03  0.25500000920E-02 0. -1.
    10030    2    1    2    0    0  0.00000000000E+00  0.00000000000E+00  0.18939307497E+04  0.29628150198E+04  0.22784422654E+04 0.  0.
        1    1    3    3  502    0  0.32538244730E+03 -0.10891580878E+04  0.10450179349E+04  0.15440859955E+04  0.50400001928E-02 0.  1.
       -1    1    3    3    0  502 -0.32538244730E+03  0.10891580878E+04  0.84891281478E+03  0.14187290243E+04  0.50400001928E-02 0. -1.
</event>
<event>
 5   0  0.9535394E-05  0.2188345E+04  0.7818609E-02  0.8523295E-01
       -2   -1    0    0    0  501  0.00000000000E+00  0.00000000000E+00  0.75986179493E+03  0.75986179493E+03  0.25500000920E-02 0. -1.
        2   -1    0    0  501    0  0.00000000000E+00  0.00000000000E+00 -0.15755680015E+04  0.15755680015E+04  0.25500000920E-02 0.  1.
    10030    2    1    2    0    0  0.00000000000E+00  0.00000000000E+00 -0.81570620653E+03  0.23354297964E+04  0.21883454294E+04 0.  0.
        2    1    3    3  502    0 -0.51292251882E+03  0.11318039004E+03 -0.14322185523E+04  0.15254996862E+04  0.25500000920E-02 0.  1.
       -2    1    3    3    0  502  0.51292251882E+03 -0.11318039004E+03  0.61651234574E+03  0.80993011023E+03  0.25500000920E-02 0. -1.
</event>
<event>
 5   0  0.4139830E-05  0.2288901E+04  0.7818609E-02  0.8482310E-01
        1   -1    0    0  501    0  0.00000000000E+00  0.00000000000E+00  0.14716572711E+04  0.14716572711E+04  0.50400001928E-02 0. -1.
       -1   -1    0    0    0  501  0.00000000000E+00  0.00000000000E+00 -0.88999479893E+03  0.88999479894E+03  0.50400001928E-02 0.  1.
    10030    2    1    2    0    0  0.00000000000E+00  0.00000000000E+00  0.58166247219E+03  0.23616520701E+04  0.22889013235E+04 0.  0.
        1    1    3    3  502    0 -0.80674535398E+03  0.72074903433E+03  0.67613054492E+03  0.12757232264E+04  0.50400001928E-02 0. -1.
       -1    1    3    3    0  502  0.80674535398E+03 -0.72074903433E+03 -0.94468072722E+02  0.10859288436E+04  0.50400001928E-02 0.  1.
</event>
<event>
 5   0  0.3885219E-05  0.2297544E+04  0.7818609E-02  0.8478890E-01
        1   -1    0    0  501    0  0.00000000000E+00  0.00000000000E+00  0.13692088630E+04  0.13692088630E+04  0.50400001928E-02 0. -1.
       -1   -1    0    0    0  501  0.00000000000E+00  0.00000000000E+00 -0.96382420950E+03  0.96382420951E+03  0.50400001928E-02 0.  1.
    10030    2    1    2    0    0  0.00000000000E+00  0.00000000000E+00  0.40538465348E+03  0.23330330725E+04  0.22975436013E+04 0.  0.
        2    1    3    3  502    0  0.98430706928E+02  0.24438700603E+03  0.13381156978E+04  0.13638061569E+04  0.25500000920E-02 0. -1.
       -2    1    3    3    0  502 -0.98430706928E+02 -0.24438700603E+03 -0.93273104436E+03  0.96922691559E+03  0.25500000920E-02 0.  1.
</event>
<event>
 5   0  0.9313463E-05  0.2270176E+04  0.7818609E-02  0.8489774E-01
       -2   -1    0    0    0  501  0.00000000000E+00  0.00000000000E+00  0.10563675518E+04  0.10563675518E+04  0.25500000920E-02 0. -1.
        2   -1    0    0  501    0  0.00000000000E+00  0.00000000000E+00 -0.12196750259E+04  0.12196750259E+04  0.25500000920E-02 0.  1.
    10030    2    1    2    0    0  0.00000000000E+00  0.00000000000E+00 -0.16330747404E+03  0.22760425777E+04  0.22701763113E+04 0.  0.
        1    1    3    3  502    0  0.10395104674E+02 -0.11071177809E+04 -0.33251477759E+03  0.11560207249E+04  0.50400001928E-02 0.  1.
       -1    1    3    3    0  502 -0.10395104674E+02  0.11071177809E+04  0.16920730355E+03  0.11200218528E+04  0.50400001928E-02 0. -1.
</event>
<event>
 5   0  0.3885219E-05  0.1755602E+04  0.7818609E-02  0.8730273E-01
        1   -1    0    0  501    0  0.00000000000E+00  0.00000000000E+00  0.85309810412E+03  0.85309810413E+03  0.50400001928E-02 0. -1.
       -1   -1    0    0    0  501  0.00000000000E+00  0.00000000000E+00 -0.90321896313E+03  0.90321896314E+03  0.50400001928E-02 0.  1.
    10030    2    1    2    0    0  0.00000000000E+00  0.00000000000E+00 -0.50120859010E+02  0.17563170673E+04  0.17556017602E+04 0.  0.
        2    1    3    3  502    0  0.72439595114E+03 -0.46997143347E+03  0.13283842140E+03  0.87365249871E+03  0.25500000920E-02 0. -1.
       -2    1    3    3    0  502 -0.72439595114E+03  0.46997143347E+03 -0.18295928041E+03  0.88266456856E+03  0.25500000920E-02 0.  1.
</event>
<event>
 5   0  0.4095451E-05  0.2241436E+04  0.7818609E-02  0.8501377E-01
       -1   -1    0    0    0  501  0.00000000000E+00  0.00000000000E+00  0.65228293442E+03  0.65228293444E+03  0.50400001928E-02 0.  1.
        1   -1    0    0  501    0  0.00000000000E+00  0.00000000000E+00 -0.19255578466E+04  0.19255578466E+04  0.50400001928E-02 0. -1.
    10030    2    1    2    0    0  0.00000000000E+00  0.00000000000E+00 -0.12732749122E+04  0.25778407811E+04  0.22414357208E+04 0.  0.
        3    1    3    3  502    0 -0.60637642050E+03  0.46417724458E+03 -0.15800263255E+04  0.17548891923E+04  0.10100000352E+00 0. -1.
       -3    1    3    3    0  502  0.60637642050E+03 -0.46417724458E+03  0.30675141330E+03  0.82295158879E+03  0.10100000352E+00 0.  1.
</event>
<event>
 5   0  0.9312074E-05  0.2285826E+04  0.7818609E-02  0.8483531E-01
        2   -1    0    0  501    0  0.00000000000E+00  0.00000000000E+00  0.14144857610E+04  0.14144857610E+04  0.25500000920E-02 0. -1.
       -2   -1    0    0    0  501  0.00000000000E+00  0.00000000000E+00 -0.92348095854E+03  0.92348095854E+03  0.25500000920E-02 0.  1.
    10030    2    1    2    0    0  0.00000000000E+00  0.00000000000E+00  0.49100480246E+03  0.23379667195E+04  0.22858264732E+04 0.  0.
        4    1    3    3  502    0  0.57597787443E+02 -0.84248191060E+03  0.10332361449E+04  0.13344181574E+04  0.12699999809E+01 0. -1.
       -4    1    3    3    0  502 -0.57597787443E+02  0.84248191060E+03 -0.54223134249E+03  0.10035485621E+04  0.12699999809E+01 0.  1.
</event>
<event>
 5   0  0.9312074E-05  0.2304267E+04  0.7818609E-02  0.8476240E-01
        2   -1    0    0  501    0  0.00000000000E+00  0.00000000000E+00  0.10079874659E+04  0.10079874659E+04  0.25500000920E-02 0. -1.
       -2   -1    0    0    0  501  0.00000000000E+00  0.00000000000E+00 -0.13168934303E+04  0.13168934303E+04  0.25500000920E-02 0.  1.
    10030    2    1    2    0    0  0.00000000000E+00  0.00000000000E+00 -0.30890596439E+03  0.23248808961E+04  0.23042674077E+04 0.  0.
        4    1    3    3  502    0  0.28460999935E+03  0.96428170038E+03 -0.72213040051E+03  0.12378675122E+04  0.12699999809E+01 0.  1.
       -4    1    3    3    0  502 -0.28460999935E+03 -0.96428170038E+03  0.41322443612E+03  0.10870133840E+04  0.12699999809E+01 0. -1.
</event>
<event>
 5   0  0.9312074E-05  0.1614857E+04  0.7818609E-02  0.8811472E-01
       -2   -1    0    0    0  501  0.00000000000E+00  0.00000000000E+00  0.11964289613E+04  0.11964289613E+04  0.25500000920E-02 0. -1.
        2   -1    0    0  501    0  0.00000000000E+00  0.00000000000E+00 -0.54490569544E+03  0.54490569545E+03  0.25500000920E-02 0.  1.
    10030    2    1    2    0    0  0.00000000000E+00  0.00000000000E+00  0.65152326583E+03  0.17413346567E+04  0.16148572137E+04 0.  0.
        4    1    3    3  502    0  0.63098317543E+03 -0.36522729861E+03 -0.48415170130E+02  0.73066845349E+03  0.12699999809E+01 0.  1.
       -4    1    3    3    0  502 -0.63098317543E+03  0.36522729861E+03  0.69993843596E+03  0.10106662032E+04  0.12699999809E+01 0. -1.
</event>
<event>
 5   0  0.9641157E-05  0.2214423E+04  0.7818609E-02  0.8512449E-01
        2   -1    0    0  501    0  0.00000000000E+00  0.00000000000E+00  0.12645293050E+04  0.12645293050E+04  0.25500000920E-02 0.  1.
       -2   -1    0    0    0  501  0.00000000000E+00  0.00000000000E+00 -0.96946507092E+03  0.96946507093E+03  0.25500000920E-02 0. -1.
    10030    2    1    2    0    0  0.00000000000E+00  0.00000000000E+00  0.29506423409E+03  0.22339943759E+04  0.22144227170E+04 0.  0.
        3    1    3    3  502    0 -0.10247407265E+04 -0.31548452348E+03 -0.13112088473E+03  0.10801929169E+04  0.10100000352E+00 0. -1.
       -3    1    3    3    0  502  0.10247407265E+04  0.31548452348E+03  0.42618511882E+03  0.11538014590E+04  0.10100000352E+00 0.  1.
</event>
<event>
 5   0  0.4139830E-05  0.1592115E+04  0.7818609E-02  0.8825407E-01
        1   -1    0    0  501    0  0.00000000000E+00  0.00000000000E+00  0.45441747826E+03  0.45441747829E+03  0.50400001928E-02 0. -1.
       -1   -1    0    0    0  501  0.00000000000E+00  0.00000000000E+00 -0.13945487701E+04  0.13945487701E+04  0.50400001928E-02 0.  1.
    10030    2    1    2    0    0  0.00000000000E+00  0.00000000000E+00 -0.94013129183E+03  0.18489662484E+04  0.15921147389E+04 0.  0.
        1    1    3    3  502    0 -0.10707712469E+03 -0.78860134732E+03 -0.49178401188E+03  0.93552611401E+03  0.50400001928E-02 0.  1.
       -1    1    3    3    0  502  0.10707712469E+03  0.78860134732E+03 -0.44834727995E+03  0.91344013438E+03  0.50400001928E-02 0. -1.
</event>
<event>
 5   0  0.9535394E-05  0.2297265E+04  0.7818609E-02  0.8479000E-01
        2   -1    0    0  501    0  0.00000000000E+00  0.00000000000E+00  0.12984148506E+04  0.12984148506E+04  0.25500000920E-02 0.  1.
       -2   -1    0    0    0  501  0.00000000000E+00  0.00000000000E+00 -0.10161287068E+04  0.10161287068E+04  0.25500000920E-02 0. -1.
    10030    2    1    2    0    0  0.00000000000E+00  0.00000000000E+00  0.28228614377E+03  0.23145435575E+04  0.22972649852E+04 0.  0.
        2    1    3    3  502    0  0.91404101485E+03 -0.88781835550E+02  0.83626229351E+03  0.12420498439E+04  0.25500000920E-02 0.  1.
       -2    1    3    3    0  502 -0.91404101485E+03  0.88781835550E+02 -0.55397614974E+03  0.10724937136E+04  0.25500000920E-02 0. -1.
</event>
<event>
 5   0  0.9313463E-05  0.2244960E+04  0.7818609E-02  0.8499944E-01
       -2   -1    0    0    0  501  0.00000000000E+00  0.00000000000E+00  0.15951122866E+04  0.15951122866E+04  0.25500000920E-02 0. -1.
        2   -1    0    0  501    0  0.00000000000E+00  0.00000000000E+00 -0.78988885384E+03  0.78988885385E+03  0.25500000920E-02 0.  1.
    10030    2    1    2    0    0  0.00000000000E+00  0.00000000000E+00  0.80522343276E+03  0.23850011405E+04  0.22449600583E+04 0.  0.
        1    1    3    3  502    0  0.99713432025E+03  0.50234672254E+03  0.27994321567E+03  0.11510852646E+04  0.50400001928E-02 0. -1.
       -1    1    3    3    0  502 -0.99713432025E+03 -0.50234672254E+03  0.52528021710E+03  0.12339158759E+04  0.50400001928E-02 0.  1.
</event>
<event>
 5   0  0.3885219E-05  0.2082261E+04  0.7818609E-02  0.8569098E-01
        1   -1    0    0  501    0  0.00000000000E+00  0.00000000000E+00  0.10166376729E+04  0.10166376729E+04  0.50400001928E-02 0. -1.
       -1   -1    0    0    0  501  0.00000000000E+00  0.00000000000E+00 -0.10662137603E+04  0.10662137604E+04  0.50400001928E-02 0.  1.
    10030    2    1    2    0    0  0.00000000000E+00  0.00000000000E+00 -0.49576087473E+02  0.20828514332E+04  0.20822613439E+04 0.  0.
        2    1    3    3  502    0  0.78873531489E+03 -0.44914279337E+03  0.48537651950E+03  0.10292827656E+04  0.25500000920E-02 0. -1.
       -2    1    3    3    0  502 -0.78873531489E+03  0.44914279337E+03 -0.53495260697E+03  0.10535686677E+04  0.25500000920E-02 0.  1.
</event>
<event>
 5   0  0.3885219E-05  0.2333687E+04  0.7818609E-02  0.8464756E-01
        1   -1    0    0  501    0  0.00000000000E+00  0.00000000000E+00  0.10549569423E+04  0.10549569423E+04  0.50400001928E-02 0.  1.
       -1   -1    0    0    0  501  0.00000000000E+00  0.00000000000E+00 -0.12905967634E+04  0.12905967634E+04  0.50400001928E-02 0. -1.
    10030    2    1    2    0    0  0.00000000000E+00  0.00000000000E+00 -0.23563982115E+03  0.23455537057E+04  0.23336872244E+04 0.  0.
        2    1    3    3  502    0  0.90470008428E+03 -0.55543226780E+02 -0.85637383306E+03  0.12469737104E+04  0.25500000920E-02 0. -1.
       -2    1    3    3    0  502 -0.90470008428E+03  0.55543226780E+02  0.62073401191E+03  0.10985799953E+04  0.25500000920E-02 0.  1.
</event>
<event>
 5   0  0.9313463E-05  0.2294876E+04  0.7818609E-02  0.8479944E-01
       -2   -1    0    0    0  501  0.00000000000E+00  0.00000000000E+00  0.44831509887E+03  0.44831509887E+03  0.25500000920E-02 0.  1.
        2   -1    0    0  501    0  0.00000000000E+00  0.00000000000E+00 -0.29368036682E+04  0.29368036682E+04  0.25500000920E-02 0. -1.
    10030    2    1    2    0    0  0.00000000000E+00  0.00000000000E+00 -0.24884885693E+04  0.33851187671E+04  0.22948755320E+04 0.  0.
        1    1    3    3  502    0 -0.22612234233E+03 -0.22483349505E+03 -0.28701327978E+04  0.28877921828E+04  0.50400001928E-02 0. -1.
       -1    1    3    3    0  502  0.22612234233E+03  0.22483349505E+03  0.38164422849E+03  0.49732658421E+03  0.50400001928E-02 0.  1.
</event>
<event>
 5   0  0.9312074E-05  0.2330810E+04  0.7818609E-02  0.8465871E-01
        2   -1    0    0  501    0  0.00000000000E+00  0.00000000000E+00  0.15769575415E+04  0.15769575415E+04  0.25500000920E-02 0. -1.
       -2   -1    0    0    0  501  0.00000000000E+00  0.00000000000E+00 -0.86125916465E+03  0.86125916465E+03  0.25500000920E-02 0.  1.
    10030    2    1    2    0    0  0.00000000000E+00  0.00000000000E+00  0.71569837682E+03  0.24382167061E+04  0.23308102753E+04 0.  0.
        4    1    3    3  502    0 -0.68160963665E+03  0.31262264959E+03  0.12910584770E+04  0.14930365775E+04  0.12699999809E+01 0. -1.
       -4    1    3    3    0  502  0.68160963665E+03 -0.31262264959E+03 -0.57536010016E+03  0.94518012864E+03  0.12699999809E+01 0.  1.
</event>
<event>
 5   0  0.9312074E-05  0.2222790E+04  0.7818609E-02  0.8509002E-01
       -2   -1    0    0    0  501  0.00000000000E+00  0.00000000000E+00  0.60400851001E+03  0.60400851001E+03  0.25500000920E-02 0.  1.
        2   -1    0    0  501    0  0.00000000000E+00  0.00000000000E+00 -0.20450027019E+04  0.20450027019E+04  0.25500000920E-02 0. -1.
    10030    2    1    2    0    0  0.00000000000E+00  0.00000000000E+00 -0.14409941919E+04  0.26490112119E+04  0.22227901700E+04 0.  0.
        4    1    3    3  502    0  0.69430819343E+03  0.31689387482E+03  0.24232504761E+03  0.80075504180E+03  0.12699999809E+01 0.  1.
       -4    1    3    3    0  502 -0.69430819343E+03 -0.31689387482E+03 -0.16833192395E+04  0.18482561701E+04  0.12699999809E+01 0. -1.
</event>
<event>
 5   0  0.4095451E-05  0.1688477E+04  0.7818609E-02  0.8767964E-01
        1   -1    0    0  501    0  0.00000000000E+00  0.00000000000E+00  0.80099148330E+03  0.80099148332E+03  0.50400001928E-02 0. -1.
       -1   -1    0    0    0  501  0.00000000000E+00  0.00000000000E+00 -0.88982054545E+03  0.88982054547E+03  0.50400001928E-02 0.  1.
    10030    2    1    2    0    0  0.00000000000E+00  0.00000000000E+00 -0.88829062154E+02  0.16908120288E+04  0.16884770399E+04 0.  0.
        3    1    3    3  502    0  0.49398326990E+03 -0.53326693712E+03 -0.47436311571E+03  0.86799393599E+03  0.10100000352E+00 0.  1.
       -3    1    3    3    0  502 -0.49398326990E+03  0.53326693712E+03  0.38553405356E+03  0.82281809279E+03  0.10100000352E+00 0. -1.
</event>
<event>
 5   0  0.4295775E-05  0.2324007E+04  0.7818609E-02  0.8468515E-01
       -1   -1    0    0    0  501  0.00000000000E+00  0.00000000000E+00  0.74728280124E+03  0.74728280126E+03  0.50400001928E-02 0. -1.
        1   -1    0    0  501    0  0.00000000000E+00  0.00000000000E+00 -0.18068830282E+04  0.18068830282E+04  0.50400001928E-02 0.  1.
    10030    2    1    2    0    0  0.00000000000E+00  0.00000000000E+00 -0.10596002269E+04  0.25541658295E+04  0.23240074104E+04 0.  0.
        5    1    3    3  502    0 -0.10511612586E+04 -0.41010670291E+03 -0.22462628864E+03  0.11504810119E+04  0.46999998093E+01 0. -1.
       -5    1    3    3    0  502  0.10511612586E+04  0.41010670291E+03 -0.83497393830E+03  0.14036848175E+04  0.46999998093E+01 0.  1.
</event>
<event>
 5   0  0.9535394E-05  0.2263054E+04  0.7818609E-02  0.8492632E-01
       -2   -1    0    0    0  501  0.00000000000E+00  0.00000000000E+00  0.77175888475E+03  0.77175888476E+03  0.25500000920E-02 0.  1.
        2   -1    0    0  501    0  0.00000000000E+00  0.00000000000E+00 -0.16590070948E+04  0.16590070948E+04  0.25500000920E-02 0. -1.
    10030    2    1    2    0    0  0.00000000000E+00  0.00000000000E+00 -0.88724821006E+03  0.24307659796E+04  0.22630541004E+04 0.  0.
        2    1    3    3  502    0  0.10015716034E+03 -0.31923883593E+03 -0.16046598237E+04  0.16391699244E+04  0.25500000920E-02 0. -1.
       -2    1    3    3    0  502 -0.10015716034E+03  0.31923883593E+03  0.71741161367E+03  0.79159605518E+03  0.25500000920E-02 0.  1.
</event>
<event>
 5   0  0.3885219E-05  0.2296018E+04  0.7818609E-02  0.8479493E-01
       -1   -1    0    0    0  501  0.00000000000E+00  0.00000000000E+00  0.13364509814E+04  0.13364509814E+04  0.50400001928E-02 0. -1.
        1   -1    0    0  501    0  0.00000000000E+00  0.00000000000E+00 -0.98613740057E+03  0.98613740059E+03  0.50400001928E-02 0.  1.
    10030    2    1    2    0    0  0.00000000000E+00  0.00000000000E+00  0.35031358078E+03  0.23225883819E+04  0.22960176800E+04 0.  0.
        2    1    3    3  502    0  0.42302380183E+03 -0.98492402463E+03  0.59088703599E+03  0.12239983499E+04  0.25500000920E-02 0. -1.
       -2    1    3    3    0  502 -0.42302380183E+03  0.98492402463E+03 -0.24057345521E+03  0.10985900321E+04  0.25500000920E-02 0.  1.
</event>
<event>
 5   0  0.3885219E-05  0.2312962E+04  0.7818609E-02  0.8472828E-01
       -1   -1    0    0    0  501  0.00000000000E+00  0.00000000000E+00  0.18541837731E+04  0.18541837731E+04  0.50400001928E-02 0. -1.
        1   -1    0    0  501    0  0.00000000000E+00  0.00000000000E+00 -0.72131407213E+03  0.72131407214E+03  0.50400001928E-02 0.  1.
    10030    2    1    2    0    0  0.00000000000E+00  0.00000000000E+00  0.11328697010E+04  0.25754978453E+04  0.23129624709E+04 0.  0.
        2    1    3    3  502    0  0.25380890468E+03  0.72687320769E+02 -0.68730896797E+03  0.73627170538E+03  0.25500000920E-02 0.  1.
       -2    1    3    3    0  502 -0.25380890468E+03 -0.72687320769E+02  0.18201786690E+04  0.18392261399E+04  0.25500000920E-02 0. -1.
</event>
<event>
 5   0  0.4139830E-05  0.2302059E+04  0.7818609E-02  0.8477110E-01
        1   -1    0    0  501    0  0.00000000000E+00  0.00000000000E+00  0.10585240144E+04  0.10585240144E+04  0.50400001928E-02 0.  1.
       -1   -1    0    0    0  501  0.00000000000E+00  0.00000000000E+00 -0.12516188004E+04  0.12516188004E+04  0.50400001928E-02 0. -1.
    10030    2    1    2    0    0  0.00000000000E+00  0.00000000000E+00 -0.19309478604E+03  0.23101428148E+04  0.23020586935E+04 0.  0.
        1    1    3    3  502    0  0.55091182908E+02 -0.84003416774E+03 -0.88427282483E+03  0.12209139487E+04  0.50400001928E-02 0. -1.
       -1    1    3    3    0  502 -0.55091182908E+02  0.84003416774E+03  0.69117803879E+03  0.10892288661E+04  0.50400001928E-02 0.  1.
</event>
<event>
 5   0  0.9535394E-05  0.2335565E+04  0.7818609E-02  0.8464029E-01
        2   -1    0    0  501    0  0.00000000000E+00  0.00000000000E+00  0.21799791449E+04  0.21799791449E+04  0.25500000920E-02 0.  1.
       -2   -1    0    0    0  501  0.00000000000E+00  0.00000000000E+00 -0.62556389468E+03  0.62556389469E+03  0.25500000920E-02 0. -1.
    10030    2    1    2    0    0  0.00000000000E+00  0.00000000000E+00  0.15544152502E+04  0.28055430396E+04  0.23355652371E+04 0.  0.
        2    1    3    3  502    0  0.69056667436E+03  0.79407471024E+03  0.16909829097E+03  0.10658476482E+04  0.25500000920E-02 0. -1.
       -2    1    3    3    0  502 -0.69056667436E+03 -0.79407471024E+03  0.13853169592E+04  0.17396953914E+04  0.25500000920E-02 0.  1.
</event>
<event>
 5   0  0.9312074E-05  0.2263551E+04  0.7818609E-02  0.8492433E-01
        2   -1    0    0  501    0  0.00000000000E+00  0.00000000000E+00  0.18016789995E+04  0.18016789995E+04  0.25500000920E-02 0.  1.
       -2   -1    0    0    0  501  0.00000000000E+00  0.00000000000E+00 -0.71095667307E+03  0.71095667308E+03  0.25500000920E-02 0. -1.
    10030    2    1    2    0    0  0.00000000000E+00  0.00000000000E+00  0.10907223264E+04  0.25126356725E+04  0.22635509337E+04 0.  0.
        4    1    3    3  502    0  0.62304201453E+03 -0.88097094919E+03  0.16628085689E+03  0.10917610093E+04  0.12699999809E+01 0. -1.
       -4    1    3    3    0  502 -0.62304201453E+03  0.88097094919E+03  0.92444146950E+03  0.14208746632E+04  0.12699999809E+01 0.  1.
</event>
<event>
 5   0  0.4139830E-05  0.2283785E+04  0.7818609E-02  0.8484342E-01
       -1   -1    0    0    0  501  0.00000000000E+00  0.00000000000E+00  0.11598853967E+04  0.11598853967E+04  0.50400001928E-02 0. -1.
        1   -1    0    0  501    0  0.00000000000E+00  0.00000000000E+00 -0.11241783378E+04  0.11241783378E+04  0.50400001928E-02 0.  1.
    10030    2    1    2    0    0  0.00000000000E+00  0.00000000000E+00  0.35707058943E+02  0.22840637345E+04  0.22837846110E+04 0.  0.
        1    1    3    3  502    0  0.38690271617E+03 -0.50533080314E+03 -0.93034731237E+03  0.11272085229E+04  0.50400001928E-02 0.  1.
       -1    1    3    3    0  502 -0.38690271617E+03  0.50533080314E+03  0.96605437132E+03  0.11568552117E+04  0.50400001928E-02 0. -1.
</event>
<event>
 5   0  0.9313463E-05  0.2296089E+04  0.7818609E-02  0.8479465E-01
        2   -1    0    0  501    0  0.00000000000E+00  0.00000000000E+00  0.16737132825E+04  0.16737132825E+04  0.25500000920E-02 0. -1.
       -2   -1    0    0    0  501  0.00000000000E+00  0.00000000000E+00 -0.78747431089E+03  0.78747431090E+03  0.25500000920E-02 0.  1.
    10030    2    1    2    0    0  0.00000000000E+00  0.00000000000E+00  0.88623897159E+03  0.24611875934E+04  0.22960890347E+04 0.  0.
        1    1    3    3  502    0 -0.84975574341E+03 -0.60911338715E+03 -0.65218909822E+02  0.10475483035E+04  0.50400001928E-02 0.  1.
       -1    1    3    3    0  502  0.84975574341E+03  0.60911338715E+03  0.95145788141E+03  0.14136392899E+04  0.50400001928E-02 0. -1.
</event>
<event>
 5   0  0.3885219E-05  0.2049549E+04  0.7818609E-02  0.8583799E-01
       -1   -1    0    0    0  501  0.00000000000E+00  0.00000000000E+00  0.58428212071E+03  0.58428212073E+03  0.50400001928E-02 0.  1.
        1   -1    0    0  501    0  0.00000000000E+00  0.00000000000E+00 -0.17973559911E+04  0.17973559911E+04  0.50400001928E-02 0. -1.
    10030    2    1    2    0    0  0.00000000000E+00  0.00000000000E+00 -0.12130738704E+04  0.23816381118E+04  0.20495491896E+04 0.  0.
        2    1    3    3  502    0 -0.56431668393E+03 -0.29348117111E+03 -0.15402037839E+04  0.16663769722E+04  0.25500000920E-02 0. -1.
       -2    1    3    3    0  502  0.56431668393E+03  0.29348117111E+03  0.32712991350E+03  0.71526113963E+03  0.25500000920E-02 0.  1.
</event>
<event>
 5   0  0.4139830E-05  0.2290076E+04  0.7818609E-02  0.8481844E-01
       -1   -1    0    0    0  501  0.00000000000E+00  0.00000000000E+00  0.95627322360E+03  0.95627322362E+03  0.50400001928E-02 0.  1.
        1   -1    0    0  501    0  0.00000000000E+00  0.00000000000E+00 -0.13710642388E+04  0.13710642388E+04  0.50400001928E-02 0. -1.
    10030    2    1    2    0    0  0.00000000000E+00  0.00000000000E+00 -0.41479101522E+03  0.23273374625E+04  0.22900759983E+04 0.  0.
        1    1    3    3  502    0 -0.78609523558E+03 -0.31815166795E+03 -0.98929412095E+03  0.13030230470E+04  0.50400001928E-02 0. -1.
       -1    1    3    3    0  502  0.78609523558E+03  0.31815166795E+03  0.57450310572E+03  0.10243144155E+04  0.50400001928E-02 0.  1.
</event>
<event>
 5   0  0.4139830E-05  0.2288727E+04  0.7818609E-02  0.8482379E-01
        1   -1    0    0  501    0  0.00000000000E+00  0.00000000000E+00  0.28463995220E+04  0.28463995220E+04  0.50400001928E-02 0.  1.
       -1   -1    0    0    0  501  0.00000000000E+00  0.00000000000E+00 -0.46007869214E+03  0.46007869217E+03  0.50400001928E-02 0. -1.
    10030    2    1    2    0    0  0.00000000000E+00  0.00000000000E+00  0.23863208299E+04  0.33064782142E+04  0.22887269557E+04 0.  0.
        1    1    3    3  502    0  0.85998457284E+03 -0.32436697053E+02  0.22828573800E+04  0.24396851072E+04  0.50400001928E-02 0. -1.
       -1    1    3    3    0  502 -0.85998457284E+03  0.32436697053E+02  0.10346344988E+03  0.86679310699E+03  0.50400001928E-02 0.  1.
</event>
<event>
 5   0  0.4139830E-05  0.2398157E+04  0.7818609E-02  0.8440194E-01
       -1   -1    0    0    0  501  0.00000000000E+00  0.00000000000E+00  0.15335169678E+04  0.15335169678E+04  0.50400001928E-02 0.  1.
        1   -1    0    0  501    0  0.00000000000E+00  0.00000000000E+00 -0.93757637358E+03  0.93757637360E+03  0.50400001928E-02 0. -1.
    10030    2    1    2    0    0  0.00000000000E+00  0.00000000000E+00  0.59594059425E+03  0.24710933414E+04  0.23981570237E+04 0.  0.
        1    1    3    3  502    0 -0.63102457375E+03  0.58610377318E+03 -0.56171796593E+03  0.10282201704E+04  0.50400001928E-02 0. -1.
       -1    1    3    3    0  502  0.63102457375E+03 -0.58610377318E+03  0.11576585602E+04  0.14428731710E+04  0.50400001928E-02 0.  1.
</event>
<event>
 5   0  0.4139830E-05  0.2343647E+04  0.7818609E-02  0.8460908E-01
       -1   -1    0    0    0  501  0.00000000000E+00  0.00000000000E+00  0.12122194730E+04  0.12122194730E+04  0.50400001928E-02 0. -1.
        1   -1    0    0  501    0  0.00000000000E+00  0.00000000000E+00 -0.11327732330E+04  0.11327732330E+04  0.50400001928E-02 0.  1.
    10030    2    1    2    0    0  0.00000000000E+00  0.00000000000E+00  0.79446239999E+02  0.23449927061E+04  0.23436465362E+04 0.  0.
        1    1    3    3  502    0 -0.79539955167E+03 -0.78274412547E+03 -0.31800280785E+03  0.11603769209E+04  0.50400001928E-02 0. -1.
       -1    1    3    3    0  502  0.79539955167E+03  0.78274412547E+03  0.39744904785E+03  0.11846157851E+04  0.50400001928E-02 0.  1.
</event>
<event>
 5   0  0.3885219E-05  0.1500158E+04  0.7818609E-02  0.8884348E-01
        1   -1    0    0  501    0  0.00000000000E+00  0.00000000000E+00  0.55744900758E+03  0.55744900760E+03  0.50400001928E-02 0.  1.
       -1   -1    0    0    0  501  0.00000000000E+00  0.00000000000E+00 -0.10092730748E+04  0.10092730748E+04  0.50400001928E-02 0. -1.
    10030    2    1    2    0    0  0.00000000000E+00  0.00000000000E+00 -0.45182406718E+03  0.15667220824E+04  0.15001576903E+04 0.  0.
        2    1    3    3  502    0 -0.40827110784E+03 -0.62033213163E+03 -0.33604755684E+03  0.81512281988E+03  0.25500000920E-02 0.  1.
       -2    1    3    3    0  502  0.40827110784E+03  0.62033213163E+03 -0.11577651035E+03  0.75159926249E+03  0.25500000920E-02 0. -1.
</event>
<event>
 5   0  0.4139830E-05  0.2302683E+04  0.7818609E-02  0.8476864E-01
       -1   -1    0    0    0  501  0.00000000000E+00  0.00000000000E+00  0.13483019784E+04  0.13483019784E+04  0.50400001928E-02 0.  1.
        1   -1    0    0  501    0  0.00000000000E+00  0.00000000000E+00 -0.98315334168E+03  0.98315334170E+03  0.50400001928E-02 0. -1.
    10030    2    1    2    0    0  0.00000000000E+00  0.00000000000E+00  0.36514863674E+03  0.23314553201E+04  0.23026833006E+04 0.  0.
        1    1    3    3  502    0  0.22594954397E+03 -0.52587639930E+03  0.11940504407E+04  0.13241433603E+04  0.50400001928E-02 0.  1.
       -1    1    3    3    0  502 -0.22594954397E+03  0.52587639930E+03 -0.82890180395E+03  0.10073119598E+04  0.50400001928E-02 0. -1.
</event>
<event>
 5   0  0.9535394E-05  0.2222865E+04  0.7818609E-02  0.8508971E-01
        2   -1    0    0  501    0  0.00000000000E+00  0.00000000000E+00  0.18714306341E+04  0.18714306341E+04  0.25500000920E-02 0. -1.
       -2   -1    0    0    0  501  0.00000000000E+00  0.00000000000E+00 -0.66007382962E+03  0.66007382963E+03  0.25500000920E-02 0.  1.
    10030    2    1    2    0    0  0.00000000000E+00  0.00000000000E+00  0.12113568045E+04  0.25315044637E+04  0.22228651651E+04 0.  0.
        2    1    3    3  502    0  0.96044593646E+03  0.45391745570E+03  0.97783058050E+03  0.14438317414E+04  0.25500000920E-02 0. -1.
       -2    1    3    3    0  502 -0.96044593646E+03 -0.45391745570E+03  0.23352622395E+03  0.10876727223E+04  0.25500000920E-02 0.  1.
</event>
<event>
 5   0  0.3885219E-05  0.2276911E+04  0.7818609E-02  0.8487081E-01
       -1   -1    0    0    0  501  0.00000000000E+00  0.00000000000E+00  0.13644307858E+04  0.13644307858E+04  0.50400001928E-02 0. -1.
        1   -1    0    0  501    0  0.00000000000E+00  0.00000000000E+00 -0.94990604806E+03  0.94990604808E+03  0.50400001928E-02 0.  1.
    10030    2    1    2    0    0  0.00000000000E+00  0.00000000000E+00  0.41452473771E+03  0.23143368339E+04  0.22769111143E+04 0.  0.
        2    1    3    3  502    0 -0.44893474506E+03  0.10101173563E+04  0.48413948157E+03  0.12067603393E+04  0.25500000920E-02 0.  1.
       -2    1    3    3    0  502  0.44893474506E+03 -0.10101173563E+04 -0.69614743868E+02  0.11075764946E+04  0.25500000920E-02 0. -1.
</event>
<event>
 5   0  0.4295775E-05  0.2158661E+04  0.7818609E-02  0.8535834E-01
        1   -1    0    0  501    0  0.00000000000E+00  0.00000000000E+00  0.84297134261E+03  0.84297134263E+03  0.50400001928E-02 0.  1.
       -1   -1    0    0    0  501  0.00000000000E+00  0.00000000000E+00 -0.13819617398E+04  0.13819617398E+04  0.50400001928E-02 0. -1.
    10030    2    1    2    0    0  0.00000000000E+00  0.00000000000E+00 -0.53899039714E+03  0.22249330824E+04  0.21586608286E+04 0.  0.
        5    1    3    3  502    0  0.14429736373E+03 -0.24863863776E+03 -0.13417652973E+04  0.13722241451E+04  0.46999998093E+01 0. -1.
       -5    1    3    3    0  502 -0.14429736373E+03  0.24863863776E+03  0.80277490017E+03  0.85270893728E+03  0.46999998093E+01 0.  1.
</event>
<event>
 5   0  0.9313463E-05  0.2292086E+04  0.7818609E-02  0.8481048E-01
       -2   -1    0    0    0  501  0.00000000000E+00  0.00000000000E+00  0.11708691741E+04  0.11708691741E+04  0.25500000920E-02 0.  1.
        2   -1    0    0  501    0  0.00000000000E+00  0.00000000000E+00 -0.11217430242E+04  0.11217430242E+04  0.25500000920E-02 0. -1.
    10030    2    1    2    0    0  0.00000000000E+00  0.00000000000E+00  0.49126149828E+02  0.22926121983E+04  0.22920857997E+04 0.  0.
        1    1    3    3  502    0 -0.14036751258E+03 -0.97287702644E+03 -0.56482735992E+03  0.11336766266E+04  0.50400001928E-02 0. -1.
       -1    1    3    3    0  502  0.14036751258E+03  0.97287702644E+03  0.61395350975E+03  0.11589355717E+04  0.50400001928E-02 0.  1.
</event>
<event>
 5   0  0.9313463E-05  0.1641913E+04  0.7818609E-02  0.8795205E-01
        2   -1    0    0  501    0  0.00000000000E+00  0.00000000000E+00  0.10358178569E+04  0.10358178569E+04  0.25500000920E-02 0.  1.
       -2   -1    0    0    0  501  0.00000000000E+00  0.00000000000E+00 -0.65066448952E+03  0.65066448953E+03  0.25500000920E-02 0. -1.
    10030    2    1    2    0    0  0.00000000000E+00  0.00000000000E+00  0.38515336734E+03  0.16864823464E+04  0.16419133925E+04 0.  0.
        1    1    3    3  502    0  0.49606135463E+03 -0.57432031153E+02  0.86187353676E+03  0.99609301732E+03  0.50400001928E-02 0.  1.
       -1    1    3    3    0  502 -0.49606135463E+03  0.57432031153E+02 -0.47672016942E+03  0.69038932908E+03  0.50400001928E-02 0. -1.
</event>
<event>
 5   0  0.9535394E-05  0.1420217E+04  0.7818609E-02  0.8939313E-01
       -2   -1    0    0    0  501  0.00000000000E+00  0.00000000000E+00  0.43369173548E+03  0.43369173548E+03  0.25500000920E-02 0.  1.
        2   -1    0    0  501    0  0.00000000000E+00  0.00000000000E+00 -0.11627008317E+04  0.11627008317E+04  0.25500000920E-02 0. -1.
    10030    2    1    2    0    0  0.00000000000E+00  0.00000000000E+00 -0.72900909625E+03  0.15963925672E+04  0.14202165209E+04 0.  0.
        2    1    3    3  502    0 -0.23964770913E+03  0.49554742855E+03 -0.86876972240E+03  0.10284741655E+04  0.25500000920E-02 0. -1.
       -2    1    3    3    0  502  0.23964770913E+03 -0.49554742855E+03  0.13976062615E+03  0.56791840176E+03  0.25500000920E-02 0.  1.
</event>
<event>
 5   0  0.9483073E-05  0.2388930E+04  0.7818609E-02  0.8443660E-01
       -2   -1    0    0    0  501  0.00000000000E+00  0.00000000000E+00  0.67420094471E+03  0.67420094471E+03  0.25500000920E-02 0.  1.
        2   -1    0    0  501    0  0.00000000000E+00  0.00000000000E+00 -0.21162032024E+04  0.21162032024E+04  0.25500000920E-02 0. -1.
    10030    2    1    2    0    0  0.00000000000E+00  0.00000000000E+00 -0.14420022577E+04  0.27904041471E+04  0.23889296333E+04 0.  0.
        5    1    3    3  502    0  0.10377011744E+04  0.46076869395E+03 -0.11542737798E+04  0.16191051743E+04  0.46999998093E+01 0.  1.
       -5    1    3    3    0  502 -0.10377011744E+04 -0.46076869395E+03 -0.28772847792E+03  0.11712989728E+04  0.46999998093E+01 0. -1.
</event>
<event>
 5   0  0.4005462E-05  0.2393177E+04  0.7818609E-02  0.8442063E-01
        1   -1    0    0  501    0  0.00000000000E+00  0.00000000000E+00  0.16114871346E+04  0.16114871347E+04  0.50400001928E-02 0. -1.
       -1   -1    0    0    0  501  0.00000000000E+00  0.00000000000E+00 -0.88851079276E+03  0.88851079278E+03  0.50400001928E-02 0.  1.
    10030    2    1    2    0    0  0.00000000000E+00  0.00000000000E+00  0.72297634188E+03  0.24999979274E+04  0.23931767269E+04 0.  0.
        4    1    3    3  502    0  0.17503700003E+03 -0.31741989753E+03  0.15527525616E+04  0.15945016379E+04  0.12699999809E+01 0. -1.
       -4    1    3    3    0  502 -0.17503700003E+03  0.31741989753E+03 -0.82977621970E+03  0.90549628956E+03  0.12699999809E+01 0.  1.
</event>
<event>
 5   0  0.9313463E-05  0.2315489E+04  0.7818609E-02  0.8471839E-01
       -2   -1    0    0    0  501  0.00000000000E+00  0.00000000000E+00  0.89152633300E+03  0.89152633300E+03  0.25500000920E-02 0. -1.
        2   -1    0    0  501    0  0.00000000000E+00  0.00000000000E+00 -0.15034574875E+04  0.15034574875E+04  0.25500000920E-02 0.  1.
    10030    2    1    2    0    0  0.00000000000E+00  0.00000000000E+00 -0.61193115455E+03  0.23949838205E+04  0.23154886661E+04 0.  0.
        1    1    3    3  502    0  0.28904889626E+03 -0.91611387710E+03  0.36240657961E+03  0.10267192553E+04  0.50400001928E-02 0. -1.
       -1    1    3    3    0  502 -0.28904889626E+03  0.91611387710E+03 -0.97433773416E+03  0.13682645652E+04  0.50400001928E-02 0.  1.
</event>
<event>
 5   0  0.4139830E-05  0.2331126E+04  0.7818609E-02  0.8465749E-01
        1   -1    0    0  501    0  0.00000000000E+00  0.00000000000E+00  0.84875654549E+03  0.84875654550E+03  0.50400001928E-02 0. -1.
       -1   -1    0    0    0  501  0.00000000000E+00  0.00000000000E+00 -0.16006202247E+04  0.16006202247E+04  0.50400001928E-02 0.  1.
    10030    2    1    2    0    0  0.00000000000E+00  0.00000000000E+00 -0.75186367923E+03  0.24493767702E+04  0.23311258161E+04 0.  0.
        1    1    3    3  502    0  0.47990672944E+03 -0.36520872389E+03  0.67208549740E+03  0.90298770579E+03  0.50400001928E-02 0. -1.
       -1    1    3    3    0  502 -0.47990672944E+03  0.36520872389E+03 -0.14239491766E+04  0.15463890644E+04  0.50400001928E-02 0.  1.
</event>
<event>
 5   0  0.3885219E-05  0.2298925E+04  0.7818609E-02  0.8478345E-01
       -1   -1    0    0    0  501  0.00000000000E+00  0.00000000000E+00  0.60643431546E+03  0.60643431548E+03  0.50400001928E-02 0. -1.
        1   -1    0    0  501    0  0.00000000000E+00  0.00000000000E+00 -0.21787429217E+04  0.21787429217E+04  0.50400001928E-02 0.  1.
    10030    2    1    2    0    0  0.00000000000E+00  0.00000000000E+00 -0.15723086063E+04  0.27851772372E+04  0.22989253771E+04 0.  0.
        2    1    3    3  502    0  0.25085184138E+03 -0.46600520847E+03  0.45004996801E+03  0.69471755006E+03  0.25500000920E-02 0. -1.
       -2    1    3    3    0  502 -0.25085184138E+03  0.46600520847E+03 -0.20223585743E+04  0.20904596871E+04  0.25500000920E-02 0.  1.
</event>
<event>
 5   0  0.4139830E-05  0.2310058E+04  0.7818609E-02  0.8473966E-01
        1   -1    0    0  501    0  0.00000000000E+00  0.00000000000E+00  0.12185962347E+04  0.12185962347E+04  0.50400001928E-02 0.  1.
       -1   -1    0    0    0  501  0.00000000000E+00  0.00000000000E+00 -0.10947777948E+04  0.10947777948E+04  0.50400001928E-02 0. -1.
    10030    2    1    2    0    0  0.00000000000E+00  0.00000000000E+00  0.12381843991E+03  0.23133740295E+04  0.23100580932E+04 0.  0.
        1    1    3    3  502    0 -0.57714559753E+03 -0.37266261544E+03  0.99174492335E+03  0.12064544992E+04  0.50400001928E-02 0.  1.
       -1    1    3    3    0  502  0.57714559753E+03  0.37266261544E+03 -0.86792648344E+03  0.11069195302E+04  0.50400001928E-02 0. -1.
</event>
<event>
 5   0  0.4295775E-05  0.2363936E+04  0.7818609E-02  0.8453130E-01
        1   -1    0    0  501    0  0.00000000000E+00  0.00000000000E+00  0.12282249058E+04  0.12282249058E+04  0.50400001928E-02 0.  1.
       -1   -1    0    0    0  501  0.00000000000E+00  0.00000000000E+00 -0.11374533541E+04  0.11374533541E+04  0.50400001928E-02 0. -1.
    10030    2    1    2    0    0  0.00000000000E+00  0.00000000000E+00  0.90771551695E+02  0.23656782600E+04  0.23639361572E+04 0.  0.
        5    1    3    3  502    0 -0.15962154959E+03  0.27348862150E+03 -0.10942033474E+04  0.11391128656E+04  0.46999998093E+01 0. -1.
       -5    1    3    3    0  502  0.15962154959E+03 -0.27348862150E+03  0.11849748991E+04  0.12265653944E+04  0.46999998093E+01 0.  1.
</event>
<event>
 5   0  0.3885219E-05  0.2329970E+04  0.7818609E-02  0.8466197E-01
        1   -1    0    0  501    0  0.00000000000E+00  0.00000000000E+00  0.13266242693E+04  0.13266242694E+04  0.50400001928E-02 0.  1.
       -1   -1    0    0    0  501  0.00000000000E+00  0.00000000000E+00 -0.10230401392E+04  0.10230401392E+04  0.50400001928E-02 0. -1.
    10030    2    1    2    0    0  0.00000000000E+00  0.00000000000E+00  0.30358413012E+03  0.23496644086E+04  0.23299698515E+04 0.  0.
        2    1    3    3  502    0  0.67250253509E+03  0.94868668468E+03  0.22255492533E+03  0.11839749914E+04  0.25500000920E-02 0.  1.
       -2    1    3    3    0  502 -0.67250253509E+03 -0.94868668468E+03  0.81029204790E+02  0.11656894172E+04  0.25500000920E-02 0. -1.
</event>
<event>
 5   0  0.9313463E-05  0.2100507E+04  0.7818609E-02  0.8561020E-01
       -2   -1    0    0    0  501  0.00000000000E+00  0.00000000000E+00  0.74781814728E+03  0.74781814729E+03  0.25500000920E-02 0. -1.
        2   -1    0    0  501    0  0.00000000000E+00  0.00000000000E+00 -0.14750013720E+04  0.14750013720E+04  0.25500000920E-02 0.  1.
    10030    2    1    2    0    0  0.00000000000E+00  0.00000000000E+00 -0.72718322475E+03  0.22228195193E+04  0.21005073609E+04 0.  0.
        1    1    3    3  502    0  0.56621509794E+03 -0.59654407984E+02  0.57033718470E+03  0.80588007160E+03  0.50400001928E-02 0. -1.
       -1    1    3    3    0  502 -0.56621509794E+03  0.59654407984E+02 -0.12975204095E+04  0.14169394477E+04  0.50400001928E-02 0.  1.
</event>
<event>
 5   0  0.9641157E-05  0.2331026E+04  0.7818609E-02  0.8465787E-01
       -2   -1    0    0    0  501  0.00000000000E+00  0.00000000000E+00  0.14053950685E+04  0.14053950685E+04  0.25500000920E-02 0. -1.
        2   -1    0    0  501    0  0.00000000000E+00  0.00000000000E+00 -0.96657572762E+03  0.96657572762E+03  0.25500000920E-02 0.  1.
    10030    2    1    2    0    0  0.00000000000E+00  0.00000000000E+00  0.43881934092E+03  0.23719707962E+04  0.23310261783E+04 0.  0.
        3    1    3    3  502    0 -0.99182538221E+03  0.60935359945E+03  0.27866790012E+03  0.11969482891E+04  0.10100000352E+00 0. -1.
       -3    1    3    3    0  502  0.99182538221E+03 -0.60935359945E+03  0.16015144079E+03  0.11750225071E+04  0.10100000352E+00 0.  1.
</event>
<event>
 5   0  0.4139830E-05  0.2297396E+04  0.7818609E-02  0.8478949E-01
       -1   -1    0    0    0  501  0.00000000000E+00  0.00000000000E+00  0.11764260152E+04  0.11764260152E+04  0.50400001928E-02 0.  1.
        1   -1    0    0  501    0  0.00000000000E+00  0.00000000000E+00 -0.11216234146E+04  0.11216234146E+04  0.50400001928E-02 0. -1.
    10030    2    1    2    0    0  0.00000000000E+00  0.00000000000E+00  0.54802600591E+02  0.22980494298E+04  0.22973958859E+04 0.  0.
        1    1    3    3  502    0 -0.79803694599E+03 -0.81972927658E+03 -0.76010458187E+02  0.11465586090E+04  0.50400001928E-02 0. -1.
       -1    1    3    3    0  502  0.79803694599E+03  0.81972927658E+03  0.13081305878E+03  0.11514908208E+04  0.50400001928E-02 0.  1.
</event>
<event>
 5   0  0.3885219E-05  0.2250922E+04  0.7818609E-02  0.8497527E-01
        1   -1    0    0  501    0  0.00000000000E+00  0.00000000000E+00  0.10308280789E+04  0.10308280789E+04  0.50400001928E-02 0.  1.
       -1   -1    0    0    0  501  0.00000000000E+00  0.00000000000E+00 -0.12287811151E+04  0.12287811151E+04  0.50400001928E-02 0. -1.
    10030    2    1    2    0    0  0.00000000000E+00  0.00000000000E+00 -0.19795303620E+03  0.22596091941E+04  0.22509216569E+04 0.  0.
        2    1    3    3  502    0 -0.72701905831E+03  0.64630737420E+03  0.46924003629E+03  0.10800259926E+04  0.25500000920E-02 0.  1.
       -2    1    3    3    0  502  0.72701905831E+03 -0.64630737420E+03 -0.66719307248E+03  0.11795832014E+04  0.25500000920E-02 0. -1.
</event>
<event>
 5   0  0.4139830E-05  0.2314317E+04  0.7818609E-02  0.8472297E-01
        1   -1    0    0  501    0  0.00000000000E+00  0.00000000000E+00  0.17095330827E+04  0.17095330827E+04  0.50400001928E-02 0. -1.
       -1   -1    0    0    0  501  0.00000000000E+00  0.00000000000E+00 -0.78326428242E+03  0.78326428243E+03  0.50400001928E-02 0.  1.
    10030    2    1    2    0    0  0.00000000000E+00  0.00000000000E+00  0.92626880029E+03  0.24927973651E+04  0.23143173536E+04 0.  0.
        1    1    3    3  502    0  0.60769460832E+03  0.21453668167E+03  0.14983455576E+04  0.16310604326E+04  0.50400001928E-02 0. -1.
       -1    1    3    3    0  502 -0.60769460832E+03 -0.21453668167E+03 -0.57207675727E+03  0.86173693259E+03  0.50400001928E-02 0.  1.
</event>
<event>
 5   0  0.3885219E-05  0.2212276E+04  0.7818609E-02  0.8513336E-01
        1   -1    0    0  501    0  0.00000000000E+00  0.00000000000E+00  0.96560500375E+03  0.96560500376E+03  0.50400001928E-02 0.  1.
       -1   -1    0    0    0  501  0.00000000000E+00  0.00000000000E+00 -0.12671238431E+04  0.12671238431E+04  0.50400001928E-02 0. -1.
    10030    2    1    2    0    0  0.00000000000E+00  0.00000000000E+00 -0.30151883931E+03  0.22327288468E+04  0.22122758628E+04 0.  0.
        2    1    3    3  502    0 -0.49796194940E+01 -0.53664670944E+03  0.82540906184E+03  0.98453776299E+03  0.25500000920E-02 0.  1.
       -2    1    3    3    0  502  0.49796194940E+01  0.53664670944E+03 -0.11269279012E+04  0.12481910838E+04  0.25500000920E-02 0. -1.
</event>
<event>
 5   0  0.4095451E-05  0.2346745E+04  0.7818609E-02  0.8459715E-01
        1   -1    0    0  501    0  0.00000000000E+00  0.00000000000E+00  0.10457334747E+04  0.10457334747E+04  0.50400001928E-02 0. -1.
       -1   -1    0    0    0  501  0.00000000000E+00  0.00000000000E+00 -0.13165908800E+04  0.13165908800E+04  0.50400001928E-02 0.  1.
    10030    2    1    2    0    0  0.00000000000E+00  0.00000000000E+00 -0.27085740538E+03  0.23623243547E+04  0.23467451124E+04 0.  0.
        3    1    3    3  502    0  0.39234219705E+03  0.99243653629E+03  0.35560099641E+03  0.11248621058E+04  0.10100000352E+00 0. -1.
       -3    1    3    3    0  502 -0.39234219705E+03 -0.99243653629E+03 -0.62645840179E+03  0.12374622489E+04  0.10100000352E+00 0.  1.
</event>
<event>
 5   0  0.9313463E-05  0.2342527E+04  0.7818609E-02  0.8461340E-01
       -2   -1    0    0    0  501  0.00000000000E+00  0.00000000000E+00  0.11279378832E+04  0.11279378832E+04  0.25500000920E-02 0.  1.
        2   -1    0    0  501    0  0.00000000000E+00  0.00000000000E+00 -0.12162533915E+04  0.12162533915E+04  0.25500000920E-02 0. -1.
    10030    2    1    2    0    0  0.00000000000E+00  0.00000000000E+00 -0.88315508335E+02  0.23441912746E+04  0.23425270763E+04 0.  0.
        1    1    3    3  502    0  0.61734513951E+03  0.62344958692E+03 -0.82063029299E+03  0.12013486116E+04  0.50400001928E-02 0. -1.
       -1    1    3    3    0  502 -0.61734513951E+03 -0.62344958692E+03  0.73231478465E+03  0.11428426631E+04  0.50400001928E-02 0.  1.
</event>
<event>
 5   0  0.4295775E-05  0.2376578E+04  0.7818609E-02  0.8448325E-01
       -1   -1    0    0    0  501  0.00000000000E+00  0.00000000000E+00  0.63143538043E+03  0.63143538045E+03  0.50400001928E-02 0. -1.
        1   -1    0    0  501    0  0.00000000000E+00  0.00000000000E+00 -0.22362240182E+04  0.22362240182E+04  0.50400001928E-02 0.  1.
    10030    2    1    2    0    0  0.00000000000E+00  0.00000000000E+00 -0.16047886377E+04  0.28676593986E+04  0.23765781819E+04 0.  0.
        5    1    3    3  502    0 -0.35249465835E+03  0.11119359998E+04 -0.52895204795E+03  0.12808069764E+04  0.46999998093E+01 0. -1.
       -5    1    3    3    0  502  0.35249465835E+03 -0.11119359998E+04 -0.10758365898E+04  0.15868524222E+04  0.46999998093E+01 0.  1.
</event>
<event>
 5   0  0.9535394E-05  0.2312132E+04  0.7818609E-02  0.8473153E-01
        2   -1    0    0  501    0  0.00000000000E+00  0.00000000000E+00  0.17260241508E+04  0.17260241508E+04  0.25500000920E-02 0.  1.
       -2   -1    0    0    0  501  0.00000000000E+00  0.00000000000E+00 -0.77431616599E+03  0.77431616599E+03  0.25500000920E-02 0. -1.
    10030    2    1    2    0    0  0.00000000000E+00  0.00000000000E+00  0.95170798484E+03  0.25003403168E+04  0.23121318326E+04 0.  0.
        2    1    3    3  502    0 -0.58114130338E+03  0.46646659572E+03 -0.47993031033E+03  0.88636866043E+03  0.25500000920E-02 0. -1.
       -2    1    3    3    0  502  0.58114130338E+03 -0.46646659572E+03  0.14316382952E+04  0.16139716564E+04  0.25500000920E-02 0.  1.
</event>
<event>
 5   0  0.3885219E-05  0.2331814E+04  0.7818609E-02  0.8465482E-01
        1   -1    0    0  501    0  0.00000000000E+00  0.00000000000E+00  0.19090836337E+04  0.19090836337E+04  0.50400001928E-02 0.  1.
       -1   -1    0    0    0  501  0.00000000000E+00  0.00000000000E+00 -0.71203774534E+03  0.71203774536E+03  0.50400001928E-02 0. -1.
    10030    2    1    2    0    0  0.00000000000E+00  0.00000000000E+00  0.11970458883E+04  0.26211213790E+04  0.23318144062E+04 0.  0.
        2    1    3    3  502    0 -0.49344454220E+03  0.65172798287E+03  0.15329909890E+04  0.17373250278E+04  0.25500000920E-02 0.  1.
       -2    1    3    3    0  502  0.49344454220E+03 -0.65172798287E+03 -0.33594510062E+03  0.88379635127E+03  0.25500000920E-02 0. -1.
</event>
<event>
 5   0  0.9641157E-05  0.2268621E+04  0.7818609E-02  0.8490397E-01
       -2   -1    0    0    0  501  0.00000000000E+00  0.00000000000E+00  0.98541968525E+03  0.98541968525E+03  0.25500000920E-02 0. -1.
        2   -1    0    0  501    0  0.00000000000E+00  0.00000000000E+00 -0.13056980707E+04  0.13056980707E+04  0.25500000920E-02 0.  1.
    10030    2    1    2    0    0  0.00000000000E+00  0.00000000000E+00 -0.32027838542E+03  0.22911177559E+04  0.22686212393E+04 0.  0.
        3    1    3    3  502    0  0.44669068091E+03  0.10272145255E+04  0.20402465957E+02  0.11203207204E+04  0.10100000352E+00 0.  1.
       -3    1    3    3    0  502 -0.44669068091E+03 -0.10272145255E+04 -0.34068085137E+03  0.11707970355E+04  0.10100000352E+00 0. -1.
</event>
<event>
 5   0  0.4139830E-05  0.2253279E+04  0.7818609E-02  0.8496574E-01
        1   -1    0    0  501    0  0.00000000000E+00  0.00000000000E+00  0.18162874869E+04  0.18162874869E+04  0.50400001928E-02 0. -1.
       -1   -1    0    0    0  501  0.00000000000E+00  0.00000000000E+00 -0.69885252152E+03  0.69885252154E+03  0.50400001928E-02 0.  1.
    10030    2    1    2    0    0  0.00000000000E+00  0.00000000000E+00  0.11174349654E+04  0.25151400085E+04  0.22532794679E+04 0.  0.
        1    1    3    3  502    0  0.39242370687E+03 -0.33216724784E+03  0.16777096207E+04  0.17547196408E+04  0.50400001928E-02 0. -1.
       -1    1    3    3    0  502 -0.39242370687E+03  0.33216724784E+03 -0.56027465529E+03  0.76042036772E+03  0.50400001928E-02 0.  1.
</event>
<event>
 5   0  0.9641157E-05  0.2309656E+04  0.7818609E-02  0.8474124E-01
        2   -1    0    0  501    0  0.00000000000E+00  0.00000000000E+00  0.12582559807E+04  0.12582559807E+04  0.25500000920E-02 0. -1.
       -2   -1    0    0    0  501  0.00000000000E+00  0.00000000000E+00 -0.10599016964E+04  0.10599016964E+04  0.25500000920E-02 0.  1.
    10030    2    1    2    0    0  0.00000000000E+00  0.00000000000E+00  0.19835428431E+03  0.23181576771E+04  0.23096559471E+04 0.  0.
        3    1    3    3  502    0  0.11007930292E+04 -0.27076365445E+03  0.32037300518E+03  0.11780055697E+04  0.10100000352E+00 0. -1.
       -3    1    3    3    0  502 -0.11007930292E+04  0.27076365445E+03 -0.12201872086E+03  0.11401521074E+04  0.10100000352E+00 0.  1.
</event>
<event>
 5   0  0.4095451E-05  0.2288483E+04  0.7818609E-02  0.8482476E-01
        1   -1    0    0  501    0  0.00000000000E+00  0.00000000000E+00  0.85241979157E+03  0.85241979159E+03  0.50400001928E-02 0. -1.
       -1   -1    0    0    0  501  0.00000000000E+00  0.00000000000E+00 -0.15359673794E+04  0.15359673794E+04  0.50400001928E-02 0.  1.
    10030    2    1    2    0    0  0.00000000000E+00  0.00000000000E+00 -0.68354758778E+03  0.23883871710E+04  0.22884833348E+04 0.  0.
        3    1    3    3  502    0  0.69877620344E+03 -0.36960253137E+03  0.52162277107E+03  0.94709267719E+03  0.10100000352E+00 0. -1.
       -3    1    3    3    0  502 -0.69877620344E+03  0.36960253137E+03 -0.12051703589E+04  0.14412944938E+04  0.10100000352E+00 0.  1.
</event>
<event>
 5   0  0.4295775E-05  0.2287202E+04  0.7818609E-02  0.8482984E-01
       -1   -1    0    0    0  501  0.00000000000E+00  0.00000000000E+00  0.15744229679E+04  0.15744229680E+04  0.50400001928E-02 0. -1.
        1   -1    0    0  501    0  0.00000000000E+00  0.00000000000E+00 -0.83066806948E+03  0.83066806949E+03  0.50400001928E-02 0.  1.
    10030    2    1    2    0    0  0.00000000000E+00  0.00000000000E+00  0.74375489847E+03  0.24050910374E+04  0.22872016853E+04 0.  0.
        5    1    3    3  502    0  0.30678634878E+03 -0.75060693175E+03  0.12198360325E+04  0.14647698338E+04  0.46999998093E+01 0. -1.
       -5    1    3    3    0  502 -0.30678634878E+03  0.75060693175E+03 -0.47608113407E+03  0.94032120363E+03  0.46999998093E+01 0.  1.
</event>
<event>
 5   0  0.4095451E-05  0.2308434E+04  0.7818609E-02  0.8474603E-01
       -1   -1    0    0    0  501  0.00000000000E+00  0.00000000000E+00  0.10567735106E+04  0.10567735106E+04  0.50400001928E-02 0.  1.
        1   -1    0    0  501    0  0.00000000000E+00  0.00000000000E+00 -0.12606458803E+04  0.12606458804E+04  0.50400001928E-02 0. -1.
    10030    2    1    2    0    0  0.00000000000E+00  0.00000000000E+00 -0.20387236974E+03  0.23174193910E+04  0.23084342509E+04 0.  0.
        3    1    3    3  502    0 -0.18046247638E+03  0.85673842095E+03 -0.85696047071E+03  0.12251321096E+04  0.10100000352E+00 0. -1.
       -3    1    3    3    0  502  0.18046247638E+03 -0.85673842095E+03  0.65308810097E+03  0.10922872814E+04  0.10100000352E+00 0.  1.
</event>
<event>
 5   0  0.9483073E-05  0.1943669E+04  0.7818609E-02  0.8633420E-01
       -2   -1    0    0    0  501  0.00000000000E+00  0.00000000000E+00  0.32077377194E+03  0.32077377195E+03  0.25500000920E-02 0.  1.
        2   -1    0    0  501    0  0.00000000000E+00  0.00000000000E+00 -0.29443253475E+04  0.29443253475E+04  0.25500000920E-02 0. -1.
    10030    2    1    2    0    0  0.00000000000E+00  0.00000000000E+00 -0.26235515755E+04  0.32650991194E+04  0.19436690537E+04 0.  0.
        5    1    3    3  502    0 -0.18819471663E+03 -0.29080341208E+03 -0.28370849948E+04  0.28581562647E+04  0.46999998093E+01 0. -1.
       -5    1    3    3    0  502  0.18819471663E+03  0.29080341208E+03  0.21353341927E+03  0.40694285470E+03  0.46999998093E+01 0.  1.
</event>
<event>
 5   0  0.9313463E-05  0.2299804E+04  0.7818609E-02  0.8477999E-01
       -2   -1    0    0    0  501  0.00000000000E+00  0.00000000000E+00  0.97832217879E+03  0.97832217879E+03  0.25500000920E-02 0.  1.
        2   -1    0    0  501    0  0.00000000000E+00  0.00000000000E+00 -0.13515733521E+04  0.13515733521E+04  0.25500000920E-02 0. -1.
    10030    2    1    2    0    0  0.00000000000E+00  0.00000000000E+00 -0.37325117334E+03  0.23298955309E+04  0.22998036322E+04 0.  0.
        1    1    3    3  502    0  0.61333754779E+03  0.83409316158E+03  0.32030134986E+03  0.10837376548E+04  0.50400001928E-02 0.  1.
       -1    1    3    3    0  502 -0.61333754779E+03 -0.83409316158E+03 -0.69355252320E+03  0.12461578761E+04  0.50400001928E-02 0. -1.
</event>
<event>
 5   0  0.9313463E-05  0.2245658E+04  0.7818609E-02  0.8499661E-01
       -2   -1    0    0    0  501  0.00000000000E+00  0.00000000000E+00  0.14208615431E+04  0.14208615432E+04  0.25500000920E-02 0.  1.
        2   -1    0    0  501    0  0.00000000000E+00  0.00000000000E+00 -0.88731002448E+03  0.88731002449E+03  0.25500000920E-02 0. -1.
    10030    2    1    2    0    0  0.00000000000E+00  0.00000000000E+00  0.53355151867E+03  0.23081715676E+04  0.22456577572E+04 0.  0.
        1    1    3    3  502    0  0.27167733634E+02  0.73115899374E+03  0.11421972899E+04  0.13564461688E+04  0.50400001928E-02 0.  1.
       -1    1    3    3    0  502 -0.27167733634E+02 -0.73115899374E+03 -0.60864577123E+03  0.95172539880E+03  0.50400001928E-02 0. -1.
</event>
<event>
 5   0  0.3885219E-05  0.2283003E+04  0.7818609E-02  0.8484653E-01
        1   -1    0    0  501    0  0.00000000000E+00  0.00000000000E+00  0.10820690829E+04  0.10820690829E+04  0.50400001928E-02 0.  1.
       -1   -1    0    0    0  501  0.00000000000E+00  0.00000000000E+00 -0.12041985761E+04  0.12041985761E+04  0.50400001928E-02 0. -1.
    10030    2    1    2    0    0  0.00000000000E+00  0.00000000000E+00 -0.12212949315E+03  0.22862676590E+04  0.22830033280E+04 0.  0.
        2    1    3    3  502    0 -0.88205267074E+03 -0.63977645244E+03  0.27956160862E+03  0.11249380054E+04  0.25500000920E-02 0.  1.
       -2    1    3    3    0  502  0.88205267074E+03  0.63977645244E+03 -0.40169110177E+03  0.11613296536E+04  0.25500000920E-02 0. -1.
</event>
<event>
 5   0  0.3885219E-05  0.2331047E+04  0.7818609E-02  0.8465779E-01
        1   -1    0    0  501    0  0.00000000000E+00  0.00000000000E+00  0.19828878700E+04  0.19828878700E+04  0.50400001928E-02 0. -1.
       -1   -1    0    0    0  501  0.00000000000E+00  0.00000000000E+00 -0.68508396250E+03  0.68508396252E+03  0.50400001928E-02 0.  1.
    10030    2    1    2    0    0  0.00000000000E+00  0.00000000000E+00  0.12978039075E+04  0.26679718325E+04  0.23310466998E+04 0.  0.
        2    1    3    3  502    0 -0.84443064561E+03 -0.35704807872E+03  0.14725704981E+04  0.17346499122E+04  0.25500000920E-02 0. -1.
       -2    1    3    3    0  502  0.84443064561E+03  0.35704807872E+03 -0.17476659067E+03  0.93332192034E+03  0.25500000920E-02 0.  1.
</event>
<event>
 5   0  0.9535394E-05  0.2079802E+04  0.7818609E-02  0.8570193E-01
       -2   -1    0    0    0  501  0.00000000000E+00  0.00000000000E+00  0.68752552928E+03  0.68752552929E+03  0.25500000920E-02 0. -1.
        2   -1    0    0  501    0  0.00000000000E+00  0.00000000000E+00 -0.15728779756E+04  0.15728779756E+04  0.25500000920E-02 0.  1.
    10030    2    1    2    0    0  0.00000000000E+00  0.00000000000E+00 -0.88535244634E+03  0.22604035049E+04  0.20798016854E+04 0.  0.
        2    1    3    3  502    0 -0.60611460101E+03 -0.77804187946E+02  0.47179501569E+03  0.77202262794E+03  0.25500000920E-02 0. -1.
       -2    1    3    3    0  502  0.60611460101E+03  0.77804187946E+02 -0.13571474620E+04  0.14883808770E+04  0.25500000920E-02 0.  1.
</event>
<event>
 5   0  0.4295775E-05  0.2566704E+04  0.7818609E-02  0.8379600E-01
       -1   -1    0    0    0  501  0.00000000000E+00  0.00000000000E+00  0.12597184112E+04  0.12597184112E+04  0.50400001928E-02 0.  1.
        1   -1    0    0  501    0  0.00000000000E+00  0.00000000000E+00 -0.13074293895E+04  0.13074293895E+04  0.50400001928E-02 0. -1.
    10030    2    1    2    0    0  0.00000000000E+00  0.00000000000E+00 -0.47710978303E+02  0.25671478007E+04  0.25667044032E+04 0.  0.
        5    1    3    3  502    0  0.64604080860E+03 -0.72101480506E+03 -0.86646153215E+03  0.12992339097E+04  0.46999998093E+01 0. -1.
       -5    1    3    3    0  502 -0.64604080860E+03  0.72101480506E+03  0.81875055385E+03  0.12679138910E+04  0.46999998093E+01 0.  1.
</event>
<event>
 5   0  0.4005462E-05  0.2335504E+04  0.7818609E-02  0.8464052E-01
       -1   -1    0    0    0  501  0.00000000000E+00  0.00000000000E+00  0.49657530263E+03  0.49657530266E+03  0.50400001928E-02 0.  1.
        1   -1    0    0  501    0  0.00000000000E+00  0.00000000000E+00 -0.27460994793E+04  0.27460994794E+04  0.50400001928E-02 0. -1.
    10030    2    1    2    0    0  0.00000000000E+00  0.00000000000E+00 -0.22495241767E+04  0.32426747820E+04  0.23355043824E+04 0.  0.
        4    1    3    3  502    0 -0.40203417855E+03  0.60141365758E+03  0.14798886004E+03  0.73839839101E+03  0.12699999809E+01 0.  1.
       -4    1    3    3    0  502  0.40203417855E+03 -0.60141365758E+03 -0.23975130368E+04  0.25042763910E+04  0.12699999809E+01 0. -1.
</event>
<event>
 5   0  0.4095451E-05  0.2230087E+04  0.7818609E-02  0.8506009E-01
       -1   -1    0    0    0  501  0.00000000000E+00  0.00000000000E+00  0.63843866431E+03  0.63843866433E+03  0.50400001928E-02 0.  1.
        1   -1    0    0  501    0  0.00000000000E+00  0.00000000000E+00 -0.19474409691E+04  0.19474409691E+04  0.50400001928E-02 0. -1.
    10030    2    1    2    0    0  0.00000000000E+00  0.00000000000E+00 -0.13090023048E+04  0.25858796334E+04  0.22300866451E+04 0.  0.
        3    1    3    3  502    0 -0.61814801719E+03  0.70441864125E+03 -0.13550498980E+04  0.16475657284E+04  0.10100000352E+00 0. -1.
       -3    1    3    3    0  502  0.61814801719E+03 -0.70441864125E+03  0.46047593182E+02  0.93831390501E+03  0.10100000352E+00 0.  1.
</event>
<event>
 5   0  0.4295775E-05  0.2257414E+04  0.7818609E-02  0.8494904E-01
       -1   -1    0    0    0  501  0.00000000000E+00  0.00000000000E+00  0.93358397465E+03  0.93358397466E+03  0.50400001928E-02 0. -1.
        1   -1    0    0  501    0  0.00000000000E+00  0.00000000000E+00 -0.13646119037E+04  0.13646119037E+04  0.50400001928E-02 0.  1.
    10030    2    1    2    0    0  0.00000000000E+00  0.00000000000E+00 -0.43102792901E+03  0.22981958783E+04  0.22574142774E+04 0.  0.
        5    1    3    3  502    0  0.30959662285E+03 -0.53586014592E+03  0.74544591278E+03  0.96886937394E+03  0.46999998093E+01 0. -1.
       -5    1    3    3    0  502 -0.30959662285E+03  0.53586014592E+03 -0.11764738418E+04  0.13293265044E+04  0.46999998093E+01 0.  1.
</event>
<event>
 5   0  0.9535394E-05  0.2390367E+04  0.7818609E-02  0.8443119E-01
       -2   -1    0    0    0  501  0.00000000000E+00  0.00000000000E+00  0.10235369293E+04  0.10235369293E+04  0.25500000920E-02 0.  1.
        2   -1    0    0  501    0  0.00000000000E+00  0.00000000000E+00 -0.13956147562E+04  0.13956147562E+04  0.25500000920E-02 0. -1.
    10030    2    1    2    0    0  0.00000000000E+00  0.00000000000E+00 -0.37207782692E+03  0.24191516855E+04  0.23903667016E+04 0.  0.
        2    1    3    3  502    0  0.19385170303E+03 -0.75285228711E+03  0.73269141014E+03  0.10682704487E+04  0.25500000920E-02 0. -1.
       -2    1    3    3    0  502 -0.19385170303E+03  0.75285228711E+03 -0.11047692371E+04  0.13508812369E+04  0.25500000920E-02 0.  1.
</event>
<event>
 5   0  0.9535394E-05  0.2307538E+04  0.7818609E-02  0.8474955E-01
       -2   -1    0    0    0  501  0.00000000000E+00  0.00000000000E+00  0.85486334994E+03  0.85486334994E+03  0.25500000920E-02 0. -1.
        2   -1    0    0  501    0  0.00000000000E+00  0.00000000000E+00 -0.15571880302E+04  0.15571880302E+04  0.25500000920E-02 0.  1.
    10030    2    1    2    0    0  0.00000000000E+00  0.00000000000E+00 -0.70232468030E+03  0.24120513802E+04  0.23075380612E+04 0.  0.
        2    1    3    3  502    0  0.10055923261E+03 -0.94762177636E+03  0.32874678884E+03  0.10080543842E+04  0.25500000920E-02 0. -1.
       -2    1    3    3    0  502 -0.10055923261E+03  0.94762177636E+03 -0.10310714691E+04  0.14039969960E+04  0.25500000920E-02 0.  1.
</event>
<event>
 5   0  0.4005462E-05  0.2295840E+04  0.7818609E-02  0.8479563E-01
       -1   -1    0    0    0  501  0.00000000000E+00  0.00000000000E+00  0.87658549116E+03  0.87658549117E+03  0.50400001928E-02 0.  1.
        1   -1    0    0  501    0  0.00000000000E+00  0.00000000000E+00 -0.15032417886E+04  0.15032417886E+04  0.50400001928E-02 0. -1.
    10030    2    1    2    0    0  0.00000000000E+00  0.00000000000E+00 -0.62665629740E+03  0.23798272797E+04  0.22958396648E+04 0.  0.
        4    1    3    3  502    0  0.84082189926E+03  0.25149067202E+03 -0.10803216837E+04  0.13918784349E+04  0.12699999809E+01 0. -1.
       -4    1    3    3    0  502 -0.84082189926E+03 -0.25149067202E+03  0.45366538629E+03  0.98794884484E+03  0.12699999809E+01 0.  1.
</event>
<event>
 5   0  0.4139830E-05  0.2309837E+04  0.7818609E-02  0.8474053E-01
        1   -1    0    0  501    0  0.00000000000E+00  0.00000000000E+00  0.13038845677E+04  0.13038845678E+04  0.50400001928E-02 0. -1.
       -1   -1    0    0    0  501  0.00000000000E+00  0.00000000000E+00 -0.10229716520E+04  0.10229716520E+04  0.50400001928E-02 0.  1.
    10030    2    1    2    0    0  0.00000000000E+00  0.00000000000E+00  0.28091291578E+03  0.23268562197E+04  0.23098371806E+04 0.  0.
        1    1    3    3  502    0  0.27494208914E+03  0.94865202892E+03  0.74345113591E+03  0.12362254713E+04  0.50400001928E-02 0. -1.
       -1    1    3    3    0  502 -0.27494208914E+03 -0.94865202892E+03 -0.46253822013E+03  0.10906307484E+04  0.50400001928E-02 0.  1.
</event>
<event>
 5   0  0.4139830E-05  0.2272784E+04  0.7818609E-02  0.8488730E-01
        1   -1    0    0  501    0  0.00000000000E+00  0.00000000000E+00  0.13042848902E+04  0.13042848902E+04  0.50400001928E-02 0. -1.
       -1   -1    0    0    0  501  0.00000000000E+00  0.00000000000E+00 -0.99011077545E+03  0.99011077547E+03  0.50400001928E-02 0.  1.
    10030    2    1    2    0    0  0.00000000000E+00  0.00000000000E+00  0.31417411477E+03  0.22943956657E+04  0.22727837769E+04 0.  0.
        1    1    3    3  502    0 -0.68737952679E+03 -0.64495136251E+03 -0.48371952167E+03  0.10594514852E+04  0.50400001928E-02 0.  1.
       -1    1    3    3    0  502  0.68737952679E+03  0.64495136251E+03  0.79789363644E+03  0.12349441805E+04  0.50400001928E-02 0. -1.
</event>
<event>
 5   0  0.4295775E-05  0.1596505E+04  0.7818609E-02  0.8822698E-01
        1   -1    0    0  501    0  0.00000000000E+00  0.00000000000E+00  0.11217288928E+04  0.11217288928E+04  0.50400001928E-02 0. -1.
       -1   -1    0    0    0  501  0.00000000000E+00  0.00000000000E+00 -0.56805783028E+03  0.56805783030E+03  0.50400001928E-02 0.  1.
    10030    2    1    2    0    0  0.00000000000E+00  0.00000000000E+00  0.55367106249E+03  0.16897867231E+04  0.15965047836E+04 0.  0.
        5    1    3    3  502    0  0.49540948584E+02  0.71956115763E+03 -0.85144390340E+02  0.72628797481E+03  0.46999998093E+01 0.  1.
       -5    1    3    3    0  502 -0.49540948584E+02 -0.71956115763E+03  0.63881545283E+03  0.96349874827E+03  0.46999998093E+01 0. -1.
</event>
<event>
 5   0  0.9313463E-05  0.2311302E+04  0.7818609E-02  0.8473478E-01
       -2   -1    0    0    0  501  0.00000000000E+00  0.00000000000E+00  0.10170678904E+04  0.10170678904E+04  0.25500000920E-02 0.  1.
        2   -1    0    0  501    0  0.00000000000E+00  0.00000000000E+00 -0.13131168031E+04  0.13131168031E+04  0.25500000920E-02 0. -1.
    10030    2    1    2    0    0  0.00000000000E+00  0.00000000000E+00 -0.29604891268E+03  0.23301846935E+04  0.23113017429E+04 0.  0.
        1    1    3    3  502    0 -0.10578523781E+04  0.26046524379E+03 -0.53670647194E+03  0.12144742212E+04  0.50400001928E-02 0. -1.
       -1    1    3    3    0  502  0.10578523781E+04 -0.26046524379E+03  0.24065755926E+03  0.11157104722E+04  0.50400001928E-02 0.  1.
</event>
<event>
 5   0  0.9641157E-05  0.2305029E+04  0.7818609E-02  0.8475941E-01
        2   -1    0    0  501    0  0.00000000000E+00  0.00000000000E+00  0.12663599987E+04  0.12663599987E+04  0.25500000920E-02 0. -1.
       -2   -1    0    0    0  501  0.00000000000E+00  0.00000000000E+00 -0.10489038594E+04  0.10489038594E+04  0.25500000920E-02 0.  1.
    10030    2    1    2    0    0  0.00000000000E+00  0.00000000000E+00  0.21745613933E+03  0.23152638581E+04  0.23050291885E+04 0.  0.
        3    1    3    3  502    0 -0.41135936074E+03  0.90579629458E+03 -0.47575463275E+03  0.11027356581E+04  0.10100000352E+00 0.  1.
       -3    1    3    3    0  502  0.41135936074E+03 -0.90579629458E+03  0.69321077208E+03  0.12125281999E+04  0.10100000352E+00 0. -1.
</event>
<event>
 5   0  0.9313463E-05  0.1906698E+04  0.7818609E-02  0.8651529E-01
        2   -1    0    0  501    0  0.00000000000E+00  0.00000000000E+00  0.22030676846E+04  0.22030676846E+04  0.25500000920E-02 0. -1.
       -2   -1    0    0    0  501  0.00000000000E+00  0.00000000000E+00 -0.41254960784E+03  0.41254960784E+03  0.25500000920E-02 0.  1.
    10030    2    1    2    0    0  0.00000000000E+00  0.00000000000E+00  0.17905180768E+04  0.26156172925E+04  0.19066984128E+04 0.  0.
        1    1    3    3  502    0 -0.78515295216E+03 -0.47700819405E+03  0.12446593557E+04  0.15469902673E+04  0.50400001928E-02 0. -1.
       -1    1    3    3    0  502  0.78515295216E+03  0.47700819405E+03  0.54585872116E+03  0.10686270252E+04  0.50400001928E-02 0.  1.
</event>
<event>
 5   0  0.9641157E-05  0.2571406E+04  0.7818609E-02  0.8377979E-01
        2   -1    0    0  501    0  0.00000000000E+00  0.00000000000E+00  0.15203272905E+04  0.15203272905E+04  0.25500000920E-02 0. -1.
       -2   -1    0    0    0  501  0.00000000000E+00  0.00000000000E+00 -0.10872866560E+04  0.10872866560E+04  0.25500000920E-02 0.  1.
    10030    2    1    2    0    0  0.00000000000E+00  0.00000000000E+00  0.43304063455E+03  0.26076139465E+04  0.25714055112E+04 0.  0.
        3    1    3    3  502    0 -0.77353042528E+03  0.10260934582E+04  0.17332400808E+03  0.12966334585E+04  0.10100000352E+00 0. -1.
       -3    1    3    3    0  502  0.77353042528E+03 -0.10260934582E+04  0.25971662647E+03  0.13109804880E+04  0.10100000352E+00 0.  1.
</event>
<event>
 5   0  0.9483073E-05  0.2256768E+04  0.7818609E-02  0.8495165E-01
       -2   -1    0    0    0  501  0.00000000000E+00  0.00000000000E+00  0.13632239395E+04  0.13632239395E+04  0.25500000920E-02 0. -1.
        2   -1    0    0  501    0  0.00000000000E+00  0.00000000000E+00 -0.93399925934E+03  0.93399925934E+03  0.25500000920E-02 0.  1.
    10030    2    1    2    0    0  0.00000000000E+00  0.00000000000E+00  0.42922468013E+03  0.22972231988E+04  0.22567677326E+04 0.  0.
        5    1    3    3  502    0 -0.10889276957E+04  0.19860889890E+03 -0.84483597780E+01  0.11069338218E+04  0.46999998093E+01 0.  1.
       -5    1    3    3    0  502  0.10889276957E+04 -0.19860889890E+03  0.43767303991E+03  0.11902893770E+04  0.46999998093E+01 0. -1.
</event>
<event>
 5   0  0.3885219E-05  0.2285863E+04  0.7818609E-02  0.8483516E-01
       -1   -1    0    0    0  501  0.00000000000E+00  0.00000000000E+00  0.63187833432E+03  0.63187833434E+03  0.50400001928E-02 0. -1.
        1   -1    0    0  501    0  0.00000000000E+00  0.00000000000E+00 -0.20673156927E+04  0.20673156927E+04  0.50400001928E-02 0.  1.
    10030    2    1    2    0    0  0.00000000000E+00  0.00000000000E+00 -0.14354373584E+04  0.26991940271E+04  0.22858626349E+04 0.  0.
        2    1    3    3  502    0  0.88304178626E+02 -0.15189309645E+03  0.61583675427E+03  0.64040928212E+03  0.25500000920E-02 0. -1.
       -2    1    3    3    0  502 -0.88304178626E+02  0.15189309645E+03 -0.20512741127E+04  0.20587847449E+04  0.25500000920E-02 0.  1.
</event>
<event>
 5   0  0.4095451E-05  0.2176801E+04  0.7818609E-02  0.8528147E-01
       -1   -1    0    0    0  501  0.00000000000E+00  0.00000000000E+00  0.68515712030E+03  0.68515712032E+03  0.50400001928E-02 0.  1.
        1   -1    0    0  501    0  0.00000000000E+00  0.00000000000E+00 -0.17289691461E+04  0.17289691461E+04  0.50400001928E-02 0. -1.
    10030    2    1    2    0    0  0.00000000000E+00  0.00000000000E+00 -0.10438120258E+04  0.24141262664E+04  0.21768008832E+04 0.  0.
        3    1    3    3  502    0 -0.10760420501E+04 -0.10368641634E+03 -0.38163236746E+03  0.11464120728E+04  0.10100000352E+00 0.  1.
       -3    1    3    3    0  502  0.10760420501E+04  0.10368641634E+03 -0.66217965835E+03  0.12677141936E+04  0.10100000352E+00 0. -1.
</event>
<event>
 5   0  0.9313463E-05  0.2384731E+04  0.7818609E-02  0.8445242E-01
       -2   -1    0    0    0  501  0.00000000000E+00  0.00000000000E+00  0.79016434926E+03  0.79016434926E+03  0.25500000920E-02 0. -1.
        2   -1    0    0  501    0  0.00000000000E+00  0.00000000000E+00 -0.17992908296E+04  0.17992908296E+04  0.25500000920E-02 0.  1.
    10030    2    1    2    0    0  0.00000000000E+00  0.00000000000E+00 -0.10091264803E+04  0.25894551789E+04  0.23847309848E+04 0.  0.
        1    1    3    3  502    0  0.39446746350E+02 -0.78153730844E+02  0.78666993420E+03  0.79152614413E+03  0.50400001928E-02 0. -1.
       -1    1    3    3    0  502 -0.39446746350E+02  0.78153730844E+02 -0.17957964145E+04  0.17979290347E+04  0.50400001928E-02 0.  1.
</event>
<event>
 5   0  0.4095451E-05  0.2560442E+04  0.7818609E-02  0.8381764E-01
       -1   -1    0    0    0  501  0.00000000000E+00  0.00000000000E+00  0.11329283460E+04  0.11329283461E+04  0.50400001928E-02 0.  1.
        1   -1    0    0  501    0  0.00000000000E+00  0.00000000000E+00 -0.14466631477E+04  0.14466631477E+04  0.50400001928E-02 0. -1.
    10030    2    1    2    0    0  0.00000000000E+00  0.00000000000E+00 -0.31373480166E+03  0.25795914938E+04  0.25604419050E+04 0.  0.
        3    1    3    3  502    0  0.38234039626E+03 -0.68116958625E+03 -0.11787459199E+04  0.14140785472E+04  0.10100000352E+00 0. -1.
       -3    1    3    3    0  502 -0.38234039626E+03  0.68116958625E+03  0.86501111820E+03  0.11655129466E+04  0.10100000352E+00 0.  1.
</event>
<event>
 5   0  0.3885219E-05  0.2271660E+04  0.7818609E-02  0.8489180E-01
       -1   -1    0    0    0  501  0.00000000000E+00  0.00000000000E+00  0.94003512909E+03  0.94003512910E+03  0.50400001928E-02 0.  1.
        1   -1    0    0  501    0  0.00000000000E+00  0.00000000000E+00 -0.13724064892E+04  0.13724064892E+04  0.50400001928E-02 0. -1.
    10030    2    1    2    0    0  0.00000000000E+00  0.00000000000E+00 -0.43237136014E+03  0.23124416183E+04  0.22716604599E+04 0.  0.
        2    1    3    3  502    0 -0.42895674243E+03 -0.10105230126E+04 -0.51287929130E+03  0.12116954292E+04  0.25500000920E-02 0.  1.
       -2    1    3    3    0  502  0.42895674243E+03  0.10105230126E+04  0.80507931158E+02  0.11007461891E+04  0.25500000920E-02 0. -1.
</event>
<event>
 5   0  0.4005462E-05  0.2348166E+04  0.7818609E-02  0.8459169E-01
        1   -1    0    0  501    0  0.00000000000E+00  0.00000000000E+00  0.90207771002E+03  0.90207771003E+03  0.50400001928E-02 0. -1.
       -1   -1    0    0    0  501  0.00000000000E+00  0.00000000000E+00 -0.15281060958E+04  0.15281060958E+04  0.50400001928E-02 0.  1.
    10030    2    1    2    0    0  0.00000000000E+00  0.00000000000E+00 -0.62602838577E+03  0.24301838058E+04  0.23481656224E+04 0.  0.
        4    1    3    3  502    0  0.10143392194E+04 -0.49277558831E+02 -0.92279401669E+03  0.13721744569E+04  0.12699999809E+01 0.  1.
       -4    1    3    3    0  502 -0.10143392194E+04  0.49277558831E+02  0.29676563092E+03  0.10580093490E+04  0.12699999809E+01 0. -1.
</event>
<event>
 5   0  0.9312074E-05  0.2278810E+04  0.7818609E-02  0.8486323E-01
       -2   -1    0    0    0  501  0.00000000000E+00  0.00000000000E+00  0.99959800686E+03  0.99959800686E+03  0.25500000920E-02 0. -1.
        2   -1    0    0  501    0  0.00000000000E+00  0.00000000000E+00 -0.12987654337E+04  0.12987654337E+04  0.25500000920E-02 0.  1.
    10030    2    1    2    0    0  0.00000000000E+00  0.00000000000E+00 -0.29916742689E+03  0.22983634406E+04  0.22788096357E+04 0.  0.
        4    1    3    3  502    0  0.42254553513E+03 -0.33718646823E+03  0.86201936133E+03  0.10175059881E+04  0.12699999809E+01 0. -1.
       -4    1    3    3    0  502 -0.42254553513E+03  0.33718646823E+03 -0.11611867882E+04  0.12808574525E+04  0.12699999809E+01 0.  1.
</event>
<event>
 5   0  0.4295775E-05  0.1695883E+04  0.7818609E-02  0.8763716E-01
        1   -1    0    0  501    0  0.00000000000E+00  0.00000000000E+00  0.19004840741E+04  0.19004840742E+04  0.50400001928E-02 0. -1.
       -1   -1    0    0    0  501  0.00000000000E+00  0.00000000000E+00 -0.37832700016E+03  0.37832700019E+03  0.50400001928E-02 0.  1.
    10030    2    1    2    0    0  0.00000000000E+00  0.00000000000E+00  0.15221570740E+04  0.22788110743E+04  0.16958825887E+04 0.  0.
        5    1    3    3  502    0  0.53646486352E+03 -0.63982367591E+03  0.95953938606E+03  0.12719696574E+04  0.46999998093E+01 0. -1.
       -5    1    3    3    0  502 -0.53646486352E+03  0.63982367591E+03  0.56261768793E+03  0.10068414169E+04  0.46999998093E+01 0.  1.
</event>
<event>
 5   0  0.4295775E-05  0.2349127E+04  0.7818609E-02  0.8458799E-01
       -1   -1    0    0    0  501  0.00000000000E+00  0.00000000000E+00  0.12286645393E+04  0.12286645393E+04  0.50400001928E-02 0. -1.
        1   -1    0    0  501    0  0.00000000000E+00  0.00000000000E+00 -0.11228444502E+04  0.11228444502E+04  0.50400001928E-02 0.  1.
    10030    2    1    2    0    0  0.00000000000E+00  0.00000000000E+00  0.10582008909E+03  0.23515089895E+04  0.23491267817E+04 0.  0.
        5    1    3    3  502    0  0.68347070798E+03  0.61838415205E+03  0.78169085266E+03  0.12085503081E+04  0.46999998093E+01 0. -1.
       -5    1    3    3    0  502 -0.68347070798E+03 -0.61838415205E+03 -0.67587076357E+03  0.11429586813E+04  0.46999998093E+01 0.  1.
</event>
<event>
 5   0  0.4295775E-05  0.2293631E+04  0.7818609E-02  0.8480437E-01
        1   -1    0    0  501    0  0.00000000000E+00  0.00000000000E+00  0.78215986992E+03  0.78215986993E+03  0.50400001928E-02 0. -1.
       -1   -1    0    0    0  501  0.00000000000E+00  0.00000000000E+00 -0.16814796384E+04  0.16814796384E+04  0.50400001928E-02 0.  1.
    10030    2    1    2    0    0  0.00000000000E+00  0.00000000000E+00 -0.89931976851E+03  0.24636395084E+04  0.22936310909E+04 0.  0.
        5    1    3    3  502    0  0.11388435991E+04 -0.12075728059E+03 -0.38506288902E+03  0.12082394558E+04  0.46999998093E+01 0.  1.
       -5    1    3    3    0  502 -0.11388435991E+04  0.12075728059E+03 -0.51425687949E+03  0.12554000526E+04  0.46999998093E+01 0. -1.
</event>
<event>
 5   0  0.9483073E-05  0.2271124E+04  0.7818609E-02  0.8489394E-01
        2   -1    0    0  501    0  0.00000000000E+00  0.00000000000E+00  0.14389011747E+04  0.14389011747E+04  0.25500000920E-02 0.  1.
       -2   -1    0    0    0  501  0.00000000000E+00  0.00000000000E+00 -0.89617092859E+03  0.89617092859E+03  0.25500000920E-02 0. -1.
    10030    2    1    2    0    0  0.00000000000E+00  0.00000000000E+00  0.54273024615E+03  0.23350721033E+04  0.22711243048E+04 0.  0.
        5    1    3    3  502    0  0.20905968324E+03  0.76787233561E+03  0.11042010412E+04  0.13611083367E+04  0.46999998093E+01 0.  1.
       -5    1    3    3    0  502 -0.20905968324E+03 -0.76787233561E+03 -0.56147079505E+03  0.97396376660E+03  0.46999998093E+01 0. -1.
</event>
<event>
 5   0  0.9313463E-05  0.2134883E+04  0.7818609E-02  0.8546031E-01
       -2   -1    0    0    0  501  0.00000000000E+00  0.00000000000E+00  0.87755800913E+03  0.87755800913E+03  0.25500000920E-02 0. -1.
        2   -1    0    0  501    0  0.00000000000E+00  0.00000000000E+00 -0.12984114356E+04  0.12984114356E+04  0.25500000920E-02 0.  1.
    10030    2    1    2    0    0  0.00000000000E+00  0.00000000000E+00 -0.42085342645E+03  0.21759694447E+04  0.21348829986E+04 0.  0.
        1    1    3    3  502    0  0.47568742155E+03 -0.56988861782E+02  0.76182062723E+03  0.89994273234E+03  0.50400001928E-02 0. -1.
       -1    1    3    3    0  502 -0.47568742155E+03  0.56988861782E+02 -0.11826740537E+04  0.12760267124E+04  0.50400001928E-02 0.  1.
</event>
<event>
 5   0  0.3885219E-05  0.2297633E+04  0.7818609E-02  0.8478855E-01
       -1   -1    0    0    0  501  0.00000000000E+00  0.00000000000E+00  0.71293286975E+03  0.71293286977E+03  0.50400001928E-02 0. -1.
        1   -1    0    0  501    0  0.00000000000E+00  0.00000000000E+00 -0.18511977692E+04  0.18511977692E+04  0.50400001928E-02 0.  1.
    10030    2    1    2    0    0  0.00000000000E+00  0.00000000000E+00 -0.11382648994E+04  0.25641306389E+04  0.22976333372E+04 0.  0.
        2    1    3    3  502    0 -0.84658162669E+03  0.54405215112E+03  0.49296509031E+02  0.10075332945E+04  0.25500000920E-02 0. -1.
       -2    1    3    3    0  502  0.84658162669E+03 -0.54405215112E+03 -0.11875614084E+04  0.15565973444E+04  0.25500000920E-02 0.  1.
</event>
<event>
 5   0  0.3261500E-05  0.2283837E+04  0.7818609E-02  0.8484321E-01
       -4   -1    0    0    0  501  0.00000000000E+00  0.00000000000E+00  0.86179974630E+03  0.86180068207E+03  0.12699999809E+01 0.  1.
        4   -1    0    0  501    0  0.00000000000E+00  0.00000000000E+00 -0.15130845296E+04  0.15130850626E+04  0.12699999809E+01 0. -1.
    10030    2    1    2    0    0  0.00000000000E+00  0.00000000000E+00 -0.65128478334E+03  0.23748857447E+04  0.22838367786E+04 0.  0.
        5    1    3    3  502    0  0.50527234256E+03 -0.11079263506E+03  0.73297066776E+03  0.89713055791E+03  0.46999998093E+01 0.  1.
       -5    1    3    3    0  502 -0.50527234256E+03  0.11079263506E+03 -0.13842554511E+04  0.14777551868E+04  0.46999998093E+01 0. -1.
</event>
<event>
 5   0  0.9313463E-05  0.2216847E+04  0.7818609E-02  0.8511448E-01
       -2   -1    0    0    0  501  0.00000000000E+00  0.00000000000E+00  0.10064684849E+04  0.10064684849E+04  0.25500000920E-02 0.  1.
        2   -1    0    0  501    0  0.00000000000E+00  0.00000000000E+00 -0.12207070748E+04  0.12207070748E+04  0.25500000920E-02 0. -1.
    10030    2    1    2    0    0  0.00000000000E+00  0.00000000000E+00 -0.21423858985E+03  0.22271755597E+04  0.22168474915E+04 0.  0.
        1    1    3    3  502    0 -0.47408284612E+03  0.34712188112E+03  0.83712916389E+03  0.10227577340E+04  0.50400001928E-02 0.  1.
       -1    1    3    3    0  502  0.47408284612E+03 -0.34712188112E+03 -0.10513677537E+04  0.12044178257E+04  0.50400001928E-02 0. -1.
</event>
<event>
 5   0  0.3261500E-05  0.2248193E+04  0.7818609E-02  0.8498633E-01
       -3   -1    0    0    0  501  0.00000000000E+00  0.00000000000E+00  0.13291944745E+04  0.13291944783E+04  0.10100000352E+00 0.  1.
        3   -1    0    0  501    0  0.00000000000E+00  0.00000000000E+00 -0.95064527019E+03  0.95064527555E+03  0.10100000352E+00 0. -1.
    10030    2    1    2    0    0  0.00000000000E+00  0.00000000000E+00  0.37854920428E+03  0.22798397539E+04  0.22481925636E+04 0.  0.
        5    1    3    3  502    0  0.90315766457E+02 -0.39036619948E+03  0.12543099342E+04  0.13167604978E+04  0.46999998093E+01 0.  1.
       -5    1    3    3    0  502 -0.90315766457E+02  0.39036619948E+03 -0.87576072996E+03  0.96307925609E+03  0.46999998093E+01 0. -1.
</event>
<event>
 5   0  0.9313463E-05  0.2337878E+04  0.7818609E-02  0.8463134E-01
       -2   -1    0    0    0  501  0.00000000000E+00  0.00000000000E+00  0.67460787323E+03  0.67460787323E+03  0.25500000920E-02 0. -1.
        2   -1    0    0  501    0  0.00000000000E+00  0.00000000000E+00 -0.20255006827E+04  0.20255006827E+04  0.25500000920E-02 0.  1.
    10030    2    1    2    0    0  0.00000000000E+00  0.00000000000E+00 -0.13508928095E+04  0.27001085560E+04  0.23378782755E+04 0.  0.
        1    1    3    3  502    0 -0.88798391605E+03  0.48740337772E+02  0.20073176232E+03  0.91169309316E+03  0.50400001928E-02 0. -1.
       -1    1    3    3    0  502  0.88798391605E+03 -0.48740337772E+02 -0.15516245718E+04  0.17884154628E+04  0.50400001928E-02 0.  1.
</event>
<event>
 5   0  0.9641157E-05  0.2281598E+04  0.7818609E-02  0.8485212E-01
        2   -1    0    0  501    0  0.00000000000E+00  0.00000000000E+00  0.19701074378E+04  0.19701074378E+04  0.25500000920E-02 0.  1.
       -2   -1    0    0    0  501  0.00000000000E+00  0.00000000000E+00 -0.66058439710E+03  0.66058439710E+03  0.25500000920E-02 0. -1.
    10030    2    1    2    0    0  0.00000000000E+00  0.00000000000E+00  0.13095230407E+04  0.26306918349E+04  0.22815978910E+04 0.  0.
        3    1    3    3  502    0 -0.81760827377E+03  0.26710023459E+03  0.15188197827E+04  0.17454625081E+04  0.10100000352E+00 0.  1.
       -3    1    3    3    0  502  0.81760827377E+03 -0.26710023459E+03 -0.20929674199E+03  0.88522932682E+03  0.10100000352E+00 0. -1.
</event>
<event>
 5   0  0.4005462E-05  0.2229996E+04  0.7818609E-02  0.8506046E-01
       -1   -1    0    0    0  501  0.00000000000E+00  0.00000000000E+00  0.85615809264E+03  0.85615809265E+03  0.50400001928E-02 0.  1.
        1   -1    0    0  501    0  0.00000000000E+00  0.00000000000E+00 -0.14520928411E+04  0.14520928411E+04  0.50400001928E-02 0. -1.
    10030    2    1    2    0    0  0.00000000000E+00  0.00000000000E+00 -0.59593474844E+03  0.23082509337E+04  0.22299964459E+04 0.  0.
        4    1    3    3  502    0  0.28111368882E+03 -0.10210836620E+04 -0.65889048611E+03  0.12473071140E+04  0.12699999809E+01 0. -1.
       -4    1    3    3    0  502 -0.28111368882E+03  0.10210836620E+04  0.62955737666E+02  0.10609438198E+04  0.12699999809E+01 0.  1.
</event>
<event>
 5   0  0.4005462E-05  0.2183095E+04  0.7818609E-02  0.8525497E-01
        1   -1    0    0  501    0  0.00000000000E+00  0.00000000000E+00  0.11799043309E+04  0.11799043309E+04  0.50400001928E-02 0.  1.
       -1   -1    0    0    0  501  0.00000000000E+00  0.00000000000E+00 -0.10098072819E+04  0.10098072819E+04  0.50400001928E-02 0. -1.
    10030    2    1    2    0    0  0.00000000000E+00  0.00000000000E+00  0.17009704905E+03  0.21897116128E+04  0.21830950372E+04 0.  0.
        4    1    3    3  502    0 -0.41221791518E+03  0.59681299310E+03 -0.73312281075E+03  0.10313001633E+04  0.12699999809E+01 0. -1.
       -4    1    3    3    0  502  0.41221791518E+03 -0.59681299310E+03  0.90321985981E+03  0.11584114495E+04  0.12699999809E+01 0.  1.
</event>
<event>
 5   0  0.4139830E-05  0.2304051E+04  0.7818609E-02  0.8476325E-01
       -1   -1    0    0    0  501  0.00000000000E+00  0.00000000000E+00  0.13023822853E+04  0.13023822853E+04  0.50400001928E-02 0.  1.
        1   -1    0    0  501    0  0.00000000000E+00  0.00000000000E+00 -0.10190274081E+04  0.10190274081E+04  0.50400001928E-02 0. -1.
    10030    2    1    2    0    0  0.00000000000E+00  0.00000000000E+00  0.28335487714E+03  0.23214096934E+04  0.23040514270E+04 0.  0.
        1    1    3    3  502    0  0.45615014128E+02  0.26502842834E+03  0.12703142880E+04  0.12984680156E+04  0.50400001928E-02 0.  1.
       -1    1    3    3    0  502 -0.45615014128E+02 -0.26502842834E+03 -0.98695941086E+03  0.10229416777E+04  0.50400001928E-02 0. -1.
</event>
<event>
 5   0  0.9483073E-05  0.2295124E+04  0.7818609E-02  0.8479846E-01
        2   -1    0    0  501    0  0.00000000000E+00  0.00000000000E+00  0.11391778176E+04  0.11391778176E+04  0.25500000920E-02 0.  1.
       -2   -1    0    0    0  501  0.00000000000E+00  0.00000000000E+00 -0.11560082939E+04  0.11560082939E+04  0.25500000920E-02 0. -1.
    10030    2    1    2    0    0  0.00000000000E+00  0.00000000000E+00 -0.16830476290E+02  0.22951861115E+04  0.22951244021E+04 0.  0.
        5    1    3    3  502    0 -0.16457588105E+03  0.71534442691E+03  0.87369353435E+03  0.11411245995E+04  0.46999998093E+01 0.  1.
       -5    1    3    3    0  502  0.16457588105E+03 -0.71534442691E+03 -0.89052401064E+03  0.11540615119E+04  0.46999998093E+01 0. -1.
</event>
<event>
 5   0  0.4139830E-05  0.2511187E+04  0.7818609E-02  0.8399011E-01
       -1   -1    0    0    0  501  0.00000000000E+00  0.00000000000E+00  0.18320058057E+04  0.18320058057E+04  0.50400001928E-02 0. -1.
        1   -1    0    0  501    0  0.00000000000E+00  0.00000000000E+00 -0.86054025077E+03  0.86054025079E+03  0.50400001928E-02 0.  1.
    10030    2    1    2    0    0  0.00000000000E+00  0.00000000000E+00  0.97146555497E+03  0.26925460565E+04  0.25111867597E+04 0.  0.
        1    1    3    3  502    0 -0.75787313460E+03  0.89387095546E+03  0.24743237883E+01  0.11719142867E+04  0.50400001928E-02 0.  1.
       -1    1    3    3    0  502  0.75787313460E+03 -0.89387095546E+03  0.96899123118E+03  0.15206317698E+04  0.50400001928E-02 0. -1.
</event>
<event>
 5   0  0.9483073E-05  0.2268137E+04  0.7818609E-02  0.8490591E-01
        2   -1    0    0  501    0  0.00000000000E+00  0.00000000000E+00  0.15121366118E+04  0.15121366118E+04  0.25500000920E-02 0.  1.
       -2   -1    0    0    0  501  0.00000000000E+00  0.00000000000E+00 -0.85052584571E+03  0.85052584571E+03  0.25500000920E-02 0. -1.
    10030    2    1    2    0    0  0.00000000000E+00  0.00000000000E+00  0.66161076612E+03  0.23626624575E+04  0.22681369188E+04 0.  0.
        5    1    3    3  502    0  0.69480171511E+03 -0.25137398587E+03  0.12269797993E+04  0.14322848257E+04  0.46999998093E+01 0.  1.
       -5    1    3    3    0  502 -0.69480171511E+03  0.25137398587E+03 -0.56536903319E+03  0.93037763181E+03  0.46999998093E+01 0. -1.
</event>
<event>
 5   0  0.9313463E-05  0.2359412E+04  0.7818609E-02  0.8454857E-01
        2   -1    0    0  501    0  0.00000000000E+00  0.00000000000E+00  0.19092331576E+04  0.19092331577E+04  0.25500000920E-02 0.  1.
       -2   -1    0    0    0  501  0.00000000000E+00  0.00000000000E+00 -0.72893461879E+03  0.72893461880E+03  0.25500000920E-02 0. -1.
    10030    2    1    2    0    0  0.00000000000E+00  0.00000000000E+00  0.11802985389E+04  0.26381677764E+04  0.23594119131E+04 0.  0.
        1    1    3    3  502    0 -0.34646362429E+03  0.56304000261E+03  0.16826503673E+04  0.18078615395E+04  0.50400001928E-02 0.  1.
       -1    1    3    3    0  502  0.34646362429E+03 -0.56304000261E+03 -0.50235182845E+03  0.83030623692E+03  0.50400001928E-02 0. -1.
</event>
<event>
 5   0  0.9312074E-05  0.2418072E+04  0.7818609E-02  0.8432769E-01
        2   -1    0    0  501    0  0.00000000000E+00  0.00000000000E+00  0.16973885404E+04  0.16973885404E+04  0.25500000920E-02 0. -1.
       -2   -1    0    0    0  501  0.00000000000E+00  0.00000000000E+00 -0.86118617684E+03  0.86118617685E+03  0.25500000920E-02 0.  1.
    10030    2    1    2    0    0  0.00000000000E+00  0.00000000000E+00  0.83620236356E+03  0.25585747172E+04  0.24180715852E+04 0.  0.
        4    1    3    3  502    0  0.56543264861E+03 -0.10678914867E+04  0.37499552654E+03  0.12651994172E+04  0.12699999809E+01 0. -1.
       -4    1    3    3    0  502 -0.56543264861E+03  0.10678914867E+04  0.46120683702E+03  0.12933753001E+04  0.12699999809E+01 0.  1.
</event>
<event>
 5   0  0.9483073E-05  0.2202321E+04  0.7818609E-02  0.8517463E-01
        2   -1    0    0  501    0  0.00000000000E+00  0.00000000000E+00  0.10003549927E+04  0.10003549927E+04  0.25500000920E-02 0. -1.
       -2   -1    0    0    0  501  0.00000000000E+00  0.00000000000E+00 -0.12121245551E+04  0.12121245551E+04  0.25500000920E-02 0.  1.
    10030    2    1    2    0    0  0.00000000000E+00  0.00000000000E+00 -0.21176956239E+03  0.22124795478E+04  0.22023213666E+04 0.  0.
        5    1    3    3  502    0 -0.37355261815E+03  0.73015789244E+03  0.63225635798E+03  0.10355879000E+04  0.46999998093E+01 0. -1.
       -5    1    3    3    0  502  0.37355261815E+03 -0.73015789244E+03 -0.84402592038E+03  0.11768916478E+04  0.46999998093E+01 0.  1.
</event>
<event>
 5   0  0.4005462E-05  0.2308830E+04  0.7818609E-02  0.8474448E-01
        1   -1    0    0  501    0  0.00000000000E+00  0.00000000000E+00  0.97765849302E+03  0.97765849303E+03  0.50400001928E-02 0.  1.
       -1   -1    0    0    0  501  0.00000000000E+00  0.00000000000E+00 -0.13631279777E+04  0.13631279777E+04  0.50400001928E-02 0. -1.
    10030    2    1    2    0    0  0.00000000000E+00  0.00000000000E+00 -0.38546948470E+03  0.23407864708E+04  0.23088296988E+04 0.  0.
        4    1    3    3  502    0  0.81982504249E+03  0.66654473667E+03  0.27875810894E+03  0.10927500549E+04  0.12699999809E+01 0. -1.
       -4    1    3    3    0  502 -0.81982504249E+03 -0.66654473667E+03 -0.66422759363E+03  0.12480364159E+04  0.12699999809E+01 0.  1.
</event>
<event>
 5   0  0.9313463E-05  0.2313906E+04  0.7818609E-02  0.8472458E-01
       -2   -1    0    0    0  501  0.00000000000E+00  0.00000000000E+00  0.93386562167E+03  0.93386562168E+03  0.25500000920E-02 0.  1.
        2   -1    0    0  501    0  0.00000000000E+00  0.00000000000E+00 -0.14333332495E+04  0.14333332495E+04  0.25500000920E-02 0. -1.
    10030    2    1    2    0    0  0.00000000000E+00  0.00000000000E+00 -0.49946762780E+03  0.23671988712E+04  0.23139063474E+04 0.  0.
        1    1    3    3  502    0  0.77897008212E+03  0.59236622673E+03 -0.88107641969E+03  0.13168097026E+04  0.50400001928E-02 0. -1.
       -1    1    3    3    0  502 -0.77897008212E+03 -0.59236622673E+03  0.38160879189E+03  0.10503891686E+04  0.50400001928E-02 0.  1.
</event>
<event>
 5   0  0.4005462E-05  0.2325213E+04  0.7818609E-02  0.8468046E-01
       -1   -1    0    0    0  501  0.00000000000E+00  0.00000000000E+00  0.82216689401E+03  0.82216689402E+03  0.50400001928E-02 0. -1.
        1   -1    0    0  501    0  0.00000000000E+00  0.00000000000E+00 -0.16440145252E+04  0.16440145252E+04  0.50400001928E-02 0.  1.
    10030    2    1    2    0    0  0.00000000000E+00  0.00000000000E+00 -0.82184763122E+03  0.24661814193E+04  0.23252133803E+04 0.  0.
        4    1    3    3  502    0 -0.97171648902E+03  0.15301069740E+03 -0.10681760302E+04  0.14521180575E+04  0.12699999809E+01 0.  1.
       -4    1    3    3    0  502  0.97171648902E+03 -0.15301069740E+03  0.24632839901E+03  0.10140633617E+04  0.12699999809E+01 0. -1.
</event>
<event>
 5   0  0.3885219E-05  0.2314632E+04  0.7818609E-02  0.8472174E-01
       -1   -1    0    0    0  501  0.00000000000E+00  0.00000000000E+00  0.71396972076E+03  0.71396972078E+03  0.50400001928E-02 0.  1.
        1   -1    0    0  501    0  0.00000000000E+00  0.00000000000E+00 -0.18759624555E+04  0.18759624555E+04  0.50400001928E-02 0. -1.
    10030    2    1    2    0    0  0.00000000000E+00  0.00000000000E+00 -0.11619927348E+04  0.25899321763E+04  0.23146320576E+04 0.  0.
        2    1    3    3  502    0  0.99004507081E+03  0.35410589186E+03 -0.11220356949E+04  0.15377074902E+04  0.25500000920E-02 0. -1.
       -2    1    3    3    0  502 -0.99004507081E+03 -0.35410589186E+03 -0.39957039834E+02  0.10522246860E+04  0.25500000920E-02 0.  1.
</event>
<event>
 5   0  0.3885219E-05  0.2308556E+04  0.7818609E-02  0.8474555E-01
       -1   -1    0    0    0  501  0.00000000000E+00  0.00000000000E+00  0.10071155013E+04  0.10071155013E+04  0.50400001928E-02 0. -1.
        1   -1    0    0  501    0  0.00000000000E+00  0.00000000000E+00 -0.13229447212E+04  0.13229447213E+04  0.50400001928E-02 0.  1.
    10030    2    1    2    0    0  0.00000000000E+00  0.00000000000E+00 -0.31582921998E+03  0.23300602225E+04  0.23085563767E+04 0.  0.
        2    1    3    3  502    0 -0.10289341812E+04 -0.41882095815E+03 -0.47426935788E+03  0.12079105795E+04  0.25500000920E-02 0.  1.
       -2    1    3    3    0  502  0.10289341812E+04  0.41882095815E+03  0.15844013790E+03  0.11221496431E+04  0.25500000920E-02 0. -1.
</event>
<event>
 5   0  0.4139830E-05  0.2316128E+04  0.7818609E-02  0.8471589E-01
       -1   -1    0    0    0  501  0.00000000000E+00  0.00000000000E+00  0.12110093873E+04  0.12110093873E+04  0.50400001928E-02 0. -1.
        1   -1    0    0  501    0  0.00000000000E+00  0.00000000000E+00 -0.11074331536E+04  0.11074331536E+04  0.50400001928E-02 0.  1.
    10030    2    1    2    0    0  0.00000000000E+00  0.00000000000E+00  0.10357623372E+03  0.23184425409E+04  0.23161277554E+04 0.  0.
        1    1    3    3  502    0  0.98336169714E+03  0.80280123947E+02  0.65874947795E+03  0.11863372204E+04  0.50400001928E-02 0.  1.
       -1    1    3    3    0  502 -0.98336169714E+03 -0.80280123947E+02 -0.55517324423E+03  0.11321053206E+04  0.50400001928E-02 0. -1.
</event>
<event>
 5   0  0.4005462E-05  0.2295753E+04  0.7818609E-02  0.8479598E-01
       -1   -1    0    0    0  501  0.00000000000E+00  0.00000000000E+00  0.66032835733E+03  0.66032835735E+03  0.50400001928E-02 0. -1.
        1   -1    0    0  501    0  0.00000000000E+00  0.00000000000E+00 -0.19954019838E+04  0.19954019838E+04  0.50400001928E-02 0.  1.
    10030    2    1    2    0    0  0.00000000000E+00  0.00000000000E+00 -0.13350736265E+04  0.26557303411E+04  0.22957530479E+04 0.  0.
        4    1    3    3  502    0 -0.10903798183E+04 -0.28391372869E+03 -0.41387332432E+03  0.12003449066E+04  0.12699999809E+01 0.  1.
       -4    1    3    3    0  502  0.10903798183E+04  0.28391372869E+03 -0.92120030215E+03  0.14553854345E+04  0.12699999809E+01 0. -1.
</event>
<event>
 5   0  0.9312074E-05  0.2221162E+04  0.7818609E-02  0.8509671E-01
       -2   -1    0    0    0  501  0.00000000000E+00  0.00000000000E+00  0.68520775485E+03  0.68520775486E+03  0.25500000920E-02 0.  1.
        2   -1    0    0  501    0  0.00000000000E+00  0.00000000000E+00 -0.18000236451E+04  0.18000236451E+04  0.25500000920E-02 0. -1.
    10030    2    1    2    0    0  0.00000000000E+00  0.00000000000E+00 -0.11148158903E+04  0.24852314000E+04  0.22211620027E+04 0.  0.
        4    1    3    3  502    0  0.10059647871E+04  0.42542079526E+03 -0.33240143726E+03  0.11416831146E+04  0.12699999809E+01 0.  1.
       -4    1    3    3    0  502 -0.10059647871E+04 -0.42542079526E+03 -0.78241445304E+03  0.13435482854E+04  0.12699999809E+01 0. -1.
</event>
<event>
 5   0  0.9312074E-05  0.2263393E+04  0.7818609E-02  0.8492496E-01
        2   -1    0    0  501    0  0.00000000000E+00  0.00000000000E+00  0.17792203194E+04  0.17792203194E+04  0.25500000920E-02 0. -1.
       -2   -1    0    0    0  501  0.00000000000E+00  0.00000000000E+00 -0.71983018747E+03  0.71983018748E+03  0.25500000920E-02 0.  1.
    10030    2    1    2    0    0  0.00000000000E+00  0.00000000000E+00  0.10593901319E+04  0.24990505069E+04  0.22633925829E+04 0.  0.
        4    1    3    3  502    0  0.66381045724E+03 -0.89236732509E+03  0.76069346001E+03  0.13474494124E+04  0.12699999809E+01 0. -1.
       -4    1    3    3    0  502 -0.66381045724E+03  0.89236732509E+03  0.29869667190E+03  0.11516010944E+04  0.12699999809E+01 0.  1.
</event>
<event>
 5   0  0.4295775E-05  0.2320089E+04  0.7818609E-02  0.8470042E-01
       -1   -1    0    0    0  501  0.00000000000E+00  0.00000000000E+00  0.51519305842E+03  0.51519305844E+03  0.50400001928E-02 0.  1.
        1   -1    0    0  501    0  0.00000000000E+00  0.00000000000E+00 -0.26120374105E+04  0.26120374105E+04  0.50400001928E-02 0. -1.
    10030    2    1    2    0    0  0.00000000000E+00  0.00000000000E+00 -0.20968443521E+04  0.31272304690E+04  0.23200892589E+04 0.  0.
        5    1    3    3  502    0 -0.78740014807E+03  0.74732106200E+00 -0.21966507259E+04  0.23335158138E+04  0.46999998093E+01 0. -1.
       -5    1    3    3    0  502  0.78740014807E+03 -0.74732106200E+00  0.99806373745E+02  0.79371465522E+03  0.46999998093E+01 0.  1.
</event>
<event>
 5   0  0.9535394E-05  0.2249724E+04  0.7818609E-02  0.8498012E-01
        2   -1    0    0  501    0  0.00000000000E+00  0.00000000000E+00  0.15629039251E+04  0.15629039252E+04  0.25500000920E-02 0. -1.
       -2   -1    0    0    0  501  0.00000000000E+00  0.00000000000E+00 -0.80959210666E+03  0.80959210666E+03  0.25500000920E-02 0.  1.
    10030    2    1    2    0    0  0.00000000000E+00  0.00000000000E+00  0.75331181849E+03  0.23724960318E+04  0.22497241442E+04 0.  0.
        2    1    3    3  502    0 -0.55258168486E+03  0.84208229663E+03  0.90485391184E+03  0.13539607507E+04  0.25500000920E-02 0. -1.
       -2    1    3    3    0  502  0.55258168486E+03 -0.84208229663E+03 -0.15154209335E+03  0.10185352811E+04  0.25500000920E-02 0.  1.
</event>
<event>
 5   0  0.4295775E-05  0.2321379E+04  0.7818609E-02  0.8469539E-01
        1   -1    0    0  501    0  0.00000000000E+00  0.00000000000E+00  0.15126755484E+04  0.15126755484E+04  0.50400001928E-02 0. -1.
       -1   -1    0    0    0  501  0.00000000000E+00  0.00000000000E+00 -0.89060781788E+03  0.89060781789E+03  0.50400001928E-02 0.  1.
    10030    2    1    2    0    0  0.00000000000E+00  0.00000000000E+00  0.62206773054E+03  0.24032833663E+04  0.23213794773E+04 0.  0.
        5    1    3    3  502    0 -0.87980284729E+03  0.60037203099E+03 -0.16640865888E+03  0.10780600899E+04  0.46999998093E+01 0. -1.
       -5    1    3    3    0  502  0.87980284729E+03 -0.60037203099E+03  0.78847638942E+03  0.13252232764E+04  0.46999998093E+01 0.  1.
</event>
<event>
 5   0  0.9313463E-05  0.2298697E+04  0.7818609E-02  0.8478435E-01
        2   -1    0    0  501    0  0.00000000000E+00  0.00000000000E+00  0.93201798053E+03  0.93201798053E+03  0.25500000920E-02 0. -1.
       -2   -1    0    0    0  501  0.00000000000E+00  0.00000000000E+00 -0.14173561821E+04  0.14173561821E+04  0.25500000920E-02 0.  1.
    10030    2    1    2    0    0  0.00000000000E+00  0.00000000000E+00 -0.48533820157E+03  0.23493741626E+04  0.22986965407E+04 0.  0.
        1    1    3    3  502    0  0.57103725994E+03 -0.15906089086E+03 -0.12490694405E+04  0.13825911856E+04  0.50400001928E-02 0.  1.
       -1    1    3    3    0  502 -0.57103725994E+03  0.15906089086E+03  0.76373123897E+03  0.96678297701E+03  0.50400001928E-02 0. -1.
</event>
<event>
 5   0  0.9312074E-05  0.2277135E+04  0.7818609E-02  0.8486991E-01
       -2   -1    0    0    0  501  0.00000000000E+00  0.00000000000E+00  0.91957658752E+03  0.91957658753E+03  0.25500000920E-02 0. -1.
        2   -1    0    0  501    0  0.00000000000E+00  0.00000000000E+00 -0.14097094358E+04  0.14097094358E+04  0.25500000920E-02 0.  1.
    10030    2    1    2    0    0  0.00000000000E+00  0.00000000000E+00 -0.49013284824E+03  0.23292860233E+04  0.22771348597E+04 0.  0.
        4    1    3    3  502    0  0.42860465953E+03  0.26841695743E+03 -0.12885191027E+04  0.13842083326E+04  0.12699999809E+01 0.  1.
       -4    1    3    3    0  502 -0.42860465953E+03 -0.26841695743E+03  0.79838625445E+03  0.94507769067E+03  0.12699999809E+01 0. -1.
</event>
<event>
 5   0  0.4095451E-05  0.2315806E+04  0.7818609E-02  0.8471715E-01
        1   -1    0    0  501    0  0.00000000000E+00  0.00000000000E+00  0.17421680655E+04  0.17421680655E+04  0.50400001928E-02 0.  1.
       -1   -1    0    0    0  501  0.00000000000E+00  0.00000000000E+00 -0.76958091780E+03  0.76958091782E+03  0.50400001928E-02 0. -1.
    10030    2    1    2    0    0  0.00000000000E+00  0.00000000000E+00  0.97258714770E+03  0.25117489833E+04  0.23158059494E+04 0.  0.
        3    1    3    3  502    0 -0.13378746167E+03 -0.93429541939E+03 -0.24123095883E+03  0.97416600295E+03  0.10100000352E+00 0. -1.
       -3    1    3    3    0  502  0.13378746167E+03  0.93429541939E+03  0.12138181065E+04  0.15375829804E+04  0.10100000352E+00 0.  1.
</event>
<event>
 5   0  0.9312074E-05  0.2167223E+04  0.7818609E-02  0.8532196E-01
        2   -1    0    0  501    0  0.00000000000E+00  0.00000000000E+00  0.17059571854E+04  0.17059571854E+04  0.25500000920E-02 0. -1.
       -2   -1    0    0    0  501  0.00000000000E+00  0.00000000000E+00 -0.68830232058E+03  0.68830232058E+03  0.25500000920E-02 0.  1.
    10030    2    1    2    0    0  0.00000000000E+00  0.00000000000E+00  0.10176548649E+04  0.23942595060E+04  0.21672233752E+04 0.  0.
        4    1    3    3  502    0 -0.94710801525E+03 -0.29039006947E+03  0.23647404891E+02  0.99090907638E+03  0.12699999809E+01 0. -1.
       -4    1    3    3    0  502  0.94710801525E+03  0.29039006947E+03  0.99400745997E+03  0.14033504296E+04  0.12699999809E+01 0.  1.
</event>
<event>
 5   0  0.9483073E-05  0.2327132E+04  0.7818609E-02  0.8467299E-01
       -2   -1    0    0    0  501  0.00000000000E+00  0.00000000000E+00  0.12253270016E+04  0.12253270017E+04  0.25500000920E-02 0. -1.
        2   -1    0    0  501    0  0.00000000000E+00  0.00000000000E+00 -0.11049181464E+04  0.11049181464E+04  0.25500000920E-02 0.  1.
    10030    2    1    2    0    0  0.00000000000E+00  0.00000000000E+00  0.12040885527E+03  0.23302451480E+04  0.23271321745E+04 0.  0.
        5    1    3    3  502    0  0.55954095813E+03 -0.88714705915E+03 -0.44420342871E+03  0.11390587186E+04  0.46999998093E+01 0.  1.
       -5    1    3    3    0  502 -0.55954095813E+03  0.88714705915E+03  0.56461228398E+03  0.11911864294E+04  0.46999998093E+01 0. -1.
</event>
<event>
 5   0  0.9313463E-05  0.2642558E+04  0.7818609E-02  0.8353887E-01
       -2   -1    0    0    0  501  0.00000000000E+00  0.00000000000E+00  0.72801686069E+03  0.72801686069E+03  0.25500000920E-02 0. -1.
        2   -1    0    0  501    0  0.00000000000E+00  0.00000000000E+00 -0.23979909052E+04  0.23979909052E+04  0.25500000920E-02 0.  1.
    10030    2    1    2    0    0  0.00000000000E+00  0.00000000000E+00 -0.16699740445E+04  0.31260077659E+04  0.26425577086E+04 0.  0.
        1    1    3    3  502    0 -0.37784264821E+03 -0.10475219688E+03 -0.23275838762E+04  0.23603781033E+04  0.50400001928E-02 0.  1.
       -1    1    3    3    0  502  0.37784264821E+03  0.10475219688E+03  0.65760983169E+03  0.76562966264E+03  0.50400001928E-02 0. -1.
</event>
<event>
 5   0  0.4005462E-05  0.2315876E+04  0.7818609E-02  0.8471688E-01
        1   -1    0    0  501    0  0.00000000000E+00  0.00000000000E+00  0.13093397424E+04  0.13093397424E+04  0.50400001928E-02 0.  1.
       -1   -1    0    0    0  501  0.00000000000E+00  0.00000000000E+00 -0.10240431558E+04  0.10240431559E+04  0.50400001928E-02 0. -1.
    10030    2    1    2    0    0  0.00000000000E+00  0.00000000000E+00  0.28529658660E+03  0.23333828983E+04  0.23158759914E+04 0.  0.
        4    1    3    3  502    0 -0.59388332746E+02 -0.62145352836E+03  0.11252576777E+04  0.12868325128E+04  0.12699999809E+01 0.  1.
       -4    1    3    3    0  502  0.59388332746E+02  0.62145352836E+03 -0.83996109106E+03  0.10465503855E+04  0.12699999809E+01 0. -1.
</event>
<event>
 5   0  0.9313463E-05  0.2112043E+04  0.7818609E-02  0.8555957E-01
        2   -1    0    0  501    0  0.00000000000E+00  0.00000000000E+00  0.99265869314E+03  0.99265869314E+03  0.25500000920E-02 0. -1.
       -2   -1    0    0    0  501  0.00000000000E+00  0.00000000000E+00 -0.11234288112E+04  0.11234288112E+04  0.25500000920E-02 0.  1.
    10030    2    1    2    0    0  0.00000000000E+00  0.00000000000E+00 -0.13077011806E+03  0.21160875043E+04  0.21120429689E+04 0.  0.
        1    1    3    3  502    0  0.64183141978E+03  0.25443440294E+03 -0.86597528335E+03  0.11075186808E+04  0.50400001928E-02 0.  1.
       -1    1    3    3    0  502 -0.64183141978E+03 -0.25443440294E+03  0.73520516529E+03  0.10085688236E+04  0.50400001928E-02 0. -1.
</event>
<event>
 5   0  0.3885219E-05  0.2299963E+04  0.7818609E-02  0.8477936E-01
       -1   -1    0    0    0  501  0.00000000000E+00  0.00000000000E+00  0.17972832592E+04  0.17972832592E+04  0.50400001928E-02 0. -1.
        1   -1    0    0  501    0  0.00000000000E+00  0.00000000000E+00 -0.73580889398E+03  0.73580889400E+03  0.50400001928E-02 0.  1.
    10030    2    1    2    0    0  0.00000000000E+00  0.00000000000E+00  0.10614743652E+04  0.25330921532E+04  0.22999626146E+04 0.  0.
        2    1    3    3  502    0  0.89086351049E+03 -0.13443436236E+03 -0.25636834331E+03  0.93671506851E+03  0.25500000920E-02 0.  1.
       -2    1    3    3    0  502 -0.89086351049E+03  0.13443436236E+03  0.13178427085E+04  0.15963770847E+04  0.25500000920E-02 0. -1.
</event>
<event>
 5   0  0.9641157E-05  0.2308292E+04  0.7818609E-02  0.8474659E-01
        2   -1    0    0  501    0  0.00000000000E+00  0.00000000000E+00  0.14420626997E+04  0.14420626997E+04  0.25500000920E-02 0.  1.
       -2   -1    0    0    0  501  0.00000000000E+00  0.00000000000E+00 -0.92371399558E+03  0.92371399558E+03  0.25500000920E-02 0. -1.
    10030    2    1    2    0    0  0.00000000000E+00  0.00000000000E+00  0.51834870417E+03  0.23657766953E+04  0.23082924410E+04 0.  0.
        3    1    3    3  502    0  0.52519548421E+03  0.49431695506E+03  0.11826537699E+04  0.13852254324E+04  0.10100000352E+00 0.  1.
       -3    1    3    3    0  502 -0.52519548421E+03 -0.49431695506E+03 -0.66430506578E+03  0.98055126297E+03  0.10100000352E+00 0. -1.
</event>
<event>
 5   0  0.4005462E-05  0.2316990E+04  0.7818609E-02  0.8471252E-01
       -1   -1    0    0    0  501  0.00000000000E+00  0.00000000000E+00  0.88762244667E+03  0.88762244668E+03  0.50400001928E-02 0. -1.
        1   -1    0    0  501    0  0.00000000000E+00  0.00000000000E+00 -0.15120283965E+04  0.15120283965E+04  0.50400001928E-02 0.  1.
    10030    2    1    2    0    0  0.00000000000E+00  0.00000000000E+00 -0.62440594986E+03  0.23996508432E+04  0.23169897236E+04 0.  0.
        4    1    3    3  502    0 -0.99454772329E+03  0.59174664294E+03 -0.25720995430E+03  0.11855158526E+04  0.12699999809E+01 0.  1.
       -4    1    3    3    0  502  0.99454772329E+03 -0.59174664294E+03 -0.36719599555E+03  0.12141349906E+04  0.12699999809E+01 0. -1.
</event>
<event>
 5   0  0.4005462E-05  0.2212662E+04  0.7818609E-02  0.8513176E-01
        1   -1    0    0  501    0  0.00000000000E+00  0.00000000000E+00  0.14253330691E+04  0.14253330691E+04  0.50400001928E-02 0.  1.
       -1   -1    0    0    0  501  0.00000000000E+00  0.00000000000E+00 -0.85872440576E+03  0.85872440577E+03  0.50400001928E-02 0. -1.
    10030    2    1    2    0    0  0.00000000000E+00  0.00000000000E+00  0.56660866338E+03  0.22840574749E+04  0.22126620102E+04 0.  0.
        4    1    3    3  502    0 -0.63885561462E+03  0.42594287620E+03 -0.53889006234E+03  0.93806606500E+03  0.12699999809E+01 0. -1.
       -4    1    3    3    0  502  0.63885561462E+03 -0.42594287620E+03  0.11054987257E+04  0.13459914099E+04  0.12699999809E+01 0.  1.
</event>
<event>
 5   0  0.9313463E-05  0.2338044E+04  0.7818609E-02  0.8463070E-01
        2   -1    0    0  501    0  0.00000000000E+00  0.00000000000E+00  0.23720106189E+04  0.23720106189E+04  0.25500000920E-02 0. -1.
       -2   -1    0    0    0  501  0.00000000000E+00  0.00000000000E+00 -0.57614073836E+03  0.57614073836E+03  0.25500000920E-02 0.  1.
    10030    2    1    2    0    0  0.00000000000E+00  0.00000000000E+00  0.17958698805E+04  0.29481513572E+04  0.23380435833E+04 0.  0.
        1    1    3    3  502    0 -0.25299128812E+03  0.10869729132E+04  0.13367325996E+04  0.17413697909E+04  0.50400001928E-02 0.  1.
       -1    1    3    3    0  502  0.25299128812E+03 -0.10869729132E+04  0.45913728090E+03  0.12067815663E+04  0.50400001928E-02 0. -1.
</event>
<event>
 5   0  0.9312074E-05  0.2256736E+04  0.7818609E-02  0.8495178E-01
        2   -1    0    0  501    0  0.00000000000E+00  0.00000000000E+00  0.13390135266E+04  0.13390135267E+04  0.25500000920E-02 0. -1.
       -2   -1    0    0    0  501  0.00000000000E+00  0.00000000000E+00 -0.95085955292E+03  0.95085955293E+03  0.25500000920E-02 0.  1.
    10030    2    1    2    0    0  0.00000000000E+00  0.00000000000E+00  0.38815397372E+03  0.22898730796E+04  0.22567355213E+04 0.  0.
        4    1    3    3  502    0 -0.61268752538E+03 -0.94449078256E+03  0.11704551779E+03  0.11318790166E+04  0.12699999809E+01 0.  1.
       -4    1    3    3    0  502  0.61268752538E+03  0.94449078256E+03  0.27110845593E+03  0.11579940630E+04  0.12699999809E+01 0. -1.
</event>
<event>
 5   0  0.4295775E-05  0.2324656E+04  0.7818609E-02  0.8468263E-01
        1   -1    0    0  501    0  0.00000000000E+00  0.00000000000E+00  0.12967834588E+04  0.12967834588E+04  0.50400001928E-02 0. -1.
       -1   -1    0    0    0  501  0.00000000000E+00  0.00000000000E+00 -0.10418129906E+04  0.10418129906E+04  0.50400001928E-02 0.  1.
    10030    2    1    2    0    0  0.00000000000E+00  0.00000000000E+00  0.25497046819E+03  0.23385964495E+04  0.23246555473E+04 0.  0.
        5    1    3    3  502    0 -0.88190717650E+03  0.55878496441E+03 -0.38644322445E+03  0.11132660779E+04  0.46999998093E+01 0.  1.
       -5    1    3    3    0  502  0.88190717650E+03 -0.55878496441E+03  0.64141369264E+03  0.12253303716E+04  0.46999998093E+01 0. -1.
</event>
<event>
 5   0  0.9313463E-05  0.2303321E+04  0.7818609E-02  0.8476613E-01
        2   -1    0    0  501    0  0.00000000000E+00  0.00000000000E+00  0.11040600106E+04  0.11040600106E+04  0.25500000920E-02 0.  1.
       -2   -1    0    0    0  501  0.00000000000E+00  0.00000000000E+00 -0.12013130391E+04  0.12013130391E+04  0.25500000920E-02 0. -1.
    10030    2    1    2    0    0  0.00000000000E+00  0.00000000000E+00 -0.97253028526E+02  0.23053730497E+04  0.23033208085E+04 0.  0.
        1    1    3    3  502    0  0.70523884154E+01  0.16662403945E+03  0.10919099090E+04  0.11045725672E+04  0.50400001928E-02 0.  1.
       -1    1    3    3    0  502 -0.70523884154E+01 -0.16662403945E+03 -0.11891629376E+04  0.12008004825E+04  0.50400001928E-02 0. -1.
</event>
<event>
 5   0  0.9641157E-05  0.2075964E+04  0.7818609E-02  0.8571906E-01
       -2   -1    0    0    0  501  0.00000000000E+00  0.00000000000E+00  0.15844326666E+04  0.15844326666E+04  0.25500000920E-02 0. -1.
        2   -1    0    0  501    0  0.00000000000E+00  0.00000000000E+00 -0.67999533836E+03  0.67999533837E+03  0.25500000920E-02 0.  1.
    10030    2    1    2    0    0  0.00000000000E+00  0.00000000000E+00  0.90443732827E+03  0.22644280050E+04  0.20759641878E+04 0.  0.
        3    1    3    3  502    0  0.83008399514E+03 -0.55135240485E+03  0.76906816398E+03  0.12587671605E+04  0.10100000352E+00 0.  1.
       -3    1    3    3    0  502 -0.83008399514E+03  0.55135240485E+03  0.13536916429E+03  0.10056608445E+04  0.10100000352E+00 0. -1.
</event>
<event>
 5   0  0.4139830E-05  0.2266264E+04  0.7818609E-02  0.8491343E-01
        1   -1    0    0  501    0  0.00000000000E+00  0.00000000000E+00  0.24356787151E+04  0.24356787151E+04  0.50400001928E-02 0.  1.
       -1   -1    0    0    0  501  0.00000000000E+00  0.00000000000E+00 -0.52715825189E+03  0.52715825191E+03  0.50400001928E-02 0. -1.
    10030    2    1    2    0    0  0.00000000000E+00  0.00000000000E+00  0.19085204632E+04  0.29628369670E+04  0.22662640037E+04 0.  0.
        1    1    3    3  502    0  0.62862391283E+03  0.73492775325E+03  0.18224824797E+03  0.98412461111E+03  0.50400001928E-02 0. -1.
       -1    1    3    3    0  502 -0.62862391283E+03 -0.73492775325E+03  0.17262722152E+04  0.19787123559E+04  0.50400001928E-02 0.  1.
</event>
<event>
 5   0  0.4139830E-05  0.2245828E+04  0.7818609E-02  0.8499592E-01
       -1   -1    0    0    0  501  0.00000000000E+00  0.00000000000E+00  0.12438194334E+04  0.12438194334E+04  0.50400001928E-02 0.  1.
        1   -1    0    0  501    0  0.00000000000E+00  0.00000000000E+00 -0.10137612303E+04  0.10137612303E+04  0.50400001928E-02 0. -1.
    10030    2    1    2    0    0  0.00000000000E+00  0.00000000000E+00  0.23005820305E+03  0.22575806637E+04  0.22458280603E+04 0.  0.
        1    1    3    3  502    0  0.73527843048E+03  0.57705009620E+03  0.74063204413E+03  0.11925422461E+04  0.50400001928E-02 0.  1.
       -1    1    3    3    0  502 -0.73527843048E+03 -0.57705009620E+03 -0.51057384108E+03  0.10650384177E+04  0.50400001928E-02 0. -1.
</event>
<event>
 5   0  0.4095451E-05  0.2301091E+04  0.7818609E-02  0.8477491E-01
        1   -1    0    0  501    0  0.00000000000E+00  0.00000000000E+00  0.13065060790E+04  0.13065060790E+04  0.50400001928E-02 0. -1.
       -1   -1    0    0    0  501  0.00000000000E+00  0.00000000000E+00 -0.10132025458E+04  0.10132025458E+04  0.50400001928E-02 0.  1.
    10030    2    1    2    0    0  0.00000000000E+00  0.00000000000E+00  0.29330353316E+03  0.23197086248E+04  0.23010912936E+04 0.  0.
        3    1    3    3  502    0 -0.67881537403E+03  0.51002578068E+03 -0.63605689194E+03  0.10608887731E+04  0.10100000352E+00 0. -1.
       -3    1    3    3    0  502  0.67881537403E+03 -0.51002578068E+03  0.92936042511E+03  0.12588198517E+04  0.10100000352E+00 0.  1.
</event>
<event>
 5   0  0.4295775E-05  0.2287855E+04  0.7818609E-02  0.8482725E-01
       -1   -1    0    0    0  501  0.00000000000E+00  0.00000000000E+00  0.64739782430E+03  0.64739782432E+03  0.50400001928E-02 0.  1.
        1   -1    0    0  501    0  0.00000000000E+00  0.00000000000E+00 -0.20212765676E+04  0.20212765676E+04  0.50400001928E-02 0. -1.
    10030    2    1    2    0    0  0.00000000000E+00  0.00000000000E+00 -0.13738787433E+04  0.26686743919E+04  0.22878549361E+04 0.  0.
        5    1    3    3  502    0 -0.29684850852E+03  0.24136948395E+03  0.57054291994E+03  0.68696402983E+03  0.46999998093E+01 0.  1.
       -5    1    3    3    0  502  0.29684850852E+03 -0.24136948395E+03 -0.19444216632E+04  0.19817103621E+04  0.46999998093E+01 0. -1.
</event>
<event>
 5   0  0.4095451E-05  0.2304570E+04  0.7818609E-02  0.8476121E-01
       -1   -1    0    0    0  501  0.00000000000E+00  0.00000000000E+00  0.89404208613E+03  0.89404208614E+03  0.50400001928E-02 0. -1.
        1   -1    0    0  501    0  0.00000000000E+00  0.00000000000E+00 -0.14851216825E+04  0.14851216825E+04  0.50400001928E-02 0.  1.
    10030    2    1    2    0    0  0.00000000000E+00  0.00000000000E+00 -0.59107959634E+03  0.23791637686E+04  0.23045704912E+04 0.  0.
        3    1    3    3  502    0  0.16894086469E+03 -0.85689865742E+03 -0.10714963547E+04  0.13823605800E+04  0.10100000352E+00 0. -1.
       -3    1    3    3    0  502 -0.16894086469E+03  0.85689865742E+03  0.48041675838E+03  0.99680318859E+03  0.10100000352E+00 0.  1.
</event>
<event>
 5   0  0.9312074E-05  0.2303778E+04  0.7818609E-02  0.8476433E-01
        2   -1    0    0  501    0  0.00000000000E+00  0.00000000000E+00  0.15464850708E+04  0.15464850708E+04  0.25500000920E-02 0. -1.
       -2   -1    0    0    0  501  0.00000000000E+00  0.00000000000E+00 -0.85797667706E+03  0.85797667706E+03  0.25500000920E-02 0.  1.
    10030    2    1    2    0    0  0.00000000000E+00  0.00000000000E+00  0.68850839378E+03  0.24044617479E+04  0.23037778731E+04 0.  0.
        4    1    3    3  502    0  0.93812936235E+03 -0.34719618433E+03 -0.25185933297E+03  0.10315360524E+04  0.12699999809E+01 0.  1.
       -4    1    3    3    0  502 -0.93812936235E+03  0.34719618433E+03  0.94036772675E+03  0.13729256955E+04  0.12699999809E+01 0. -1.
</event>
<event>
 5   0  0.9313463E-05  0.2333879E+04  0.7818609E-02  0.8464681E-01
        2   -1    0    0  501    0  0.00000000000E+00  0.00000000000E+00  0.17587734114E+04  0.17587734114E+04  0.25500000920E-02 0. -1.
       -2   -1    0    0    0  501  0.00000000000E+00  0.00000000000E+00 -0.77426018759E+03  0.77426018759E+03  0.25500000920E-02 0.  1.
    10030    2    1    2    0    0  0.00000000000E+00  0.00000000000E+00  0.98451322376E+03  0.25330335989E+04  0.23338793726E+04 0.  0.
        1    1    3    3  502    0 -0.55676612703E+03  0.35723129350E+03  0.15356131088E+04  0.16720377798E+04  0.50400001928E-02 0. -1.
       -1    1    3    3    0  502  0.55676612703E+03 -0.35723129350E+03 -0.55109988502E+03  0.86099581913E+03  0.50400001928E-02 0.  1.
</event>
<event>
 5   0  0.3885219E-05  0.2322963E+04  0.7818609E-02  0.8468922E-01
       -1   -1    0    0    0  501  0.00000000000E+00  0.00000000000E+00  0.78096946415E+03  0.78096946417E+03  0.50400001928E-02 0.  1.
        1   -1    0    0  501    0  0.00000000000E+00  0.00000000000E+00 -0.17273908473E+04  0.17273908473E+04  0.50400001928E-02 0. -1.
    10030    2    1    2    0    0  0.00000000000E+00  0.00000000000E+00 -0.94642138316E+03  0.25083603115E+04  0.23229631977E+04 0.  0.
        2    1    3    3  502    0 -0.70367305046E+03 -0.33762379706E+03  0.45561093455E+03  0.90372944733E+03  0.25500000920E-02 0.  1.
       -2    1    3    3    0  502  0.70367305046E+03  0.33762379706E+03 -0.14020323177E+04  0.16046308642E+04  0.25500000920E-02 0. -1.
</event>
<event>
 5   0  0.9483073E-05  0.2302862E+04  0.7818609E-02  0.8476793E-01
        2   -1    0    0  501    0  0.00000000000E+00  0.00000000000E+00  0.90516619157E+03  0.90516619158E+03  0.25500000920E-02 0. -1.
       -2   -1    0    0    0  501  0.00000000000E+00  0.00000000000E+00 -0.14646964913E+04  0.14646964913E+04  0.25500000920E-02 0.  1.
    10030    2    1    2    0    0  0.00000000000E+00  0.00000000000E+00 -0.55953029974E+03  0.23698626829E+04  0.23028623449E+04 0.  0.
        5    1    3    3  502    0 -0.11252490515E+04 -0.15228773983E+03 -0.83440828954E+02  0.11385786954E+04  0.46999998093E+01 0. -1.
       -5    1    3    3    0  502  0.11252490515E+04  0.15228773983E+03 -0.47608947078E+03  0.12312839875E+04  0.46999998093E+01 0.  1.
</event>
<event>
 5   0  0.3885219E-05  0.2288629E+04  0.7818609E-02  0.8482418E-01
        1   -1    0    0  501    0  0.00000000000E+00  0.00000000000E+00  0.14110542660E+04  0.14110542660E+04  0.50400001928E-02 0. -1.
       -1   -1    0    0    0  501  0.00000000000E+00  0.00000000000E+00 -0.92799828587E+03  0.92799828589E+03  0.50400001928E-02 0.  1.
    10030    2    1    2    0    0  0.00000000000E+00  0.00000000000E+00  0.48305598015E+03  0.23390525519E+04  0.22886292318E+04 0.  0.
        2    1    3    3  502    0 -0.72159050062E+03 -0.42079927780E+03 -0.55781027630E+03  0.10044486981E+04  0.25500000920E-02 0.  1.
       -2    1    3    3    0  502  0.72159050062E+03  0.42079927780E+03  0.10408662564E+04  0.13346038538E+04  0.25500000920E-02 0. -1.
</event>
<event>
 5   0  0.9535394E-05  0.2227499E+04  0.7818609E-02  0.8507069E-01
        2   -1    0    0  501    0  0.00000000000E+00  0.00000000000E+00  0.20354952881E+04  0.20354952881E+04  0.25500000920E-02 0. -1.
       -2   -1    0    0    0  501  0.00000000000E+00  0.00000000000E+00 -0.60940366675E+03  0.60940366676E+03  0.25500000920E-02 0.  1.
    10030    2    1    2    0    0  0.00000000000E+00  0.00000000000E+00  0.14260916214E+04  0.26448989549E+04  0.22274993084E+04 0.  0.
        2    1    3    3  502    0 -0.25557685733E+03 -0.30240201240E+03  0.19491081948E+04  0.19889166051E+04  0.25500000920E-02 0. -1.
       -2    1    3    3    0  502  0.25557685733E+03  0.30240201240E+03 -0.52301657343E+03  0.65598234976E+03  0.25500000920E-02 0.  1.
</event>
<event>
 5   0  0.9641157E-05  0.2288806E+04  0.7818609E-02  0.8482348E-01
       -2   -1    0    0    0  501  0.00000000000E+00  0.00000000000E+00  0.13274127013E+04  0.13274127013E+04  0.25500000920E-02 0. -1.
        2   -1    0    0  501    0  0.00000000000E+00  0.00000000000E+00 -0.98662456229E+03  0.98662456229E+03  0.25500000920E-02 0.  1.
    10030    2    1    2    0    0  0.00000000000E+00  0.00000000000E+00  0.34078813902E+03  0.23140372636E+04  0.22888057807E+04 0.  0.
        3    1    3    3  502    0 -0.79105415622E+03  0.51835405266E+03 -0.48106970163E+03  0.10610775985E+04  0.10100000352E+00 0.  1.
       -3    1    3    3    0  502  0.79105415622E+03 -0.51835405266E+03  0.82185784065E+03  0.12529596651E+04  0.10100000352E+00 0. -1.
</event>
<event>
 5   0  0.3261500E-05  0.2298869E+04  0.7818609E-02  0.8478367E-01
        3   -1    0    0  501    0  0.00000000000E+00  0.00000000000E+00  0.57619714858E+03  0.57619715743E+03  0.10100000352E+00 0. -1.
       -3   -1    0    0    0  501  0.00000000000E+00  0.00000000000E+00 -0.22929649927E+04  0.22929649949E+04  0.10100000352E+00 0.  1.
    10030    2    1    2    0    0  0.00000000000E+00  0.00000000000E+00 -0.17167678441E+04  0.28691621523E+04  0.22988692059E+04 0.  0.
        5    1    3    3  502    0  0.87181653008E+03 -0.71860296351E+03 -0.11223261590E+04  0.15925113433E+04  0.46999998093E+01 0.  1.
       -5    1    3    3    0  502 -0.87181653008E+03  0.71860296351E+03 -0.59444168506E+03  0.12766508090E+04  0.46999998093E+01 0. -1.
</event>
<event>
 5   0  0.9313463E-05  0.2190892E+04  0.7818609E-02  0.8522229E-01
        2   -1    0    0  501    0  0.00000000000E+00  0.00000000000E+00  0.18953813992E+04  0.18953813992E+04  0.25500000920E-02 0.  1.
       -2   -1    0    0    0  501  0.00000000000E+00  0.00000000000E+00 -0.63311872389E+03  0.63311872389E+03  0.25500000920E-02 0. -1.
    10030    2    1    2    0    0  0.00000000000E+00  0.00000000000E+00  0.12622626753E+04  0.25285001231E+04  0.21908915562E+04 0.  0.
        1    1    3    3  502    0 -0.19842439839E+03  0.10106513129E+04  0.20052322887E+03  0.10492844626E+04  0.50400001928E-02 0. -1.
       -1    1    3    3    0  502  0.19842439839E+03 -0.10106513129E+04  0.10617394465E+04  0.14792156605E+04  0.50400001928E-02 0.  1.
</event>
<event>
 5   0  0.9312074E-05  0.2319840E+04  0.7818609E-02  0.8470139E-01
        2   -1    0    0  501    0  0.00000000000E+00  0.00000000000E+00  0.16787819191E+04  0.16787819191E+04  0.25500000920E-02 0.  1.
       -2   -1    0    0    0  501  0.00000000000E+00  0.00000000000E+00 -0.80142273837E+03  0.80142273838E+03  0.25500000920E-02 0. -1.
    10030    2    1    2    0    0  0.00000000000E+00  0.00000000000E+00  0.87735918070E+03  0.24802046575E+04  0.23198396520E+04 0.  0.
        4    1    3    3  502    0  0.22882596515E+03 -0.10799775151E+04  0.81923441501E+03  0.13747215700E+04  0.12699999809E+01 0.  1.
       -4    1    3    3    0  502 -0.22882596515E+03  0.10799775151E+04  0.58124765696E+02  0.11054830875E+04  0.12699999809E+01 0. -1.
</event>
<event>
 5   0  0.4295775E-05  0.2264185E+04  0.7818609E-02  0.8492178E-01
        1   -1    0    0  501    0  0.00000000000E+00  0.00000000000E+00  0.19101292191E+04  0.19101292191E+04  0.50400001928E-02 0.  1.
       -1   -1    0    0    0  501  0.00000000000E+00  0.00000000000E+00 -0.67096712130E+03  0.67096712132E+03  0.50400001928E-02 0. -1.
    10030    2    1    2    0    0  0.00000000000E+00  0.00000000000E+00  0.12391620978E+04  0.25810963404E+04  0.22641854195E+04 0.  0.
        5    1    3    3  502    0  0.46701982770E+03 -0.15852187534E+03 -0.54205307218E+03  0.73285764476E+03  0.46999998093E+01 0. -1.
       -5    1    3    3    0  502 -0.46701982770E+03  0.15852187534E+03  0.17812151700E+04  0.18482386957E+04  0.46999998093E+01 0.  1.
</event>
<event>
 5   0  0.4005462E-05  0.2258434E+04  0.7818609E-02  0.8494493E-01
        1   -1    0    0  501    0  0.00000000000E+00  0.00000000000E+00  0.14726952137E+04  0.14726952137E+04  0.50400001928E-02 0.  1.
       -1   -1    0    0    0  501  0.00000000000E+00  0.00000000000E+00 -0.86584824624E+03  0.86584824626E+03  0.50400001928E-02 0. -1.
    10030    2    1    2    0    0  0.00000000000E+00  0.00000000000E+00  0.60684696744E+03  0.23385434599E+04  0.22584335882E+04 0.  0.
        4    1    3    3  502    0 -0.72527929178E+03 -0.86486223730E+03  0.26889063483E+03  0.11603105304E+04  0.12699999809E+01 0.  1.
       -4    1    3    3    0  502  0.72527929178E+03  0.86486223730E+03  0.33795633260E+03  0.11782329295E+04  0.12699999809E+01 0. -1.
</event>
<event>
 5   0  0.4295775E-05  0.2306262E+04  0.7818609E-02  0.8475456E-01
        1   -1    0    0  501    0  0.00000000000E+00  0.00000000000E+00  0.12080534617E+04  0.12080534617E+04  0.50400001928E-02 0. -1.
       -1   -1    0    0    0  501  0.00000000000E+00  0.00000000000E+00 -0.11007050708E+04  0.11007050708E+04  0.50400001928E-02 0.  1.
    10030    2    1    2    0    0  0.00000000000E+00  0.00000000000E+00  0.10734839091E+03  0.23087585326E+04  0.23062615387E+04 0.  0.
        5    1    3    3  502    0  0.42779468903E+03 -0.77991830512E+03 -0.68088289810E+03  0.11202251870E+04  0.46999998093E+01 0.  1.
       -5    1    3    3    0  502 -0.42779468903E+03  0.77991830512E+03  0.78823128901E+03  0.11885333456E+04  0.46999998093E+01 0. -1.
</event>
<event>
 5   0  0.9641157E-05  0.2285867E+04  0.7818609E-02  0.8483515E-01
        2   -1    0    0  501    0  0.00000000000E+00  0.00000000000E+00  0.83628383786E+03  0.83628383786E+03  0.25500000920E-02 0.  1.
       -2   -1    0    0    0  501  0.00000000000E+00  0.00000000000E+00 -0.15620254012E+04  0.15620254012E+04  0.25500000920E-02 0. -1.
    10030    2    1    2    0    0  0.00000000000E+00  0.00000000000E+00 -0.72574156335E+03  0.23983092391E+04  0.22858666605E+04 0.  0.
        3    1    3    3  502    0  0.11006354026E+04  0.26431043326E+03 -0.19685222208E+03  0.11489164905E+04  0.10100000352E+00 0. -1.
       -3    1    3    3    0  502 -0.11006354026E+04 -0.26431043326E+03 -0.52888934127E+03  0.12493927486E+04  0.10100000352E+00 0.  1.
</event>
<event>
 5   0  0.9535394E-05  0.2310188E+04  0.7818609E-02  0.8473915E-01
       -2   -1    0    0    0  501  0.00000000000E+00  0.00000000000E+00  0.68028084987E+03  0.68028084988E+03  0.25500000920E-02 0.  1.
        2   -1    0    0  501    0  0.00000000000E+00  0.00000000000E+00 -0.19613112031E+04  0.19613112031E+04  0.25500000920E-02 0. -1.
    10030    2    1    2    0    0  0.00000000000E+00  0.00000000000E+00 -0.12810303532E+04  0.26415920530E+04  0.23101882626E+04 0.  0.
        2    1    3    3  502    0 -0.10695881283E+04 -0.41408777442E+03 -0.79710983543E+03  0.13967360305E+04  0.25500000920E-02 0.  1.
       -2    1    3    3    0  502  0.10695881283E+04  0.41408777442E+03 -0.48392051780E+03  0.12448560225E+04  0.25500000920E-02 0. -1.
</event>
<event>
 5   0  0.9483073E-05  0.2255780E+04  0.7818609E-02  0.8495563E-01
       -2   -1    0    0    0  501  0.00000000000E+00  0.00000000000E+00  0.88881520911E+03  0.88881520911E+03  0.25500000920E-02 0.  1.
        2   -1    0    0  501    0  0.00000000000E+00  0.00000000000E+00 -0.14312710682E+04  0.14312710682E+04  0.25500000920E-02 0. -1.
    10030    2    1    2    0    0  0.00000000000E+00  0.00000000000E+00 -0.54245585910E+03  0.23200862773E+04  0.22557796823E+04 0.  0.
        5    1    3    3  502    0  0.47909410868E+03  0.64132107720E+03 -0.10884154819E+04  0.13511085228E+04  0.46999998093E+01 0. -1.
       -5    1    3    3    0  502 -0.47909410868E+03 -0.64132107720E+03  0.54595962284E+03  0.96897775454E+03  0.46999998093E+01 0.  1.
</event>
<event>
 5   0  0.4005462E-05  0.2344954E+04  0.7818609E-02  0.8460405E-01
        1   -1    0    0  501    0  0.00000000000E+00  0.00000000000E+00  0.12121625375E+04  0.12121625375E+04  0.50400001928E-02 0.  1.
       -1   -1    0    0    0  501  0.00000000000E+00  0.00000000000E+00 -0.11340903123E+04  0.11340903123E+04  0.50400001928E-02 0. -1.
    10030    2    1    2    0    0  0.00000000000E+00  0.00000000000E+00  0.78072225245E+02  0.23462528498E+04  0.23449535524E+04 0.  0.
        4    1    3    3  502    0  0.59488438108E+03 -0.10092574753E+04 -0.80229096099E+01  0.11715605227E+04  0.12699999809E+01 0. -1.
       -4    1    3    3    0  502 -0.59488438108E+03  0.10092574753E+04  0.86095134855E+02  0.11746923272E+04  0.12699999809E+01 0.  1.
</event>
<event>
 5   0  0.4139830E-05  0.2527336E+04  0.7818609E-02  0.8393311E-01
        1   -1    0    0  501    0  0.00000000000E+00  0.00000000000E+00  0.86818683128E+03  0.86818683129E+03  0.50400001928E-02 0.  1.
       -1   -1    0    0    0  501  0.00000000000E+00  0.00000000000E+00 -0.18393001932E+04  0.18393001932E+04  0.50400001928E-02 0. -1.
    10030    2    1    2    0    0  0.00000000000E+00  0.00000000000E+00 -0.97111336192E+03  0.27074870245E+04  0.25273355191E+04 0.  0.
        1    1    3    3  502    0 -0.79775222605E+03 -0.40058808979E+03 -0.14437258054E+04  0.16974167529E+04  0.50400001928E-02 0. -1.
       -1    1    3    3    0  502  0.79775222605E+03  0.40058808979E+03  0.47261244346E+03  0.10100702716E+04  0.50400001928E-02 0.  1.
</event>
<event>
 5   0  0.9535394E-05  0.2371687E+04  0.7818609E-02  0.8450180E-01
        2   -1    0    0  501    0  0.00000000000E+00  0.00000000000E+00  0.22747876828E+04  0.22747876828E+04  0.25500000920E-02 0. -1.
       -2   -1    0    0    0  501  0.00000000000E+00  0.00000000000E+00 -0.61817862955E+03  0.61817862956E+03  0.25500000920E-02 0.  1.
    10030    2    1    2    0    0  0.00000000000E+00  0.00000000000E+00  0.16566090533E+04  0.28929663124E+04  0.23716872748E+04 0.  0.
        2    1    3    3  502    0 -0.52445559980E+03  0.10258416579E+04  0.48584825048E+03  0.12503812642E+04  0.25500000920E-02 0.  1.
       -2    1    3    3    0  502  0.52445559980E+03 -0.10258416579E+04  0.11707608028E+04  0.16425850482E+04  0.25500000920E-02 0. -1.
</event>
<event>
 5   0  0.3261500E-05  0.2283268E+04  0.7818609E-02  0.8484548E-01
       -3   -1    0    0    0  501  0.00000000000E+00  0.00000000000E+00  0.12056358194E+04  0.12056358237E+04  0.10100000352E+00 0. -1.
        3   -1    0    0  501    0  0.00000000000E+00  0.00000000000E+00 -0.10810293463E+04  0.10810293511E+04  0.10100000352E+00 0.  1.
    10030    2    1    2    0    0  0.00000000000E+00  0.00000000000E+00  0.12460647311E+03  0.22866651747E+04  0.22832675814E+04 0.  0.
        3    1    3    3  502    0  0.10619137361E+04 -0.24392372710E+03 -0.27903840625E+03  0.11247319725E+04  0.10100000352E+00 0. -1.
       -3    1    3    3    0  502 -0.10619137361E+04  0.24392372710E+03  0.40364487936E+03  0.11619332022E+04  0.10100000352E+00 0.  1.
</event>
<event>
 5   0  0.4005462E-05  0.1764190E+04  0.7818609E-02  0.8725578E-01
       -1   -1    0    0    0  501  0.00000000000E+00  0.00000000000E+00  0.57864911382E+03  0.57864911384E+03  0.50400001928E-02 0.  1.
        1   -1    0    0  501    0  0.00000000000E+00  0.00000000000E+00 -0.13446692729E+04  0.13446692729E+04  0.50400001928E-02 0. -1.
    10030    2    1    2    0    0  0.00000000000E+00  0.00000000000E+00 -0.76602015909E+03  0.19233183868E+04  0.17641901067E+04 0.  0.
        4    1    3    3  502    0 -0.63558602240E+03  0.35141969155E+03 -0.92879020625E+03  0.11790327610E+04  0.12699999809E+01 0. -1.
       -4    1    3    3    0  502  0.63558602240E+03 -0.35141969155E+03  0.16277004716E+03  0.74428562571E+03  0.12699999809E+01 0.  1.
</event>
<event>
 5   0  0.9312074E-05  0.2183514E+04  0.7818609E-02  0.8525321E-01
        2   -1    0    0  501    0  0.00000000000E+00  0.00000000000E+00  0.24545113896E+04  0.24545113896E+04  0.25500000920E-02 0.  1.
       -2   -1    0    0    0  501  0.00000000000E+00  0.00000000000E+00 -0.48560913372E+03  0.48560913372E+03  0.25500000920E-02 0. -1.
    10030    2    1    2    0    0  0.00000000000E+00  0.00000000000E+00  0.19689022559E+04  0.29401205233E+04  0.21835138191E+04 0.  0.
        4    1    3    3  502    0 -0.10170238390E+04 -0.36890612901E+03  0.11818987027E+04  0.16022844247E+04  0.12699999809E+01 0.  1.
       -4    1    3    3    0  502  0.10170238390E+04  0.36890612901E+03  0.78700355311E+03  0.13378360986E+04  0.12699999809E+01 0. -1.
</event>
<event>
 5   0  0.4295775E-05  0.2317979E+04  0.7818609E-02  0.8470866E-01
       -1   -1    0    0    0  501  0.00000000000E+00  0.00000000000E+00  0.75198064895E+03  0.75198064897E+03  0.50400001928E-02 0. -1.
        1   -1    0    0  501    0  0.00000000000E+00  0.00000000000E+00 -0.17862910272E+04  0.17862910272E+04  0.50400001928E-02 0.  1.
    10030    2    1    2    0    0  0.00000000000E+00  0.00000000000E+00 -0.10343103783E+04  0.25382716762E+04  0.23179786763E+04 0.  0.
        5    1    3    3  502    0  0.58430821411E+03 -0.20583315626E+03  0.55545032690E+03  0.83206401974E+03  0.46999998093E+01 0. -1.
       -5    1    3    3    0  502 -0.58430821411E+03  0.20583315626E+03 -0.15897607052E+04  0.17062076565E+04  0.46999998093E+01 0.  1.
</event>
<event>
 5   0  0.9483073E-05  0.2291977E+04  0.7818609E-02  0.8481091E-01
       -2   -1    0    0    0  501  0.00000000000E+00  0.00000000000E+00  0.12757820263E+04  0.12757820263E+04  0.25500000920E-02 0. -1.
        2   -1    0    0  501    0  0.00000000000E+00  0.00000000000E+00 -0.10293995580E+04  0.10293995580E+04  0.25500000920E-02 0.  1.
    10030    2    1    2    0    0  0.00000000000E+00  0.00000000000E+00  0.24638246826E+03  0.23051815843E+04  0.22919768358E+04 0.  0.
        5    1    3    3  502    0  0.61684233559E+03  0.75088902269E+03 -0.48771133134E+03  0.10872962908E+04  0.46999998093E+01 0.  1.
       -5    1    3    3    0  502 -0.61684233559E+03 -0.75088902269E+03  0.73409379960E+03  0.12178852934E+04  0.46999998093E+01 0. -1.
</event>
<event>
 5   0  0.9313463E-05  0.2200207E+04  0.7818609E-02  0.8518342E-01
       -2   -1    0    0    0  501  0.00000000000E+00  0.00000000000E+00  0.82841919606E+03  0.82841919606E+03  0.25500000920E-02 0.  1.
        2   -1    0    0  501    0  0.00000000000E+00  0.00000000000E+00 -0.14608883136E+04  0.14608883136E+04  0.25500000920E-02 0. -1.
    10030    2    1    2    0    0  0.00000000000E+00  0.00000000000E+00 -0.63246911755E+03  0.22893075097E+04  0.22002071923E+04 0.  0.
        1    1    3    3  502    0  0.65421172169E+03 -0.63124155110E+03  0.32834351191E+03  0.96657557100E+03  0.50400001928E-02 0.  1.
       -1    1    3    3    0  502 -0.65421172169E+03  0.63124155110E+03 -0.96081262946E+03  0.13227319387E+04  0.50400001928E-02 0. -1.
</event>
<event>
 5   0  0.4095451E-05  0.2225801E+04  0.7818609E-02  0.8507765E-01
        1   -1    0    0  501    0  0.00000000000E+00  0.00000000000E+00  0.18040345185E+04  0.18040345185E+04  0.50400001928E-02 0.  1.
       -1   -1    0    0    0  501  0.00000000000E+00  0.00000000000E+00 -0.68654298111E+03  0.68654298113E+03  0.50400001928E-02 0. -1.
    10030    2    1    2    0    0  0.00000000000E+00  0.00000000000E+00  0.11174915374E+04  0.24905774997E+04  0.22258007426E+04 0.  0.
        3    1    3    3  502    0 -0.79826150223E+03  0.41362521455E+03  0.12927003079E+04  0.15746051379E+04  0.10100000352E+00 0.  1.
       -3    1    3    3    0  502  0.79826150223E+03 -0.41362521455E+03 -0.17520877049E+03  0.91597236176E+03  0.10100000352E+00 0. -1.
</event>
<event>
 5   0  0.4005462E-05  0.2354447E+04  0.7818609E-02  0.8456758E-01
        1   -1    0    0  501    0  0.00000000000E+00  0.00000000000E+00  0.13958871592E+04  0.13958871592E+04  0.50400001928E-02 0. -1.
       -1   -1    0    0    0  501  0.00000000000E+00  0.00000000000E+00 -0.99281323028E+03  0.99281323029E+03  0.50400001928E-02 0.  1.
    10030    2    1    2    0    0  0.00000000000E+00  0.00000000000E+00  0.40307392894E+03  0.23887003895E+04  0.23544470601E+04 0.  0.
        4    1    3    3  502    0 -0.41423642062E+02  0.88736066829E+03  0.98525751147E+03  0.13265967174E+04  0.12699999809E+01 0. -1.
       -4    1    3    3    0  502  0.41423642062E+02 -0.88736066829E+03 -0.58218358252E+03  0.10621036722E+04  0.12699999809E+01 0.  1.
</event>
<event>
 5   0  0.4005462E-05  0.2312347E+04  0.7818609E-02  0.8473069E-01
        1   -1    0    0  501    0  0.00000000000E+00  0.00000000000E+00  0.22861078918E+04  0.22861078918E+04  0.50400001928E-02 0.  1.
       -1   -1    0    0    0  501  0.00000000000E+00  0.00000000000E+00 -0.58472157022E+03  0.58472157024E+03  0.50400001928E-02 0. -1.
    10030    2    1    2    0    0  0.00000000000E+00  0.00000000000E+00  0.17013863215E+04  0.28708294620E+04  0.23123465106E+04 0.  0.
        4    1    3    3  502    0 -0.37155222666E+03  0.16024475155E+03  0.21953284738E+04  0.22323078099E+04  0.12699999809E+01 0.  1.
       -4    1    3    3    0  502  0.37155222666E+03 -0.16024475155E+03 -0.49394215224E+03  0.63852165209E+03  0.12699999809E+01 0. -1.
</event>
<event>
 5   0  0.4005462E-05  0.2263793E+04  0.7818609E-02  0.8492335E-01
        1   -1    0    0  501    0  0.00000000000E+00  0.00000000000E+00  0.13031049982E+04  0.13031049982E+04  0.50400001928E-02 0.  1.
       -1   -1    0    0    0  501  0.00000000000E+00  0.00000000000E+00 -0.98318213055E+03  0.98318213057E+03  0.50400001928E-02 0. -1.
    10030    2    1    2    0    0  0.00000000000E+00  0.00000000000E+00  0.31992286768E+03  0.22862871288E+04  0.22637928779E+04 0.  0.
        4    1    3    3  502    0 -0.21148411626E+03  0.10935615004E+04 -0.43499170161E+02  0.11146730809E+04  0.12699999809E+01 0. -1.
       -4    1    3    3    0  502  0.21148411626E+03 -0.10935615004E+04  0.36342203784E+03  0.11716140479E+04  0.12699999809E+01 0.  1.
</event>
<event>
 5   0  0.4095451E-05  0.2295257E+04  0.7818609E-02  0.8479794E-01
       -1   -1    0    0    0  501  0.00000000000E+00  0.00000000000E+00  0.10238442200E+04  0.10238442200E+04  0.50400001928E-02 0. -1.
        1   -1    0    0  501    0  0.00000000000E+00  0.00000000000E+00 -0.12863780876E+04  0.12863780876E+04  0.50400001928E-02 0.  1.
    10030    2    1    2    0    0  0.00000000000E+00  0.00000000000E+00 -0.26253386757E+03  0.23102223076E+04  0.22952566477E+04 0.  0.
        3    1    3    3  502    0 -0.49862371930E+03  0.83603820796E+03 -0.74306672466E+03  0.12246361362E+04  0.10100000352E+00 0.  1.
       -3    1    3    3    0  502  0.49862371930E+03 -0.83603820796E+03  0.48053285709E+03  0.10855861714E+04  0.10100000352E+00 0. -1.
</event>
<event>
 5   0  0.9483073E-05  0.2323655E+04  0.7818609E-02  0.8468652E-01
       -2   -1    0    0    0  501  0.00000000000E+00  0.00000000000E+00  0.64534835677E+03  0.64534835678E+03  0.25500000920E-02 0. -1.
        2   -1    0    0  501    0  0.00000000000E+00  0.00000000000E+00 -0.20916510642E+04  0.20916510642E+04  0.25500000920E-02 0.  1.
    10030    2    1    2    0    0  0.00000000000E+00  0.00000000000E+00 -0.14463027074E+04  0.27369994210E+04  0.23236553766E+04 0.  0.
        5    1    3    3  502    0  0.41698803261E+03  0.46819188368E+03 -0.18752765844E+04  0.19773130802E+04  0.46999998093E+01 0.  1.
       -5    1    3    3    0  502 -0.41698803261E+03 -0.46819188368E+03  0.42897387693E+03  0.75968634078E+03  0.46999998093E+01 0. -1.
</event>
<event>
 5   0  0.9535394E-05  0.1716731E+04  0.7818609E-02  0.8751879E-01
        2   -1    0    0  501    0  0.00000000000E+00  0.00000000000E+00  0.10534947664E+04  0.10534947664E+04  0.25500000920E-02 0. -1.
       -2   -1    0    0    0  501  0.00000000000E+00  0.00000000000E+00 -0.69937829413E+03  0.69937829413E+03  0.25500000920E-02 0.  1.
    10030    2    1    2    0    0  0.00000000000E+00  0.00000000000E+00  0.35411647229E+03  0.17528730606E+04  0.17167310478E+04 0.  0.
        2    1    3    3  502    0  0.12247001638E+03  0.12343726323E+03 -0.68120677906E+03  0.70304931456E+03  0.25500000920E-02 0.  1.
       -2    1    3    3    0  502 -0.12247001638E+03 -0.12343726323E+03  0.10353232514E+04  0.10498237460E+04  0.25500000920E-02 0. -1.
</event>
<event>
 5   0  0.3885219E-05  0.2320703E+04  0.7818609E-02  0.8469803E-01
       -1   -1    0    0    0  501  0.00000000000E+00  0.00000000000E+00  0.84316933232E+03  0.84316933233E+03  0.50400001928E-02 0.  1.
        1   -1    0    0  501    0  0.00000000000E+00  0.00000000000E+00 -0.15968507043E+04  0.15968507043E+04  0.50400001928E-02 0. -1.
    10030    2    1    2    0    0  0.00000000000E+00  0.00000000000E+00 -0.75368137199E+03  0.24400200366E+04  0.23207029471E+04 0.  0.
        2    1    3    3  502    0  0.14871904199E+03  0.33291165380E+03 -0.15350525425E+04  0.15777622859E+04  0.25500000920E-02 0. -1.
       -2    1    3    3    0  502 -0.14871904199E+03 -0.33291165380E+03  0.78137117047E+03  0.86225775075E+03  0.25500000920E-02 0.  1.
</event>
<event>
 5   0  0.4139830E-05  0.2307786E+04  0.7818609E-02  0.8474858E-01
        1   -1    0    0  501    0  0.00000000000E+00  0.00000000000E+00  0.17373546451E+04  0.17373546451E+04  0.50400001928E-02 0.  1.
       -1   -1    0    0    0  501  0.00000000000E+00  0.00000000000E+00 -0.76637696613E+03  0.76637696615E+03  0.50400001928E-02 0. -1.
    10030    2    1    2    0    0  0.00000000000E+00  0.00000000000E+00  0.97097767897E+03  0.25037316113E+04  0.23077855897E+04 0.  0.
        1    1    3    3  502    0  0.43803201155E+03 -0.90416017858E+03  0.11012064139E+04  0.14906485963E+04  0.50400001928E-02 0.  1.
       -1    1    3    3    0  502 -0.43803201155E+03  0.90416017858E+03 -0.13022873496E+03  0.10130830149E+04  0.50400001928E-02 0. -1.
</event>
<event>
 5   0  0.4095451E-05  0.2073405E+04  0.7818609E-02  0.8573050E-01
       -1   -1    0    0    0  501  0.00000000000E+00  0.00000000000E+00  0.57943622709E+03  0.57943622711E+03  0.50400001928E-02 0. -1.
        1   -1    0    0  501    0  0.00000000000E+00  0.00000000000E+00 -0.18548236551E+04  0.18548236551E+04  0.50400001928E-02 0.  1.
    10030    2    1    2    0    0  0.00000000000E+00  0.00000000000E+00 -0.12753874280E+04  0.24342598822E+04  0.20734049490E+04 0.  0.
        3    1    3    3  502    0 -0.66164899851E+03 -0.39597669533E+02 -0.15735474989E+04  0.17074539860E+04  0.10100000352E+00 0.  1.
       -3    1    3    3    0  502  0.66164899851E+03  0.39597669533E+02  0.29816007094E+03  0.72680589621E+03  0.10100000352E+00 0. -1.
</event>
<event>
 5   0  0.4139830E-05  0.2293826E+04  0.7818609E-02  0.8480359E-01
       -1   -1    0    0    0  501  0.00000000000E+00  0.00000000000E+00  0.12515950512E+04  0.12515950512E+04  0.50400001928E-02 0.  1.
        1   -1    0    0  501    0  0.00000000000E+00  0.00000000000E+00 -0.10509864048E+04  0.10509864048E+04  0.50400001928E-02 0. -1.
    10030    2    1    2    0    0  0.00000000000E+00  0.00000000000E+00  0.20060864644E+03  0.23025814560E+04  0.22938259595E+04 0.  0.
        1    1    3    3  502    0 -0.11438868636E+04 -0.62164263378E+02  0.44704905279E+02  0.11464467196E+04  0.50400001928E-02 0.  1.
       -1    1    3    3    0  502  0.11438868636E+04  0.62164263378E+02  0.15590374116E+03  0.11561347364E+04  0.50400001928E-02 0. -1.
</event>
<event>
 5   0  0.4005462E-05  0.2307613E+04  0.7818609E-02  0.8474925E-01
       -1   -1    0    0    0  501  0.00000000000E+00  0.00000000000E+00  0.59576809179E+03  0.59576809181E+03  0.50400001928E-02 0.  1.
        1   -1    0    0  501    0  0.00000000000E+00  0.00000000000E+00 -0.22345430627E+04  0.22345430627E+04  0.50400001928E-02 0. -1.
    10030    2    1    2    0    0  0.00000000000E+00  0.00000000000E+00 -0.16387749709E+04  0.28303111545E+04  0.23076130148E+04 0.  0.
        4    1    3    3  502    0  0.58194829653E+03  0.94682424767E+03 -0.11996608069E+04  0.16353371641E+04  0.12699999809E+01 0. -1.
       -4    1    3    3    0  502 -0.58194829653E+03 -0.94682424767E+03 -0.43911416403E+03  0.11949739904E+04  0.12699999809E+01 0.  1.
</event>
<event>
 5   0  0.4005462E-05  0.2387304E+04  0.7818609E-02  0.8444272E-01
        1   -1    0    0  501    0  0.00000000000E+00  0.00000000000E+00  0.10856031451E+04  0.10856031451E+04  0.50400001928E-02 0.  1.
       -1   -1    0    0    0  501  0.00000000000E+00  0.00000000000E+00 -0.13124545546E+04  0.13124545547E+04  0.50400001928E-02 0. -1.
    10030    2    1    2    0    0  0.00000000000E+00  0.00000000000E+00 -0.22685140959E+03  0.23980576997E+04  0.23873037446E+04 0.  0.
        4    1    3    3  502    0  0.50874510828E+03 -0.10694721085E+04 -0.26313061259E+03  0.12131906314E+04  0.12699999809E+01 0. -1.
       -4    1    3    3    0  502 -0.50874510828E+03  0.10694721085E+04  0.36279203000E+02  0.11848670683E+04  0.12699999809E+01 0.  1.
</event>
<event>
 5   0  0.4095451E-05  0.2316563E+04  0.7818609E-02  0.8471419E-01
        1   -1    0    0  501    0  0.00000000000E+00  0.00000000000E+00  0.10070609252E+04  0.10070609253E+04  0.50400001928E-02 0. -1.
       -1   -1    0    0    0  501  0.00000000000E+00  0.00000000000E+00 -0.13322096644E+04  0.13322096644E+04  0.50400001928E-02 0.  1.
    10030    2    1    2    0    0  0.00000000000E+00  0.00000000000E+00 -0.32514873911E+03  0.23392705896E+04  0.23165632279E+04 0.  0.
        3    1    3    3  502    0  0.10075625392E+04  0.51115883478E+03  0.95173877336E+02  0.11338093763E+04  0.10100000352E+00 0. -1.
       -3    1    3    3    0  502 -0.10075625392E+04 -0.51115883478E+03 -0.42032261644E+03  0.12054612133E+04  0.10100000352E+00 0.  1.
</event>
<event>
 5   0  0.9535394E-05  0.1543015E+04  0.7818609E-02  0.8856341E-01
        2   -1    0    0  501    0  0.00000000000E+00  0.00000000000E+00  0.76667139645E+03  0.76667139646E+03  0.25500000920E-02 0.  1.
       -2   -1    0    0    0  501  0.00000000000E+00  0.00000000000E+00 -0.77637457952E+03  0.77637457953E+03  0.25500000920E-02 0. -1.
    10030    2    1    2    0    0  0.00000000000E+00  0.00000000000E+00 -0.97031830688E+01  0.15430459760E+04  0.15430154673E+04 0.  0.
        2    1    3    3  502    0  0.63357367037E+03  0.40460663493E+03 -0.17835446937E+03  0.77261403143E+03  0.25500000920E-02 0. -1.
       -2    1    3    3    0  502 -0.63357367037E+03 -0.40460663493E+03  0.16865128630E+03  0.77043194455E+03  0.25500000920E-02 0.  1.
</event>
<event>
 5   0  0.4295775E-05  0.2256044E+04  0.7818609E-02  0.8495457E-01
       -1   -1    0    0    0  501  0.00000000000E+00  0.00000000000E+00  0.56015444146E+03  0.56015444149E+03  0.50400001928E-02 0.  1.
        1   -1    0    0  501    0  0.00000000000E+00  0.00000000000E+00 -0.22715757175E+04  0.22715757175E+04  0.50400001928E-02 0. -1.
    10030    2    1    2    0    0  0.00000000000E+00  0.00000000000E+00 -0.17114212761E+04  0.28317301590E+04  0.22560436408E+04 0.  0.
        5    1    3    3  502    0  0.61467375347E+03  0.41143471278E+03  0.21326015805E+03  0.76980798326E+03  0.46999998093E+01 0.  1.
       -5    1    3    3    0  502 -0.61467375347E+03 -0.41143471278E+03 -0.19246814341E+04  0.20619221758E+04  0.46999998093E+01 0. -1.
</event>
<event>
 5   0  0.9313463E-05  0.2203324E+04  0.7818609E-02  0.8517046E-01
       -2   -1    0    0    0  501  0.00000000000E+00  0.00000000000E+00  0.89055696804E+03  0.89055696805E+03  0.25500000920E-02 0.  1.
        2   -1    0    0  501    0  0.00000000000E+00  0.00000000000E+00 -0.13628088705E+04  0.13628088705E+04  0.25500000920E-02 0. -1.
    10030    2    1    2    0    0  0.00000000000E+00  0.00000000000E+00 -0.47225190241E+03  0.22533658385E+04  0.22033237944E+04 0.  0.
        1    1    3    3  502    0  0.94314916386E+03  0.49893858432E+03 -0.51655964201E+03  0.11854551531E+04  0.50400001928E-02 0. -1.
       -1    1    3    3    0  502 -0.94314916386E+03 -0.49893858432E+03  0.44307739599E+02  0.10679106854E+04  0.50400001928E-02 0.  1.
</event>
<event>
 5   0  0.4095451E-05  0.2292621E+04  0.7818609E-02  0.8480836E-01
       -1   -1    0    0    0  501  0.00000000000E+00  0.00000000000E+00  0.93035262424E+03  0.93035262425E+03  0.50400001928E-02 0. -1.
        1   -1    0    0  501    0  0.00000000000E+00  0.00000000000E+00 -0.14123972189E+04  0.14123972190E+04  0.50400001928E-02 0.  1.
    10030    2    1    2    0    0  0.00000000000E+00  0.00000000000E+00 -0.48204459471E+03  0.23427498432E+04  0.22926207354E+04 0.  0.
        3    1    3    3  502    0 -0.86549005180E+03 -0.24008569545E+03 -0.96885542050E+03  0.13211339852E+04  0.10100000352E+00 0.  1.
       -3    1    3    3    0  502  0.86549005180E+03  0.24008569545E+03  0.48681082580E+03  0.10216158580E+04  0.10100000352E+00 0. -1.
</event>
<event>
 5   0  0.9313463E-05  0.2274671E+04  0.7818609E-02  0.8487976E-01
       -2   -1    0    0    0  501  0.00000000000E+00  0.00000000000E+00  0.57155362811E+03  0.57155362812E+03  0.25500000920E-02 0. -1.
        2   -1    0    0  501    0  0.00000000000E+00  0.00000000000E+00 -0.22631853007E+04  0.22631853007E+04  0.25500000920E-02 0.  1.
    10030    2    1    2    0    0  0.00000000000E+00  0.00000000000E+00 -0.16916316726E+04  0.28347389288E+04  0.22746707627E+04 0.  0.
        1    1    3    3  502    0 -0.87323120153E+03 -0.72869384233E+03 -0.84840680199E+03  0.14189156243E+04  0.50400001928E-02 0. -1.
       -1    1    3    3    0  502  0.87323120153E+03  0.72869384233E+03 -0.84322487057E+03  0.14158233045E+04  0.50400001928E-02 0.  1.
</event>
<event>
 5   0  0.4139830E-05  0.2230263E+04  0.7818609E-02  0.8505937E-01
        1   -1    0    0  501    0  0.00000000000E+00  0.00000000000E+00  0.93985515260E+03  0.93985515261E+03  0.50400001928E-02 0.  1.
       -1   -1    0    0    0  501  0.00000000000E+00  0.00000000000E+00 -0.13230954216E+04  0.13230954216E+04  0.50400001928E-02 0. -1.
    10030    2    1    2    0    0  0.00000000000E+00  0.00000000000E+00 -0.38324026896E+03  0.22629505742E+04  0.22302628090E+04 0.  0.
        1    1    3    3  502    0 -0.85203720792E+03 -0.54162449691E+02 -0.91950237300E+03  0.12547452286E+04  0.50400001928E-02 0. -1.
       -1    1    3    3    0  502  0.85203720792E+03  0.54162449691E+02  0.53626210404E+03  0.10082053456E+04  0.50400001928E-02 0.  1.
</event>
<event>
 5   0  0.9483073E-05  0.1954391E+04  0.7818609E-02  0.8628246E-01
        2   -1    0    0  501    0  0.00000000000E+00  0.00000000000E+00  0.12236362213E+04  0.12236362213E+04  0.25500000920E-02 0.  1.
       -2   -1    0    0    0  501  0.00000000000E+00  0.00000000000E+00 -0.78038792893E+03  0.78038792894E+03  0.25500000920E-02 0. -1.
    10030    2    1    2    0    0  0.00000000000E+00  0.00000000000E+00  0.44324829238E+03  0.20040241503E+04  0.19543908888E+04 0.  0.
        5    1    3    3  502    0 -0.31621757091E+03 -0.85763261800E+03  0.57588552908E+03  0.10803672950E+04  0.46999998093E+01 0.  1.
       -5    1    3    3    0  502  0.31621757091E+03  0.85763261800E+03 -0.13263723670E+03  0.92365685520E+03  0.46999998093E+01 0. -1.
</event>
<event>
 5   0  0.3885219E-05  0.2307936E+04  0.7818609E-02  0.8474799E-01
       -1   -1    0    0    0  501  0.00000000000E+00  0.00000000000E+00  0.67350242476E+03  0.67350242478E+03  0.50400001928E-02 0. -1.
        1   -1    0    0  501    0  0.00000000000E+00  0.00000000000E+00 -0.19771900292E+04  0.19771900292E+04  0.50400001928E-02 0.  1.
    10030    2    1    2    0    0  0.00000000000E+00  0.00000000000E+00 -0.13036876044E+04  0.26506924540E+04  0.23079361160E+04 0.  0.
        2    1    3    3  502    0 -0.12388116967E+03  0.11398648497E+04 -0.80160844900E+03  0.13990048339E+04  0.25500000920E-02 0.  1.
       -2    1    3    3    0  502  0.12388116967E+03 -0.11398648497E+04 -0.50207915543E+03  0.12516876200E+04  0.25500000920E-02 0. -1.
</event>
<event>
 5   0  0.9641157E-05  0.1420481E+04  0.7818609E-02  0.8939125E-01
       -2   -1    0    0    0  501  0.00000000000E+00  0.00000000000E+00  0.38117484293E+03  0.38117484294E+03  0.25500000920E-02 0. -1.
        2   -1    0    0  501    0  0.00000000000E+00  0.00000000000E+00 -0.13233864624E+04  0.13233864624E+04  0.25500000920E-02 0.  1.
    10030    2    1    2    0    0  0.00000000000E+00  0.00000000000E+00 -0.94221161945E+03  0.17045613053E+04  0.14204810832E+04 0.  0.
        3    1    3    3  502    0 -0.46308405598E+03 -0.18790995258E+03  0.13448396513E+03  0.51753544831E+03  0.10100000352E+00 0. -1.
       -3    1    3    3    0  502  0.46308405598E+03  0.18790995258E+03 -0.10766955846E+04  0.11870258570E+04  0.10100000352E+00 0.  1.
</event>
<event>
 5   0  0.9535394E-05  0.2564667E+04  0.7818609E-02  0.8380303E-01
       -2   -1    0    0    0  501  0.00000000000E+00  0.00000000000E+00  0.84415038277E+03  0.84415038277E+03  0.25500000920E-02 0. -1.
        2   -1    0    0  501    0  0.00000000000E+00  0.00000000000E+00 -0.19479691796E+04  0.19479691796E+04  0.25500000920E-02 0.  1.
    10030    2    1    2    0    0  0.00000000000E+00  0.00000000000E+00 -0.11038187968E+04  0.27921195624E+04  0.25646667843E+04 0.  0.
        2    1    3    3  502    0  0.12119094343E+04  0.17946946473E+03 -0.96424042762E+03  0.15590681089E+04  0.25500000920E-02 0.  1.
       -2    1    3    3    0  502 -0.12119094343E+04 -0.17946946473E+03 -0.13957836920E+03  0.12330514535E+04  0.25500000920E-02 0. -1.
</event>
<event>
 5   0  0.3885219E-05  0.2317477E+04  0.7818609E-02  0.8471062E-01
        1   -1    0    0  501    0  0.00000000000E+00  0.00000000000E+00  0.17786799749E+04  0.17786799749E+04  0.50400001928E-02 0. -1.
       -1   -1    0    0    0  501  0.00000000000E+00  0.00000000000E+00 -0.75487179029E+03  0.75487179031E+03  0.50400001928E-02 0.  1.
    10030    2    1    2    0    0  0.00000000000E+00  0.00000000000E+00  0.10238081846E+04  0.25335517652E+04  0.23174773674E+04 0.  0.
        2    1    3    3  502    0 -0.11360544255E+04 -0.21755826487E+03  0.43676379039E+03  0.12364116891E+04  0.25500000920E-02 0.  1.
       -2    1    3    3    0  502  0.11360544255E+04  0.21755826487E+03  0.58704439424E+03  0.12971400761E+04  0.25500000920E-02 0. -1.
</event>
<event>
 5   0  0.9483073E-05  0.2340652E+04  0.7818609E-02  0.8462063E-01
        2   -1    0    0  501    0  0.00000000000E+00  0.00000000000E+00  0.22412175145E+04  0.22412175145E+04  0.25500000920E-02 0. -1.
       -2   -1    0    0    0  501  0.00000000000E+00  0.00000000000E+00 -0.61112439244E+03  0.61112439244E+03  0.25500000920E-02 0.  1.
    10030    2    1    2    0    0  0.00000000000E+00  0.00000000000E+00  0.16300931221E+04  0.28523419069E+04  0.23406517826E+04 0.  0.
        5    1    3    3  502    0  0.22899297299E+03 -0.69025685689E+03 -0.30232540405E+03  0.78760081901E+03  0.46999998093E+01 0.  1.
       -5    1    3    3    0  502 -0.22899297299E+03  0.69025685689E+03  0.19324185261E+04  0.20647410879E+04  0.46999998093E+01 0. -1.
</event>
<event>
 5   0  0.9483073E-05  0.2723323E+04  0.7818609E-02  0.8327477E-01
       -2   -1    0    0    0  501  0.00000000000E+00  0.00000000000E+00  0.61349171418E+03  0.61349171418E+03  0.25500000920E-02 0. -1.
        2   -1    0    0  501    0  0.00000000000E+00  0.00000000000E+00 -0.30222449048E+04  0.30222449048E+04  0.25500000920E-02 0.  1.
    10030    2    1    2    0    0  0.00000000000E+00  0.00000000000E+00 -0.24087531906E+04  0.36357366190E+04  0.27233231224E+04 0.  0.
        5    1    3    3  502    0 -0.65102485045E+02 -0.15962653291E+03 -0.30076062030E+04  0.30125464521E+04  0.46999998093E+01 0.  1.
       -5    1    3    3    0  502  0.65102485045E+02  0.15962653291E+03  0.59885301243E+03  0.62319016686E+03  0.46999998093E+01 0. -1.
</event>
<event>
 5   0  0.9641157E-05  0.2283005E+04  0.7818609E-02  0.8484652E-01
        2   -1    0    0  501    0  0.00000000000E+00  0.00000000000E+00  0.15705418516E+04  0.15705418516E+04  0.25500000920E-02 0. -1.
       -2   -1    0    0    0  501  0.00000000000E+00  0.00000000000E+00 -0.82966747565E+03  0.82966747565E+03  0.25500000920E-02 0.  1.
    10030    2    1    2    0    0  0.00000000000E+00  0.00000000000E+00  0.74087437594E+03  0.24002093272E+04  0.22830045934E+04 0.  0.
        3    1    3    3  502    0  0.10034220501E+04  0.51282694412E+03  0.56194293877E+03  0.12592168844E+04  0.10100000352E+00 0. -1.
       -3    1    3    3    0  502 -0.10034220501E+04 -0.51282694412E+03  0.17893143718E+03  0.11409924429E+04  0.10100000352E+00 0.  1.
</event>
<event>
 5   0  0.9313463E-05  0.2269846E+04  0.7818609E-02  0.8489906E-01
        2   -1    0    0  501    0  0.00000000000E+00  0.00000000000E+00  0.15716341730E+04  0.15716341730E+04  0.25500000920E-02 0.  1.
       -2   -1    0    0    0  501  0.00000000000E+00  0.00000000000E+00 -0.81956083145E+03  0.81956083145E+03  0.25500000920E-02 0. -1.
    10030    2    1    2    0    0  0.00000000000E+00  0.00000000000E+00  0.75207334150E+03  0.23911950044E+04  0.22698456419E+04 0.  0.
        1    1    3    3  502    0  0.75023892144E+03  0.52882798879E+03 -0.32713000643E+03  0.97443908076E+03  0.50400001928E-02 0. -1.
       -1    1    3    3    0  502 -0.75023892144E+03 -0.52882798879E+03  0.10792033479E+04  0.14167559236E+04  0.50400001928E-02 0.  1.
</event>
<event>
 5   0  0.4295775E-05  0.2187584E+04  0.7818609E-02  0.8523614E-01
       -1   -1    0    0    0  501  0.00000000000E+00  0.00000000000E+00  0.90960019772E+03  0.90960019773E+03  0.50400001928E-02 0. -1.
        1   -1    0    0  501    0  0.00000000000E+00  0.00000000000E+00 -0.13152816665E+04  0.13152816665E+04  0.50400001928E-02 0.  1.
    10030    2    1    2    0    0  0.00000000000E+00  0.00000000000E+00 -0.40568146874E+03  0.22248818642E+04  0.21875835654E+04 0.  0.
        5    1    3    3  502    0 -0.29137810512E+03  0.25662651259E+03 -0.12428209864E+04  0.13020692997E+04  0.46999998093E+01 0.  1.
       -5    1    3    3    0  502  0.29137810512E+03 -0.25662651259E+03  0.83713951766E+03  0.92281256446E+03  0.46999998093E+01 0. -1.
</event>
<event>
 5   0  0.4139830E-05  0.2353595E+04  0.7818609E-02  0.8457084E-01
       -1   -1    0    0    0  501  0.00000000000E+00  0.00000000000E+00  0.87377891475E+03  0.87377891477E+03  0.50400001928E-02 0.  1.
        1   -1    0    0  501    0  0.00000000000E+00  0.00000000000E+00 -0.15849005490E+04  0.15849005490E+04  0.50400001928E-02 0. -1.
    10030    2    1    2    0    0  0.00000000000E+00  0.00000000000E+00 -0.71112163423E+03  0.24586794638E+04  0.23535952768E+04 0.  0.
        1    1    3    3  502    0 -0.22997552864E+03  0.27895649886E+03  0.81432745708E+03  0.89097400602E+03  0.50400001928E-02 0.  1.
       -1    1    3    3    0  502  0.22997552864E+03 -0.27895649886E+03 -0.15254490913E+04  0.15677054577E+04  0.50400001928E-02 0. -1.
</event>
<event>
 5   0  0.9535394E-05  0.2282345E+04  0.7818609E-02  0.8484915E-01
        2   -1    0    0  501    0  0.00000000000E+00  0.00000000000E+00  0.91456815844E+03  0.91456815844E+03  0.25500000920E-02 0.  1.
       -2   -1    0    0    0  501  0.00000000000E+00  0.00000000000E+00 -0.14239227409E+04  0.14239227409E+04  0.25500000920E-02 0. -1.
    10030    2    1    2    0    0  0.00000000000E+00  0.00000000000E+00 -0.50935458243E+03  0.23384908993E+04  0.22823447583E+04 0.  0.
        2    1    3    3  502    0  0.30555990931E+03  0.83223580347E+03  0.48153278928E+03  0.10088890513E+04  0.25500000920E-02 0.  1.
       -2    1    3    3    0  502 -0.30555990931E+03 -0.83223580347E+03 -0.99088737171E+03  0.13296018480E+04  0.25500000920E-02 0. -1.
</event>
<event>
 5   0  0.3885219E-05  0.2289171E+04  0.7818609E-02  0.8482203E-01
       -1   -1    0    0    0  501  0.00000000000E+00  0.00000000000E+00  0.19171585880E+04  0.19171585880E+04  0.50400001928E-02 0. -1.
        1   -1    0    0  501    0  0.00000000000E+00  0.00000000000E+00 -0.68334234080E+03  0.68334234082E+03  0.50400001928E-02 0.  1.
    10030    2    1    2    0    0  0.00000000000E+00  0.00000000000E+00  0.12338162472E+04  0.26005009288E+04  0.22891707120E+04 0.  0.
        2    1    3    3  502    0  0.89857386316E+03  0.65254652970E+03  0.30204168264E+03  0.11508610425E+04  0.25500000920E-02 0. -1.
       -2    1    3    3    0  502 -0.89857386316E+03 -0.65254652970E+03  0.93177456452E+03  0.14496398863E+04  0.25500000920E-02 0.  1.
</event>
<event>
 5   0  0.9313463E-05  0.2115660E+04  0.7818609E-02  0.8554376E-01
        2   -1    0    0  501    0  0.00000000000E+00  0.00000000000E+00  0.21275196433E+04  0.21275196433E+04  0.25500000920E-02 0. -1.
       -2   -1    0    0    0  501  0.00000000000E+00  0.00000000000E+00 -0.52596677597E+03  0.52596677597E+03  0.25500000920E-02 0.  1.
    10030    2    1    2    0    0  0.00000000000E+00  0.00000000000E+00  0.16015528674E+04  0.26534864193E+04  0.21156603202E+04 0.  0.
        1    1    3    3  502    0 -0.11798829792E+03 -0.40236516901E+03  0.20188388065E+04  0.20619236393E+04  0.50400001928E-02 0. -1.
       -1    1    3    3    0  502  0.11798829792E+03  0.40236516901E+03 -0.41728593912E+03  0.59156278001E+03  0.50400001928E-02 0.  1.
</event>
<event>
 5   0  0.9483073E-05  0.2238187E+04  0.7818609E-02  0.8502700E-01
       -2   -1    0    0    0  501  0.00000000000E+00  0.00000000000E+00  0.92068439758E+03  0.92068439758E+03  0.25500000920E-02 0.  1.
        2   -1    0    0  501    0  0.00000000000E+00  0.00000000000E+00 -0.13602601098E+04  0.13602601098E+04  0.25500000920E-02 0. -1.
    10030    2    1    2    0    0  0.00000000000E+00  0.00000000000E+00 -0.43957571224E+03  0.22809445074E+04  0.22381869982E+04 0.  0.
        5    1    3    3  502    0 -0.64740276128E+03  0.55181366061E+03 -0.96080972098E+03  0.12832794167E+04  0.46999998093E+01 0. -1.
       -5    1    3    3    0  502  0.64740276128E+03 -0.55181366061E+03  0.52123400875E+03  0.99766509071E+03  0.46999998093E+01 0.  1.
</event>
<event>
 5   0  0.4095451E-05  0.2319025E+04  0.7818609E-02  0.8470457E-01
        1   -1    0    0  501    0  0.00000000000E+00  0.00000000000E+00  0.17035954962E+04  0.17035954962E+04  0.50400001928E-02 0.  1.
       -1   -1    0    0    0  501  0.00000000000E+00  0.00000000000E+00 -0.78919525826E+03  0.78919525828E+03  0.50400001928E-02 0. -1.
    10030    2    1    2    0    0  0.00000000000E+00  0.00000000000E+00  0.91440023791E+03  0.24927907545E+04  0.23190252156E+04 0.  0.
        3    1    3    3  502    0 -0.39005868173E+03 -0.10660908730E+04  0.20333907218E+03  0.11532746044E+04  0.10100000352E+00 0.  1.
       -3    1    3    3    0  502  0.39005868173E+03  0.10660908730E+04  0.71106116573E+03  0.13395161501E+04  0.10100000352E+00 0. -1.
</event>
<event>
 5   0  0.4295775E-05  0.2291785E+04  0.7818609E-02  0.8481167E-01
        1   -1    0    0  501    0  0.00000000000E+00  0.00000000000E+00  0.18173297087E+04  0.18173297087E+04  0.50400001928E-02 0. -1.
       -1   -1    0    0    0  501  0.00000000000E+00  0.00000000000E+00 -0.72252681879E+03  0.72252681881E+03  0.50400001928E-02 0.  1.
    10030    2    1    2    0    0  0.00000000000E+00  0.00000000000E+00  0.10948028899E+04  0.25398565275E+04  0.22917848531E+04 0.  0.
        5    1    3    3  502    0 -0.39395757957E+03 -0.10511327100E+04  0.29234924849E+03  0.11599882421E+04  0.46999998093E+01 0.  1.
       -5    1    3    3    0  502  0.39395757957E+03  0.10511327100E+04  0.80245364143E+03  0.13798682855E+04  0.46999998093E+01 0. -1.
</event>
<event>
 5   0  0.9313463E-05  0.2205327E+04  0.7818609E-02  0.8516214E-01
        2   -1    0    0  501    0  0.00000000000E+00  0.00000000000E+00  0.21133313294E+04  0.21133313294E+04  0.25500000920E-02 0. -1.
       -2   -1    0    0    0  501  0.00000000000E+00  0.00000000000E+00 -0.57533161359E+03  0.57533161360E+03  0.25500000920E-02 0.  1.
    10030    2    1    2    0    0  0.00000000000E+00  0.00000000000E+00  0.15379997158E+04  0.26886629430E+04  0.22053265734E+04 0.  0.
        1    1    3    3  502    0 -0.55968400364E+03 -0.14238379495E+03 -0.37620493329E+03  0.68923833386E+03  0.50400001928E-02 0.  1.
       -1    1    3    3    0  502  0.55968400364E+03  0.14238379495E+03  0.19142046491E+04  0.19994246092E+04  0.50400001928E-02 0. -1.
</event>
<event>
 5   0  0.9312074E-05  0.2292193E+04  0.7818609E-02  0.8481006E-01
       -2   -1    0    0    0  501  0.00000000000E+00  0.00000000000E+00  0.75029766893E+03  0.75029766893E+03  0.25500000920E-02 0. -1.
        2   -1    0    0  501    0  0.00000000000E+00  0.00000000000E+00 -0.17506881291E+04  0.17506881291E+04  0.25500000920E-02 0.  1.
    10030    2    1    2    0    0  0.00000000000E+00  0.00000000000E+00 -0.10003904602E+04  0.25009857981E+04  0.22921930305E+04 0.  0.
        4    1    3    3  502    0  0.78383621189E+03  0.45117470678E+03  0.26790156598E+03  0.94325536577E+03  0.12699999809E+01 0. -1.
       -4    1    3    3    0  502 -0.78383621189E+03 -0.45117470678E+03 -0.12682920262E+04  0.15577304323E+04  0.12699999809E+01 0.  1.
</event>
<event>
 5   0  0.3885219E-05  0.2309004E+04  0.7818609E-02  0.8474379E-01
       -1   -1    0    0    0  501  0.00000000000E+00  0.00000000000E+00  0.11875999000E+04  0.11875999000E+04  0.50400001928E-02 0.  1.
        1   -1    0    0  501    0  0.00000000000E+00  0.00000000000E+00 -0.11223263650E+04  0.11223263650E+04  0.50400001928E-02 0. -1.
    10030    2    1    2    0    0  0.00000000000E+00  0.00000000000E+00  0.65273535035E+02  0.23099262650E+04  0.23090038362E+04 0.  0.
        2    1    3    3  502    0  0.26567742690E+03  0.10969225513E+04 -0.21046463211E+03  0.11480936112E+04  0.25500000920E-02 0.  1.
       -2    1    3    3    0  502 -0.26567742690E+03 -0.10969225513E+04  0.27573816714E+03  0.11618326538E+04  0.25500000920E-02 0. -1.
</event>
<event>
 5   0  0.4005462E-05  0.2275942E+04  0.7818609E-02  0.8487468E-01
       -1   -1    0    0    0  501  0.00000000000E+00  0.00000000000E+00  0.50477252777E+03  0.50477252780E+03  0.50400001928E-02 0. -1.
        1   -1    0    0  501    0  0.00000000000E+00  0.00000000000E+00 -0.25654684331E+04  0.25654684331E+04  0.50400001928E-02 0.  1.
    10030    2    1    2    0    0  0.00000000000E+00  0.00000000000E+00 -0.20606959053E+04  0.30702409609E+04  0.22759419904E+04 0.  0.
        4    1    3    3  502    0 -0.21511073592E+03 -0.84008997553E+03 -0.36334590626E+02  0.86795484392E+03  0.12699999809E+01 0. -1.
       -4    1    3    3    0  502  0.21511073592E+03  0.84008997553E+03 -0.20243613147E+04  0.22022861170E+04  0.12699999809E+01 0.  1.
</event>
<event>
 5   0  0.9483073E-05  0.2264960E+04  0.7818609E-02  0.8491866E-01
       -2   -1    0    0    0  501  0.00000000000E+00  0.00000000000E+00  0.16527134017E+04  0.16527134017E+04  0.25500000920E-02 0. -1.
        2   -1    0    0  501    0  0.00000000000E+00  0.00000000000E+00 -0.77600356543E+03  0.77600356543E+03  0.25500000920E-02 0.  1.
    10030    2    1    2    0    0  0.00000000000E+00  0.00000000000E+00  0.87670983627E+03  0.24287169671E+04  0.22649604786E+04 0.  0.
        5    1    3    3  502    0 -0.19314852316E+02  0.95980179520E+03 -0.20582595519E+03  0.98182430374E+03  0.46999998093E+01 0.  1.
       -5    1    3    3    0  502  0.19314852316E+02 -0.95980179520E+03  0.10825357915E+04  0.14468926634E+04  0.46999998093E+01 0. -1.
</event>
<event>
 5   0  0.4139830E-05  0.2331596E+04  0.7818609E-02  0.8465566E-01
       -1   -1    0    0    0  501  0.00000000000E+00  0.00000000000E+00  0.95305877563E+03  0.95305877565E+03  0.50400001928E-02 0. -1.
        1   -1    0    0  501    0  0.00000000000E+00  0.00000000000E+00 -0.14260245018E+04  0.14260245018E+04  0.50400001928E-02 0.  1.
    10030    2    1    2    0    0  0.00000000000E+00  0.00000000000E+00 -0.47296572616E+03  0.23790832774E+04  0.23315961621E+04 0.  0.
        1    1    3    3  502    0 -0.10411975319E+04 -0.44629495167E+03  0.44467828335E+02  0.11336881724E+04  0.50400001928E-02 0. -1.
       -1    1    3    3    0  502  0.10411975319E+04  0.44629495167E+03 -0.51743355449E+03  0.12453951051E+04  0.50400001928E-02 0.  1.
</event>
<event>
 5   0  0.9483073E-05  0.2401725E+04  0.7818609E-02  0.8438858E-01
       -2   -1    0    0    0  501  0.00000000000E+00  0.00000000000E+00  0.96091387085E+03  0.96091387086E+03  0.25500000920E-02 0. -1.
        2   -1    0    0  501    0  0.00000000000E+00  0.00000000000E+00 -0.15007288137E+04  0.15007288137E+04  0.25500000920E-02 0.  1.
    10030    2    1    2    0    0  0.00000000000E+00  0.00000000000E+00 -0.53981494284E+03  0.24616426846E+04  0.24017253244E+04 0.  0.
        5    1    3    3  502    0 -0.69941497775E+03  0.97314764857E+03 -0.34831018029E+03  0.12480143143E+04  0.46999998093E+01 0.  1.
       -5    1    3    3    0  502  0.69941497775E+03 -0.97314764857E+03 -0.19150476255E+03  0.12136283703E+04  0.46999998093E+01 0. -1.
</event>
<event>
 5   0  0.3885219E-05  0.2300703E+04  0.7818609E-02  0.8477644E-01
        1   -1    0    0  501    0  0.00000000000E+00  0.00000000000E+00  0.15182260648E+04  0.15182260648E+04  0.50400001928E-02 0. -1.
       -1   -1    0    0    0  501  0.00000000000E+00  0.00000000000E+00 -0.87161534348E+03  0.87161534350E+03  0.50400001928E-02 0.  1.
    10030    2    1    2    0    0  0.00000000000E+00  0.00000000000E+00  0.64661072135E+03  0.23898414083E+04  0.23007034863E+04 0.  0.
        2    1    3    3  502    0  0.51795312755E+03 -0.71100483682E+03  0.10933121892E+04  0.14032586588E+04  0.25500000920E-02 0. -1.
       -2    1    3    3    0  502 -0.51795312755E+03  0.71100483682E+03 -0.44670146788E+03  0.98658274956E+03  0.25500000920E-02 0.  1.
</event>
<event>
 5   0  0.9313463E-05  0.2330892E+04  0.7818609E-02  0.8465840E-01
        2   -1    0    0  501    0  0.00000000000E+00  0.00000000000E+00  0.10168785454E+04  0.10168785454E+04  0.25500000920E-02 0.  1.
       -2   -1    0    0    0  501  0.00000000000E+00  0.00000000000E+00 -0.13357192025E+04  0.13357192025E+04  0.25500000920E-02 0. -1.
    10030    2    1    2    0    0  0.00000000000E+00  0.00000000000E+00 -0.31884065716E+03  0.23525977479E+04  0.23308918462E+04 0.  0.
        1    1    3    3  502    0  0.11229987985E+04 -0.23352968129E+03  0.48903744557E+02  0.11480653247E+04  0.50400001928E-02 0. -1.
       -1    1    3    3    0  502 -0.11229987985E+04  0.23352968129E+03 -0.36774440172E+03  0.12045324232E+04  0.50400001928E-02 0.  1.
</event>
<event>
 5   0  0.9535394E-05  0.2112486E+04  0.7818609E-02  0.8555763E-01
       -2   -1    0    0    0  501  0.00000000000E+00  0.00000000000E+00  0.46732617083E+03  0.46732617083E+03  0.25500000920E-02 0.  1.
        2   -1    0    0  501    0  0.00000000000E+00  0.00000000000E+00 -0.23873036469E+04  0.23873036469E+04  0.25500000920E-02 0. -1.
    10030    2    1    2    0    0  0.00000000000E+00  0.00000000000E+00 -0.19199774761E+04  0.28546298177E+04  0.21124861864E+04 0.  0.
        2    1    3    3  502    0  0.26232592182E+03 -0.75294399430E+03 -0.23859552218E+02  0.79768968030E+03  0.25500000920E-02 0.  1.
       -2    1    3    3    0  502 -0.26232592182E+03  0.75294399430E+03 -0.18961179239E+04  0.20569401374E+04  0.25500000920E-02 0. -1.
</event>
<event>
 5   0  0.3261500E-05  0.2313926E+04  0.7818609E-02  0.8472451E-01
       -3   -1    0    0    0  501  0.00000000000E+00  0.00000000000E+00  0.17476513128E+04  0.17476513158E+04  0.10100000352E+00 0.  1.
        3   -1    0    0  501    0  0.00000000000E+00  0.00000000000E+00 -0.76592107185E+03  0.76592107851E+03  0.10100000352E+00 0. -1.
    10030    2    1    2    0    0  0.00000000000E+00  0.00000000000E+00  0.98173024098E+03  0.25135723943E+04  0.23139256503E+04 0.  0.
        4    1    3    3  502    0 -0.19788942124E+03 -0.52933876692E+03 -0.60579499470E+03  0.82846179254E+03  0.12699999809E+01 0. -1.
       -4    1    3    3    0  502  0.19788942124E+03  0.52933876692E+03  0.15875252357E+04  0.16851106017E+04  0.12699999809E+01 0.  1.
</event>
<event>
 5   0  0.4005462E-05  0.2320551E+04  0.7818609E-02  0.8469862E-01
        1   -1    0    0  501    0  0.00000000000E+00  0.00000000000E+00  0.16556438997E+04  0.16556438997E+04  0.50400001928E-02 0.  1.
       -1   -1    0    0    0  501  0.00000000000E+00  0.00000000000E+00 -0.81312120329E+03  0.81312120331E+03  0.50400001928E-02 0. -1.
    10030    2    1    2    0    0  0.00000000000E+00  0.00000000000E+00  0.84252269639E+03  0.24687651030E+04  0.23205509345E+04 0.  0.
        4    1    3    3  502    0 -0.10844735141E+04  0.41049381893E+03  0.46447031601E+03  0.12491286025E+04  0.12699999809E+01 0.  1.
       -4    1    3    3    0  502  0.10844735141E+04 -0.41049381893E+03  0.37805238038E+03  0.12196365005E+04  0.12699999809E+01 0. -1.
</event>
<event>
 5   0  0.9312074E-05  0.1804547E+04  0.7818609E-02  0.8703885E-01
       -2   -1    0    0    0  501  0.00000000000E+00  0.00000000000E+00  0.12832772032E+04  0.12832772033E+04  0.25500000920E-02 0. -1.
        2   -1    0    0  501    0  0.00000000000E+00  0.00000000000E+00 -0.63438969789E+03  0.63438969789E+03  0.25500000920E-02 0.  1.
    10030    2    1    2    0    0  0.00000000000E+00  0.00000000000E+00  0.64888750536E+03  0.19176669011E+04  0.18045474084E+04 0.  0.
        4    1    3    3  502    0  0.73892498257E+01  0.23865913425E+03 -0.60020491861E+03  0.64595691853E+03  0.12699999809E+01 0.  1.
       -4    1    3    3    0  502 -0.73892498257E+01 -0.23865913425E+03  0.12490924240E+04  0.12717099826E+04  0.12699999809E+01 0. -1.
</event>
<event>
 5   0  0.9483073E-05  0.2282805E+04  0.7818609E-02  0.8484732E-01
        2   -1    0    0  501    0  0.00000000000E+00  0.00000000000E+00  0.92134855956E+03  0.92134855956E+03  0.25500000920E-02 0.  1.
       -2   -1    0    0    0  501  0.00000000000E+00  0.00000000000E+00 -0.14140134697E+04  0.14140134697E+04  0.25500000920E-02 0. -1.
    10030    2    1    2    0    0  0.00000000000E+00  0.00000000000E+00 -0.49266491015E+03  0.23353620293E+04  0.22828046553E+04 0.  0.
        5    1    3    3  502    0 -0.38784801770E+03  0.18963560753E+03 -0.13272518866E+04  0.13957103599E+04  0.46999998093E+01 0. -1.
       -5    1    3    3    0  502  0.38784801770E+03 -0.18963560753E+03  0.83458697641E+03  0.93965166933E+03  0.46999998093E+01 0.  1.
</event>
<event>
 5   0  0.4139830E-05  0.2284986E+04  0.7818609E-02  0.8483865E-01
       -1   -1    0    0    0  501  0.00000000000E+00  0.00000000000E+00  0.89532664210E+03  0.89532664211E+03  0.50400001928E-02 0.  1.
        1   -1    0    0  501    0  0.00000000000E+00  0.00000000000E+00 -0.14578925047E+04  0.14578925047E+04  0.50400001928E-02 0. -1.
    10030    2    1    2    0    0  0.00000000000E+00  0.00000000000E+00 -0.56256586256E+03  0.23532191468E+04  0.22849857774E+04 0.  0.
        1    1    3    3  502    0  0.73403922685E+03 -0.49205870772E+03  0.46446392422E+03  0.99832965263E+03  0.50400001928E-02 0.  1.
       -1    1    3    3    0  502 -0.73403922685E+03  0.49205870772E+03 -0.10270297868E+04  0.13548894942E+04  0.50400001928E-02 0. -1.
</event>
<event>
 5   0  0.9312074E-05  0.1798373E+04  0.7818609E-02  0.8707165E-01
        2   -1    0    0  501    0  0.00000000000E+00  0.00000000000E+00  0.10809169731E+04  0.10809169731E+04  0.25500000920E-02 0. -1.
       -2   -1    0    0    0  501  0.00000000000E+00  0.00000000000E+00 -0.74800946418E+03  0.74800946418E+03  0.25500000920E-02 0.  1.
    10030    2    1    2    0    0  0.00000000000E+00  0.00000000000E+00  0.33290750894E+03  0.18289264373E+04  0.17983727377E+04 0.  0.
        4    1    3    3  502    0  0.21196443621E+03  0.35285596491E+03 -0.64656458952E+03  0.76647481075E+03  0.12699999809E+01 0.  1.
       -4    1    3    3    0  502 -0.21196443621E+03 -0.35285596491E+03  0.97947209846E+03  0.10624516265E+04  0.12699999809E+01 0. -1.
</event>
<event>
 5   0  0.4095451E-05  0.2289915E+04  0.7818609E-02  0.8481908E-01
       -1   -1    0    0    0  501  0.00000000000E+00  0.00000000000E+00  0.97497513151E+03  0.97497513152E+03  0.50400001928E-02 0. -1.
        1   -1    0    0  501    0  0.00000000000E+00  0.00000000000E+00 -0.13445756699E+04  0.13445756699E+04  0.50400001928E-02 0.  1.
    10030    2    1    2    0    0  0.00000000000E+00  0.00000000000E+00 -0.36960053843E+03  0.23195508015E+04  0.22899151431E+04 0.  0.
        3    1    3    3  502    0 -0.31691130308E+02  0.11353432987E+04 -0.33130645590E+03  0.11831199058E+04  0.10100000352E+00 0. -1.
       -3    1    3    3    0  502  0.31691130308E+02 -0.11353432987E+04 -0.38294082532E+02  0.11364308956E+04  0.10100000352E+00 0.  1.
</event>
<event>
 5   0  0.3885219E-05  0.2280831E+04  0.7818609E-02  0.8485518E-01
       -1   -1    0    0    0  501  0.00000000000E+00  0.00000000000E+00  0.11282690352E+04  0.11282690352E+04  0.50400001928E-02 0. -1.
        1   -1    0    0  501    0  0.00000000000E+00  0.00000000000E+00 -0.11526930317E+04  0.11526930317E+04  0.50400001928E-02 0.  1.
    10030    2    1    2    0    0  0.00000000000E+00  0.00000000000E+00 -0.24423996530E+02  0.22809620670E+04  0.22808313000E+04 0.  0.
        2    1    3    3  502    0  0.45942606405E+03 -0.11894985140E+03  0.10248269529E+04  0.11293766683E+04  0.25500000920E-02 0. -1.
       -2    1    3    3    0  502 -0.45942606405E+03  0.11894985140E+03 -0.10492509494E+04  0.11515853987E+04  0.25500000920E-02 0.  1.
</event>
<event>
 5   0  0.3885219E-05  0.2285826E+04  0.7818609E-02  0.8483531E-01
        1   -1    0    0  501    0  0.00000000000E+00  0.00000000000E+00  0.22230395640E+04  0.22230395640E+04  0.50400001928E-02 0. -1.
       -1   -1    0    0    0  501  0.00000000000E+00  0.00000000000E+00 -0.58759622872E+03  0.58759622874E+03  0.50400001928E-02 0.  1.
    10030    2    1    2    0    0  0.00000000000E+00  0.00000000000E+00  0.16354433353E+04  0.28106357927E+04  0.22858255963E+04 0.  0.
        2    1    3    3  502    0 -0.19092365291E+03 -0.31887032647E+03  0.21466609071E+04  0.21785966071E+04  0.25500000920E-02 0. -1.
       -2    1    3    3    0  502  0.19092365291E+03  0.31887032647E+03 -0.51121757187E+03  0.63203918560E+03  0.25500000920E-02 0.  1.
</event>
<event>
 5   0  0.4139830E-05  0.2284644E+04  0.7818609E-02  0.8484000E-01
        1   -1    0    0  501    0  0.00000000000E+00  0.00000000000E+00  0.15511767988E+04  0.15511767988E+04  0.50400001928E-02 0. -1.
       -1   -1    0    0    0  501  0.00000000000E+00  0.00000000000E+00 -0.84123216534E+03  0.84123216535E+03  0.50400001928E-02 0.  1.
    10030    2    1    2    0    0  0.00000000000E+00  0.00000000000E+00  0.70994463345E+03  0.23924089641E+04  0.22846442325E+04 0.  0.
        1    1    3    3  502    0 -0.18988163442E+03 -0.20345289305E+03  0.15151354120E+04  0.15404815584E+04  0.50400001928E-02 0. -1.
       -1    1    3    3    0  502  0.18988163442E+03  0.20345289305E+03 -0.80519077860E+03  0.85192740579E+03  0.50400001928E-02 0.  1.
</event>
<event>
 5   0  0.4295775E-05  0.2295416E+04  0.7818609E-02  0.8479731E-01
        1   -1    0    0  501    0  0.00000000000E+00  0.00000000000E+00  0.90366779365E+03  0.90366779366E+03  0.50400001928E-02 0.  1.
       -1   -1    0    0    0  501  0.00000000000E+00  0.00000000000E+00 -0.14576531364E+04  0.14576531364E+04  0.50400001928E-02 0. -1.
    10030    2    1    2    0    0  0.00000000000E+00  0.00000000000E+00 -0.55398534273E+03  0.23613209301E+04  0.22954164709E+04 0.  0.
        5    1    3    3  502    0  0.25632731722E+03  0.11156479520E+04 -0.19192591127E+03  0.11607031023E+04  0.46999998093E+01 0. -1.
       -5    1    3    3    0  502 -0.25632731722E+03 -0.11156479520E+04 -0.36205943146E+03  0.12006178277E+04  0.46999998093E+01 0.  1.
</event>
<event>
 5   0  0.3885219E-05  0.2315808E+04  0.7818609E-02  0.8471714E-01
        1   -1    0    0  501    0  0.00000000000E+00  0.00000000000E+00  0.22081068368E+04  0.22081068368E+04  0.50400001928E-02 0.  1.
       -1   -1    0    0    0  501  0.00000000000E+00  0.00000000000E+00 -0.60719068378E+03  0.60719068380E+03  0.50400001928E-02 0. -1.
    10030    2    1    2    0    0  0.00000000000E+00  0.00000000000E+00  0.16009161530E+04  0.28152975206E+04  0.23158081960E+04 0.  0.
        2    1    3    3  502    0 -0.71279574986E+03  0.23410475228E+03  0.18726491203E+04  0.20173491378E+04  0.25500000920E-02 0.  1.
       -2    1    3    3    0  502  0.71279574986E+03 -0.23410475228E+03 -0.27173296730E+03  0.79794838278E+03  0.25500000920E-02 0. -1.
</event>
<event>
 5   0  0.9312074E-05  0.2323812E+04  0.7818609E-02  0.8468591E-01
       -2   -1    0    0    0  501  0.00000000000E+00  0.00000000000E+00  0.99622340787E+03  0.99622340787E+03  0.25500000920E-02 0. -1.
        2   -1    0    0  501    0  0.00000000000E+00  0.00000000000E+00 -0.13551438037E+04  0.13551438037E+04  0.25500000920E-02 0.  1.
    10030    2    1    2    0    0  0.00000000000E+00  0.00000000000E+00 -0.35892039583E+03  0.23513672116E+04  0.23238123662E+04 0.  0.
        4    1    3    3  502    0  0.37920785865E+03  0.89186927799E+03 -0.82799300551E+03  0.12746777786E+04  0.12699999809E+01 0.  1.
       -4    1    3    3    0  502 -0.37920785865E+03 -0.89186927799E+03  0.46907260969E+03  0.10766894330E+04  0.12699999809E+01 0. -1.
</event>
<event>
 5   0  0.9312074E-05  0.2281904E+04  0.7818609E-02  0.8485090E-01
       -2   -1    0    0    0  501  0.00000000000E+00  0.00000000000E+00  0.63276833823E+03  0.63276833823E+03  0.25500000920E-02 0. -1.
        2   -1    0    0  501    0  0.00000000000E+00  0.00000000000E+00 -0.20572642396E+04  0.20572642396E+04  0.25500000920E-02 0.  1.
    10030    2    1    2    0    0  0.00000000000E+00  0.00000000000E+00 -0.14244959013E+04  0.26900325778E+04  0.22819041822E+04 0.  0.
        4    1    3    3  502    0  0.96331447915E+03 -0.50915475434E+03 -0.11112456621E+04  0.15563039176E+04  0.12699999809E+01 0. -1.
       -4    1    3    3    0  502 -0.96331447915E+03  0.50915475434E+03 -0.31325023923E+03  0.11337286602E+04  0.12699999809E+01 0.  1.
</event>
<event>
 5   0  0.9313463E-05  0.2327178E+04  0.7818609E-02  0.8467282E-01
        2   -1    0    0  501    0  0.00000000000E+00  0.00000000000E+00  0.14392050929E+04  0.14392050929E+04  0.25500000920E-02 0. -1.
       -2   -1    0    0    0  501  0.00000000000E+00  0.00000000000E+00 -0.94075467708E+03  0.94075467709E+03  0.25500000920E-02 0.  1.
    10030    2    1    2    0    0  0.00000000000E+00  0.00000000000E+00  0.49845041579E+03  0.23799597700E+04  0.23271776231E+04 0.  0.
        1    1    3    3  502    0  0.30690446237E+02  0.47677118948E+03 -0.83582232700E+03  0.96273133997E+03  0.50400001928E-02 0.  1.
       -1    1    3    3    0  502 -0.30690446237E+02 -0.47677118948E+03  0.13342727428E+04  0.14172284300E+04  0.50400001928E-02 0. -1.
</event>
<event>
 5   0  0.4005462E-05  0.2184765E+04  0.7818609E-02  0.8524796E-01
        1   -1    0    0  501    0  0.00000000000E+00  0.00000000000E+00  0.21917734996E+04  0.21917734997E+04  0.50400001928E-02 0.  1.
       -1   -1    0    0    0  501  0.00000000000E+00  0.00000000000E+00 -0.54444466308E+03  0.54444466310E+03  0.50400001928E-02 0. -1.
    10030    2    1    2    0    0  0.00000000000E+00  0.00000000000E+00  0.16473288366E+04  0.27362181628E+04  0.21847648703E+04 0.  0.
        4    1    3    3  502    0  0.88439550619E+03 -0.28792558103E+03  0.15411985700E+04  0.18000975520E+04  0.12699999809E+01 0.  1.
       -4    1    3    3    0  502 -0.88439550619E+03  0.28792558103E+03  0.10613026660E+03  0.93612061080E+03  0.12699999809E+01 0. -1.
</event>
<event>
 5   0  0.4005462E-05  0.2284012E+04  0.7818609E-02  0.8484252E-01
       -1   -1    0    0    0  501  0.00000000000E+00  0.00000000000E+00  0.80226557750E+03  0.80226557752E+03  0.50400001928E-02 0. -1.
        1   -1    0    0  501    0  0.00000000000E+00  0.00000000000E+00 -0.16256178552E+04  0.16256178552E+04  0.50400001928E-02 0.  1.
    10030    2    1    2    0    0  0.00000000000E+00  0.00000000000E+00 -0.82335227771E+03  0.24278834327E+04  0.22840116002E+04 0.  0.
        4    1    3    3  502    0  0.79038401502E+02 -0.92883305942E+03 -0.11129260653E+04  0.14517520315E+04  0.12699999809E+01 0.  1.
       -4    1    3    3    0  502 -0.79038401502E+02  0.92883305942E+03  0.28957378757E+03  0.97613140127E+03  0.12699999809E+01 0. -1.
</event>
<event>
 5   0  0.9483073E-05  0.2289615E+04  0.7818609E-02  0.8482027E-01
        2   -1    0    0  501    0  0.00000000000E+00  0.00000000000E+00  0.74941838054E+03  0.74941838054E+03  0.25500000920E-02 0. -1.
       -2   -1    0    0    0  501  0.00000000000E+00  0.00000000000E+00 -0.17488012949E+04  0.17488012949E+04  0.25500000920E-02 0.  1.
    10030    2    1    2    0    0  0.00000000000E+00  0.00000000000E+00 -0.99938291438E+03  0.24982196755E+04  0.22896146700E+04 0.  0.
        5    1    3    3  502    0 -0.52568375258E+03  0.56947229338E+03  0.41964148449E+03  0.88134168525E+03  0.46999998093E+01 0. -1.
       -5    1    3    3    0  502  0.52568375258E+03 -0.56947229338E+03 -0.14190243989E+04  0.16168779902E+04  0.46999998093E+01 0.  1.
</event>
<event>
 5   0  0.4295775E-05  0.2262764E+04  0.7818609E-02  0.8492749E-01
        1   -1    0    0  501    0  0.00000000000E+00  0.00000000000E+00  0.78624693134E+03  0.78624693135E+03  0.50400001928E-02 0.  1.
       -1   -1    0    0    0  501  0.00000000000E+00  0.00000000000E+00 -0.16280193032E+04  0.16280193032E+04  0.50400001928E-02 0. -1.
    10030    2    1    2    0    0  0.00000000000E+00  0.00000000000E+00 -0.84177237182E+03  0.24142662345E+04  0.22627639570E+04 0.  0.
        5    1    3    3  502    0 -0.37132733062E+03  0.18139271389E+03 -0.15445953674E+04  0.15989322194E+04  0.46999998093E+01 0. -1.
       -5    1    3    3    0  502  0.37132733062E+03 -0.18139271389E+03  0.70282299559E+03  0.81533401515E+03  0.46999998093E+01 0.  1.
</event>
<event>
 5   0  0.4295775E-05  0.2300918E+04  0.7818609E-02  0.8477559E-01
       -1   -1    0    0    0  501  0.00000000000E+00  0.00000000000E+00  0.97570193619E+03  0.97570193621E+03  0.50400001928E-02 0. -1.
        1   -1    0    0  501    0  0.00000000000E+00  0.00000000000E+00 -0.13565168722E+04  0.13565168722E+04  0.50400001928E-02 0.  1.
    10030    2    1    2    0    0  0.00000000000E+00  0.00000000000E+00 -0.38081493600E+03  0.23322188084E+04  0.23009181982E+04 0.  0.
        5    1    3    3  502    0 -0.86111559498E+03 -0.68857795363E+02  0.57971284900E+03  0.10403607745E+04  0.46999998093E+01 0. -1.
       -5    1    3    3    0  502  0.86111559498E+03  0.68857795363E+02 -0.96052778500E+03  0.12918580339E+04  0.46999998093E+01 0.  1.
</event>
<event>
 5   0  0.9535394E-05  0.2366171E+04  0.7818609E-02  0.8452278E-01
        2   -1    0    0  501    0  0.00000000000E+00  0.00000000000E+00  0.13452479941E+04  0.13452479941E+04  0.25500000920E-02 0.  1.
       -2   -1    0    0    0  501  0.00000000000E+00  0.00000000000E+00 -0.10404706217E+04  0.10404706217E+04  0.25500000920E-02 0. -1.
    10030    2    1    2    0    0  0.00000000000E+00  0.00000000000E+00  0.30477737241E+03  0.23857186159E+04  0.23661707604E+04 0.  0.
        2    1    3    3  502    0  0.73267448936E+03  0.44667472659E+03  0.97358697841E+03  0.12977680160E+04  0.25500000920E-02 0.  1.
       -2    1    3    3    0  502 -0.73267448936E+03 -0.44667472659E+03 -0.66880960600E+03  0.10879505999E+04  0.25500000920E-02 0. -1.
</event>
<event>
 5   0  0.4095451E-05  0.1831583E+04  0.7818609E-02  0.8689682E-01
       -1   -1    0    0    0  501  0.00000000000E+00  0.00000000000E+00  0.66211557865E+03  0.66211557867E+03  0.50400001928E-02 0. -1.
        1   -1    0    0  501    0  0.00000000000E+00  0.00000000000E+00 -0.12666580253E+04  0.12666580253E+04  0.50400001928E-02 0.  1.
    10030    2    1    2    0    0  0.00000000000E+00  0.00000000000E+00 -0.60454244667E+03  0.19287736040E+04  0.18315829344E+04 0.  0.
        3    1    3    3  502    0  0.36172933500E+03  0.15603877760E+03 -0.11728676265E+04  0.12372609634E+04  0.10100000352E+00 0.  1.
       -3    1    3    3    0  502 -0.36172933500E+03 -0.15603877760E+03  0.56832517985E+03  0.69151264064E+03  0.10100000352E+00 0. -1.
</event>
<event>
 5   0  0.9641157E-05  0.1899356E+04  0.7818609E-02  0.8655177E-01
       -2   -1    0    0    0  501  0.00000000000E+00  0.00000000000E+00  0.68481877146E+03  0.68481877146E+03  0.25500000920E-02 0. -1.
        2   -1    0    0  501    0  0.00000000000E+00  0.00000000000E+00 -0.13169742655E+04  0.13169742655E+04  0.25500000920E-02 0.  1.
    10030    2    1    2    0    0  0.00000000000E+00  0.00000000000E+00 -0.63215549403E+03  0.20017930370E+04  0.18993564158E+04 0.  0.
        3    1    3    3  502    0 -0.68445465926E+03 -0.65772558656E+03 -0.34602798314E+03  0.10103546423E+04  0.10100000352E+00 0. -1.
       -3    1    3    3    0  502  0.68445465926E+03  0.65772558656E+03 -0.28612751089E+03  0.99143839470E+03  0.10100000352E+00 0.  1.
</event>
<event>
 5   0  0.9312074E-05  0.1450379E+04  0.7818609E-02  0.8918138E-01
        2   -1    0    0  501    0  0.00000000000E+00  0.00000000000E+00  0.14613882105E+04  0.14613882105E+04  0.25500000920E-02 0.  1.
       -2   -1    0    0    0  501  0.00000000000E+00  0.00000000000E+00 -0.35986310955E+03  0.35986310955E+03  0.25500000920E-02 0. -1.
    10030    2    1    2    0    0  0.00000000000E+00  0.00000000000E+00  0.11015251009E+04  0.18212513200E+04  0.14503788549E+04 0.  0.
        4    1    3    3  502    0 -0.30556500775E+03  0.57462627966E+03  0.95245693317E+03  0.11535775473E+04  0.12699999809E+01 0. -1.
       -4    1    3    3    0  502  0.30556500775E+03 -0.57462627966E+03  0.14906816777E+03  0.66767377272E+03  0.12699999809E+01 0.  1.
</event>
<event>
 5   0  0.9312074E-05  0.2319073E+04  0.7818609E-02  0.8470439E-01
       -2   -1    0    0    0  501  0.00000000000E+00  0.00000000000E+00  0.56415772292E+03  0.56415772292E+03  0.25500000920E-02 0.  1.
        2   -1    0    0  501    0  0.00000000000E+00  0.00000000000E+00 -0.23832421365E+04  0.23832421365E+04  0.25500000920E-02 0. -1.
    10030    2    1    2    0    0  0.00000000000E+00  0.00000000000E+00 -0.18190844136E+04  0.29473998594E+04  0.23190726223E+04 0.  0.
        4    1    3    3  502    0  0.10524682291E+04 -0.64018211373E+01 -0.15279980104E+04  0.18554001966E+04  0.12699999809E+01 0. -1.
       -4    1    3    3    0  502 -0.10524682291E+04  0.64018211373E+01 -0.29108640314E+03  0.10919996628E+04  0.12699999809E+01 0.  1.
</event>
<event>
 5   0  0.3885219E-05  0.2396707E+04  0.7818609E-02  0.8440737E-01
       -1   -1    0    0    0  501  0.00000000000E+00  0.00000000000E+00  0.90503276929E+03  0.90503276930E+03  0.50400001928E-02 0. -1.
        1   -1    0    0  501    0  0.00000000000E+00  0.00000000000E+00 -0.15867392020E+04  0.15867392021E+04  0.50400001928E-02 0.  1.
    10030    2    1    2    0    0  0.00000000000E+00  0.00000000000E+00 -0.68170643276E+03  0.24917719714E+04  0.23967068859E+04 0.  0.
        2    1    3    3  502    0 -0.87243719431E+03 -0.82071288630E+03 -0.30287093538E+03  0.12354946796E+04  0.25500000920E-02 0. -1.
       -2    1    3    3    0  502  0.87243719431E+03  0.82071288630E+03 -0.37883549738E+03  0.12562772918E+04  0.25500000920E-02 0.  1.
</event>
<event>
 5   0  0.9313463E-05  0.2294681E+04  0.7818609E-02  0.8480021E-01
       -2   -1    0    0    0  501  0.00000000000E+00  0.00000000000E+00  0.14958885259E+04  0.14958885259E+04  0.25500000920E-02 0. -1.
        2   -1    0    0  501    0  0.00000000000E+00  0.00000000000E+00 -0.88000524608E+03  0.88000524608E+03  0.25500000920E-02 0.  1.
    10030    2    1    2    0    0  0.00000000000E+00  0.00000000000E+00  0.61588327982E+03  0.23758937720E+04  0.22946805881E+04 0.  0.
        1    1    3    3  502    0 -0.11001526783E+04  0.21055532143E+03  0.56516994775E+03  0.12546260514E+04  0.50400001928E-02 0. -1.
       -1    1    3    3    0  502  0.11001526783E+04 -0.21055532143E+03  0.50713332062E+02  0.11212677205E+04  0.50400001928E-02 0.  1.
</event>
<event>
 5   0  0.4139830E-05  0.2304832E+04  0.7818609E-02  0.8476018E-01
       -1   -1    0    0    0  501  0.00000000000E+00  0.00000000000E+00  0.13060946435E+04  0.13060946435E+04  0.50400001928E-02 0. -1.
        1   -1    0    0  501    0  0.00000000000E+00  0.00000000000E+00 -0.10168194364E+04  0.10168194364E+04  0.50400001928E-02 0.  1.
    10030    2    1    2    0    0  0.00000000000E+00  0.00000000000E+00  0.28927520707E+03  0.23229140799E+04  0.23048318110E+04 0.  0.
        1    1    3    3  502    0  0.91388214927E+03  0.41155934392E+03  0.71787108420E+03  0.12328424757E+04  0.50400001928E-02 0. -1.
       -1    1    3    3    0  502 -0.91388214927E+03 -0.41155934392E+03 -0.42859587713E+03  0.10900716042E+04  0.50400001928E-02 0.  1.
</event>
<event>
 5   0  0.4295775E-05  0.2296121E+04  0.7818609E-02  0.8479452E-01
        1   -1    0    0  501    0  0.00000000000E+00  0.00000000000E+00  0.11782388195E+04  0.11782388195E+04  0.50400001928E-02 0. -1.
       -1   -1    0    0    0  501  0.00000000000E+00  0.00000000000E+00 -0.11186555777E+04  0.11186555777E+04  0.50400001928E-02 0.  1.
    10030    2    1    2    0    0  0.00000000000E+00  0.00000000000E+00  0.59583241785E+02  0.22968943972E+04  0.22961214491E+04 0.  0.
        5    1    3    3  502    0 -0.83697215139E+03  0.50058692425E+03 -0.57614464339E+03  0.11327287367E+04  0.46999998093E+01 0.  1.
       -5    1    3    3    0  502  0.83697215139E+03 -0.50058692425E+03  0.63572788518E+03  0.11641656604E+04  0.46999998093E+01 0. -1.
</event>
<event>
 5   0  0.9313463E-05  0.2156812E+04  0.7818609E-02  0.8536622E-01
       -2   -1    0    0    0  501  0.00000000000E+00  0.00000000000E+00  0.56852988684E+03  0.56852988685E+03  0.25500000920E-02 0.  1.
        2   -1    0    0  501    0  0.00000000000E+00  0.00000000000E+00 -0.20455564273E+04  0.20455564273E+04  0.25500000920E-02 0. -1.
    10030    2    1    2    0    0  0.00000000000E+00  0.00000000000E+00 -0.14770265405E+04  0.26140863142E+04  0.21568124296E+04 0.  0.
        1    1    3    3  502    0  0.84657972435E+03 -0.66700129137E+03 -0.69361946023E+03  0.12816769905E+04  0.50400001928E-02 0.  1.
       -1    1    3    3    0  502 -0.84657972435E+03  0.66700129137E+03 -0.78340708024E+03  0.13324093237E+04  0.50400001928E-02 0. -1.
</event>
<event>
 5   0  0.4295775E-05  0.2312308E+04  0.7818609E-02  0.8473084E-01
        1   -1    0    0  501    0  0.00000000000E+00  0.00000000000E+00  0.15890114320E+04  0.15890114320E+04  0.50400001928E-02 0. -1.
       -1   -1    0    0    0  501  0.00000000000E+00  0.00000000000E+00 -0.84120952225E+03  0.84120952227E+03  0.50400001928E-02 0.  1.
    10030    2    1    2    0    0  0.00000000000E+00  0.00000000000E+00  0.74780190970E+03  0.24302209542E+04  0.23123075466E+04 0.  0.
        5    1    3    3  502    0  0.97264736640E+03  0.51363749308E+03  0.74815376718E+03  0.13302715975E+04  0.46999998093E+01 0. -1.
       -5    1    3    3    0  502 -0.97264736640E+03 -0.51363749308E+03 -0.35185747235E+00  0.10999493568E+04  0.46999998093E+01 0.  1.
</event>
<event>
 5   0  0.4095451E-05  0.2325205E+04  0.7818609E-02  0.8468049E-01
        1   -1    0    0  501    0  0.00000000000E+00  0.00000000000E+00  0.13435992051E+04  0.13435992051E+04  0.50400001928E-02 0.  1.
       -1   -1    0    0    0  501  0.00000000000E+00  0.00000000000E+00 -0.10059883293E+04  0.10059883293E+04  0.50400001928E-02 0. -1.
    10030    2    1    2    0    0  0.00000000000E+00  0.00000000000E+00  0.33761087586E+03  0.23495875344E+04  0.23252054702E+04 0.  0.
        3    1    3    3  502    0 -0.73937356408E+03  0.63399066041E+02 -0.73553853201E+03  0.10448491045E+04  0.10100000352E+00 0. -1.
       -3    1    3    3    0  502  0.73937356408E+03 -0.63399066041E+02  0.10731494079E+04  0.13047384300E+04  0.10100000352E+00 0.  1.
</event>
<event>
 5   0  0.4005462E-05  0.2326699E+04  0.7818609E-02  0.8467468E-01
       -1   -1    0    0    0  501  0.00000000000E+00  0.00000000000E+00  0.60406608284E+03  0.60406608286E+03  0.50400001928E-02 0. -1.
        1   -1    0    0  501    0  0.00000000000E+00  0.00000000000E+00 -0.22404536935E+04  0.22404536935E+04  0.50400001928E-02 0.  1.
    10030    2    1    2    0    0  0.00000000000E+00  0.00000000000E+00 -0.16363876107E+04  0.28445197764E+04  0.23266990235E+04 0.  0.
        4    1    3    3  502    0 -0.51223287929E+03 -0.63811091558E+03 -0.18291614097E+04  0.20038465856E+04  0.12699999809E+01 0.  1.
       -4    1    3    3    0  502  0.51223287929E+03  0.63811091558E+03  0.19277379898E+03  0.84067319077E+03  0.12699999809E+01 0. -1.
</event>
<event>
 5   0  0.9483073E-05  0.2487082E+04  0.7818609E-02  0.8407602E-01
        2   -1    0    0  501    0  0.00000000000E+00  0.00000000000E+00  0.81069351951E+03  0.81069351952E+03  0.25500000920E-02 0. -1.
       -2   -1    0    0    0  501  0.00000000000E+00  0.00000000000E+00 -0.19074951260E+04  0.19074951260E+04  0.25500000920E-02 0.  1.
    10030    2    1    2    0    0  0.00000000000E+00  0.00000000000E+00 -0.10968016065E+04  0.27181886455E+04  0.24870817736E+04 0.  0.
        5    1    3    3  502    0  0.25569991701E+03  0.84046250695E+03  0.41350310274E+03  0.97096167747E+03  0.46999998093E+01 0. -1.
       -5    1    3    3    0  502 -0.25569991701E+03 -0.84046250695E+03 -0.15103047092E+04  0.17472269680E+04  0.46999998093E+01 0.  1.
</event>
<event>
 5   0  0.9313463E-05  0.2286040E+04  0.7818609E-02  0.8483446E-01
        2   -1    0    0  501    0  0.00000000000E+00  0.00000000000E+00  0.17341234112E+04  0.17341234112E+04  0.25500000920E-02 0. -1.
       -2   -1    0    0    0  501  0.00000000000E+00  0.00000000000E+00 -0.75340337580E+03  0.75340337580E+03  0.25500000920E-02 0.  1.
    10030    2    1    2    0    0  0.00000000000E+00  0.00000000000E+00  0.98072003538E+03  0.24875267870E+04  0.22860397477E+04 0.  0.
        1    1    3    3  502    0 -0.70019803080E+03  0.87108197944E+03  0.75113504869E+03  0.13465752703E+04  0.50400001928E-02 0.  1.
       -1    1    3    3    0  502  0.70019803080E+03 -0.87108197944E+03  0.22958498669E+03  0.11409515167E+04  0.50400001928E-02 0. -1.
</event>
<event>
 5   0  0.3885219E-05  0.2339883E+04  0.7818609E-02  0.8462360E-01
       -1   -1    0    0    0  501  0.00000000000E+00  0.00000000000E+00  0.12617979353E+04  0.12617979353E+04  0.50400001928E-02 0. -1.
        1   -1    0    0  501    0  0.00000000000E+00  0.00000000000E+00 -0.10847722143E+04  0.10847722143E+04  0.50400001928E-02 0.  1.
    10030    2    1    2    0    0  0.00000000000E+00  0.00000000000E+00  0.17702572100E+03  0.23465701497E+04  0.23398831940E+04 0.  0.
        2    1    3    3  502    0 -0.74281407114E+03  0.35039462546E+03 -0.74706343475E+03  0.11102490321E+04  0.25500000920E-02 0.  1.
       -2    1    3    3    0  502  0.74281407114E+03 -0.35039462546E+03  0.92408915575E+03  0.12363211175E+04  0.25500000920E-02 0. -1.
</event>
<event>
 5   0  0.4295775E-05  0.1907865E+04  0.7818609E-02  0.8650952E-01
        1   -1    0    0  501    0  0.00000000000E+00  0.00000000000E+00  0.90531181222E+03  0.90531181224E+03  0.50400001928E-02 0. -1.
       -1   -1    0    0    0  501  0.00000000000E+00  0.00000000000E+00 -0.10051640796E+04  0.10051640796E+04  0.50400001928E-02 0.  1.
    10030    2    1    2    0    0  0.00000000000E+00  0.00000000000E+00 -0.99852267330E+02  0.19104758918E+04  0.19078646854E+04 0.  0.
        5    1    3    3  502    0  0.79564541421E+03  0.23838459918E+03  0.41984917169E+03  0.93068483347E+03  0.46999998093E+01 0. -1.
       -5    1    3    3    0  502 -0.79564541421E+03 -0.23838459918E+03 -0.51970143902E+03  0.97979105834E+03  0.46999998093E+01 0.  1.
</event>
<event>
 5   0  0.9641157E-05  0.1712165E+04  0.7818609E-02  0.8754457E-01
       -2   -1    0    0    0  501  0.00000000000E+00  0.00000000000E+00  0.63761049769E+03  0.63761049769E+03  0.25500000920E-02 0.  1.
        2   -1    0    0  501    0  0.00000000000E+00  0.00000000000E+00 -0.11494115785E+04  0.11494115785E+04  0.25500000920E-02 0. -1.
    10030    2    1    2    0    0  0.00000000000E+00  0.00000000000E+00 -0.51180108082E+03  0.17870220762E+04  0.17121645816E+04 0.  0.
        3    1    3    3  502    0 -0.79657361761E+03 -0.30789752760E+03 -0.31805640392E+03  0.91131240639E+03  0.10100000352E+00 0. -1.
       -3    1    3    3    0  502  0.79657361761E+03  0.30789752760E+03 -0.19374467690E+03  0.87570966981E+03  0.10100000352E+00 0.  1.
</event>
<event>
 5   0  0.9313463E-05  0.2369889E+04  0.7818609E-02  0.8450863E-01
       -2   -1    0    0    0  501  0.00000000000E+00  0.00000000000E+00  0.10966109063E+04  0.10966109063E+04  0.25500000920E-02 0. -1.
        2   -1    0    0  501    0  0.00000000000E+00  0.00000000000E+00 -0.12803938438E+04  0.12803938438E+04  0.25500000920E-02 0.  1.
    10030    2    1    2    0    0  0.00000000000E+00  0.00000000000E+00 -0.18378293753E+03  0.23770047500E+04  0.23698893252E+04 0.  0.
        1    1    3    3  502    0  0.11253276231E+04  0.37108526291E+03 -0.97134189591E+02  0.11889077266E+04  0.50400001928E-02 0.  1.
       -1    1    3    3    0  502 -0.11253276231E+04 -0.37108526291E+03 -0.86648747940E+02  0.11880970234E+04  0.50400001928E-02 0. -1.
</event>
<event>
 5   0  0.3261500E-05  0.2323328E+04  0.7818609E-02  0.8468780E-01
        3   -1    0    0  501    0  0.00000000000E+00  0.00000000000E+00  0.11103592562E+04  0.11103592608E+04  0.10100000352E+00 0.  1.
       -3   -1    0    0    0  501  0.00000000000E+00  0.00000000000E+00 -0.12153393418E+04  0.12153393460E+04  0.10100000352E+00 0. -1.
    10030    2    1    2    0    0  0.00000000000E+00  0.00000000000E+00 -0.10498008560E+03  0.23256986067E+04  0.23233280420E+04 0.  0.
        2    1    3    3  502    0 -0.11542676955E+02  0.17182529182E+03 -0.12024903849E+04  0.12147593548E+04  0.25500000920E-02 0. -1.
       -2    1    3    3    0  502  0.11542676955E+02 -0.17182529182E+03  0.10975102993E+04  0.11109392519E+04  0.25500000920E-02 0.  1.
</event>
<event>
 5   0  0.3885219E-05  0.2160622E+04  0.7818609E-02  0.8534999E-01
        1   -1    0    0  501    0  0.00000000000E+00  0.00000000000E+00  0.20740733946E+04  0.20740733946E+04  0.50400001928E-02 0. -1.
       -1   -1    0    0    0  501  0.00000000000E+00  0.00000000000E+00 -0.56269578237E+03  0.56269578239E+03  0.50400001928E-02 0.  1.
    10030    2    1    2    0    0  0.00000000000E+00  0.00000000000E+00  0.15113776122E+04  0.26367691770E+04  0.21606224580E+04 0.  0.
        2    1    3    3  502    0  0.82728771357E+03  0.34288253437E+03  0.18296632034E+02  0.89571656239E+03  0.25500000920E-02 0.  1.
       -2    1    3    3    0  502 -0.82728771357E+03 -0.34288253437E+03  0.14930809802E+04  0.17410526146E+04  0.25500000920E-02 0. -1.
</event>
<event>
 5   0  0.4295775E-05  0.2328924E+04  0.7818609E-02  0.8466603E-01
        1   -1    0    0  501    0  0.00000000000E+00  0.00000000000E+00  0.75615670870E+03  0.75615670871E+03  0.50400001928E-02 0.  1.
       -1   -1    0    0    0  501  0.00000000000E+00  0.00000000000E+00 -0.17932412787E+04  0.17932412787E+04  0.50400001928E-02 0. -1.
    10030    2    1    2    0    0  0.00000000000E+00  0.00000000000E+00 -0.10370845700E+04  0.25493979874E+04  0.23289237199E+04 0.  0.
        5    1    3    3  502    0  0.91098430540E+03 -0.72375524846E+03 -0.46678788716E+03  0.12536455185E+04  0.46999998093E+01 0. -1.
       -5    1    3    3    0  502 -0.91098430540E+03  0.72375524846E+03 -0.57029668283E+03  0.12957524690E+04  0.46999998093E+01 0.  1.
</event>
<event>
 5   0  0.3885219E-05  0.2299424E+04  0.7818609E-02  0.8478148E-01
        1   -1    0    0  501    0  0.00000000000E+00  0.00000000000E+00  0.27391510593E+04  0.27391510593E+04  0.50400001928E-02 0.  1.
       -1   -1    0    0    0  501  0.00000000000E+00  0.00000000000E+00 -0.48257183831E+03  0.48257183833E+03  0.50400001928E-02 0. -1.
    10030    2    1    2    0    0  0.00000000000E+00  0.00000000000E+00  0.22565792210E+04  0.32217228976E+04  0.22994235470E+04 0.  0.
        2    1    3    3  502    0 -0.89728740105E+03 -0.29633754839E+03  0.20458728674E+04  0.22535608295E+04  0.25500000920E-02 0.  1.
       -2    1    3    3    0  502  0.89728740105E+03  0.29633754839E+03  0.21070635354E+03  0.96816206809E+03  0.25500000920E-02 0. -1.
</event>
<event>
 5   0  0.4295775E-05  0.2300328E+04  0.7818609E-02  0.8477792E-01
       -1   -1    0    0    0  501  0.00000000000E+00  0.00000000000E+00  0.13349039165E+04  0.13349039165E+04  0.50400001928E-02 0. -1.
        1   -1    0    0  501    0  0.00000000000E+00  0.00000000000E+00 -0.99099033126E+03  0.99099033128E+03  0.50400001928E-02 0.  1.
    10030    2    1    2    0    0  0.00000000000E+00  0.00000000000E+00  0.34391358523E+03  0.23258942478E+04  0.23003276936E+04 0.  0.
        5    1    3    3  502    0  0.32410739845E+03 -0.44183309489E+03  0.11944292066E+04  0.13141329115E+04  0.46999998093E+01 0. -1.
       -5    1    3    3    0  502 -0.32410739845E+03  0.44183309489E+03 -0.85051562135E+03  0.10117613363E+04  0.46999998093E+01 0.  1.
</event>
<event>
 5   0  0.3885219E-05  0.2235898E+04  0.7818609E-02  0.8503633E-01
        1   -1    0    0  501    0  0.00000000000E+00  0.00000000000E+00  0.15717986906E+04  0.15717986906E+04  0.50400001928E-02 0.  1.
       -1   -1    0    0    0  501  0.00000000000E+00  0.00000000000E+00 -0.79514659863E+03  0.79514659865E+03  0.50400001928E-02 0. -1.
    10030    2    1    2    0    0  0.00000000000E+00  0.00000000000E+00  0.77665209194E+03  0.23669452892E+04  0.22358983721E+04 0.  0.
        2    1    3    3  502    0  0.88701110706E+03  0.45696592715E+02 -0.33038661636E+03  0.94764560829E+03  0.25500000920E-02 0. -1.
       -2    1    3    3    0  502 -0.88701110706E+03 -0.45696592715E+02  0.11070387083E+04  0.14192996809E+04  0.25500000920E-02 0.  1.
</event>
<event>
 5   0  0.9641157E-05  0.2293780E+04  0.7818609E-02  0.8480377E-01
       -2   -1    0    0    0  501  0.00000000000E+00  0.00000000000E+00  0.11554836638E+04  0.11554836638E+04  0.25500000920E-02 0.  1.
        2   -1    0    0  501    0  0.00000000000E+00  0.00000000000E+00 -0.11383605710E+04  0.11383605710E+04  0.25500000920E-02 0. -1.
    10030    2    1    2    0    0  0.00000000000E+00  0.00000000000E+00  0.17123092786E+02  0.22938442348E+04  0.22937803237E+04 0.  0.
        3    1    3    3  502    0  0.68636669562E+03 -0.90428655400E+03  0.17142682382E+03  0.11481378744E+04  0.10100000352E+00 0.  1.
       -3    1    3    3    0  502 -0.68636669562E+03  0.90428655400E+03 -0.15430373104E+03  0.11457063604E+04  0.10100000352E+00 0. -1.
</event>
<event>
 5   0  0.9535394E-05  0.2212322E+04  0.7818609E-02  0.8513317E-01
        2   -1    0    0  501    0  0.00000000000E+00  0.00000000000E+00  0.11717096547E+04  0.11717096547E+04  0.25500000920E-02 0.  1.
       -2   -1    0    0    0  501  0.00000000000E+00  0.00000000000E+00 -0.10442789279E+04  0.10442789279E+04  0.25500000920E-02 0. -1.
    10030    2    1    2    0    0  0.00000000000E+00  0.00000000000E+00  0.12743072679E+03  0.22159885827E+04  0.22123215879E+04 0.  0.
        2    1    3    3  502    0 -0.29147463116E+03 -0.10183596817E+04 -0.25552563699E+03  0.10896362939E+04  0.25500000920E-02 0. -1.
       -2    1    3    3    0  502  0.29147463116E+03  0.10183596817E+04  0.38295636378E+03  0.11263522888E+04  0.25500000920E-02 0.  1.
</event>
<event>
 5   0  0.9313463E-05  0.2289634E+04  0.7818609E-02  0.8482020E-01
        2   -1    0    0  501    0  0.00000000000E+00  0.00000000000E+00  0.27109849180E+04  0.27109849180E+04  0.25500000920E-02 0.  1.
       -2   -1    0    0    0  501  0.00000000000E+00  0.00000000000E+00 -0.48344260068E+03  0.48344260069E+03  0.25500000920E-02 0. -1.
    10030    2    1    2    0    0  0.00000000000E+00  0.00000000000E+00  0.22275423173E+04  0.31944275187E+04  0.22896336818E+04 0.  0.
        1    1    3    3  502    0  0.95660417684E+03  0.41502351333E+02  0.23826287643E+03  0.98670319480E+03  0.50400001928E-02 0. -1.
       -1    1    3    3    0  502 -0.95660417684E+03 -0.41502351333E+02  0.19892794409E+04  0.22077243239E+04  0.50400001928E-02 0.  1.
</event>
<event>
 5   0  0.3885219E-05  0.2243914E+04  0.7818609E-02  0.8500369E-01
       -1   -1    0    0    0  501  0.00000000000E+00  0.00000000000E+00  0.11376036567E+04  0.11376036567E+04  0.50400001928E-02 0. -1.
        1   -1    0    0  501    0  0.00000000000E+00  0.00000000000E+00 -0.11065251478E+04  0.11065251478E+04  0.50400001928E-02 0.  1.
    10030    2    1    2    0    0  0.00000000000E+00  0.00000000000E+00  0.31078508904E+02  0.22441288045E+04  0.22439135941E+04 0.  0.
        2    1    3    3  502    0 -0.31557134008E+03 -0.32451106215E+02 -0.10607371379E+04  0.11071592572E+04  0.25500000920E-02 0.  1.
       -2    1    3    3    0  502  0.31557134008E+03  0.32451106215E+02  0.10918156468E+04  0.11369695474E+04  0.25500000920E-02 0. -1.
</event>
<event>
 5   0  0.9312074E-05  0.2281363E+04  0.7818609E-02  0.8485306E-01
        2   -1    0    0  501    0  0.00000000000E+00  0.00000000000E+00  0.11557768844E+04  0.11557768844E+04  0.25500000920E-02 0.  1.
       -2   -1    0    0    0  501  0.00000000000E+00  0.00000000000E+00 -0.11257835826E+04  0.11257835826E+04  0.25500000920E-02 0. -1.
    10030    2    1    2    0    0  0.00000000000E+00  0.00000000000E+00  0.29993301816E+02  0.22815604669E+04  0.22813633130E+04 0.  0.
        4    1    3    3  502    0 -0.19845961525E+03  0.37205809979E+03 -0.10449720963E+04  0.11268459271E+04  0.12699999809E+01 0. -1.
       -4    1    3    3    0  502  0.19845961525E+03 -0.37205809979E+03  0.10749653981E+04  0.11547145398E+04  0.12699999809E+01 0.  1.
</event>
<event>
 5   0  0.4139830E-05  0.2245550E+04  0.7818609E-02  0.8499705E-01
       -1   -1    0    0    0  501  0.00000000000E+00  0.00000000000E+00  0.85789450945E+03  0.85789450947E+03  0.50400001928E-02 0.  1.
        1   -1    0    0  501    0  0.00000000000E+00  0.00000000000E+00 -0.14694387226E+04  0.14694387226E+04  0.50400001928E-02 0. -1.
    10030    2    1    2    0    0  0.00000000000E+00  0.00000000000E+00 -0.61154421315E+03  0.23273332321E+04  0.22455497430E+04 0.  0.
        1    1    3    3  502    0  0.30902914648E+03 -0.13051524786E+03  0.80474151497E+03  0.87186131308E+03  0.50400001928E-02 0.  1.
       -1    1    3    3    0  502 -0.30902914648E+03  0.13051524786E+03 -0.14162857281E+04  0.14554719190E+04  0.50400001928E-02 0. -1.
</event>
<event>
 5   0  0.4005462E-05  0.2251153E+04  0.7818609E-02  0.8497434E-01
       -1   -1    0    0    0  501  0.00000000000E+00  0.00000000000E+00  0.86570640595E+03  0.86570640597E+03  0.50400001928E-02 0. -1.
        1   -1    0    0  501    0  0.00000000000E+00  0.00000000000E+00 -0.14634554418E+04  0.14634554419E+04  0.50400001928E-02 0.  1.
    10030    2    1    2    0    0  0.00000000000E+00  0.00000000000E+00 -0.59774903590E+03  0.23291618478E+04  0.22511532608E+04 0.  0.
        4    1    3    3  502    0  0.11135226591E+04  0.16424247162E+03 -0.30258143147E+03  0.11655322550E+04  0.12699999809E+01 0.  1.
       -4    1    3    3    0  502 -0.11135226591E+04 -0.16424247162E+03 -0.29516760443E+03  0.11636295929E+04  0.12699999809E+01 0. -1.
</event>
<event>
 5   0  0.9641157E-05  0.2296726E+04  0.7818609E-02  0.8479213E-01
       -2   -1    0    0    0  501  0.00000000000E+00  0.00000000000E+00  0.84048231831E+03  0.84048231831E+03  0.25500000920E-02 0.  1.
        2   -1    0    0  501    0  0.00000000000E+00  0.00000000000E+00 -0.15690252154E+04  0.15690252155E+04  0.25500000920E-02 0. -1.
    10030    2    1    2    0    0  0.00000000000E+00  0.00000000000E+00 -0.72854289714E+03  0.24095075338E+04  0.22967263229E+04 0.  0.
        3    1    3    3  502    0 -0.29502190607E+03  0.71737203349E+03  0.52411526022E+03  0.93613961335E+03  0.10100000352E+00 0.  1.
       -3    1    3    3    0  502  0.29502190607E+03 -0.71737203349E+03 -0.12526581574E+04  0.14733679204E+04  0.10100000352E+00 0. -1.
</event>
<event>
 5   0  0.4295775E-05  0.2255320E+04  0.7818609E-02  0.8495749E-01
        1   -1    0    0  501    0  0.00000000000E+00  0.00000000000E+00  0.20370957026E+04  0.20370957026E+04  0.50400001928E-02 0.  1.
       -1   -1    0    0    0  501  0.00000000000E+00  0.00000000000E+00 -0.62423025315E+03  0.62423025317E+03  0.50400001928E-02 0. -1.
    10030    2    1    2    0    0  0.00000000000E+00  0.00000000000E+00  0.14128654494E+04  0.26613259557E+04  0.22553197256E+04 0.  0.
        5    1    3    3  502    0 -0.54430198839E+03 -0.75537099177E+03 -0.44291671323E+02  0.93211256397E+03  0.46999998093E+01 0. -1.
       -5    1    3    3    0  502  0.54430198839E+03  0.75537099177E+03  0.14571571207E+04  0.17292133918E+04  0.46999998093E+01 0.  1.
</event>
<event>
 5   0  0.9641157E-05  0.2322615E+04  0.7818609E-02  0.8469057E-01
       -2   -1    0    0    0  501  0.00000000000E+00  0.00000000000E+00  0.53879365570E+03  0.53879365571E+03  0.25500000920E-02 0. -1.
        2   -1    0    0  501    0  0.00000000000E+00  0.00000000000E+00 -0.25030641254E+04  0.25030641254E+04  0.25500000920E-02 0.  1.
    10030    2    1    2    0    0  0.00000000000E+00  0.00000000000E+00 -0.19642704697E+04  0.30418577811E+04  0.23226149665E+04 0.  0.
        3    1    3    3  502    0 -0.53679206755E+03 -0.77099002416E+03 -0.88038861524E+02  0.94356885943E+03  0.10100000352E+00 0. -1.
       -3    1    3    3    0  502  0.53679206755E+03  0.77099002416E+03 -0.18762316082E+04  0.20982889217E+04  0.10100000352E+00 0.  1.
</event>
<event>
 5   0  0.4005462E-05  0.2245123E+04  0.7818609E-02  0.8499878E-01
        1   -1    0    0  501    0  0.00000000000E+00  0.00000000000E+00  0.14568672995E+04  0.14568672995E+04  0.50400001928E-02 0.  1.
       -1   -1    0    0    0  501  0.00000000000E+00  0.00000000000E+00 -0.86496814398E+03  0.86496814400E+03  0.50400001928E-02 0. -1.
    10030    2    1    2    0    0  0.00000000000E+00  0.00000000000E+00  0.59189915552E+03  0.23218354435E+04  0.22451225393E+04 0.  0.
        4    1    3    3  502    0 -0.11268502420E+03 -0.98292170533E+03  0.84445806601E+03  0.13007474896E+04  0.12699999809E+01 0.  1.
       -4    1    3    3    0  502  0.11268502420E+03  0.98292170533E+03 -0.25255891049E+03  0.10210879539E+04  0.12699999809E+01 0. -1.
</event>
<event>
 5   0  0.4295775E-05  0.2315095E+04  0.7818609E-02  0.8471993E-01
        1   -1    0    0  501    0  0.00000000000E+00  0.00000000000E+00  0.14072830078E+04  0.14072830079E+04  0.50400001928E-02 0.  1.
       -1   -1    0    0    0  501  0.00000000000E+00  0.00000000000E+00 -0.95212976689E+03  0.95212976690E+03  0.50400001928E-02 0. -1.
    10030    2    1    2    0    0  0.00000000000E+00  0.00000000000E+00  0.45515324096E+03  0.23594127748E+04  0.23150948510E+04 0.  0.
        5    1    3    3  502    0 -0.15783511016E+03 -0.81707612171E+03  0.10475711720E+04  0.13378911619E+04  0.46999998093E+01 0.  1.
       -5    1    3    3    0  502  0.15783511016E+03  0.81707612171E+03 -0.59241793099E+03  0.10215216129E+04  0.46999998093E+01 0. -1.
</event>
<event>
 5   0  0.9483073E-05  0.2279475E+04  0.7818609E-02  0.8486058E-01
        2   -1    0    0  501    0  0.00000000000E+00  0.00000000000E+00  0.11713251110E+04  0.11713251110E+04  0.25500000920E-02 0. -1.
       -2   -1    0    0    0  501  0.00000000000E+00  0.00000000000E+00 -0.11090013166E+04  0.11090013166E+04  0.25500000920E-02 0.  1.
    10030    2    1    2    0    0  0.00000000000E+00  0.00000000000E+00  0.62323794366E+02  0.22803264276E+04  0.22794745800E+04 0.  0.
        5    1    3    3  502    0  0.82361581612E+03 -0.11008140963E+03 -0.74920530264E+03  0.11188349319E+04  0.46999998093E+01 0.  1.
       -5    1    3    3    0  502 -0.82361581612E+03  0.11008140963E+03  0.81152909700E+03  0.11614914957E+04  0.46999998093E+01 0. -1.
</event>
<event>
 5   0  0.4139830E-05  0.2337446E+04  0.7818609E-02  0.8463301E-01
        1   -1    0    0  501    0  0.00000000000E+00  0.00000000000E+00  0.15215149829E+04  0.15215149829E+04  0.50400001928E-02 0. -1.
       -1   -1    0    0    0  501  0.00000000000E+00  0.00000000000E+00 -0.89773256390E+03  0.89773256391E+03  0.50400001928E-02 0.  1.
    10030    2    1    2    0    0  0.00000000000E+00  0.00000000000E+00  0.62378241899E+03  0.24192475468E+04  0.23374460821E+04 0.  0.
        1    1    3    3  502    0 -0.42050345035E+03 -0.11530520105E+03  0.14341797581E+04  0.14989963374E+04  0.50400001928E-02 0. -1.
       -1    1    3    3    0  502  0.42050345035E+03  0.11530520105E+03 -0.81039733908E+03  0.92025120938E+03  0.50400001928E-02 0.  1.
</event>
<event>
 5   0  0.9483073E-05  0.2300253E+04  0.7818609E-02  0.8477821E-01
       -2   -1    0    0    0  501  0.00000000000E+00  0.00000000000E+00  0.58421185145E+03  0.58421185146E+03  0.25500000920E-02 0. -1.
        2   -1    0    0  501    0  0.00000000000E+00  0.00000000000E+00 -0.22642314150E+04  0.22642314150E+04  0.25500000920E-02 0.  1.
    10030    2    1    2    0    0  0.00000000000E+00  0.00000000000E+00 -0.16800195636E+04  0.28484432665E+04  0.23002528792E+04 0.  0.
        5    1    3    3  502    0 -0.41394485676E+03  0.10526189821E+04 -0.58200055158E+03  0.12720470895E+04  0.46999998093E+01 0.  1.
       -5    1    3    3    0  502  0.41394485676E+03 -0.10526189821E+04 -0.10980190120E+04  0.15763961770E+04  0.46999998093E+01 0. -1.
</event>
<event>
 5   0  0.3885219E-05  0.2309097E+04  0.7818609E-02  0.8474343E-01
        1   -1    0    0  501    0  0.00000000000E+00  0.00000000000E+00  0.25956189980E+04  0.25956189980E+04  0.50400001928E-02 0. -1.
       -1   -1    0    0    0  501  0.00000000000E+00  0.00000000000E+00 -0.51355065973E+03  0.51355065976E+03  0.50400001928E-02 0.  1.
    10030    2    1    2    0    0  0.00000000000E+00  0.00000000000E+00  0.20820683383E+04  0.31091696578E+04  0.23090966622E+04 0.  0.
        2    1    3    3  502    0  0.29134077475E+03 -0.79284057900E+03  0.21008371635E+04  0.22642862933E+04  0.25500000920E-02 0. -1.
       -2    1    3    3    0  502 -0.29134077475E+03  0.79284057900E+03 -0.18768825167E+02  0.84488336447E+03  0.25500000920E-02 0.  1.
</event>
<event>
 5   0  0.4095451E-05  0.2286874E+04  0.7818609E-02  0.8483115E-01
        1   -1    0    0  501    0  0.00000000000E+00  0.00000000000E+00  0.80836052163E+03  0.80836052165E+03  0.50400001928E-02 0.  1.
       -1   -1    0    0    0  501  0.00000000000E+00  0.00000000000E+00 -0.16174070330E+04  0.16174070330E+04  0.50400001928E-02 0. -1.
    10030    2    1    2    0    0  0.00000000000E+00  0.00000000000E+00 -0.80904651133E+03  0.24257675546E+04  0.22868738425E+04 0.  0.
        3    1    3    3  502    0  0.10377119907E+04 -0.28364791086E+03  0.64971481816E+01  0.10757994869E+04  0.10100000352E+00 0. -1.
       -3    1    3    3    0  502 -0.10377119907E+04  0.28364791086E+03 -0.81554365951E+03  0.13499680677E+04  0.10100000352E+00 0.  1.
</event>
<event>
 5   0  0.4295775E-05  0.2341575E+04  0.7818609E-02  0.8461707E-01
        1   -1    0    0  501    0  0.00000000000E+00  0.00000000000E+00  0.13754677455E+04  0.13754677455E+04  0.50400001928E-02 0. -1.
       -1   -1    0    0    0  501  0.00000000000E+00  0.00000000000E+00 -0.99656499588E+03  0.99656499589E+03  0.50400001928E-02 0.  1.
    10030    2    1    2    0    0  0.00000000000E+00  0.00000000000E+00  0.37890274963E+03  0.23720327414E+04  0.23415746908E+04 0.  0.
        5    1    3    3  502    0  0.74527775693E+03  0.84429283032E+03 -0.13479269083E+03  0.11342224111E+04  0.46999998093E+01 0.  1.
       -5    1    3    3    0  502 -0.74527775693E+03 -0.84429283032E+03  0.51369544046E+03  0.12378103303E+04  0.46999998093E+01 0. -1.
</event>
<event>
 5   0  0.9535394E-05  0.2183383E+04  0.7818609E-02  0.8525376E-01
        2   -1    0    0  501    0  0.00000000000E+00  0.00000000000E+00  0.95479758797E+03  0.95479758798E+03  0.25500000920E-02 0. -1.
       -2   -1    0    0    0  501  0.00000000000E+00  0.00000000000E+00 -0.12482123984E+04  0.12482123984E+04  0.25500000920E-02 0.  1.
    10030    2    1    2    0    0  0.00000000000E+00  0.00000000000E+00 -0.29341481046E+03  0.22030099864E+04  0.21833828682E+04 0.  0.
        2    1    3    3  502    0  0.48671168209E+03  0.21227226427E+03  0.81572371210E+03  0.97332057933E+03  0.25500000920E-02 0. -1.
       -2    1    3    3    0  502 -0.48671168209E+03 -0.21227226427E+03 -0.11091385226E+04  0.12296894071E+04  0.25500000920E-02 0.  1.
</event>
<event>
 5   0  0.9313463E-05  0.2469144E+04  0.7818609E-02  0.8414061E-01
       -2   -1    0    0    0  501  0.00000000000E+00  0.00000000000E+00  0.14129996444E+04  0.14129996444E+04  0.25500000920E-02 0. -1.
        2   -1    0    0  501    0  0.00000000000E+00  0.00000000000E+00 -0.10786751868E+04  0.10786751868E+04  0.25500000920E-02 0.  1.
    10030    2    1    2    0    0  0.00000000000E+00  0.00000000000E+00  0.33432445763E+03  0.24916748311E+04  0.24691437020E+04 0.  0.
        1    1    3    3  502    0  0.10139918332E+04  0.55755191950E+03 -0.26702440452E+03  0.11875797293E+04  0.50400001928E-02 0.  1.
       -1    1    3    3    0  502 -0.10139918332E+04 -0.55755191950E+03  0.60134886215E+03  0.13040951019E+04  0.50400001928E-02 0. -1.
</event>
<event>
 5   0  0.4139830E-05  0.2304199E+04  0.7818609E-02  0.8476268E-01
        1   -1    0    0  501    0  0.00000000000E+00  0.00000000000E+00  0.15954193765E+04  0.15954193766E+04  0.50400001928E-02 0. -1.
       -1   -1    0    0    0  501  0.00000000000E+00  0.00000000000E+00 -0.83196482090E+03  0.83196482091E+03  0.50400001928E-02 0.  1.
    10030    2    1    2    0    0  0.00000000000E+00  0.00000000000E+00  0.76345455565E+03  0.24273841975E+04  0.23041985990E+04 0.  0.
        1    1    3    3  502    0  0.50025658965E+03 -0.11520326170E+03  0.14682767190E+04  0.15554307991E+04  0.50400001928E-02 0. -1.
       -1    1    3    3    0  502 -0.50025658965E+03  0.11520326170E+03 -0.70482216337E+03  0.87195339841E+03  0.50400001928E-02 0.  1.
</event>
<event>
 5   0  0.4095451E-05  0.2254248E+04  0.7818609E-02  0.8496182E-01
        1   -1    0    0  501    0  0.00000000000E+00  0.00000000000E+00  0.97414029585E+03  0.97414029587E+03  0.50400001928E-02 0. -1.
       -1   -1    0    0    0  501  0.00000000000E+00  0.00000000000E+00 -0.13041331882E+04  0.13041331882E+04  0.50400001928E-02 0.  1.
    10030    2    1    2    0    0  0.00000000000E+00  0.00000000000E+00 -0.32999289234E+03  0.22782734841E+04  0.22542481583E+04 0.  0.
        3    1    3    3  502    0  0.54256975887E+02  0.24189806333E+02 -0.13025499252E+04  0.13039038630E+04  0.10100000352E+00 0.  1.
       -3    1    3    3    0  502 -0.54256975887E+02 -0.24189806333E+02  0.97255703283E+03  0.97436962108E+03  0.10100000352E+00 0. -1.
</event>
<event>
 5   0  0.4095451E-05  0.2292249E+04  0.7818609E-02  0.8480984E-01
       -1   -1    0    0    0  501  0.00000000000E+00  0.00000000000E+00  0.81359367647E+03  0.81359367649E+03  0.50400001928E-02 0. -1.
        1   -1    0    0  501    0  0.00000000000E+00  0.00000000000E+00 -0.16145667610E+04  0.16145667610E+04  0.50400001928E-02 0.  1.
    10030    2    1    2    0    0  0.00000000000E+00  0.00000000000E+00 -0.80097308449E+03  0.24281604375E+04  0.22922489455E+04 0.  0.
        3    1    3    3  502    0  0.67019932050E+03 -0.20604359258E+03 -0.13608735512E+04  0.15308814206E+04  0.10100000352E+00 0.  1.
       -3    1    3    3    0  502 -0.67019932050E+03  0.20604359258E+03  0.55990046675E+03  0.89727901686E+03  0.10100000352E+00 0. -1.
</event>
<event>
 5   0  0.3885219E-05  0.2137987E+04  0.7818609E-02  0.8544692E-01
       -1   -1    0    0    0  501  0.00000000000E+00  0.00000000000E+00  0.12197691485E+04  0.12197691485E+04  0.50400001928E-02 0. -1.
        1   -1    0    0  501    0  0.00000000000E+00  0.00000000000E+00 -0.93685533253E+03  0.93685533254E+03  0.50400001928E-02 0.  1.
    10030    2    1    2    0    0  0.00000000000E+00  0.00000000000E+00  0.28291381593E+03  0.21566244810E+04  0.21379871199E+04 0.  0.
        2    1    3    3  502    0  0.17847489589E+03 -0.25201970972E+03 -0.89088031371E+03  0.94288650214E+03  0.25500000920E-02 0.  1.
       -2    1    3    3    0  502 -0.17847489589E+03  0.25201970972E+03  0.11737941296E+04  0.12137379789E+04  0.25500000920E-02 0. -1.
</event>
<event>
 5   0  0.9313463E-05  0.2333462E+04  0.7818609E-02  0.8464843E-01
        2   -1    0    0  501    0  0.00000000000E+00  0.00000000000E+00  0.11533866471E+04  0.11533866471E+04  0.25500000920E-02 0.  1.
       -2   -1    0    0    0  501  0.00000000000E+00  0.00000000000E+00 -0.11802293314E+04  0.11802293314E+04  0.25500000920E-02 0. -1.
    10030    2    1    2    0    0  0.00000000000E+00  0.00000000000E+00 -0.26842684242E+02  0.23336159785E+04  0.23334615929E+04 0.  0.
        1    1    3    3  502    0 -0.23957651793E+03 -0.47864513526E+03  0.10233548626E+04  0.11548823526E+04  0.50400001928E-02 0.  1.
       -1    1    3    3    0  502  0.23957651793E+03  0.47864513526E+03 -0.10501975469E+04  0.11787336259E+04  0.50400001928E-02 0. -1.
</event>
<event>
 5   0  0.9641157E-05  0.2281253E+04  0.7818609E-02  0.8485349E-01
       -2   -1    0    0    0  501  0.00000000000E+00  0.00000000000E+00  0.10899929540E+04  0.10899929540E+04  0.25500000920E-02 0.  1.
        2   -1    0    0  501    0  0.00000000000E+00  0.00000000000E+00 -0.11936125800E+04  0.11936125800E+04  0.25500000920E-02 0. -1.
    10030    2    1    2    0    0  0.00000000000E+00  0.00000000000E+00 -0.10361962592E+03  0.22836055340E+04  0.22812534292E+04 0.  0.
        3    1    3    3  502    0  0.58635049570E+03  0.78003037452E+03  0.53937086010E+03  0.11149776787E+04  0.10100000352E+00 0.  1.
       -3    1    3    3    0  502 -0.58635049570E+03 -0.78003037452E+03 -0.64299048603E+03  0.11686278554E+04  0.10100000352E+00 0. -1.
</event>
<event>
 5   0  0.4095451E-05  0.2294886E+04  0.7818609E-02  0.8479940E-01
       -1   -1    0    0    0  501  0.00000000000E+00  0.00000000000E+00  0.10465572956E+04  0.10465572956E+04  0.50400001928E-02 0. -1.
        1   -1    0    0  501    0  0.00000000000E+00  0.00000000000E+00 -0.12580543234E+04  0.12580543234E+04  0.50400001928E-02 0.  1.
    10030    2    1    2    0    0  0.00000000000E+00  0.00000000000E+00 -0.21149702780E+03  0.23046116191E+04  0.22948864290E+04 0.  0.
        3    1    3    3  502    0  0.32479977833E+03  0.31621580504E+03 -0.11643211532E+04  0.12494523157E+04  0.10100000352E+00 0.  1.
       -3    1    3    3    0  502 -0.32479977833E+03 -0.31621580504E+03  0.95282412536E+03  0.10551593033E+04  0.10100000352E+00 0. -1.
</event>
<event>
 5   0  0.9312074E-05  0.2414408E+04  0.7818609E-02  0.8434129E-01
       -2   -1    0    0    0  501  0.00000000000E+00  0.00000000000E+00  0.12987336521E+04  0.12987336521E+04  0.25500000920E-02 0.  1.
        2   -1    0    0  501    0  0.00000000000E+00  0.00000000000E+00 -0.11221254604E+04  0.11221254604E+04  0.25500000920E-02 0. -1.
    10030    2    1    2    0    0  0.00000000000E+00  0.00000000000E+00  0.17660819165E+03  0.24208591125E+04  0.24144084967E+04 0.  0.
        4    1    3    3  502    0  0.77567955597E+03  0.32721012707E+03  0.95582968973E+03  0.12737178846E+04  0.12699999809E+01 0.  1.
       -4    1    3    3    0  502 -0.77567955597E+03 -0.32721012707E+03 -0.77922149808E+03  0.11471412279E+04  0.12699999809E+01 0. -1.
</event>
<event>
 5   0  0.4095451E-05  0.2241707E+04  0.7818609E-02  0.8501267E-01
       -1   -1    0    0    0  501  0.00000000000E+00  0.00000000000E+00  0.10410220229E+04  0.10410220229E+04  0.50400001928E-02 0. -1.
        1   -1    0    0  501    0  0.00000000000E+00  0.00000000000E+00 -0.12068066107E+04  0.12068066107E+04  0.50400001928E-02 0.  1.
    10030    2    1    2    0    0  0.00000000000E+00  0.00000000000E+00 -0.16578458778E+03  0.22478286337E+04  0.22417067241E+04 0.  0.
        3    1    3    3  502    0  0.68489356742E+03  0.28118272566E+02 -0.97212999685E+03  0.11894984560E+04  0.10100000352E+00 0.  1.
       -3    1    3    3    0  502 -0.68489356742E+03 -0.28118272566E+02  0.80634540907E+03  0.10583301776E+04  0.10100000352E+00 0. -1.
</event>
<event>
 5   0  0.4095451E-05  0.2095459E+04  0.7818609E-02  0.8563246E-01
        1   -1    0    0  501    0  0.00000000000E+00  0.00000000000E+00  0.14355624924E+04  0.14355624924E+04  0.50400001928E-02 0. -1.
       -1   -1    0    0    0  501  0.00000000000E+00  0.00000000000E+00 -0.76467366651E+03  0.76467366653E+03  0.50400001928E-02 0.  1.
    10030    2    1    2    0    0  0.00000000000E+00  0.00000000000E+00  0.67088882592E+03  0.22002361590E+04  0.20954587418E+04 0.  0.
        3    1    3    3  502    0  0.64208396696E+03 -0.70187212017E+03  0.79653827644E+03  0.12407133149E+04  0.10100000352E+00 0. -1.
       -3    1    3    3    0  502 -0.64208396696E+03  0.70187212017E+03 -0.12564945052E+03  0.95952284409E+03  0.10100000352E+00 0.  1.
</event>
<event>
 5   0  0.9483073E-05  0.2481582E+04  0.7818609E-02  0.8409577E-01
        2   -1    0    0  501    0  0.00000000000E+00  0.00000000000E+00  0.16314776580E+04  0.16314776580E+04  0.25500000920E-02 0.  1.
       -2   -1    0    0    0  501  0.00000000000E+00  0.00000000000E+00 -0.94366124275E+03  0.94366124275E+03  0.25500000920E-02 0. -1.
    10030    2    1    2    0    0  0.00000000000E+00  0.00000000000E+00  0.68781641522E+03  0.25751389007E+04  0.24815819424E+04 0.  0.
        5    1    3    3  502    0  0.10641218814E+04 -0.54498811573E+03  0.68834463361E+03  0.13795679937E+04  0.46999998093E+01 0.  1.
       -5    1    3    3    0  502 -0.10641218814E+04  0.54498811573E+03 -0.52821838938E+00  0.11955709070E+04  0.46999998093E+01 0. -1.
</event>
<event>
 5   0  0.4005462E-05  0.2249182E+04  0.7818609E-02  0.8498232E-01
        1   -1    0    0  501    0  0.00000000000E+00  0.00000000000E+00  0.85479085957E+03  0.85479085958E+03  0.50400001928E-02 0. -1.
       -1   -1    0    0    0  501  0.00000000000E+00  0.00000000000E+00 -0.14795492505E+04  0.14795492505E+04  0.50400001928E-02 0.  1.
    10030    2    1    2    0    0  0.00000000000E+00  0.00000000000E+00 -0.62475839091E+03  0.23343401101E+04  0.22491822297E+04 0.  0.
        4    1    3    3  502    0 -0.15836089907E+03  0.10798219198E+04 -0.30795225964E+02  0.10918074517E+04  0.12699999809E+01 0. -1.
       -4    1    3    3    0  502  0.15836089907E+03 -0.10798219198E+04 -0.59396316495E+03  0.12425326583E+04  0.12699999809E+01 0.  1.
</event>
<event>
 5   0  0.4095451E-05  0.2267135E+04  0.7818609E-02  0.8490993E-01
        1   -1    0    0  501    0  0.00000000000E+00  0.00000000000E+00  0.15982726333E+04  0.15982726333E+04  0.50400001928E-02 0.  1.
       -1   -1    0    0    0  501  0.00000000000E+00  0.00000000000E+00 -0.80397769027E+03  0.80397769028E+03  0.50400001928E-02 0. -1.
    10030    2    1    2    0    0  0.00000000000E+00  0.00000000000E+00  0.79429494306E+03  0.24022503236E+04  0.22671352321E+04 0.  0.
        3    1    3    3  502    0  0.43069086090E+01 -0.11063510693E+04  0.65872916815E+03  0.12876161560E+04  0.10100000352E+00 0.  1.
       -3    1    3    3    0  502 -0.43069086090E+01  0.11063510693E+04  0.13556577490E+03  0.11146341676E+04  0.10100000352E+00 0. -1.
</event>
<event>
 5   0  0.9535394E-05  0.2097842E+04  0.7818609E-02  0.8562195E-01
        2   -1    0    0  501    0  0.00000000000E+00  0.00000000000E+00  0.16823448668E+04  0.16823448668E+04  0.25500000920E-02 0. -1.
       -2   -1    0    0    0  501  0.00000000000E+00  0.00000000000E+00 -0.65398894216E+03  0.65398894217E+03  0.25500000920E-02 0.  1.
    10030    2    1    2    0    0  0.00000000000E+00  0.00000000000E+00  0.10283559246E+04  0.23363338089E+04  0.20978416907E+04 0.  0.
        2    1    3    3  502    0 -0.29699648496E+03  0.70091371623E+03  0.13178446794E+04  0.15219072077E+04  0.25500000920E-02 0. -1.
       -2    1    3    3    0  502  0.29699648496E+03 -0.70091371623E+03 -0.28948875482E+03  0.81442660127E+03  0.25500000920E-02 0.  1.
</event>
<event>
 5   0  0.4005462E-05  0.1973845E+04  0.7818609E-02  0.8618947E-01
        1   -1    0    0  501    0  0.00000000000E+00  0.00000000000E+00  0.51861268081E+03  0.51861268083E+03  0.50400001928E-02 0. -1.
       -1   -1    0    0    0  501  0.00000000000E+00  0.00000000000E+00 -0.18781191934E+04  0.18781191934E+04  0.50400001928E-02 0.  1.
    10030    2    1    2    0    0  0.00000000000E+00  0.00000000000E+00 -0.13595065126E+04  0.23967318743E+04  0.19738454142E+04 0.  0.
        4    1    3    3  502    0 -0.67671871200E+03 -0.43609904370E+03 -0.13729204246E+04  0.15915535481E+04  0.12699999809E+01 0.  1.
       -4    1    3    3    0  502  0.67671871200E+03  0.43609904370E+03  0.13413911983E+02  0.80517832623E+03  0.12699999809E+01 0. -1.
</event>
<event>
 5   0  0.9313463E-05  0.2305403E+04  0.7818609E-02  0.8475794E-01
        2   -1    0    0  501    0  0.00000000000E+00  0.00000000000E+00  0.22142999664E+04  0.22142999664E+04  0.25500000920E-02 0. -1.
       -2   -1    0    0    0  501  0.00000000000E+00  0.00000000000E+00 -0.60006337099E+03  0.60006337100E+03  0.25500000920E-02 0.  1.
    10030    2    1    2    0    0  0.00000000000E+00  0.00000000000E+00  0.16142365954E+04  0.28143633374E+04  0.23054026132E+04 0.  0.
        1    1    3    3  502    0  0.82816297187E+03  0.69820209769E+02  0.17821996274E+04  0.19664598347E+04  0.50400001928E-02 0. -1.
       -1    1    3    3    0  502 -0.82816297187E+03 -0.69820209769E+02 -0.16796303201E+03  0.84790350266E+03  0.50400001928E-02 0.  1.
</event>
<event>
 5   0  0.3885219E-05  0.2279025E+04  0.7818609E-02  0.8486237E-01
       -1   -1    0    0    0  501  0.00000000000E+00  0.00000000000E+00  0.46049623033E+03  0.46049623035E+03  0.50400001928E-02 0. -1.
        1   -1    0    0  501    0  0.00000000000E+00  0.00000000000E+00 -0.28197602595E+04  0.28197602595E+04  0.50400001928E-02 0.  1.
    10030    2    1    2    0    0  0.00000000000E+00  0.00000000000E+00 -0.23592640291E+04  0.32802564898E+04  0.22790252039E+04 0.  0.
        2    1    3    3  502    0 -0.94408994798E+02  0.97054345143E+03 -0.33101472096E+03  0.10297758955E+04  0.25500000920E-02 0. -1.
       -2    1    3    3    0  502  0.94408994798E+02 -0.97054345143E+03 -0.20282493082E+04  0.22504805943E+04  0.25500000920E-02 0.  1.
</event>
<event>
 5   0  0.4005462E-05  0.2202444E+04  0.7818609E-02  0.8517412E-01
       -1   -1    0    0    0  501  0.00000000000E+00  0.00000000000E+00  0.52444084209E+03  0.52444084212E+03  0.50400001928E-02 0. -1.
        1   -1    0    0  501    0  0.00000000000E+00  0.00000000000E+00 -0.23123479505E+04  0.23123479505E+04  0.50400001928E-02 0.  1.
    10030    2    1    2    0    0  0.00000000000E+00  0.00000000000E+00 -0.17879071084E+04  0.28367887926E+04  0.22024438303E+04 0.  0.
        4    1    3    3  502    0  0.73609209387E+03  0.17178176318E+03  0.13754561091E+03  0.76828442181E+03  0.12699999809E+01 0. -1.
       -4    1    3    3    0  502 -0.73609209387E+03 -0.17178176318E+03 -0.19254527193E+04  0.20685043708E+04  0.12699999809E+01 0.  1.
</event>
<event>
 5   0  0.9641157E-05  0.2277554E+04  0.7818609E-02  0.8486824E-01
        2   -1    0    0  501    0  0.00000000000E+00  0.00000000000E+00  0.54948299091E+03  0.54948299091E+03  0.25500000920E-02 0.  1.
       -2   -1    0    0    0  501  0.00000000000E+00  0.00000000000E+00 -0.23600602929E+04  0.23600602929E+04  0.25500000920E-02 0. -1.
    10030    2    1    2    0    0  0.00000000000E+00  0.00000000000E+00 -0.18105773020E+04  0.29095432838E+04  0.22775539409E+04 0.  0.
        3    1    3    3  502    0 -0.53420031086E+03  0.62869583361E+02 -0.21875501838E+04  0.22527091187E+04  0.10100000352E+00 0. -1.
       -3    1    3    3    0  502  0.53420031086E+03 -0.62869583361E+02  0.37697288181E+03  0.65683416511E+03  0.10100000352E+00 0.  1.
</event>
<event>
 5   0  0.4095451E-05  0.2304245E+04  0.7818609E-02  0.8476249E-01
        1   -1    0    0  501    0  0.00000000000E+00  0.00000000000E+00  0.19235559723E+04  0.19235559723E+04  0.50400001928E-02 0. -1.
       -1   -1    0    0    0  501  0.00000000000E+00  0.00000000000E+00 -0.69006919162E+03  0.69006919163E+03  0.50400001928E-02 0.  1.
    10030    2    1    2    0    0  0.00000000000E+00  0.00000000000E+00  0.12334867807E+04  0.26136251639E+04  0.23042453991E+04 0.  0.
        3    1    3    3  502    0 -0.69820008575E+03 -0.89192208583E+03  0.37779721179E+03  0.11940431778E+04  0.10100000352E+00 0.  1.
       -3    1    3    3    0  502  0.69820008575E+03  0.89192208583E+03  0.85568956887E+03  0.14195819862E+04  0.10100000352E+00 0. -1.
</event>
<event>
 5   0  0.9535394E-05  0.2604550E+04  0.7818609E-02  0.8366657E-01
       -2   -1    0    0    0  501  0.00000000000E+00  0.00000000000E+00  0.10807093369E+04  0.10807093369E+04  0.25500000920E-02 0.  1.
        2   -1    0    0  501    0  0.00000000000E+00  0.00000000000E+00 -0.15692661229E+04  0.15692661229E+04  0.25500000920E-02 0. -1.
    10030    2    1    2    0    0  0.00000000000E+00  0.00000000000E+00 -0.48855678604E+03  0.26499754598E+04  0.26045502883E+04 0.  0.
        2    1    3    3  502    0  0.14836494651E+03  0.38751527175E+03  0.10116491451E+04  0.10934414643E+04  0.25500000920E-02 0.  1.
       -2    1    3    3    0  502 -0.14836494651E+03 -0.38751527175E+03 -0.15002059311E+04  0.15565339954E+04  0.25500000920E-02 0. -1.
</event>
<event>
 5   0  0.9641157E-05  0.2323059E+04  0.7818609E-02  0.8468884E-01
        2   -1    0    0  501    0  0.00000000000E+00  0.00000000000E+00  0.77349612692E+03  0.77349612692E+03  0.25500000920E-02 0.  1.
       -2   -1    0    0    0  501  0.00000000000E+00  0.00000000000E+00 -0.17442243966E+04  0.17442243966E+04  0.25500000920E-02 0. -1.
    10030    2    1    2    0    0  0.00000000000E+00  0.00000000000E+00 -0.97072826967E+03  0.25177205235E+04  0.23230590309E+04 0.  0.
        3    1    3    3  502    0  0.42086852530E+03  0.35884920503E+03 -0.15923472590E+04  0.16856668920E+04  0.10100000352E+00 0. -1.
       -3    1    3    3    0  502 -0.42086852530E+03 -0.35884920503E+03  0.62161898932E+03  0.83205363146E+03  0.10100000352E+00 0.  1.
</event>
<event>
 5   0  0.9535394E-05  0.2298647E+04  0.7818609E-02  0.8478455E-01
        2   -1    0    0  501    0  0.00000000000E+00  0.00000000000E+00  0.50380209387E+03  0.50380209387E+03  0.25500000920E-02 0.  1.
       -2   -1    0    0    0  501  0.00000000000E+00  0.00000000000E+00 -0.26219520723E+04  0.26219520723E+04  0.25500000920E-02 0. -1.
    10030    2    1    2    0    0  0.00000000000E+00  0.00000000000E+00 -0.21181499785E+04  0.31257541662E+04  0.22986473797E+04 0.  0.
        2    1    3    3  502    0 -0.12356777466E+03 -0.19432280424E+03  0.47210930371E+03  0.52527853739E+03  0.25500000920E-02 0.  1.
       -2    1    3    3    0  502  0.12356777466E+03  0.19432280424E+03 -0.25902592822E+04  0.26004756288E+04  0.25500000920E-02 0. -1.
</event>
<event>
 5   0  0.9535394E-05  0.2215851E+04  0.7818609E-02  0.8511859E-01
       -2   -1    0    0    0  501  0.00000000000E+00  0.00000000000E+00  0.84948996300E+03  0.84948996301E+03  0.25500000920E-02 0.  1.
        2   -1    0    0  501    0  0.00000000000E+00  0.00000000000E+00 -0.14449837735E+04  0.14449837735E+04  0.25500000920E-02 0. -1.
    10030    2    1    2    0    0  0.00000000000E+00  0.00000000000E+00 -0.59549381047E+03  0.22944737365E+04  0.22158512696E+04 0.  0.
        2    1    3    3  502    0 -0.10509597187E+04  0.34874223593E+03 -0.33595793483E+03  0.11571539273E+04  0.25500000920E-02 0.  1.
       -2    1    3    3    0  502  0.10509597187E+04 -0.34874223593E+03 -0.25953587564E+03  0.11373198092E+04  0.25500000920E-02 0. -1.
</event>
<event>
 5   0  0.4295775E-05  0.1728359E+04  0.7818609E-02  0.8745353E-01
        1   -1    0    0  501    0  0.00000000000E+00  0.00000000000E+00  0.13560717622E+04  0.13560717622E+04  0.50400001928E-02 0.  1.
       -1   -1    0    0    0  501  0.00000000000E+00  0.00000000000E+00 -0.55071306905E+03  0.55071306908E+03  0.50400001928E-02 0. -1.
    10030    2    1    2    0    0  0.00000000000E+00  0.00000000000E+00  0.80535869315E+03  0.19067848313E+04  0.17283592706E+04 0.  0.
        5    1    3    3  502    0  0.69392379689E+03 -0.43848132803E+03  0.10462592345E+03  0.82750515695E+03  0.46999998093E+01 0.  1.
       -5    1    3    3    0  502 -0.69392379689E+03  0.43848132803E+03  0.70073276969E+03  0.10792796743E+04  0.46999998093E+01 0. -1.
</event>
<event>
 5   0  0.4005462E-05  0.1619017E+04  0.7818609E-02  0.8808950E-01
       -1   -1    0    0    0  501  0.00000000000E+00  0.00000000000E+00  0.10691123087E+04  0.10691123087E+04  0.50400001928E-02 0. -1.
        1   -1    0    0  501    0  0.00000000000E+00  0.00000000000E+00 -0.61294221623E+03  0.61294221625E+03  0.50400001928E-02 0.  1.
    10030    2    1    2    0    0  0.00000000000E+00  0.00000000000E+00  0.45617009245E+03  0.16820545249E+04  0.16190170696E+04 0.  0.
        4    1    3    3  502    0 -0.53651362226E+03  0.59964592982E+03  0.13585736022E+03  0.81601528371E+03  0.12699999809E+01 0.  1.
       -4    1    3    3    0  502  0.53651362226E+03 -0.59964592982E+03  0.32031273223E+03  0.86603924123E+03  0.12699999809E+01 0. -1.
</event>
<event>
 5   0  0.9535394E-05  0.2048222E+04  0.7818609E-02  0.8584401E-01
        2   -1    0    0  501    0  0.00000000000E+00  0.00000000000E+00  0.87878965948E+03  0.87878965948E+03  0.25500000920E-02 0. -1.
       -2   -1    0    0    0  501  0.00000000000E+00  0.00000000000E+00 -0.11934634210E+04  0.11934634210E+04  0.25500000920E-02 0.  1.
    10030    2    1    2    0    0  0.00000000000E+00  0.00000000000E+00 -0.31467376153E+03  0.20722530805E+04  0.20482219737E+04 0.  0.
        2    1    3    3  502    0 -0.60829900588E+03  0.56282697653E+03  0.45138780522E+03  0.94369107062E+03  0.25500000920E-02 0. -1.
       -2    1    3    3    0  502  0.60829900588E+03 -0.56282697653E+03 -0.76606156675E+03  0.11285620099E+04  0.25500000920E-02 0.  1.
</event>
<event>
 5   0  0.9535394E-05  0.2328434E+04  0.7818609E-02  0.8466793E-01
        2   -1    0    0  501    0  0.00000000000E+00  0.00000000000E+00  0.11298859437E+04  0.11298859437E+04  0.25500000920E-02 0. -1.
       -2   -1    0    0    0  501  0.00000000000E+00  0.00000000000E+00 -0.11995915851E+04  0.11995915851E+04  0.25500000920E-02 0.  1.
    10030    2    1    2    0    0  0.00000000000E+00  0.00000000000E+00 -0.69705641362E+02  0.23294775288E+04  0.23284343841E+04 0.  0.
        2    1    3    3  502    0 -0.64466387069E+03  0.52833033489E+03  0.77833185956E+03  0.11404056000E+04  0.25500000920E-02 0. -1.
       -2    1    3    3    0  502  0.64466387069E+03 -0.52833033489E+03 -0.84803750092E+03  0.11890719288E+04  0.25500000920E-02 0.  1.
</event>
<event>
 5   0  0.3261500E-05  0.2037478E+04  0.7818609E-02  0.8589296E-01
        3   -1    0    0  501    0  0.00000000000E+00  0.00000000000E+00  0.18904437845E+04  0.18904437872E+04  0.10100000352E+00 0.  1.
       -3   -1    0    0    0  501  0.00000000000E+00  0.00000000000E+00 -0.54898678253E+03  0.54898679183E+03  0.10100000352E+00 0. -1.
    10030    2    1    2    0    0  0.00000000000E+00  0.00000000000E+00  0.13414570020E+04  0.24394305791E+04  0.20374775243E+04 0.  0.
        3    1    3    3  502    0 -0.85015018161E+03  0.22184275733E+03  0.12880642318E+04  0.15591917828E+04  0.10100000352E+00 0.  1.
       -3    1    3    3    0  502  0.85015018161E+03 -0.22184275733E+03  0.53392770232E+02  0.88023879623E+03  0.10100000352E+00 0. -1.
</event>
<event>
 5   0  0.9641157E-05  0.2289576E+04  0.7818609E-02  0.8482042E-01
        2   -1    0    0  501    0  0.00000000000E+00  0.00000000000E+00  0.20207958099E+04  0.20207958099E+04  0.25500000920E-02 0.  1.
       -2   -1    0    0    0  501  0.00000000000E+00  0.00000000000E+00 -0.64852653774E+03  0.64852653775E+03  0.25500000920E-02 0. -1.
    10030    2    1    2    0    0  0.00000000000E+00  0.00000000000E+00  0.13722692722E+04  0.26693223477E+04  0.22895761268E+04 0.  0.
        3    1    3    3  502    0  0.52729752523E+03  0.46094590265E+03 -0.36961202756E+03  0.79191342102E+03  0.10100000352E+00 0. -1.
       -3    1    3    3    0  502 -0.52729752523E+03 -0.46094590265E+03  0.17418812997E+04  0.18774089267E+04  0.10100000352E+00 0.  1.
</event>
<event>
 5   0  0.3885219E-05  0.2276621E+04  0.7818609E-02  0.8487197E-01
       -1   -1    0    0    0  501  0.00000000000E+00  0.00000000000E+00  0.68781357753E+03  0.68781357754E+03  0.50400001928E-02 0.  1.
        1   -1    0    0  501    0  0.00000000000E+00  0.00000000000E+00 -0.18838686400E+04  0.18838686400E+04  0.50400001928E-02 0. -1.
    10030    2    1    2    0    0  0.00000000000E+00  0.00000000000E+00 -0.11960550625E+04  0.25716822175E+04  0.22766206789E+04 0.  0.
        2    1    3    3  502    0  0.70130975489E+03  0.78468247545E+03 -0.10880580523E+04  0.15137477613E+04  0.25500000920E-02 0. -1.
       -2    1    3    3    0  502 -0.70130975489E+03 -0.78468247545E+03 -0.10799701018E+03  0.10579344563E+04  0.25500000920E-02 0.  1.
</event>
<event>
 5   0  0.4139830E-05  0.2250549E+04  0.7818609E-02  0.8497678E-01
        1   -1    0    0  501    0  0.00000000000E+00  0.00000000000E+00  0.71873351715E+03  0.71873351717E+03  0.50400001928E-02 0.  1.
       -1   -1    0    0    0  501  0.00000000000E+00  0.00000000000E+00 -0.17617696843E+04  0.17617696843E+04  0.50400001928E-02 0. -1.
    10030    2    1    2    0    0  0.00000000000E+00  0.00000000000E+00 -0.10430361672E+04  0.24805032015E+04  0.22505491967E+04 0.  0.
        1    1    3    3  502    0 -0.53598799375E+03 -0.37895689021E+03 -0.15288808644E+04  0.16638413841E+04  0.50400001928E-02 0. -1.
       -1    1    3    3    0  502  0.53598799375E+03  0.37895689021E+03  0.48584469722E+03  0.81666181735E+03  0.50400001928E-02 0.  1.
</event>
<event>
 5   0  0.9535394E-05  0.2293274E+04  0.7818609E-02  0.8480578E-01
       -2   -1    0    0    0  501  0.00000000000E+00  0.00000000000E+00  0.65397084649E+03  0.65397084649E+03  0.25500000920E-02 0.  1.
        2   -1    0    0  501    0  0.00000000000E+00  0.00000000000E+00 -0.20104502701E+04  0.20104502701E+04  0.25500000920E-02 0. -1.
    10030    2    1    2    0    0  0.00000000000E+00  0.00000000000E+00 -0.13564794236E+04  0.26644211166E+04  0.22932735249E+04 0.  0.
        2    1    3    3  502    0 -0.79071812308E+02 -0.10718698372E+04 -0.11424221563E+04  0.15685297838E+04  0.25500000920E-02 0.  1.
       -2    1    3    3    0  502  0.79071812308E+02  0.10718698372E+04 -0.21405726725E+03  0.10958913327E+04  0.25500000920E-02 0. -1.
</event>
<event>
 5   0  0.9483073E-05  0.2266040E+04  0.7818609E-02  0.8491433E-01
        2   -1    0    0  501    0  0.00000000000E+00  0.00000000000E+00  0.13526218300E+04  0.13526218300E+04  0.25500000920E-02 0. -1.
       -2   -1    0    0    0  501  0.00000000000E+00  0.00000000000E+00 -0.94907138591E+03  0.94907138592E+03  0.25500000920E-02 0.  1.
    10030    2    1    2    0    0  0.00000000000E+00  0.00000000000E+00  0.40355044412E+03  0.23016932160E+04  0.22660403128E+04 0.  0.
        5    1    3    3  502    0  0.82226019511E+03  0.77171783957E+03  0.90264826110E+02  0.11312957532E+04  0.46999998093E+01 0.  1.
       -5    1    3    3    0  502 -0.82226019511E+03 -0.77171783957E+03  0.31328561801E+03  0.11703974628E+04  0.46999998093E+01 0. -1.
</event>
<event>
 5   0  0.3885219E-05  0.2418370E+04  0.7818609E-02  0.8432658E-01
       -1   -1    0    0    0  501  0.00000000000E+00  0.00000000000E+00  0.14554742685E+04  0.14554742685E+04  0.50400001928E-02 0.  1.
        1   -1    0    0  501    0  0.00000000000E+00  0.00000000000E+00 -0.10045718890E+04  0.10045718890E+04  0.50400001928E-02 0. -1.
    10030    2    1    2    0    0  0.00000000000E+00  0.00000000000E+00  0.45090237948E+03  0.24600461574E+04  0.24183701414E+04 0.  0.
        2    1    3    3  502    0  0.92481936513E+03 -0.64113003063E+03 -0.22465573399E+03  0.11475228857E+04  0.25500000920E-02 0. -1.
       -2    1    3    3    0  502 -0.92481936513E+03  0.64113003063E+03  0.67555811347E+03  0.13125232718E+04  0.25500000920E-02 0.  1.
</event>
<event>
 5   0  0.4295775E-05  0.2311711E+04  0.7818609E-02  0.8473318E-01
       -1   -1    0    0    0  501  0.00000000000E+00  0.00000000000E+00  0.12594154770E+04  0.12594154770E+04  0.50400001928E-02 0.  1.
        1   -1    0    0  501    0  0.00000000000E+00  0.00000000000E+00 -0.10608108961E+04  0.10608108961E+04  0.50400001928E-02 0. -1.
    10030    2    1    2    0    0  0.00000000000E+00  0.00000000000E+00  0.19860458090E+03  0.23202263730E+04  0.23117107610E+04 0.  0.
        5    1    3    3  502    0  0.15952161321E+03 -0.84930240422E+03 -0.67113059562E+03  0.10941663883E+04  0.46999998093E+01 0. -1.
       -5    1    3    3    0  502 -0.15952161321E+03  0.84930240422E+03  0.86973517652E+03  0.12260599847E+04  0.46999998093E+01 0.  1.
</event>
<event>
 5   0  0.9312074E-05  0.2310488E+04  0.7818609E-02  0.8473797E-01
       -2   -1    0    0    0  501  0.00000000000E+00  0.00000000000E+00  0.95475769192E+03  0.95475769193E+03  0.25500000920E-02 0.  1.
        2   -1    0    0  501    0  0.00000000000E+00  0.00000000000E+00 -0.13978295807E+04  0.13978295807E+04  0.25500000920E-02 0. -1.
    10030    2    1    2    0    0  0.00000000000E+00  0.00000000000E+00 -0.44307188878E+03  0.23525872726E+04  0.23104878655E+04 0.  0.
        4    1    3    3  502    0  0.33910171007E+03 -0.34323398834E+03  0.84725053246E+03  0.97500493238E+03  0.12699999809E+01 0.  1.
       -4    1    3    3    0  502 -0.33910171007E+03  0.34323398834E+03 -0.12903224212E+04  0.13775823402E+04  0.12699999809E+01 0. -1.
</event>
<event>
 5   0  0.4095451E-05  0.2359499E+04  0.7818609E-02  0.8454824E-01
        1   -1    0    0  501    0  0.00000000000E+00  0.00000000000E+00  0.14523858747E+04  0.14523858748E+04  0.50400001928E-02 0. -1.
       -1   -1    0    0    0  501  0.00000000000E+00  0.00000000000E+00 -0.95829150097E+03  0.95829150098E+03  0.50400001928E-02 0.  1.
    10030    2    1    2    0    0  0.00000000000E+00  0.00000000000E+00  0.49409437378E+03  0.24106773757E+04  0.23594991332E+04 0.  0.
        3    1    3    3  502    0 -0.76312132839E+03 -0.83039863701E+03 -0.10671884648E+03  0.11328305171E+04  0.10100000352E+00 0.  1.
       -3    1    3    3    0  502  0.76312132839E+03  0.83039863701E+03  0.60081322025E+03  0.12778468586E+04  0.10100000352E+00 0. -1.
</event>
<event>
 5   0  0.3885219E-05  0.2311460E+04  0.7818609E-02  0.8473416E-01
       -1   -1    0    0    0  501  0.00000000000E+00  0.00000000000E+00  0.11445493292E+04  0.11445493292E+04  0.50400001928E-02 0.  1.
        1   -1    0    0  501    0  0.00000000000E+00  0.00000000000E+00 -0.11670197539E+04  0.11670197539E+04  0.50400001928E-02 0. -1.
    10030    2    1    2    0    0  0.00000000000E+00  0.00000000000E+00 -0.22470424693E+02  0.23115690831E+04  0.23114598647E+04 0.  0.
        2    1    3    3  502    0 -0.76843579821E+03  0.68210575646E+03 -0.54036307391E+03  0.11609281160E+04  0.25500000920E-02 0. -1.
       -2    1    3    3    0  502  0.76843579821E+03 -0.68210575646E+03  0.51789264921E+03  0.11506409671E+04  0.25500000920E-02 0.  1.
</event>
<event>
 5   0  0.9535394E-05  0.2276112E+04  0.7818609E-02  0.8487400E-01
       -2   -1    0    0    0  501  0.00000000000E+00  0.00000000000E+00  0.90344852293E+03  0.90344852293E+03  0.25500000920E-02 0.  1.
        2   -1    0    0  501    0  0.00000000000E+00  0.00000000000E+00 -0.14335863146E+04  0.14335863146E+04  0.25500000920E-02 0. -1.
    10030    2    1    2    0    0  0.00000000000E+00  0.00000000000E+00 -0.53013779164E+03  0.23370348375E+04  0.22761119818E+04 0.  0.
        2    1    3    3  502    0  0.59930316199E+03  0.34163036340E+03  0.66430814541E+03  0.95769561826E+03  0.25500000920E-02 0.  1.
       -2    1    3    3    0  502 -0.59930316199E+03 -0.34163036340E+03 -0.11944459371E+04  0.13793392192E+04  0.25500000920E-02 0. -1.
</event>
<event>
 5   0  0.9483073E-05  0.2037696E+04  0.7818609E-02  0.8589197E-01
        2   -1    0    0  501    0  0.00000000000E+00  0.00000000000E+00  0.67625808005E+03  0.67625808005E+03  0.25500000920E-02 0. -1.
       -2   -1    0    0    0  501  0.00000000000E+00  0.00000000000E+00 -0.15349925382E+04  0.15349925382E+04  0.25500000920E-02 0.  1.
    10030    2    1    2    0    0  0.00000000000E+00  0.00000000000E+00 -0.85873445819E+03  0.22112506183E+04  0.20376958623E+04 0.  0.
        5    1    3    3  502    0  0.78958437135E+02  0.83532661874E+03  0.19780591644E+03  0.86206395664E+03  0.46999998093E+01 0. -1.
       -5    1    3    3    0  502 -0.78958437135E+02 -0.83532661874E+03 -0.10565403746E+04  0.13491866617E+04  0.46999998093E+01 0.  1.
</event>
<event>
 5   0  0.4005462E-05  0.2248750E+04  0.7818609E-02  0.8498407E-01
        1   -1    0    0  501    0  0.00000000000E+00  0.00000000000E+00  0.13486897784E+04  0.13486897784E+04  0.50400001928E-02 0.  1.
       -1   -1    0    0    0  501  0.00000000000E+00  0.00000000000E+00 -0.93736835933E+03  0.93736835934E+03  0.50400001928E-02 0. -1.
    10030    2    1    2    0    0  0.00000000000E+00  0.00000000000E+00  0.41132141905E+03  0.22860581377E+04  0.22487499860E+04 0.  0.
        4    1    3    3  502    0 -0.57370117462E+03 -0.59277608336E+03 -0.57101784188E+03  0.10032843622E+04  0.12699999809E+01 0. -1.
       -4    1    3    3    0  502  0.57370117462E+03  0.59277608336E+03  0.98233926094E+03  0.12827737755E+04  0.12699999809E+01 0.  1.
</event>
<event>
 5   0  0.9483073E-05  0.2291071E+04  0.7818609E-02  0.8481450E-01
       -2   -1    0    0    0  501  0.00000000000E+00  0.00000000000E+00  0.15231111522E+04  0.15231111522E+04  0.25500000920E-02 0.  1.
        2   -1    0    0  501    0  0.00000000000E+00  0.00000000000E+00 -0.86155999767E+03  0.86155999767E+03  0.25500000920E-02 0. -1.
    10030    2    1    2    0    0  0.00000000000E+00  0.00000000000E+00  0.66155115452E+03  0.23846711499E+04  0.22910710515E+04 0.  0.
        5    1    3    3  502    0  0.79812292197E+03 -0.67135582072E+03  0.82395900570E+03  0.13291536291E+04  0.46999998093E+01 0. -1.
       -5    1    3    3    0  502 -0.79812292197E+03  0.67135582072E+03 -0.16240785117E+03  0.10555175208E+04  0.46999998093E+01 0.  1.
</event>
<event>
 5   0  0.4095451E-05  0.1693311E+04  0.7818609E-02  0.8765188E-01
        1   -1    0    0  501    0  0.00000000000E+00  0.00000000000E+00  0.14740524282E+04  0.14740524282E+04  0.50400001928E-02 0. -1.
       -1   -1    0    0    0  501  0.00000000000E+00  0.00000000000E+00 -0.48629606284E+03  0.48629606287E+03  0.50400001928E-02 0.  1.
    10030    2    1    2    0    0  0.00000000000E+00  0.00000000000E+00  0.98775636534E+03  0.19603484911E+04  0.16933114212E+04 0.  0.
        3    1    3    3  502    0 -0.39222481093E+02 -0.16292353757E+03 -0.46690450773E+03  0.49606684193E+03  0.10100000352E+00 0.  1.
       -3    1    3    3    0  502  0.39222481093E+02  0.16292353757E+03  0.14546608731E+04  0.14642816491E+04  0.10100000352E+00 0. -1.
</event>
<event>
 5   0  0.9535394E-05  0.2255192E+04  0.7818609E-02  0.8495801E-01
        2   -1    0    0  501    0  0.00000000000E+00  0.00000000000E+00  0.14726111425E+04  0.14726111425E+04  0.25500000920E-02 0.  1.
       -2   -1    0    0    0  501  0.00000000000E+00  0.00000000000E+00 -0.86341394382E+03  0.86341394383E+03  0.25500000920E-02 0. -1.
    10030    2    1    2    0    0  0.00000000000E+00  0.00000000000E+00  0.60919719872E+03  0.23360250864E+04  0.22551922262E+04 0.  0.
        2    1    3    3  502    0  0.13813488187E+03  0.49338210898E+03  0.13450748426E+04  0.14393517580E+04  0.25500000920E-02 0.  1.
       -2    1    3    3    0  502 -0.13813488187E+03 -0.49338210898E+03 -0.73587764388E+03  0.89667332838E+03  0.25500000920E-02 0. -1.
</event>
<event>
 5   0  0.9641157E-05  0.2298908E+04  0.7818609E-02  0.8478352E-01
        2   -1    0    0  501    0  0.00000000000E+00  0.00000000000E+00  0.10583015953E+04  0.10583015953E+04  0.25500000920E-02 0.  1.
       -2   -1    0    0    0  501  0.00000000000E+00  0.00000000000E+00 -0.12484572026E+04  0.12484572026E+04  0.25500000920E-02 0. -1.
    10030    2    1    2    0    0  0.00000000000E+00  0.00000000000E+00 -0.19015560730E+03  0.23067587980E+04  0.22989077835E+04 0.  0.
        3    1    3    3  502    0  0.88704155225E+03 -0.69383898616E+03  0.13590169539E+03  0.11343388097E+04  0.10100000352E+00 0. -1.
       -3    1    3    3    0  502 -0.88704155225E+03  0.69383898616E+03 -0.32605730269E+03  0.11724199883E+04  0.10100000352E+00 0.  1.
</event>
<event>
 5   0  0.9313463E-05  0.2299414E+04  0.7818609E-02  0.8478152E-01
       -2   -1    0    0    0  501  0.00000000000E+00  0.00000000000E+00  0.72899180566E+03  0.72899180566E+03  0.25500000920E-02 0. -1.
        2   -1    0    0  501    0  0.00000000000E+00  0.00000000000E+00 -0.18132252348E+04  0.18132252348E+04  0.25500000920E-02 0.  1.
    10030    2    1    2    0    0  0.00000000000E+00  0.00000000000E+00 -0.10842334291E+04  0.25422170404E+04  0.22994141323E+04 0.  0.
        1    1    3    3  502    0  0.70371698060E+03 -0.76024674234E+03 -0.10934006957E+04  0.15062263374E+04  0.50400001928E-02 0.  1.
       -1    1    3    3    0  502 -0.70371698060E+03  0.76024674234E+03  0.91672665878E+01  0.10359907031E+04  0.50400001928E-02 0. -1.
</event>
<event>
 5   0  0.4139830E-05  0.2285576E+04  0.7818609E-02  0.8483630E-01
        1   -1    0    0  501    0  0.00000000000E+00  0.00000000000E+00  0.78257423729E+03  0.78257423730E+03  0.50400001928E-02 0. -1.
       -1   -1    0    0    0  501  0.00000000000E+00  0.00000000000E+00 -0.16688062156E+04  0.16688062156E+04  0.50400001928E-02 0.  1.
    10030    2    1    2    0    0  0.00000000000E+00  0.00000000000E+00 -0.88623197831E+03  0.24513804529E+04  0.22855762962E+04 0.  0.
        1    1    3    3  502    0 -0.10289572547E+04  0.43663282767E+03 -0.69819992337E+03  0.13179090982E+04  0.50400001928E-02 0.  1.
       -1    1    3    3    0  502  0.10289572547E+04 -0.43663282767E+03 -0.18803205494E+03  0.11334713547E+04  0.50400001928E-02 0. -1.
</event>
<event>
 5   0  0.9641157E-05  0.2298904E+04  0.7818609E-02  0.8478353E-01
        2   -1    0    0  501    0  0.00000000000E+00  0.00000000000E+00  0.15212928593E+04  0.15212928593E+04  0.25500000920E-02 0.  1.
       -2   -1    0    0    0  501  0.00000000000E+00  0.00000000000E+00 -0.86849793005E+03  0.86849793006E+03  0.25500000920E-02 0. -1.
    10030    2    1    2    0    0  0.00000000000E+00  0.00000000000E+00  0.65279492926E+03  0.23897907894E+04  0.22989038251E+04 0.  0.
        3    1    3    3  502    0  0.24725397878E+03 -0.29362766357E+03  0.14526931052E+04  0.15025541597E+04  0.10100000352E+00 0.  1.
       -3    1    3    3    0  502 -0.24725397878E+03  0.29362766357E+03 -0.79989817596E+03  0.88723662962E+03  0.10100000352E+00 0. -1.
</event>
<event>
 5   0  0.4005462E-05  0.2305732E+04  0.7818609E-02  0.8475665E-01
        1   -1    0    0  501    0  0.00000000000E+00  0.00000000000E+00  0.13569579749E+04  0.13569579750E+04  0.50400001928E-02 0. -1.
       -1   -1    0    0    0  501  0.00000000000E+00  0.00000000000E+00 -0.97947002570E+03  0.97947002571E+03  0.50400001928E-02 0.  1.
    10030    2    1    2    0    0  0.00000000000E+00  0.00000000000E+00  0.37748794925E+03  0.23364280007E+04  0.23057316952E+04 0.  0.
        4    1    3    3  502    0 -0.11278075185E+04 -0.67019758131E+02 -0.43781238750E+02  0.11306457697E+04  0.12699999809E+01 0. -1.
       -4    1    3    3    0  502  0.11278075185E+04  0.67019758131E+02  0.42126918800E+03  0.12057822309E+04  0.12699999809E+01 0.  1.
</event>
<event>
 5   0  0.9483073E-05  0.2627698E+04  0.7818609E-02  0.8358853E-01
       -2   -1    0    0    0  501  0.00000000000E+00  0.00000000000E+00  0.14567138197E+04  0.14567138197E+04  0.25500000920E-02 0.  1.
        2   -1    0    0  501    0  0.00000000000E+00  0.00000000000E+00 -0.11849957457E+04  0.11849957457E+04  0.25500000920E-02 0. -1.
    10030    2    1    2    0    0  0.00000000000E+00  0.00000000000E+00  0.27171807404E+03  0.26417095654E+04  0.26276983686E+04 0.  0.
        5    1    3    3  502    0 -0.75474157122E+03 -0.10464212135E+04  0.38526528810E+03  0.13465079382E+04  0.46999998093E+01 0.  1.
       -5    1    3    3    0  502  0.75474157122E+03  0.10464212135E+04 -0.11354721406E+03  0.12952016272E+04  0.46999998093E+01 0. -1.
</event>
<event>
 5   0  0.4005462E-05  0.2328230E+04  0.7818609E-02  0.8466873E-01
        1   -1    0    0  501    0  0.00000000000E+00  0.00000000000E+00  0.95683230384E+03  0.95683230385E+03  0.50400001928E-02 0.  1.
       -1   -1    0    0    0  501  0.00000000000E+00  0.00000000000E+00 -0.14163023453E+04  0.14163023453E+04  0.50400001928E-02 0. -1.
    10030    2    1    2    0    0  0.00000000000E+00  0.00000000000E+00 -0.45947004149E+03  0.23731346492E+04  0.23282300883E+04 0.  0.
        4    1    3    3  502    0 -0.26289940508E+02  0.77269892996E+03  0.65734186323E+03  0.10148175872E+04  0.12699999809E+01 0.  1.
       -4    1    3    3    0  502  0.26289940508E+02 -0.77269892996E+03 -0.11168119047E+04  0.13583170619E+04  0.12699999809E+01 0. -1.
</event>
<event>
 5   0  0.4095451E-05  0.2351552E+04  0.7818609E-02  0.8457868E-01
        1   -1    0    0  501    0  0.00000000000E+00  0.00000000000E+00  0.23031391164E+04  0.23031391164E+04  0.50400001928E-02 0. -1.
       -1   -1    0    0    0  501  0.00000000000E+00  0.00000000000E+00 -0.60024561545E+03  0.60024561547E+03  0.50400001928E-02 0.  1.
    10030    2    1    2    0    0  0.00000000000E+00  0.00000000000E+00  0.17028935010E+04  0.29033847319E+04  0.23515519611E+04 0.  0.
        3    1    3    3  502    0  0.83340799791E+03 -0.34364569000E+02  0.18745826455E+04  0.20517821326E+04  0.10100000352E+00 0. -1.
       -3    1    3    3    0  502 -0.83340799791E+03  0.34364569000E+02 -0.17168914454E+03  0.85160259930E+03  0.10100000352E+00 0.  1.
</event>
<event>
 5   0  0.9313463E-05  0.2289472E+04  0.7818609E-02  0.8482084E-01
        2   -1    0    0  501    0  0.00000000000E+00  0.00000000000E+00  0.15493031681E+04  0.15493031681E+04  0.25500000920E-02 0.  1.
       -2   -1    0    0    0  501  0.00000000000E+00  0.00000000000E+00 -0.84581265429E+03  0.84581265430E+03  0.25500000920E-02 0. -1.
    10030    2    1    2    0    0  0.00000000000E+00  0.00000000000E+00  0.70349051376E+03  0.23951158224E+04  0.22894717512E+04 0.  0.
        1    1    3    3  502    0 -0.92442050301E+03  0.64581158756E+03  0.55779661463E+03  0.12580790660E+04  0.50400001928E-02 0.  1.
       -1    1    3    3    0  502  0.92442050301E+03 -0.64581158756E+03  0.14569389914E+03  0.11370367563E+04  0.50400001928E-02 0. -1.
</event>
<event>
 5   0  0.9312074E-05  0.2161162E+04  0.7818609E-02  0.8534769E-01
        2   -1    0    0  501    0  0.00000000000E+00  0.00000000000E+00  0.89783425748E+03  0.89783425748E+03  0.25500000920E-02 0. -1.
       -2   -1    0    0    0  501  0.00000000000E+00  0.00000000000E+00 -0.13005244602E+04  0.13005244602E+04  0.25500000920E-02 0.  1.
    10030    2    1    2    0    0  0.00000000000E+00  0.00000000000E+00 -0.40269020274E+03  0.21983587177E+04  0.21611621069E+04 0.  0.
        4    1    3    3  502    0  0.41233885265E+03  0.46754985733E+03  0.69647151430E+03  0.93471941331E+03  0.12699999809E+01 0. -1.
       -4    1    3    3    0  502 -0.41233885265E+03 -0.46754985733E+03 -0.10991617170E+04  0.12636393044E+04  0.12699999809E+01 0.  1.
</event>
<event>
 5   0  0.9641157E-05  0.2304802E+04  0.7818609E-02  0.8476030E-01
       -2   -1    0    0    0  501  0.00000000000E+00  0.00000000000E+00  0.13884467019E+04  0.13884467019E+04  0.25500000920E-02 0.  1.
        2   -1    0    0  501    0  0.00000000000E+00  0.00000000000E+00 -0.95648496896E+03  0.95648496896E+03  0.25500000920E-02 0. -1.
    10030    2    1    2    0    0  0.00000000000E+00  0.00000000000E+00  0.43196173298E+03  0.23449316709E+04  0.23048022914E+04 0.  0.
        3    1    3    3  502    0  0.46130301879E+03  0.76630590941E+03  0.95527077770E+03  0.13086510195E+04  0.10100000352E+00 0.  1.
       -3    1    3    3    0  502 -0.46130301879E+03 -0.76630590941E+03 -0.52330904472E+03  0.10362806514E+04  0.10100000352E+00 0. -1.
</event>
<event>
 5   0  0.4005462E-05  0.2336666E+04  0.7818609E-02  0.8463603E-01
        1   -1    0    0  501    0  0.00000000000E+00  0.00000000000E+00  0.82125429367E+03  0.82125429368E+03  0.50400001928E-02 0.  1.
       -1   -1    0    0    0  501  0.00000000000E+00  0.00000000000E+00 -0.16620943678E+04  0.16620943678E+04  0.50400001928E-02 0. -1.
    10030    2    1    2    0    0  0.00000000000E+00  0.00000000000E+00 -0.84084007413E+03  0.24833486615E+04  0.23366661174E+04 0.  0.
        4    1    3    3  502    0 -0.41016752504E+02  0.38712118912E+02 -0.16606459900E+04  0.16616039598E+04  0.12699999809E+01 0. -1.
       -4    1    3    3    0  502  0.41016752504E+02 -0.38712118912E+02  0.81980591589E+03  0.82174470169E+03  0.12699999809E+01 0.  1.
</event>
<event>
 5   0  0.3885219E-05  0.2288616E+04  0.7818609E-02  0.8482423E-01
       -1   -1    0    0    0  501  0.00000000000E+00  0.00000000000E+00  0.12341370843E+04  0.12341370843E+04  0.50400001928E-02 0. -1.
        1   -1    0    0  501    0  0.00000000000E+00  0.00000000000E+00 -0.10610174622E+04  0.10610174622E+04  0.50400001928E-02 0.  1.
    10030    2    1    2    0    0  0.00000000000E+00  0.00000000000E+00  0.17311962211E+03  0.22951545465E+04  0.22886161733E+04 0.  0.
        2    1    3    3  502    0 -0.10891777725E+04  0.33375067768E+03 -0.22116115077E+02  0.11393800321E+04  0.25500000920E-02 0. -1.
       -2    1    3    3    0  502  0.10891777725E+04 -0.33375067768E+03  0.19523573718E+03  0.11557745144E+04  0.25500000920E-02 0.  1.
</event>
<event>
 5   0  0.9483073E-05  0.2264620E+04  0.7818609E-02  0.8492003E-01
       -2   -1    0    0    0  501  0.00000000000E+00  0.00000000000E+00  0.58350704861E+03  0.58350704861E+03  0.25500000920E-02 0. -1.
        2   -1    0    0  501    0  0.00000000000E+00  0.00000000000E+00 -0.21972751938E+04  0.21972751938E+04  0.25500000920E-02 0.  1.
    10030    2    1    2    0    0  0.00000000000E+00  0.00000000000E+00 -0.16137681452E+04  0.27807822424E+04  0.22646196708E+04 0.  0.
        5    1    3    3  502    0  0.79304029337E+03  0.12679409249E+03  0.17323811462E+03  0.82159794495E+03  0.46999998093E+01 0. -1.
       -5    1    3    3    0  502 -0.79304029337E+03 -0.12679409249E+03 -0.17870062598E+04  0.19591842974E+04  0.46999998093E+01 0.  1.
</event>
<event>
 5   0  0.4139830E-05  0.2262638E+04  0.7818609E-02  0.8492800E-01
        1   -1    0    0  501    0  0.00000000000E+00  0.00000000000E+00  0.91206826658E+03  0.91206826660E+03  0.50400001928E-02 0. -1.
       -1   -1    0    0    0  501  0.00000000000E+00  0.00000000000E+00 -0.14032753527E+04  0.14032753527E+04  0.50400001928E-02 0.  1.
    10030    2    1    2    0    0  0.00000000000E+00  0.00000000000E+00 -0.49120708614E+03  0.23153436193E+04  0.22626382110E+04 0.  0.
        1    1    3    3  502    0  0.66202378051E+03 -0.67719597895E+03  0.38769299766E+03  0.10233160510E+04  0.50400001928E-02 0. -1.
       -1    1    3    3    0  502 -0.66202378051E+03  0.67719597895E+03 -0.87890008380E+03  0.12920275683E+04  0.50400001928E-02 0.  1.
</event>
<event>
 5   0  0.9641157E-05  0.2301477E+04  0.7818609E-02  0.8477339E-01
       -2   -1    0    0    0  501  0.00000000000E+00  0.00000000000E+00  0.73949834808E+03  0.73949834808E+03  0.25500000920E-02 0.  1.
        2   -1    0    0  501    0  0.00000000000E+00  0.00000000000E+00 -0.17906716786E+04  0.17906716787E+04  0.25500000920E-02 0. -1.
    10030    2    1    2    0    0  0.00000000000E+00  0.00000000000E+00 -0.10511733306E+04  0.25301700267E+04  0.23014766984E+04 0.  0.
        3    1    3    3  502    0 -0.93860941363E+03 -0.60055334448E+03 -0.20972769748E+03  0.11338596334E+04  0.10100000352E+00 0.  1.
       -3    1    3    3    0  502  0.93860941363E+03  0.60055334448E+03 -0.84144563310E+03  0.13963103934E+04  0.10100000352E+00 0. -1.
</event>
<event>
 5   0  0.3885219E-05  0.2366354E+04  0.7818609E-02  0.8452209E-01
       -1   -1    0    0    0  501  0.00000000000E+00  0.00000000000E+00  0.10419562688E+04  0.10419562688E+04  0.50400001928E-02 0. -1.
        1   -1    0    0  501    0  0.00000000000E+00  0.00000000000E+00 -0.13435376596E+04  0.13435376596E+04  0.50400001928E-02 0.  1.
    10030    2    1    2    0    0  0.00000000000E+00  0.00000000000E+00 -0.30158139081E+03  0.23854939284E+04  0.23663537241E+04 0.  0.
        2    1    3    3  502    0 -0.65934017985E+03 -0.69785680100E+03  0.54630369064E+03  0.11046181738E+04  0.25500000920E-02 0. -1.
       -2    1    3    3    0  502  0.65934017985E+03  0.69785680100E+03 -0.84788508145E+03  0.12808757546E+04  0.25500000920E-02 0.  1.
</event>
<event>
 5   0  0.4005462E-05  0.2363610E+04  0.7818609E-02  0.8453254E-01
       -1   -1    0    0    0  501  0.00000000000E+00  0.00000000000E+00  0.14388460243E+04  0.14388460244E+04  0.50400001928E-02 0.  1.
        1   -1    0    0  501    0  0.00000000000E+00  0.00000000000E+00 -0.97068273672E+03  0.97068273674E+03  0.50400001928E-02 0. -1.
    10030    2    1    2    0    0  0.00000000000E+00  0.00000000000E+00  0.46816328763E+03  0.24095287611E+04  0.23636099481E+04 0.  0.
        4    1    3    3  502    0 -0.55023819141E+03  0.46861338179E+03 -0.71912431142E+03  0.10195596878E+04  0.12699999809E+01 0. -1.
       -4    1    3    3    0  502  0.55023819141E+03 -0.46861338179E+03  0.11872875990E+04  0.13899690733E+04  0.12699999809E+01 0.  1.
</event>
<event>
 5   0  0.3261500E-05  0.2305132E+04  0.7818609E-02  0.8475900E-01
        3   -1    0    0  501    0  0.00000000000E+00  0.00000000000E+00  0.18233383361E+04  0.18233383389E+04  0.10100000352E+00 0. -1.
       -3   -1    0    0    0  501  0.00000000000E+00  0.00000000000E+00 -0.72855860210E+03  0.72855860910E+03  0.10100000352E+00 0.  1.
    10030    2    1    2    0    0  0.00000000000E+00  0.00000000000E+00  0.10947797340E+04  0.25518969480E+04  0.23051323969E+04 0.  0.
        2    1    3    3  502    0 -0.30377580262E+03 -0.20235156290E+03 -0.66288621960E+03  0.75673247149E+03  0.25500000920E-02 0.  1.
       -2    1    3    3    0  502  0.30377580262E+03  0.20235156290E+03  0.17576659536E+04  0.17951644765E+04  0.25500000920E-02 0. -1.
</event>
<event>
 5   0  0.9312074E-05  0.2193717E+04  0.7818609E-02  0.8521048E-01
        2   -1    0    0  501    0  0.00000000000E+00  0.00000000000E+00  0.20449458929E+04  0.20449458929E+04  0.25500000920E-02 0. -1.
       -2   -1    0    0    0  501  0.00000000000E+00  0.00000000000E+00 -0.58832773350E+03  0.58832773351E+03  0.25500000920E-02 0.  1.
    10030    2    1    2    0    0  0.00000000000E+00  0.00000000000E+00  0.14566181594E+04  0.26332736264E+04  0.21937168298E+04 0.  0.
        4    1    3    3  502    0  0.61737010120E+03  0.77636165127E+03  0.16629255601E+03  0.10057524956E+04  0.12699999809E+01 0.  1.
       -4    1    3    3    0  502 -0.61737010120E+03 -0.77636165127E+03  0.12903256034E+04  0.16275211307E+04  0.12699999809E+01 0. -1.
</event>
<event>
 5   0  0.4295775E-05  0.2248913E+04  0.7818609E-02  0.8498341E-01
        1   -1    0    0  501    0  0.00000000000E+00  0.00000000000E+00  0.16977899704E+04  0.16977899704E+04  0.50400001928E-02 0. -1.
       -1   -1    0    0    0  501  0.00000000000E+00  0.00000000000E+00 -0.74473421497E+03  0.74473421498E+03  0.50400001928E-02 0.  1.
    10030    2    1    2    0    0  0.00000000000E+00  0.00000000000E+00  0.95305575542E+03  0.24425241854E+04  0.22489128759E+04 0.  0.
        5    1    3    3  502    0  0.73649803136E+03  0.64376787197E+03 -0.12575223621E+03  0.98625662892E+03  0.46999998093E+01 0.  1.
       -5    1    3    3    0  502 -0.73649803136E+03 -0.64376787197E+03  0.10788079916E+04  0.14562675565E+04  0.46999998093E+01 0. -1.
</event>
<event>
 5   0  0.9535394E-05  0.2295526E+04  0.7818609E-02  0.8479687E-01
        2   -1    0    0  501    0  0.00000000000E+00  0.00000000000E+00  0.19571718190E+04  0.19571718190E+04  0.25500000920E-02 0. -1.
       -2   -1    0    0    0  501  0.00000000000E+00  0.00000000000E+00 -0.67309386398E+03  0.67309386399E+03  0.25500000920E-02 0.  1.
    10030    2    1    2    0    0  0.00000000000E+00  0.00000000000E+00  0.12840779550E+04  0.26302656830E+04  0.22955263816E+04 0.  0.
        2    1    3    3  502    0 -0.19265996879E+03 -0.93675206732E+03  0.13691967626E+04  0.16701263646E+04  0.25500000920E-02 0. -1.
       -2    1    3    3    0  502  0.19265996879E+03  0.93675206732E+03 -0.85118807578E+02  0.96013931833E+03  0.25500000920E-02 0.  1.
</event>
<event>
 5   0  0.4005462E-05  0.2267595E+04  0.7818609E-02  0.8490809E-01
        1   -1    0    0  501    0  0.00000000000E+00  0.00000000000E+00  0.17227020752E+04  0.17227020752E+04  0.50400001928E-02 0.  1.
       -1   -1    0    0    0  501  0.00000000000E+00  0.00000000000E+00 -0.74620954995E+03  0.74620954997E+03  0.50400001928E-02 0. -1.
    10030    2    1    2    0    0  0.00000000000E+00  0.00000000000E+00  0.97649252526E+03  0.24689116252E+04  0.22675949729E+04 0.  0.
        4    1    3    3  502    0  0.52521256928E+03 -0.61033056011E+03 -0.38083159431E+03  0.89072215177E+03  0.12699999809E+01 0. -1.
       -4    1    3    3    0  502 -0.52521256928E+03  0.61033056011E+03  0.13573241196E+04  0.15781894734E+04  0.12699999809E+01 0.  1.
</event>
<event>
 5   0  0.4139830E-05  0.1909325E+04  0.7818609E-02  0.8650229E-01
        1   -1    0    0  501    0  0.00000000000E+00  0.00000000000E+00  0.10178430758E+04  0.10178430758E+04  0.50400001928E-02 0. -1.
       -1   -1    0    0    0  501  0.00000000000E+00  0.00000000000E+00 -0.89540364832E+03  0.89540364834E+03  0.50400001928E-02 0.  1.
    10030    2    1    2    0    0  0.00000000000E+00  0.00000000000E+00  0.12243942751E+03  0.19132467242E+04  0.19093249106E+04 0.  0.
        1    1    3    3  502    0 -0.84142741421E+03  0.44471549286E+03 -0.13823633935E+02  0.95182091585E+03  0.50400001928E-02 0.  1.
       -1    1    3    3    0  502  0.84142741421E+03 -0.44471549286E+03  0.13626306145E+03  0.96142580833E+03  0.50400001928E-02 0. -1.
</event>
<event>
 5   0  0.9535394E-05  0.2276376E+04  0.7818609E-02  0.8487294E-01
        2   -1    0    0  501    0  0.00000000000E+00  0.00000000000E+00  0.14826531337E+04  0.14826531337E+04  0.25500000920E-02 0. -1.
       -2   -1    0    0    0  501  0.00000000000E+00  0.00000000000E+00 -0.87375265592E+03  0.87375265592E+03  0.25500000920E-02 0.  1.
    10030    2    1    2    0    0  0.00000000000E+00  0.00000000000E+00  0.60890047783E+03  0.23564057897E+04  0.22763761670E+04 0.  0.
        2    1    3    3  502    0 -0.50929725762E+03 -0.38470068826E+03 -0.67106817038E+03  0.92612677613E+03  0.25500000920E-02 0.  1.
       -2    1    3    3    0  502  0.50929725762E+03  0.38470068826E+03  0.12799686482E+04  0.14302790135E+04  0.25500000920E-02 0. -1.
</event>
<event>
 5   0  0.9313463E-05  0.2340157E+04  0.7818609E-02  0.8462254E-01
        2   -1    0    0  501    0  0.00000000000E+00  0.00000000000E+00  0.11043728677E+04  0.11043728677E+04  0.25500000920E-02 0. -1.
       -2   -1    0    0    0  501  0.00000000000E+00  0.00000000000E+00 -0.12396937638E+04  0.12396937638E+04  0.25500000920E-02 0.  1.
    10030    2    1    2    0    0  0.00000000000E+00  0.00000000000E+00 -0.13532089608E+03  0.23440666315E+04  0.23401573938E+04 0.  0.
        1    1    3    3  502    0  0.30378095661E+03 -0.81942426636E+03  0.71167857251E+03  0.11270427625E+04  0.50400001928E-02 0. -1.
       -1    1    3    3    0  502 -0.30378095661E+03  0.81942426636E+03 -0.84699946858E+03  0.12170238690E+04  0.50400001928E-02 0.  1.
</event>
<event>
 5   0  0.3885219E-05  0.2337309E+04  0.7818609E-02  0.8463354E-01
       -1   -1    0    0    0  501  0.00000000000E+00  0.00000000000E+00  0.65373916008E+03  0.65373916010E+03  0.50400001928E-02 0.  1.
        1   -1    0    0  501    0  0.00000000000E+00  0.00000000000E+00 -0.20891414117E+04  0.20891414118E+04  0.50400001928E-02 0. -1.
    10030    2    1    2    0    0  0.00000000000E+00  0.00000000000E+00 -0.14354022517E+04  0.27428805718E+04  0.23373091809E+04 0.  0.
        2    1    3    3  502    0 -0.10837470346E+04 -0.39210339550E+03 -0.49044727288E+03  0.12525139661E+04  0.25500000920E-02 0.  1.
       -2    1    3    3    0  502  0.10837470346E+04  0.39210339550E+03 -0.94495497879E+03  0.14903666058E+04  0.25500000920E-02 0. -1.
</event>
<event>
 5   0  0.4139830E-05  0.2296219E+04  0.7818609E-02  0.8479413E-01
        1   -1    0    0  501    0  0.00000000000E+00  0.00000000000E+00  0.75547784321E+03  0.75547784323E+03  0.50400001928E-02 0.  1.
       -1   -1    0    0    0  501  0.00000000000E+00  0.00000000000E+00 -0.17447976509E+04  0.17447976509E+04  0.50400001928E-02 0. -1.
    10030    2    1    2    0    0  0.00000000000E+00  0.00000000000E+00 -0.98931980769E+03  0.25002754941E+04  0.22962194722E+04 0.  0.
        1    1    3    3  502    0 -0.73885616425E+02 -0.11054030023E+04 -0.16658564855E+03  0.11203239086E+04  0.50400001928E-02 0. -1.
       -1    1    3    3    0  502  0.73885616425E+02  0.11054030023E+04 -0.82273415914E+03  0.13799515855E+04  0.50400001928E-02 0.  1.
</event>
<event>
 5   0  0.4005462E-05  0.2163395E+04  0.7818609E-02  0.8533820E-01
        1   -1    0    0  501    0  0.00000000000E+00  0.00000000000E+00  0.14852367738E+04  0.14852367738E+04  0.50400001928E-02 0. -1.
       -1   -1    0    0    0  501  0.00000000000E+00  0.00000000000E+00 -0.78780019628E+03  0.78780019629E+03  0.50400001928E-02 0.  1.
    10030    2    1    2    0    0  0.00000000000E+00  0.00000000000E+00  0.69743657751E+03  0.22730369701E+04  0.21633953147E+04 0.  0.
        4    1    3    3  502    0  0.87354846464E+02 -0.10149672458E+04 -0.33415804958E+02  0.10192681728E+04  0.12699999809E+01 0. -1.
       -4    1    3    3    0  502 -0.87354846464E+02  0.10149672458E+04  0.73085238247E+03  0.12537687973E+04  0.12699999809E+01 0.  1.
</event>
<event>
 5   0  0.9312074E-05  0.2315889E+04  0.7818609E-02  0.8471682E-01
       -2   -1    0    0    0  501  0.00000000000E+00  0.00000000000E+00  0.53126982251E+03  0.53126982252E+03  0.25500000920E-02 0.  1.
        2   -1    0    0  501    0  0.00000000000E+00  0.00000000000E+00 -0.25238324121E+04  0.25238324121E+04  0.25500000920E-02 0. -1.
    10030    2    1    2    0    0  0.00000000000E+00  0.00000000000E+00 -0.19925625896E+04  0.30551022346E+04  0.23158894599E+04 0.  0.
        4    1    3    3  502    0  0.91390751481E+03  0.17179751115E+03 -0.86045637365E+02  0.93388799921E+03  0.12699999809E+01 0.  1.
       -4    1    3    3    0  502 -0.91390751481E+03 -0.17179751115E+03 -0.19065169522E+04  0.21212142354E+04  0.12699999809E+01 0. -1.
</event>
<event>
 5   0  0.4095451E-05  0.2431029E+04  0.7818609E-02  0.8427977E-01
        1   -1    0    0  501    0  0.00000000000E+00  0.00000000000E+00  0.18701755985E+04  0.18701755986E+04  0.50400001928E-02 0.  1.
       -1   -1    0    0    0  501  0.00000000000E+00  0.00000000000E+00 -0.79001940375E+03  0.79001940376E+03  0.50400001928E-02 0. -1.
    10030    2    1    2    0    0  0.00000000000E+00  0.00000000000E+00  0.10801561948E+04  0.26601950023E+04  0.24310285982E+04 0.  0.
        3    1    3    3  502    0 -0.97620390760E+03  0.65842375490E+03  0.21001710456E+03  0.11960782184E+04  0.10100000352E+00 0. -1.
       -3    1    3    3    0  502  0.97620390760E+03 -0.65842375490E+03  0.87013909024E+03  0.14641167839E+04  0.10100000352E+00 0.  1.
</event>
<event>
 5   0  0.4139830E-05  0.1991592E+04  0.7818609E-02  0.8610562E-01
        1   -1    0    0  501    0  0.00000000000E+00  0.00000000000E+00  0.43747283770E+03  0.43747283773E+03  0.50400001928E-02 0. -1.
       -1   -1    0    0    0  501  0.00000000000E+00  0.00000000000E+00 -0.22666782383E+04  0.22666782383E+04  0.50400001928E-02 0.  1.
    10030    2    1    2    0    0  0.00000000000E+00  0.00000000000E+00 -0.18292054006E+04  0.27041510760E+04  0.19915924896E+04 0.  0.
        1    1    3    3  502    0  0.58787763559E+03 -0.79317137702E+03 -0.73814720740E+03  0.12327133680E+04  0.50400001928E-02 0.  1.
       -1    1    3    3    0  502 -0.58787763559E+03  0.79317137702E+03 -0.10910581932E+04  0.14714377081E+04  0.50400001928E-02 0. -1.
</event>
<event>
 5   0  0.4139830E-05  0.2223608E+04  0.7818609E-02  0.8508666E-01
        1   -1    0    0  501    0  0.00000000000E+00  0.00000000000E+00  0.98336588688E+03  0.98336588690E+03  0.50400001928E-02 0.  1.
       -1   -1    0    0    0  501  0.00000000000E+00  0.00000000000E+00 -0.12570177146E+04  0.12570177146E+04  0.50400001928E-02 0. -1.
    10030    2    1    2    0    0  0.00000000000E+00  0.00000000000E+00 -0.27365182768E+03  0.22403836015E+04  0.22236081847E+04 0.  0.
        1    1    3    3  502    0 -0.22381543892E+03 -0.24025838474E+03  0.93339803101E+03  0.98946921450E+03  0.50400001928E-02 0.  1.
       -1    1    3    3    0  502  0.22381543892E+03  0.24025838474E+03 -0.12070498587E+04  0.12509143870E+04  0.50400001928E-02 0. -1.
</event>
<event>
 5   0  0.9312074E-05  0.2370566E+04  0.7818609E-02  0.8450606E-01
        2   -1    0    0  501    0  0.00000000000E+00  0.00000000000E+00  0.25118388805E+04  0.25118388805E+04  0.25500000920E-02 0. -1.
       -2   -1    0    0    0  501  0.00000000000E+00  0.00000000000E+00 -0.55930983797E+03  0.55930983798E+03  0.25500000920E-02 0.  1.
    10030    2    1    2    0    0  0.00000000000E+00  0.00000000000E+00  0.19525290426E+04  0.30711487185E+04  0.23705663435E+04 0.  0.
        4    1    3    3  502    0  0.47900230544E+03  0.38009797740E+03 -0.33918201355E+03  0.69925941699E+03  0.12699999809E+01 0.  1.
       -4    1    3    3    0  502 -0.47900230544E+03 -0.38009797740E+03  0.22917110561E+04  0.23718893015E+04  0.12699999809E+01 0. -1.
</event>
<event>
 5   0  0.9641157E-05  0.2264644E+04  0.7818609E-02  0.8491993E-01
        2   -1    0    0  501    0  0.00000000000E+00  0.00000000000E+00  0.27163198245E+04  0.27163198245E+04  0.25500000920E-02 0. -1.
       -2   -1    0    0    0  501  0.00000000000E+00  0.00000000000E+00 -0.47201863858E+03  0.47201863859E+03  0.25500000920E-02 0.  1.
    10030    2    1    2    0    0  0.00000000000E+00  0.00000000000E+00  0.22443011860E+04  0.31883384631E+04  0.22646444185E+04 0.  0.
        3    1    3    3  502    0 -0.28021425064E+03  0.36303994772E+03 -0.33541623174E+03  0.56817434703E+03  0.10100000352E+00 0.  1.
       -3    1    3    3    0  502  0.28021425064E+03 -0.36303994772E+03  0.25797174177E+04  0.26201641161E+04  0.10100000352E+00 0. -1.
</event>
<event>
 5   0  0.9483073E-05  0.2281222E+04  0.7818609E-02  0.8485362E-01
        2   -1    0    0  501    0  0.00000000000E+00  0.00000000000E+00  0.80346650707E+03  0.80346650708E+03  0.25500000920E-02 0.  1.
       -2   -1    0    0    0  501  0.00000000000E+00  0.00000000000E+00 -0.16192260802E+04  0.16192260802E+04  0.25500000920E-02 0. -1.
    10030    2    1    2    0    0  0.00000000000E+00  0.00000000000E+00 -0.81575957308E+03  0.24226925872E+04  0.22812224116E+04 0.  0.
        5    1    3    3  502    0 -0.22602786229E+03 -0.77495954124E+03 -0.12636563484E+04  0.14995000307E+04  0.46999998093E+01 0. -1.
       -5    1    3    3    0  502  0.22602786229E+03  0.77495954124E+03  0.44789677535E+03  0.92319255655E+03  0.46999998093E+01 0.  1.
</event>
<event>
 5   0  0.9641157E-05  0.2302464E+04  0.7818609E-02  0.8476950E-01
        2   -1    0    0  501    0  0.00000000000E+00  0.00000000000E+00  0.11923331697E+04  0.11923331697E+04  0.25500000920E-02 0. -1.
       -2   -1    0    0    0  501  0.00000000000E+00  0.00000000000E+00 -0.11115478454E+04  0.11115478454E+04  0.25500000920E-02 0.  1.
    10030    2    1    2    0    0  0.00000000000E+00  0.00000000000E+00  0.80785324297E+02  0.23038810150E+04  0.23024642153E+04 0.  0.
        3    1    3    3  502    0  0.68980229027E+02 -0.16419522388E+03  0.11784653891E+04  0.11918468975E+04  0.10100000352E+00 0. -1.
       -3    1    3    3    0  502 -0.68980229027E+02  0.16419522388E+03 -0.10976800648E+04  0.11120341175E+04  0.10100000352E+00 0.  1.
</event>
<event>
 5   0  0.4295775E-05  0.2282657E+04  0.7818609E-02  0.8484791E-01
        1   -1    0    0  501    0  0.00000000000E+00  0.00000000000E+00  0.14859542372E+04  0.14859542373E+04  0.50400001928E-02 0.  1.
       -1   -1    0    0    0  501  0.00000000000E+00  0.00000000000E+00 -0.87662928743E+03  0.87662928745E+03  0.50400001928E-02 0. -1.
    10030    2    1    2    0    0  0.00000000000E+00  0.00000000000E+00  0.60932494981E+03  0.23625835247E+04  0.22826572272E+04 0.  0.
        5    1    3    3  502    0 -0.44160628478E+03  0.10233894135E+04  0.50573430970E+02  0.11157606214E+04  0.46999998093E+01 0. -1.
       -5    1    3    3    0  502  0.44160628478E+03 -0.10233894135E+04  0.55875151884E+03  0.12468229033E+04  0.46999998093E+01 0.  1.
</event>
<event>
 5   0  0.9483073E-05  0.2319754E+04  0.7818609E-02  0.8470173E-01
       -2   -1    0    0    0  501  0.00000000000E+00  0.00000000000E+00  0.17574383601E+04  0.17574383601E+04  0.25500000920E-02 0. -1.
        2   -1    0    0  501    0  0.00000000000E+00  0.00000000000E+00 -0.76549767467E+03  0.76549767468E+03  0.25500000920E-02 0.  1.
    10030    2    1    2    0    0  0.00000000000E+00  0.00000000000E+00  0.99194068545E+03  0.25229360348E+04  0.23197542784E+04 0.  0.
        5    1    3    3  502    0  0.83763538420E+03  0.70570685260E+03  0.80919647722E+02  0.10982828771E+04  0.46999998093E+01 0. -1.
       -5    1    3    3    0  502 -0.83763538420E+03 -0.70570685260E+03  0.91102103773E+03  0.14246531577E+04  0.46999998093E+01 0.  1.
</event>
<event>
 5   0  0.9535394E-05  0.2262250E+04  0.7818609E-02  0.8492956E-01
       -2   -1    0    0    0  501  0.00000000000E+00  0.00000000000E+00  0.13102981029E+04  0.13102981029E+04  0.25500000920E-02 0.  1.
        2   -1    0    0  501    0  0.00000000000E+00  0.00000000000E+00 -0.97645274357E+03  0.97645274357E+03  0.25500000920E-02 0. -1.
    10030    2    1    2    0    0  0.00000000000E+00  0.00000000000E+00  0.33384535935E+03  0.22867508465E+04  0.22622503641E+04 0.  0.
        2    1    3    3  502    0  0.72041194022E+03 -0.71213056626E+03  0.67568351017E+03  0.12176499961E+04  0.25500000920E-02 0.  1.
       -2    1    3    3    0  502 -0.72041194022E+03  0.71213056626E+03 -0.34183815081E+03  0.10691008504E+04  0.25500000920E-02 0. -1.
</event>
<event>
 5   0  0.9483073E-05  0.2263337E+04  0.7818609E-02  0.8492519E-01
       -2   -1    0    0    0  501  0.00000000000E+00  0.00000000000E+00  0.15599450114E+04  0.15599450114E+04  0.25500000920E-02 0.  1.
        2   -1    0    0  501    0  0.00000000000E+00  0.00000000000E+00 -0.82097328598E+03  0.82097328598E+03  0.25500000920E-02 0. -1.
    10030    2    1    2    0    0  0.00000000000E+00  0.00000000000E+00  0.73897172538E+03  0.23809182973E+04  0.22633366360E+04 0.  0.
        5    1    3    3  502    0  0.67536354267E+03 -0.72516407186E+02  0.13216473272E+04  0.14859839472E+04  0.46999998093E+01 0.  1.
       -5    1    3    3    0  502 -0.67536354267E+03  0.72516407186E+02 -0.58267560178E+03  0.89493435010E+03  0.46999998093E+01 0. -1.
</event>
<event>
 5   0  0.4139830E-05  0.1730371E+04  0.7818609E-02  0.8744230E-01
        1   -1    0    0  501    0  0.00000000000E+00  0.00000000000E+00  0.12671135846E+04  0.12671135846E+04  0.50400001928E-02 0. -1.
       -1   -1    0    0    0  501  0.00000000000E+00  0.00000000000E+00 -0.59074908438E+03  0.59074908440E+03  0.50400001928E-02 0.  1.
    10030    2    1    2    0    0  0.00000000000E+00  0.00000000000E+00  0.67636450023E+03  0.18578626690E+04  0.17303712780E+04 0.  0.
        1    1    3    3  502    0 -0.15390998984E+03  0.68938833670E+03 -0.19822917056E+03  0.73364798633E+03  0.50400001928E-02 0.  1.
       -1    1    3    3    0  502  0.15390998984E+03 -0.68938833670E+03  0.87459367079E+03  0.11242146827E+04  0.50400001928E-02 0. -1.
</event>
<event>
 5   0  0.9535394E-05  0.2324946E+04  0.7818609E-02  0.8468150E-01
       -2   -1    0    0    0  501  0.00000000000E+00  0.00000000000E+00  0.91846157944E+03  0.91846157945E+03  0.25500000920E-02 0. -1.
        2   -1    0    0  501    0  0.00000000000E+00  0.00000000000E+00 -0.14713123989E+04  0.14713123989E+04  0.25500000920E-02 0.  1.
    10030    2    1    2    0    0  0.00000000000E+00  0.00000000000E+00 -0.55285081944E+03  0.23897739783E+04  0.23249463734E+04 0.  0.
        2    1    3    3  502    0 -0.54313650797E+03  0.88135267770E+03 -0.81990668921E+03  0.13206160637E+04  0.25500000920E-02 0.  1.
       -2    1    3    3    0  502  0.54313650797E+03 -0.88135267770E+03  0.26705586977E+03  0.10691579146E+04  0.25500000920E-02 0. -1.
</event>
<event>
 5   0  0.4295775E-05  0.2305304E+04  0.7818609E-02  0.8475833E-01
       -1   -1    0    0    0  501  0.00000000000E+00  0.00000000000E+00  0.10956027886E+04  0.10956027886E+04  0.50400001928E-02 0. -1.
        1   -1    0    0  501    0  0.00000000000E+00  0.00000000000E+00 -0.12126714354E+04  0.12126714354E+04  0.50400001928E-02 0.  1.
    10030    2    1    2    0    0  0.00000000000E+00  0.00000000000E+00 -0.11706864682E+03  0.23082742240E+04  0.23053036297E+04 0.  0.
        5    1    3    3  502    0 -0.49871935684E+03 -0.31905020723E+03 -0.10487829659E+04  0.12043595108E+04  0.46999998093E+01 0.  1.
       -5    1    3    3    0  502  0.49871935684E+03  0.31905020723E+03  0.93171431908E+03  0.11039147132E+04  0.46999998093E+01 0. -1.
</event>
<event>
 5   0  0.4095451E-05  0.2029762E+04  0.7818609E-02  0.8592831E-01
        1   -1    0    0  501    0  0.00000000000E+00  0.00000000000E+00  0.17187401224E+04  0.17187401224E+04  0.50400001928E-02 0. -1.
       -1   -1    0    0    0  501  0.00000000000E+00  0.00000000000E+00 -0.59926678124E+03  0.59926678126E+03  0.50400001928E-02 0.  1.
    10030    2    1    2    0    0  0.00000000000E+00  0.00000000000E+00  0.11194733411E+04  0.23180069036E+04  0.20297624107E+04 0.  0.
        3    1    3    3  502    0 -0.49544522170E+03  0.48870885958E+03 -0.28386833524E+03  0.75158735959E+03  0.10100000352E+00 0.  1.
       -3    1    3    3    0  502  0.49544522170E+03 -0.48870885958E+03  0.14033416764E+04  0.15664195440E+04  0.10100000352E+00 0. -1.
</event>
<event>
 5   0  0.9312074E-05  0.2320537E+04  0.7818609E-02  0.8469868E-01
       -2   -1    0    0    0  501  0.00000000000E+00  0.00000000000E+00  0.65682296237E+03  0.65682296238E+03  0.25500000920E-02 0. -1.
        2   -1    0    0  501    0  0.00000000000E+00  0.00000000000E+00 -0.20495975152E+04  0.20495975152E+04  0.25500000920E-02 0.  1.
    10030    2    1    2    0    0  0.00000000000E+00  0.00000000000E+00 -0.13927745528E+04  0.27064204776E+04  0.23205367582E+04 0.  0.
        4    1    3    3  502    0 -0.17076940579E+03  0.10323216993E+04 -0.12811292211E+04  0.16541293706E+04  0.12699999809E+01 0. -1.
       -4    1    3    3    0  502  0.17076940579E+03 -0.10323216993E+04 -0.11164533175E+03  0.10522911069E+04  0.12699999809E+01 0.  1.
</event>
<event>
 5   0  0.4095451E-05  0.2313301E+04  0.7818609E-02  0.8472695E-01
       -1   -1    0    0    0  501  0.00000000000E+00  0.00000000000E+00  0.19942788649E+04  0.19942788649E+04  0.50400001928E-02 0.  1.
        1   -1    0    0  501    0  0.00000000000E+00  0.00000000000E+00 -0.67083911278E+03  0.67083911280E+03  0.50400001928E-02 0. -1.
    10030    2    1    2    0    0  0.00000000000E+00  0.00000000000E+00  0.13234397521E+04  0.26651179777E+04  0.23133009008E+04 0.  0.
        3    1    3    3  502    0 -0.19455420085E+03  0.99411516404E+03  0.18485268188E+02  0.10131426414E+04  0.10100000352E+00 0. -1.
       -3    1    3    3    0  502  0.19455420085E+03 -0.99411516404E+03  0.13049544839E+04  0.16519753363E+04  0.10100000352E+00 0.  1.
</event>
<event>
 5   0  0.4005462E-05  0.2311475E+04  0.7818609E-02  0.8473410E-01
        1   -1    0    0  501    0  0.00000000000E+00  0.00000000000E+00  0.18292426269E+04  0.18292426269E+04  0.50400001928E-02 0. -1.
       -1   -1    0    0    0  501  0.00000000000E+00  0.00000000000E+00 -0.73020901273E+03  0.73020901274E+03  0.50400001928E-02 0.  1.
    10030    2    1    2    0    0  0.00000000000E+00  0.00000000000E+00  0.10990336142E+04  0.25594516397E+04  0.23114752455E+04 0.  0.
        4    1    3    3  502    0 -0.36441175216E+03  0.20331307155E+03 -0.64388085007E+03  0.76727849714E+03  0.12699999809E+01 0.  1.
       -4    1    3    3    0  502  0.36441175216E+03 -0.20331307155E+03  0.17429144643E+04  0.17921731425E+04  0.12699999809E+01 0. -1.
</event>
<event>
 5   0  0.4095451E-05  0.2327458E+04  0.7818609E-02  0.8467173E-01
       -1   -1    0    0    0  501  0.00000000000E+00  0.00000000000E+00  0.10206156258E+04  0.10206156258E+04  0.50400001928E-02 0.  1.
        1   -1    0    0  501    0  0.00000000000E+00  0.00000000000E+00 -0.13269099164E+04  0.13269099164E+04  0.50400001928E-02 0. -1.
    10030    2    1    2    0    0  0.00000000000E+00  0.00000000000E+00 -0.30629429056E+03  0.23475255422E+04  0.23274578361E+04 0.  0.
        3    1    3    3  502    0 -0.95115971369E+03  0.67009219662E+03 -0.12978209911E+03  0.11707142078E+04  0.10100000352E+00 0.  1.
       -3    1    3    3    0  502  0.95115971369E+03 -0.67009219662E+03 -0.17651219145E+03  0.11768113344E+04  0.10100000352E+00 0. -1.
</event>
<event>
 5   0  0.9483073E-05  0.2311092E+04  0.7818609E-02  0.8473561E-01
        2   -1    0    0  501    0  0.00000000000E+00  0.00000000000E+00  0.18762538823E+04  0.18762538823E+04  0.25500000920E-02 0.  1.
       -2   -1    0    0    0  501  0.00000000000E+00  0.00000000000E+00 -0.71167674666E+03  0.71167674666E+03  0.25500000920E-02 0. -1.
    10030    2    1    2    0    0  0.00000000000E+00  0.00000000000E+00  0.11645771356E+04  0.25879306289E+04  0.23110917410E+04 0.  0.
        5    1    3    3  502    0  0.28919123025E+03  0.98993894205E+03 -0.13488015268E+01  0.10313266146E+04  0.46999998093E+01 0. -1.
       -5    1    3    3    0  502 -0.28919123025E+03 -0.98993894205E+03  0.11659259371E+04  0.15566040144E+04  0.46999998093E+01 0.  1.
</event>
<event>
 5   0  0.4005462E-05  0.2289443E+04  0.7818609E-02  0.8482095E-01
        1   -1    0    0  501    0  0.00000000000E+00  0.00000000000E+00  0.17274547861E+04  0.17274547861E+04  0.50400001928E-02 0. -1.
       -1   -1    0    0    0  501  0.00000000000E+00  0.00000000000E+00 -0.75856561729E+03  0.75856561730E+03  0.50400001928E-02 0.  1.
    10030    2    1    2    0    0  0.00000000000E+00  0.00000000000E+00  0.96888916880E+03  0.24860204034E+04  0.22894434312E+04 0.  0.
        4    1    3    3  502    0  0.41601114136E+03 -0.10347895708E+04  0.20436056917E+03  0.11338516573E+04  0.12699999809E+01 0. -1.
       -4    1    3    3    0  502 -0.41601114136E+03  0.10347895708E+04  0.76452859963E+03  0.13521687462E+04  0.12699999809E+01 0.  1.
</event>
<event>
 5   0  0.4295775E-05  0.2340776E+04  0.7818609E-02  0.8462015E-01
       -1   -1    0    0    0  501  0.00000000000E+00  0.00000000000E+00  0.68483779783E+03  0.68483779785E+03  0.50400001928E-02 0. -1.
        1   -1    0    0  501    0  0.00000000000E+00  0.00000000000E+00 -0.20001926568E+04  0.20001926569E+04  0.50400001928E-02 0.  1.
    10030    2    1    2    0    0  0.00000000000E+00  0.00000000000E+00 -0.13153548590E+04  0.26850304547E+04  0.23407755419E+04 0.  0.
        5    1    3    3  502    0  0.39317030103E+03 -0.10756101256E+04 -0.38079533439E+03  0.12068749747E+04  0.46999998093E+01 0. -1.
       -5    1    3    3    0  502 -0.39317030103E+03  0.10756101256E+04 -0.93455952462E+03  0.14781554800E+04  0.46999998093E+01 0.  1.
</event>
<event>
 5   0  0.9483073E-05  0.2254351E+04  0.7818609E-02  0.8496140E-01
       -2   -1    0    0    0  501  0.00000000000E+00  0.00000000000E+00  0.10332046374E+04  0.10332046374E+04  0.25500000920E-02 0. -1.
        2   -1    0    0  501    0  0.00000000000E+00  0.00000000000E+00 -0.12296931409E+04  0.12296931409E+04  0.25500000920E-02 0.  1.
    10030    2    1    2    0    0  0.00000000000E+00  0.00000000000E+00 -0.19648850349E+03  0.22628977784E+04  0.22543510426E+04 0.  0.
        5    1    3    3  502    0 -0.19918337694E+03 -0.89573431734E+03 -0.75531633820E+03  0.11885027748E+04  0.46999998093E+01 0.  1.
       -5    1    3    3    0  502  0.19918337694E+03  0.89573431734E+03  0.55882783471E+03  0.10743950036E+04  0.46999998093E+01 0. -1.
</event>
<event>
 5   0  0.4295775E-05  0.2308752E+04  0.7818609E-02  0.8474478E-01
        1   -1    0    0  501    0  0.00000000000E+00  0.00000000000E+00  0.12006754537E+04  0.12006754537E+04  0.50400001928E-02 0.  1.
       -1   -1    0    0    0  501  0.00000000000E+00  0.00000000000E+00 -0.11098614909E+04  0.11098614909E+04  0.50400001928E-02 0. -1.
    10030    2    1    2    0    0  0.00000000000E+00  0.00000000000E+00  0.90813962801E+02  0.23105369446E+04  0.23087515667E+04 0.  0.
        5    1    3    3  502    0  0.28157704899E+03 -0.48396748592E+03 -0.96485431606E+03  0.11155608917E+04  0.46999998093E+01 0. -1.
       -5    1    3    3    0  502 -0.28157704899E+03  0.48396748592E+03  0.10556682789E+04  0.11949760529E+04  0.46999998093E+01 0.  1.
</event>
<event>
 5   0  0.9312074E-05  0.2378775E+04  0.7818609E-02  0.8447493E-01
        2   -1    0    0  501    0  0.00000000000E+00  0.00000000000E+00  0.12519760312E+04  0.12519760312E+04  0.25500000920E-02 0.  1.
       -2   -1    0    0    0  501  0.00000000000E+00  0.00000000000E+00 -0.11299277002E+04  0.11299277002E+04  0.25500000920E-02 0. -1.
    10030    2    1    2    0    0  0.00000000000E+00  0.00000000000E+00  0.12204833102E+03  0.23819037314E+04  0.23787748087E+04 0.  0.
        4    1    3    3  502    0  0.38324885655E+03 -0.32501706045E+03  0.11404611591E+04  0.12462620286E+04  0.12699999809E+01 0.  1.
       -4    1    3    3    0  502 -0.38324885655E+03  0.32501706045E+03 -0.10184128281E+04  0.11356417027E+04  0.12699999809E+01 0. -1.
</event>
<event>
 5   0  0.4005462E-05  0.2357525E+04  0.7818609E-02  0.8455579E-01
       -1   -1    0    0    0  501  0.00000000000E+00  0.00000000000E+00  0.88186462305E+03  0.88186462307E+03  0.50400001928E-02 0.  1.
        1   -1    0    0  501    0  0.00000000000E+00  0.00000000000E+00 -0.15756177613E+04  0.15756177613E+04  0.50400001928E-02 0. -1.
    10030    2    1    2    0    0  0.00000000000E+00  0.00000000000E+00 -0.69375313828E+03  0.24574823844E+04  0.23575254511E+04 0.  0.
        4    1    3    3  502    0 -0.58662908609E+03 -0.79101221691E+03  0.32839044492E+03  0.10381117036E+04  0.12699999809E+01 0.  1.
       -4    1    3    3    0  502  0.58662908609E+03  0.79101221691E+03 -0.10221435832E+04  0.14193706808E+04  0.12699999809E+01 0. -1.
</event>
<event>
 5   0  0.3885219E-05  0.2238824E+04  0.7818609E-02  0.8502440E-01
        1   -1    0    0  501    0  0.00000000000E+00  0.00000000000E+00  0.12563357577E+04  0.12563357577E+04  0.50400001928E-02 0. -1.
       -1   -1    0    0    0  501  0.00000000000E+00  0.00000000000E+00 -0.99741107470E+03  0.99741107471E+03  0.50400001928E-02 0.  1.
    10030    2    1    2    0    0  0.00000000000E+00  0.00000000000E+00  0.25892468301E+03  0.22537468324E+04  0.22388239755E+04 0.  0.
        2    1    3    3  502    0 -0.34046904415E+03 -0.24382307938E+03 -0.91558751480E+03  0.10068114825E+04  0.25500000920E-02 0.  1.
       -2    1    3    3    0  502  0.34046904415E+03  0.24382307938E+03  0.11745121978E+04  0.12469353499E+04  0.25500000920E-02 0. -1.
</event>
<event>
 5   0  0.4095451E-05  0.2330095E+04  0.7818609E-02  0.8466149E-01
        1   -1    0    0  501    0  0.00000000000E+00  0.00000000000E+00  0.14016283522E+04  0.14016283522E+04  0.50400001928E-02 0.  1.
       -1   -1    0    0    0  501  0.00000000000E+00  0.00000000000E+00 -0.96839934472E+03  0.96839934473E+03  0.50400001928E-02 0. -1.
    10030    2    1    2    0    0  0.00000000000E+00  0.00000000000E+00  0.43322900748E+03  0.23700276969E+04  0.23300952580E+04 0.  0.
        3    1    3    3  502    0 -0.16409048103E+03 -0.29418210236E+03  0.13510158897E+04  0.13923766515E+04  0.10100000352E+00 0.  1.
       -3    1    3    3    0  502  0.16409048103E+03  0.29418210236E+03 -0.91778688219E+03  0.97765104543E+03  0.10100000352E+00 0. -1.
</event>
<event>
 5   0  0.9641157E-05  0.2367431E+04  0.7818609E-02  0.8451798E-01
        2   -1    0    0  501    0  0.00000000000E+00  0.00000000000E+00  0.16259149145E+04  0.16259149145E+04  0.25500000920E-02 0.  1.
       -2   -1    0    0    0  501  0.00000000000E+00  0.00000000000E+00 -0.86178101976E+03  0.86178101976E+03  0.25500000920E-02 0. -1.
    10030    2    1    2    0    0  0.00000000000E+00  0.00000000000E+00  0.76413389479E+03  0.24876959343E+04  0.23674311928E+04 0.  0.
        3    1    3    3  502    0  0.20604111312E+03  0.45248295146E+03  0.15108766548E+04  0.15905791518E+04  0.10100000352E+00 0.  1.
       -3    1    3    3    0  502 -0.20604111312E+03 -0.45248295146E+03 -0.74674276005E+03  0.89711678256E+03  0.10100000352E+00 0. -1.
</event>
<event>
 5   0  0.3885219E-05  0.2300443E+04  0.7818609E-02  0.8477747E-01
       -1   -1    0    0    0  501  0.00000000000E+00  0.00000000000E+00  0.93666776938E+03  0.93666776940E+03  0.50400001928E-02 0. -1.
        1   -1    0    0  501    0  0.00000000000E+00  0.00000000000E+00 -0.14124634822E+04  0.14124634822E+04  0.50400001928E-02 0.  1.
    10030    2    1    2    0    0  0.00000000000E+00  0.00000000000E+00 -0.47579571285E+03  0.23491312516E+04  0.23004425829E+04 0.  0.
        2    1    3    3  502    0  0.12606024592E+03  0.74810529267E+03  0.64495594056E+03  0.99575141466E+03  0.25500000920E-02 0. -1.
       -2    1    3    3    0  502 -0.12606024592E+03 -0.74810529267E+03 -0.11207516534E+04  0.13533798370E+04  0.25500000920E-02 0.  1.
</event>
<event>
 5   0  0.3885219E-05  0.2192509E+04  0.7818609E-02  0.8521552E-01
       -1   -1    0    0    0  501  0.00000000000E+00  0.00000000000E+00  0.15629317924E+04  0.15629317924E+04  0.50400001928E-02 0. -1.
        1   -1    0    0  501    0  0.00000000000E+00  0.00000000000E+00 -0.76892283720E+03  0.76892283721E+03  0.50400001928E-02 0.  1.
    10030    2    1    2    0    0  0.00000000000E+00  0.00000000000E+00  0.79400895523E+03  0.23318546296E+04  0.21925090177E+04 0.  0.
        2    1    3    3  502    0 -0.50742016089E+03  0.22408236356E+03  0.14026610321E+04  0.15083587426E+04  0.25500000920E-02 0. -1.
       -2    1    3    3    0  502  0.50742016089E+03 -0.22408236356E+03 -0.60865207687E+03  0.82349588707E+03  0.25500000920E-02 0.  1.
</event>
<event>
 5   0  0.9483073E-05  0.2317903E+04  0.7818609E-02  0.8470896E-01
       -2   -1    0    0    0  501  0.00000000000E+00  0.00000000000E+00  0.79718999693E+03  0.79718999693E+03  0.25500000920E-02 0. -1.
        2   -1    0    0  501    0  0.00000000000E+00  0.00000000000E+00 -0.16848783824E+04  0.16848783824E+04  0.25500000920E-02 0.  1.
    10030    2    1    2    0    0  0.00000000000E+00  0.00000000000E+00 -0.88768838543E+03  0.24820683793E+04  0.23179026662E+04 0.  0.
        5    1    3    3  502    0 -0.11458031975E+04  0.17401315158E+03 -0.44304415936E+03  0.12407480652E+04  0.46999998093E+01 0.  1.
       -5    1    3    3    0  502  0.11458031975E+04 -0.17401315158E+03 -0.44464422606E+03  0.12413203140E+04  0.46999998093E+01 0. -1.
</event>
<event>
 5   0  0.9312074E-05  0.2314852E+04  0.7818609E-02  0.8472088E-01
       -2   -1    0    0    0  501  0.00000000000E+00  0.00000000000E+00  0.88331246867E+03  0.88331246867E+03  0.25500000920E-02 0. -1.
        2   -1    0    0  501    0  0.00000000000E+00  0.00000000000E+00 -0.15166038333E+04  0.15166038333E+04  0.25500000920E-02 0.  1.
    10030    2    1    2    0    0  0.00000000000E+00  0.00000000000E+00 -0.63329136459E+03  0.23999163019E+04  0.23148521127E+04 0.  0.
        4    1    3    3  502    0  0.10913862189E+04  0.35733273673E+03 -0.46624976501E+03  0.12394357668E+04  0.12699999809E+01 0.  1.
       -4    1    3    3    0  502 -0.10913862189E+04 -0.35733273673E+03 -0.16704159958E+03  0.11604805352E+04  0.12699999809E+01 0. -1.
</event>
<event>
 5   0  0.3885219E-05  0.1987424E+04  0.7818609E-02  0.8612523E-01
       -1   -1    0    0    0  501  0.00000000000E+00  0.00000000000E+00  0.87193699797E+03  0.87193699798E+03  0.50400001928E-02 0. -1.
        1   -1    0    0  501    0  0.00000000000E+00  0.00000000000E+00 -0.11324945438E+04  0.11324945438E+04  0.50400001928E-02 0.  1.
    10030    2    1    2    0    0  0.00000000000E+00  0.00000000000E+00 -0.26055754580E+03  0.20044315418E+04  0.19874243560E+04 0.  0.
        2    1    3    3  502    0 -0.60060173114E+03 -0.27321806435E+02 -0.92824781511E+03  0.11059443597E+04  0.25500000920E-02 0.  1.
       -2    1    3    3    0  502  0.60060173114E+03  0.27321806435E+02  0.66769026931E+03  0.89848718204E+03  0.25500000920E-02 0. -1.
</event>
<event>
 5   0  0.4095451E-05  0.2311151E+04  0.7818609E-02  0.8473537E-01
        1   -1    0    0  501    0  0.00000000000E+00  0.00000000000E+00  0.16860429823E+04  0.16860429823E+04  0.50400001928E-02 0.  1.
       -1   -1    0    0    0  501  0.00000000000E+00  0.00000000000E+00 -0.79200549858E+03  0.79200549859E+03  0.50400001928E-02 0. -1.
    10030    2    1    2    0    0  0.00000000000E+00  0.00000000000E+00  0.89403748371E+03  0.24780484809E+04  0.23111514990E+04 0.  0.
        3    1    3    3  502    0 -0.14799602813E+03 -0.11289415732E+04  0.65861029695E+03  0.13153628524E+04  0.10100000352E+00 0. -1.
       -3    1    3    3    0  502  0.14799602813E+03  0.11289415732E+04  0.23542718676E+03  0.11626856284E+04  0.10100000352E+00 0.  1.
</event>
<event>
 5   0  0.4095451E-05  0.2270351E+04  0.7818609E-02  0.8489704E-01
       -1   -1    0    0    0  501  0.00000000000E+00  0.00000000000E+00  0.13681417029E+04  0.13681417029E+04  0.50400001928E-02 0. -1.
        1   -1    0    0  501    0  0.00000000000E+00  0.00000000000E+00 -0.94187851114E+03  0.94187851115E+03  0.50400001928E-02 0.  1.
    10030    2    1    2    0    0  0.00000000000E+00  0.00000000000E+00  0.42626319177E+03  0.23100202141E+04  0.22703508717E+04 0.  0.
        3    1    3    3  502    0 -0.30689525953E+03  0.57880647048E+03  0.11563796969E+04  0.13290657035E+04  0.10100000352E+00 0. -1.
       -3    1    3    3    0  502  0.30689525953E+03 -0.57880647048E+03 -0.73011650512E+03  0.98095451059E+03  0.10100000352E+00 0.  1.
</event>
<event>
 5   0  0.9535394E-05  0.2297795E+04  0.7818609E-02  0.8478791E-01
       -2   -1    0    0    0  501  0.00000000000E+00  0.00000000000E+00  0.12776739448E+04  0.12776739448E+04  0.25500000920E-02 0. -1.
        2   -1    0    0  501    0  0.00000000000E+00  0.00000000000E+00 -0.10331002100E+04  0.10331002100E+04  0.25500000920E-02 0.  1.
    10030    2    1    2    0    0  0.00000000000E+00  0.00000000000E+00  0.24457373482E+03  0.23107741549E+04  0.22977947870E+04 0.  0.
        2    1    3    3  502    0  0.86572129389E+03  0.27112070098E+03  0.83124091932E+03  0.12304232033E+04  0.25500000920E-02 0. -1.
       -2    1    3    3    0  502 -0.86572129389E+03 -0.27112070098E+03 -0.58666718450E+03  0.10803509516E+04  0.25500000920E-02 0.  1.
</event>
<event>
 5   0  0.4139830E-05  0.2312679E+04  0.7818609E-02  0.8472939E-01
       -1   -1    0    0    0  501  0.00000000000E+00  0.00000000000E+00  0.99128501079E+03  0.99128501080E+03  0.50400001928E-02 0. -1.
        1   -1    0    0  501    0  0.00000000000E+00  0.00000000000E+00 -0.13488769346E+04  0.13488769346E+04  0.50400001928E-02 0.  1.
    10030    2    1    2    0    0  0.00000000000E+00  0.00000000000E+00 -0.35759192377E+03  0.23401619454E+04  0.23126793869E+04 0.  0.
        1    1    3    3  502    0  0.17007874869E+03 -0.10733216955E+04  0.22109038787E+03  0.11089757447E+04  0.50400001928E-02 0.  1.
       -1    1    3    3    0  502 -0.17007874869E+03  0.10733216955E+04 -0.57868231163E+03  0.12311862006E+04  0.50400001928E-02 0. -1.
</event>
<event>
 5   0  0.9483073E-05  0.2334011E+04  0.7818609E-02  0.8464630E-01
       -2   -1    0    0    0  501  0.00000000000E+00  0.00000000000E+00  0.90792398992E+03  0.90792398993E+03  0.25500000920E-02 0. -1.
        2   -1    0    0  501    0  0.00000000000E+00  0.00000000000E+00 -0.15000178968E+04  0.15000178968E+04  0.25500000920E-02 0.  1.
    10030    2    1    2    0    0  0.00000000000E+00  0.00000000000E+00 -0.59209390692E+03  0.24079418868E+04  0.23340113400E+04 0.  0.
        5    1    3    3  502    0  0.54628781317E+03 -0.38316824032E+03  0.69168821201E+03  0.96109466122E+03  0.46999998093E+01 0. -1.
       -5    1    3    3    0  502 -0.54628781317E+03  0.38316824032E+03 -0.12837821189E+04  0.14468472255E+04  0.46999998093E+01 0.  1.
</event>
<event>
 5   0  0.4095451E-05  0.2318065E+04  0.7818609E-02  0.8470832E-01
        1   -1    0    0  501    0  0.00000000000E+00  0.00000000000E+00  0.25570039735E+04  0.25570039735E+04  0.50400001928E-02 0. -1.
       -1   -1    0    0    0  501  0.00000000000E+00  0.00000000000E+00 -0.52536326586E+03  0.52536326589E+03  0.50400001928E-02 0.  1.
    10030    2    1    2    0    0  0.00000000000E+00  0.00000000000E+00  0.20316407076E+04  0.30823672394E+04  0.23180646742E+04 0.  0.
        3    1    3    3  502    0  0.95878930221E+03  0.49768550133E+03  0.45735845155E+03  0.11730918752E+04  0.10100000352E+00 0.  1.
       -3    1    3    3    0  502 -0.95878930221E+03 -0.49768550133E+03  0.15742822561E+04  0.19092753642E+04  0.10100000352E+00 0. -1.
</event>
<event>
 5   0  0.9535394E-05  0.2312208E+04  0.7818609E-02  0.8473123E-01
       -2   -1    0    0    0  501  0.00000000000E+00  0.00000000000E+00  0.15473442218E+04  0.15473442218E+04  0.25500000920E-02 0. -1.
        2   -1    0    0  501    0  0.00000000000E+00  0.00000000000E+00 -0.86378767924E+03  0.86378767924E+03  0.25500000920E-02 0.  1.
    10030    2    1    2    0    0  0.00000000000E+00  0.00000000000E+00  0.68355654260E+03  0.24111319011E+04  0.23122083594E+04 0.  0.
        2    1    3    3  502    0 -0.47338953940E+03  0.10502378258E+04  0.44330769752E+03  0.12343495702E+04  0.25500000920E-02 0. -1.
       -2    1    3    3    0  502  0.47338953940E+03 -0.10502378258E+04  0.24024884508E+03  0.11767823309E+04  0.25500000920E-02 0.  1.
</event>
<event>
 5   0  0.3261500E-05  0.2292367E+04  0.7818609E-02  0.8480937E-01
        3   -1    0    0  501    0  0.00000000000E+00  0.00000000000E+00  0.96142187486E+03  0.96142188016E+03  0.10100000352E+00 0.  1.
       -3   -1    0    0    0  501  0.00000000000E+00  0.00000000000E+00 -0.13664516566E+04  0.13664516603E+04  0.10100000352E+00 0. -1.
    10030    2    1    2    0    0  0.00000000000E+00  0.00000000000E+00 -0.40502978173E+03  0.23278735405E+04  0.22923669201E+04 0.  0.
        3    1    3    3  502    0  0.27045934567E+02 -0.79164545085E+03  0.63875054381E+03  0.10175638898E+04  0.10100000352E+00 0. -1.
       -3    1    3    3    0  502 -0.27045934567E+02  0.79164545085E+03 -0.10437803255E+04  0.13103096507E+04  0.10100000352E+00 0.  1.
</event>
<event>
 5   0  0.9483073E-05  0.2390266E+04  0.7818609E-02  0.8443157E-01
        2   -1    0    0  501    0  0.00000000000E+00  0.00000000000E+00  0.98782142188E+03  0.98782142189E+03  0.25500000920E-02 0. -1.
       -2   -1    0    0    0  501  0.00000000000E+00  0.00000000000E+00 -0.14459527768E+04  0.14459527768E+04  0.25500000920E-02 0.  1.
    10030    2    1    2    0    0  0.00000000000E+00  0.00000000000E+00 -0.45813135493E+03  0.24337741987E+04  0.23902662010E+04 0.  0.
        5    1    3    3  502    0 -0.38012815083E+03 -0.59328995030E+02  0.92303521227E+03  0.10000167168E+04  0.46999998093E+01 0. -1.
       -5    1    3    3    0  502  0.38012815083E+03  0.59328995030E+02 -0.13811665672E+04  0.14337574819E+04  0.46999998093E+01 0.  1.
</event>
<event>
 5   0  0.4139830E-05  0.2380439E+04  0.7818609E-02  0.8446863E-01
        1   -1    0    0  501    0  0.00000000000E+00  0.00000000000E+00  0.13333894321E+04  0.13333894321E+04  0.50400001928E-02 0. -1.
       -1   -1    0    0    0  501  0.00000000000E+00  0.00000000000E+00 -0.10624219207E+04  0.10624219207E+04  0.50400001928E-02 0.  1.
    10030    2    1    2    0    0  0.00000000000E+00  0.00000000000E+00  0.27096751145E+03  0.23958113528E+04  0.23804387507E+04 0.  0.
        1    1    3    3  502    0  0.52115493492E+03 -0.70485463726E+03 -0.67482400494E+03  0.11062594468E+04  0.50400001928E-02 0.  1.
       -1    1    3    3    0  502 -0.52115493492E+03  0.70485463726E+03  0.94579151639E+03  0.12895519060E+04  0.50400001928E-02 0. -1.
</event>
<event>
 5   0  0.4005462E-05  0.2305791E+04  0.7818609E-02  0.8475641E-01
        1   -1    0    0  501    0  0.00000000000E+00  0.00000000000E+00  0.16070272945E+04  0.16070272945E+04  0.50400001928E-02 0.  1.
       -1   -1    0    0    0  501  0.00000000000E+00  0.00000000000E+00 -0.82709707576E+03  0.82709707578E+03  0.50400001928E-02 0. -1.
    10030    2    1    2    0    0  0.00000000000E+00  0.00000000000E+00  0.77993021870E+03  0.24341243703E+04  0.23057906028E+04 0.  0.
        4    1    3    3  502    0 -0.63852631212E+03  0.95370947811E+03  0.27486292500E+03  0.11801817065E+04  0.12699999809E+01 0. -1.
       -4    1    3    3    0  502  0.63852631212E+03 -0.95370947811E+03  0.50506729371E+03  0.12539426638E+04  0.12699999809E+01 0.  1.
</event>
<event>
 5   0  0.9641157E-05  0.2300663E+04  0.7818609E-02  0.8477660E-01
        2   -1    0    0  501    0  0.00000000000E+00  0.00000000000E+00  0.13368683732E+04  0.13368683732E+04  0.25500000920E-02 0.  1.
       -2   -1    0    0    0  501  0.00000000000E+00  0.00000000000E+00 -0.98982286009E+03  0.98982286009E+03  0.25500000920E-02 0. -1.
    10030    2    1    2    0    0  0.00000000000E+00  0.00000000000E+00  0.34704551313E+03  0.23266912333E+04  0.23006632754E+04 0.  0.
        3    1    3    3  502    0  0.32205290242E+03  0.76915838043E+03  0.97491443805E+03  0.12828799078E+04  0.10100000352E+00 0.  1.
       -3    1    3    3    0  502 -0.32205290242E+03 -0.76915838043E+03 -0.62786892493E+03  0.10438113255E+04  0.10100000352E+00 0. -1.
</event>
<event>
 5   0  0.4295775E-05  0.2288335E+04  0.7818609E-02  0.8482535E-01
       -1   -1    0    0    0  501  0.00000000000E+00  0.00000000000E+00  0.98305092333E+03  0.98305092335E+03  0.50400001928E-02 0. -1.
        1   -1    0    0  501    0  0.00000000000E+00  0.00000000000E+00 -0.13316906096E+04  0.13316906096E+04  0.50400001928E-02 0.  1.
    10030    2    1    2    0    0  0.00000000000E+00  0.00000000000E+00 -0.34863968624E+03  0.23147415329E+04  0.22883353630E+04 0.  0.
        5    1    3    3  502    0  0.80629156932E+03  0.30796377737E+03 -0.93408619420E+03  0.12718045806E+04  0.46999998093E+01 0.  1.
       -5    1    3    3    0  502 -0.80629156932E+03 -0.30796377737E+03  0.58544650796E+03  0.10429369524E+04  0.46999998093E+01 0. -1.
</event>
<event>
 5   0  0.9313463E-05  0.1435245E+04  0.7818609E-02  0.8928694E-01
        2   -1    0    0  501    0  0.00000000000E+00  0.00000000000E+00  0.16616331968E+04  0.16616331968E+04  0.25500000920E-02 0. -1.
       -2   -1    0    0    0  501  0.00000000000E+00  0.00000000000E+00 -0.30992524212E+03  0.30992524213E+03  0.25500000920E-02 0.  1.
    10030    2    1    2    0    0  0.00000000000E+00  0.00000000000E+00  0.13517079547E+04  0.19715584389E+04  0.14352450256E+04 0.  0.
        1    1    3    3  502    0 -0.54809491871E+02  0.50465239121E+03  0.13726518798E+04  0.14635065082E+04  0.50400001928E-02 0. -1.
       -1    1    3    3    0  502  0.54809491871E+02 -0.50465239121E+03 -0.20943925083E+02  0.50805193079E+03  0.50400001928E-02 0.  1.
</event>
<event>
 5   0  0.4139830E-05  0.2245019E+04  0.7818609E-02  0.8499921E-01
       -1   -1    0    0    0  501  0.00000000000E+00  0.00000000000E+00  0.20636200299E+04  0.20636200300E+04  0.50400001928E-02 0.  1.
        1   -1    0    0  501    0  0.00000000000E+00  0.00000000000E+00 -0.61059070981E+03  0.61059070983E+03  0.50400001928E-02 0. -1.
    10030    2    1    2    0    0  0.00000000000E+00  0.00000000000E+00  0.14530293201E+04  0.26742107398E+04  0.22450186805E+04 0.  0.
        1    1    3    3  502    0  0.36758910906E+03 -0.80421060849E+03  0.15501938545E+04  0.17846505099E+04  0.50400001928E-02 0.  1.
       -1    1    3    3    0  502 -0.36758910906E+03  0.80421060849E+03 -0.97164534322E+02  0.88956022993E+03  0.50400001928E-02 0. -1.
</event>
<event>
 5   0  0.9535394E-05  0.1677327E+04  0.7818609E-02  0.8774402E-01
       -2   -1    0    0    0  501  0.00000000000E+00  0.00000000000E+00  0.14466001278E+04  0.14466001278E+04  0.25500000920E-02 0. -1.
        2   -1    0    0  501    0  0.00000000000E+00  0.00000000000E+00 -0.48621351030E+03  0.48621351031E+03  0.25500000920E-02 0.  1.
    10030    2    1    2    0    0  0.00000000000E+00  0.00000000000E+00  0.96038661748E+03  0.19328136381E+04  0.16773270714E+04 0.  0.
        2    1    3    3  502    0  0.51023982808E+03 -0.23656516804E+03  0.11970875110E+04  0.13226209850E+04  0.25500000920E-02 0. -1.
       -2    1    3    3    0  502 -0.51023982808E+03  0.23656516804E+03 -0.23670089355E+03  0.61019265310E+03  0.25500000920E-02 0.  1.
</event>
<event>
 5   0  0.4095451E-05  0.2250844E+04  0.7818609E-02  0.8497559E-01
        1   -1    0    0  501    0  0.00000000000E+00  0.00000000000E+00  0.18199567587E+04  0.18199567587E+04  0.50400001928E-02 0. -1.
       -1   -1    0    0    0  501  0.00000000000E+00  0.00000000000E+00 -0.69593649481E+03  0.69593649483E+03  0.50400001928E-02 0.  1.
    10030    2    1    2    0    0  0.00000000000E+00  0.00000000000E+00  0.11240202639E+04  0.25158932535E+04  0.22508436884E+04 0.  0.
        3    1    3    3  502    0  0.65356557239E+03 -0.82232425609E+03  0.10135739773E+04  0.14596908430E+04  0.10100000352E+00 0. -1.
       -3    1    3    3    0  502 -0.65356557239E+03  0.82232425609E+03  0.11044628662E+03  0.10562024105E+04  0.10100000352E+00 0.  1.
</event>
<event>
 5   0  0.9312074E-05  0.2260503E+04  0.7818609E-02  0.8493659E-01
        2   -1    0    0  501    0  0.00000000000E+00  0.00000000000E+00  0.88117601598E+03  0.88117601599E+03  0.25500000920E-02 0.  1.
       -2   -1    0    0    0  501  0.00000000000E+00  0.00000000000E+00 -0.14497307009E+04  0.14497307009E+04  0.25500000920E-02 0. -1.
    10030    2    1    2    0    0  0.00000000000E+00  0.00000000000E+00 -0.56855468490E+03  0.23309067169E+04  0.22605025311E+04 0.  0.
        4    1    3    3  502    0  0.35363059580E+03  0.58568505591E+03  0.64340095864E+03  0.93917409966E+03  0.12699999809E+01 0.  1.
       -4    1    3    3    0  502 -0.35363059580E+03 -0.58568505591E+03 -0.12119556435E+04  0.13917326172E+04  0.12699999809E+01 0. -1.
</event>
<event>
 5   0  0.9313463E-05  0.2177616E+04  0.7818609E-02  0.8527803E-01
       -2   -1    0    0    0  501  0.00000000000E+00  0.00000000000E+00  0.14234732621E+04  0.14234732621E+04  0.25500000920E-02 0. -1.
        2   -1    0    0  501    0  0.00000000000E+00  0.00000000000E+00 -0.83282382532E+03  0.83282382532E+03  0.25500000920E-02 0.  1.
    10030    2    1    2    0    0  0.00000000000E+00  0.00000000000E+00  0.59064943681E+03  0.22562970875E+04  0.21776156203E+04 0.  0.
        1    1    3    3  502    0 -0.28494112826E+03  0.55934755350E+03 -0.62644920629E+03  0.88684820588E+03  0.50400001928E-02 0.  1.
       -1    1    3    3    0  502  0.28494112826E+03 -0.55934755350E+03  0.12170986431E+04  0.13694488816E+04  0.50400001928E-02 0. -1.
</event>
<event>
 5   0  0.4095451E-05  0.2328485E+04  0.7818609E-02  0.8466774E-01
        1   -1    0    0  501    0  0.00000000000E+00  0.00000000000E+00  0.16669298128E+04  0.16669298128E+04  0.50400001928E-02 0.  1.
       -1   -1    0    0    0  501  0.00000000000E+00  0.00000000000E+00 -0.81314814890E+03  0.81314814892E+03  0.50400001928E-02 0. -1.
    10030    2    1    2    0    0  0.00000000000E+00  0.00000000000E+00  0.85378166386E+03  0.24800779617E+04  0.23284852515E+04 0.  0.
        3    1    3    3  502    0  0.34586665027E+02  0.19912801166E+03  0.16481019513E+04  0.16604482089E+04  0.10100000352E+00 0.  1.
       -3    1    3    3    0  502 -0.34586665027E+02 -0.19912801166E+03 -0.79432028743E+03  0.81962975278E+03  0.10100000352E+00 0. -1.
</event>
<event>
 5   0  0.4295775E-05  0.2351343E+04  0.7818609E-02  0.8457948E-01
       -1   -1    0    0    0  501  0.00000000000E+00  0.00000000000E+00  0.11695393227E+04  0.11695393227E+04  0.50400001928E-02 0.  1.
        1   -1    0    0  501    0  0.00000000000E+00  0.00000000000E+00 -0.11818358365E+04  0.11818358365E+04  0.50400001928E-02 0. -1.
    10030    2    1    2    0    0  0.00000000000E+00  0.00000000000E+00 -0.12296513857E+02  0.23513751592E+04  0.23513430067E+04 0.  0.
        5    1    3    3  502    0 -0.87130962037E+03 -0.37040926596E+03 -0.70314983561E+03  0.11793325486E+04  0.46999998093E+01 0. -1.
       -5    1    3    3    0  502  0.87130962037E+03  0.37040926596E+03  0.69085332175E+03  0.11720426106E+04  0.46999998093E+01 0.  1.
</event>
<event>
 5   0  0.4095451E-05  0.2304763E+04  0.7818609E-02  0.8476046E-01
        1   -1    0    0  501    0  0.00000000000E+00  0.00000000000E+00  0.91184916606E+03  0.91184916608E+03  0.50400001928E-02 0. -1.
       -1   -1    0    0    0  501  0.00000000000E+00  0.00000000000E+00 -0.14563625067E+04  0.14563625067E+04  0.50400001928E-02 0.  1.
    10030    2    1    2    0    0  0.00000000000E+00  0.00000000000E+00 -0.54451334068E+03  0.23682116728E+04  0.23047628401E+04 0.  0.
        3    1    3    3  502    0  0.38380811793E+03  0.39834381849E+03  0.76651230350E+03  0.94526588362E+03  0.10100000352E+00 0. -1.
       -3    1    3    3    0  502 -0.38380811793E+03 -0.39834381849E+03 -0.13110256442E+04  0.14229457892E+04  0.10100000352E+00 0.  1.
</event>
<event>
 5   0  0.4295775E-05  0.1873785E+04  0.7818609E-02  0.8668017E-01
        1   -1    0    0  501    0  0.00000000000E+00  0.00000000000E+00  0.19065392605E+04  0.19065392605E+04  0.50400001928E-02 0.  1.
       -1   -1    0    0    0  501  0.00000000000E+00  0.00000000000E+00 -0.46039812960E+03  0.46039812963E+03  0.50400001928E-02 0. -1.
    10030    2    1    2    0    0  0.00000000000E+00  0.00000000000E+00  0.14461411309E+04  0.23669373901E+04  0.18737845229E+04 0.  0.
        5    1    3    3  502    0 -0.39381205170E+03  0.21149731583E+03  0.17631302427E+04  0.18189198414E+04  0.46999998093E+01 0.  1.
       -5    1    3    3    0  502  0.39381205170E+03 -0.21149731583E+03 -0.31698911184E+03  0.54801754871E+03  0.46999998093E+01 0. -1.
</event>
<event>
 5   0  0.9535394E-05  0.1617824E+04  0.7818609E-02  0.8809672E-01
       -2   -1    0    0    0  501  0.00000000000E+00  0.00000000000E+00  0.33877537303E+03  0.33877537304E+03  0.25500000920E-02 0. -1.
        2   -1    0    0  501    0  0.00000000000E+00  0.00000000000E+00 -0.19314821093E+04  0.19314821093E+04  0.25500000920E-02 0.  1.
    10030    2    1    2    0    0  0.00000000000E+00  0.00000000000E+00 -0.15927067363E+04  0.22702574823E+04  0.16178239361E+04 0.  0.
        2    1    3    3  502    0 -0.14365800495E+02 -0.49711063290E+03  0.98904432701E+02  0.50705763418E+03  0.25500000920E-02 0. -1.
       -2    1    3    3    0  502  0.14365800495E+02  0.49711063290E+03 -0.16916111690E+04  0.17631998481E+04  0.25500000920E-02 0.  1.
</event>
<event>
 5   0  0.4095451E-05  0.2027011E+04  0.7818609E-02  0.8594095E-01
        1   -1    0    0  501    0  0.00000000000E+00  0.00000000000E+00  0.12200262959E+04  0.12200262959E+04  0.50400001928E-02 0. -1.
       -1   -1    0    0    0  501  0.00000000000E+00  0.00000000000E+00 -0.84194350939E+03  0.84194350940E+03  0.50400001928E-02 0.  1.
    10030    2    1    2    0    0  0.00000000000E+00  0.00000000000E+00  0.37808278651E+03  0.20619698053E+04  0.20270108250E+04 0.  0.
        3    1    3    3  502    0 -0.88311219089E+03  0.29267502993E+03  0.59802941610E+03  0.11059769471E+04  0.10100000352E+00 0. -1.
       -3    1    3    3    0  502  0.88311219089E+03 -0.29267502993E+03 -0.21994662959E+03  0.95599285819E+03  0.10100000352E+00 0.  1.
</event>
<event>
 5   0  0.9313463E-05  0.2392104E+04  0.7818609E-02  0.8442466E-01
        2   -1    0    0  501    0  0.00000000000E+00  0.00000000000E+00  0.19906303379E+04  0.19906303379E+04  0.25500000920E-02 0.  1.
       -2   -1    0    0    0  501  0.00000000000E+00  0.00000000000E+00 -0.71863676531E+03  0.71863676531E+03  0.25500000920E-02 0. -1.
    10030    2    1    2    0    0  0.00000000000E+00  0.00000000000E+00  0.12719935726E+04  0.27092671032E+04  0.23921037996E+04 0.  0.
        1    1    3    3  502    0 -0.46163640237E+03 -0.18698711449E+03 -0.59559409305E+03  0.77640496693E+03  0.50400001928E-02 0. -1.
       -1    1    3    3    0  502  0.46163640237E+03  0.18698711449E+03  0.18675876656E+04  0.19328621363E+04  0.50400001928E-02 0.  1.
</event>
<event>
 5   0  0.9312074E-05  0.2233806E+04  0.7818609E-02  0.8504488E-01
        2   -1    0    0  501    0  0.00000000000E+00  0.00000000000E+00  0.18360893439E+04  0.18360893439E+04  0.25500000920E-02 0. -1.
       -2   -1    0    0    0  501  0.00000000000E+00  0.00000000000E+00 -0.67941784864E+03  0.67941784864E+03  0.25500000920E-02 0.  1.
    10030    2    1    2    0    0  0.00000000000E+00  0.00000000000E+00  0.11566714953E+04  0.25155071925E+04  0.22338056065E+04 0.  0.
        4    1    3    3  502    0  0.75140757182E+03 -0.57513149468E+03  0.12465277702E+04  0.15649992556E+04  0.12699999809E+01 0. -1.
       -4    1    3    3    0  502 -0.75140757182E+03  0.57513149468E+03 -0.89856274971E+02  0.95050793695E+03  0.12699999809E+01 0.  1.
</event>
<event>
 5   0  0.4095451E-05  0.2237630E+04  0.7818609E-02  0.8502927E-01
        1   -1    0    0  501    0  0.00000000000E+00  0.00000000000E+00  0.16283468297E+04  0.16283468297E+04  0.50400001928E-02 0. -1.
       -1   -1    0    0    0  501  0.00000000000E+00  0.00000000000E+00 -0.76872239013E+03  0.76872239014E+03  0.50400001928E-02 0.  1.
    10030    2    1    2    0    0  0.00000000000E+00  0.00000000000E+00  0.85962443956E+03  0.23970692198E+04  0.22376296985E+04 0.  0.
        3    1    3    3  502    0 -0.56997995455E+03  0.81678551149E+03  0.97576388925E+03  0.13943209452E+04  0.10100000352E+00 0. -1.
       -3    1    3    3    0  502  0.56997995455E+03 -0.81678551149E+03 -0.11613944969E+03  0.10027482747E+04  0.10100000352E+00 0.  1.
</event>
<event>
 5   0  0.9641157E-05  0.2486568E+04  0.7818609E-02  0.8407786E-01
       -2   -1    0    0    0  501  0.00000000000E+00  0.00000000000E+00  0.10765453342E+04  0.10765453342E+04  0.25500000920E-02 0. -1.
        2   -1    0    0  501    0  0.00000000000E+00  0.00000000000E+00 -0.14358476617E+04  0.14358476617E+04  0.25500000920E-02 0.  1.
    10030    2    1    2    0    0  0.00000000000E+00  0.00000000000E+00 -0.35930232750E+03  0.25123929959E+04  0.24865679970E+04 0.  0.
        3    1    3    3  502    0  0.38994267763E+03  0.11608706637E+04  0.37238688206E+02  0.12251786482E+04  0.10100000352E+00 0. -1.
       -3    1    3    3    0  502 -0.38994267763E+03 -0.11608706637E+04 -0.39654101571E+03  0.12872143478E+04  0.10100000352E+00 0.  1.
</event>
<event>
 5   0  0.9641157E-05  0.2360694E+04  0.7818609E-02  0.8454368E-01
       -2   -1    0    0    0  501  0.00000000000E+00  0.00000000000E+00  0.60909471762E+03  0.60909471763E+03  0.25500000920E-02 0. -1.
        2   -1    0    0  501    0  0.00000000000E+00  0.00000000000E+00 -0.22873593984E+04  0.22873593984E+04  0.25500000920E-02 0.  1.
    10030    2    1    2    0    0  0.00000000000E+00  0.00000000000E+00 -0.16782646808E+04  0.28964541161E+04  0.23606935649E+04 0.  0.
        3    1    3    3  502    0  0.96549354217E+03  0.65830934090E+03 -0.10432253229E+04  0.15664827011E+04  0.10100000352E+00 0.  1.
       -3    1    3    3    0  502 -0.96549354217E+03 -0.65830934090E+03 -0.63503935788E+03  0.13299714149E+04  0.10100000352E+00 0. -1.
</event>
<event>
 5   0  0.3885219E-05  0.2287155E+04  0.7818609E-02  0.8483003E-01
        1   -1    0    0  501    0  0.00000000000E+00  0.00000000000E+00  0.17034637539E+04  0.17034637539E+04  0.50400001928E-02 0.  1.
       -1   -1    0    0    0  501  0.00000000000E+00  0.00000000000E+00 -0.76771201962E+03  0.76771201963E+03  0.50400001928E-02 0. -1.
    10030    2    1    2    0    0  0.00000000000E+00  0.00000000000E+00  0.93575173429E+03  0.24711757735E+04  0.22871550878E+04 0.  0.
        2    1    3    3  502    0 -0.33289531014E+03  0.37350415959E+03  0.15789343204E+04  0.16563086164E+04  0.25500000920E-02 0.  1.
       -2    1    3    3    0  502  0.33289531014E+03 -0.37350415959E+03 -0.64318258608E+03  0.81486715714E+03  0.25500000920E-02 0. -1.
</event>
<event>
 5   0  0.4295775E-05  0.2345835E+04  0.7818609E-02  0.8460065E-01
        1   -1    0    0  501    0  0.00000000000E+00  0.00000000000E+00  0.88766232174E+03  0.88766232176E+03  0.50400001928E-02 0.  1.
       -1   -1    0    0    0  501  0.00000000000E+00  0.00000000000E+00 -0.15498413400E+04  0.15498413400E+04  0.50400001928E-02 0. -1.
    10030    2    1    2    0    0  0.00000000000E+00  0.00000000000E+00 -0.66217901827E+03  0.24375036618E+04  0.23458352561E+04 0.  0.
        5    1    3    3  502    0 -0.37884486562E+03 -0.60119616736E+03  0.63851663586E+03  0.95534593113E+03  0.46999998093E+01 0.  1.
       -5    1    3    3    0  502  0.37884486562E+03  0.60119616736E+03 -0.13006956541E+04  0.14821577306E+04  0.46999998093E+01 0. -1.
</event>
<event>
 5   0  0.4139830E-05  0.2343451E+04  0.7818609E-02  0.8460983E-01
       -1   -1    0    0    0  501  0.00000000000E+00  0.00000000000E+00  0.10187805279E+04  0.10187805279E+04  0.50400001928E-02 0. -1.
        1   -1    0    0  501    0  0.00000000000E+00  0.00000000000E+00 -0.13476313574E+04  0.13476313574E+04  0.50400001928E-02 0.  1.
    10030    2    1    2    0    0  0.00000000000E+00  0.00000000000E+00 -0.32885082956E+03  0.23664118853E+04  0.23434509474E+04 0.  0.
        1    1    3    3  502    0  0.61843877595E+03  0.80844145279E+03 -0.75054024385E+03  0.12646559848E+04  0.50400001928E-02 0.  1.
       -1    1    3    3    0  502 -0.61843877595E+03 -0.80844145279E+03  0.42168941430E+03  0.11017559005E+04  0.50400001928E-02 0. -1.
</event>
<event>
 5   0  0.9483073E-05  0.2297744E+04  0.7818609E-02  0.8478811E-01
       -2   -1    0    0    0  501  0.00000000000E+00  0.00000000000E+00  0.81666726861E+03  0.81666726862E+03  0.25500000920E-02 0. -1.
        2   -1    0    0  501    0  0.00000000000E+00  0.00000000000E+00 -0.16162111436E+04  0.16162111436E+04  0.25500000920E-02 0.  1.
    10030    2    1    2    0    0  0.00000000000E+00  0.00000000000E+00 -0.79954387495E+03  0.24328784122E+04  0.22977438849E+04 0.  0.
        5    1    3    3  502    0  0.65672608743E+03 -0.15818365584E+03 -0.13837114950E+04  0.15398021997E+04  0.46999998093E+01 0.  1.
       -5    1    3    3    0  502 -0.65672608743E+03  0.15818365584E+03  0.58416762007E+03  0.89307621244E+03  0.46999998093E+01 0. -1.
</event>
<event>
 5   0  0.9641157E-05  0.2282853E+04  0.7818609E-02  0.8484713E-01
       -2   -1    0    0    0  501  0.00000000000E+00  0.00000000000E+00  0.11550692246E+04  0.11550692246E+04  0.25500000920E-02 0.  1.
        2   -1    0    0  501    0  0.00000000000E+00  0.00000000000E+00 -0.11279445841E+04  0.11279445842E+04  0.25500000920E-02 0. -1.
    10030    2    1    2    0    0  0.00000000000E+00  0.00000000000E+00  0.27124640406E+02  0.22830138087E+04  0.22828526682E+04 0.  0.
        3    1    3    3  502    0 -0.42829424453E+03 -0.90936240509E+03 -0.52728831929E+03  0.11350810216E+04  0.10100000352E+00 0. -1.
       -3    1    3    3    0  502  0.42829424453E+03  0.90936240509E+03  0.55441295970E+03  0.11479327871E+04  0.10100000352E+00 0.  1.
</event>
<event>
 5   0  0.9312074E-05  0.2265999E+04  0.7818609E-02  0.8491449E-01
       -2   -1    0    0    0  501  0.00000000000E+00  0.00000000000E+00  0.46462149814E+03  0.46462149814E+03  0.25500000920E-02 0. -1.
        2   -1    0    0  501    0  0.00000000000E+00  0.00000000000E+00 -0.27628673759E+04  0.27628673759E+04  0.25500000920E-02 0.  1.
    10030    2    1    2    0    0  0.00000000000E+00  0.00000000000E+00 -0.22982458777E+04  0.32274888740E+04  0.22659987461E+04 0.  0.
        4    1    3    3  502    0 -0.46571068744E+03 -0.71619230410E+03 -0.22091288012E+04  0.23685585351E+04  0.12699999809E+01 0.  1.
       -4    1    3    3    0  502  0.46571068744E+03  0.71619230410E+03 -0.89117076482E+02  0.85893033890E+03  0.12699999809E+01 0. -1.
</event>
<event>
 5   0  0.9641157E-05  0.2318375E+04  0.7818609E-02  0.8470711E-01
        2   -1    0    0  501    0  0.00000000000E+00  0.00000000000E+00  0.11050614947E+04  0.11050614947E+04  0.25500000920E-02 0. -1.
       -2   -1    0    0    0  501  0.00000000000E+00  0.00000000000E+00 -0.12159645238E+04  0.12159645239E+04  0.25500000920E-02 0.  1.
    10030    2    1    2    0    0  0.00000000000E+00  0.00000000000E+00 -0.11090302914E+03  0.23210260186E+04  0.23183749259E+04 0.  0.
        3    1    3    3  502    0  0.43567924738E+03  0.58434721537E+03 -0.95783536744E+03  0.12036306228E+04  0.10100000352E+00 0.  1.
       -3    1    3    3    0  502 -0.43567924738E+03 -0.58434721537E+03  0.84693233830E+03  0.11173953958E+04  0.10100000352E+00 0. -1.
</event>
<event>
 5   0  0.4295775E-05  0.2117109E+04  0.7818609E-02  0.8553744E-01
        1   -1    0    0  501    0  0.00000000000E+00  0.00000000000E+00  0.19215795130E+04  0.19215795130E+04  0.50400001928E-02 0. -1.
       -1   -1    0    0    0  501  0.00000000000E+00  0.00000000000E+00 -0.58313359245E+03  0.58313359247E+03  0.50400001928E-02 0.  1.
    10030    2    1    2    0    0  0.00000000000E+00  0.00000000000E+00  0.13384459206E+04  0.25047131055E+04  0.21171089388E+04 0.  0.
        5    1    3    3  502    0 -0.35880071777E+03 -0.99489019316E+03  0.61669861550E+03  0.12242890688E+04  0.46999998093E+01 0. -1.
       -5    1    3    3    0  502  0.35880071777E+03  0.99489019316E+03  0.72174730509E+03  0.12804240368E+04  0.46999998093E+01 0.  1.
</event>
<event>
 5   0  0.4005462E-05  0.2266672E+04  0.7818609E-02  0.8491179E-01
        1   -1    0    0  501    0  0.00000000000E+00  0.00000000000E+00  0.22162249450E+04  0.22162249450E+04  0.50400001928E-02 0.  1.
       -1   -1    0    0    0  501  0.00000000000E+00  0.00000000000E+00 -0.57956691866E+03  0.57956691868E+03  0.50400001928E-02 0. -1.
    10030    2    1    2    0    0  0.00000000000E+00  0.00000000000E+00  0.16366580264E+04  0.27957918637E+04  0.22666721532E+04 0.  0.
        4    1    3    3  502    0 -0.66471885402E+03  0.91529682900E+03  0.90404703435E+03  0.14480753065E+04  0.12699999809E+01 0. -1.
       -4    1    3    3    0  502  0.66471885402E+03 -0.91529682900E+03  0.73261099203E+03  0.13477165572E+04  0.12699999809E+01 0.  1.
</event>
<event>
 5   0  0.4295775E-05  0.2310752E+04  0.7818609E-02  0.8473694E-01
       -1   -1    0    0    0  501  0.00000000000E+00  0.00000000000E+00  0.12588414965E+04  0.12588414965E+04  0.50400001928E-02 0. -1.
        1   -1    0    0  501    0  0.00000000000E+00  0.00000000000E+00 -0.10604148333E+04  0.10604148333E+04  0.50400001928E-02 0.  1.
    10030    2    1    2    0    0  0.00000000000E+00  0.00000000000E+00  0.19842666315E+03  0.23192563298E+04  0.23107524278E+04 0.  0.
        5    1    3    3  502    0 -0.84660085994E+03 -0.78576957401E+03  0.12586791282E+03  0.11619086285E+04  0.46999998093E+01 0.  1.
       -5    1    3    3    0  502  0.84660085994E+03  0.78576957401E+03  0.72558750327E+02  0.11573477013E+04  0.46999998093E+01 0. -1.
</event>
<event>
 5   0  0.4005462E-05  0.2292844E+04  0.7818609E-02  0.8480748E-01
        1   -1    0    0  501    0  0.00000000000E+00  0.00000000000E+00  0.16058193009E+04  0.16058193010E+04  0.50400001928E-02 0. -1.
       -1   -1    0    0    0  501  0.00000000000E+00  0.00000000000E+00 -0.81845044768E+03  0.81845044769E+03  0.50400001928E-02 0.  1.
    10030    2    1    2    0    0  0.00000000000E+00  0.00000000000E+00  0.78736885327E+03  0.24242697486E+04  0.22928441079E+04 0.  0.
        4    1    3    3  502    0 -0.18819188852E+03 -0.10271484148E+04 -0.10654284624E+03  0.10496680637E+04  0.12699999809E+01 0.  1.
       -4    1    3    3    0  502  0.18819188852E+03  0.10271484148E+04  0.89391169951E+03  0.13746016850E+04  0.12699999809E+01 0. -1.
</event>
<event>
 5   0  0.9641157E-05  0.1639094E+04  0.7818609E-02  0.8796885E-01
        2   -1    0    0  501    0  0.00000000000E+00  0.00000000000E+00  0.13082446550E+04  0.13082446550E+04  0.25500000920E-02 0.  1.
       -2   -1    0    0    0  501  0.00000000000E+00  0.00000000000E+00 -0.51340314706E+03  0.51340314707E+03  0.25500000920E-02 0. -1.
    10030    2    1    2    0    0  0.00000000000E+00  0.00000000000E+00  0.79484150789E+03  0.18216478020E+04  0.16390935580E+04 0.  0.
        3    1    3    3  502    0  0.48536317834E+03  0.49686717695E+03 -0.85998688688E+02  0.69989298544E+03  0.10100000352E+00 0. -1.
       -3    1    3    3    0  502 -0.48536317834E+03 -0.49686717695E+03  0.88084019658E+03  0.11217548166E+04  0.10100000352E+00 0.  1.
</event>
<event>
 5   0  0.4095451E-05  0.2059394E+04  0.7818609E-02  0.8579345E-01
        1   -1    0    0  501    0  0.00000000000E+00  0.00000000000E+00  0.52444827282E+03  0.52444827285E+03  0.50400001928E-02 0.  1.
       -1   -1    0    0    0  501  0.00000000000E+00  0.00000000000E+00 -0.20216975421E+04  0.20216975421E+04  0.50400001928E-02 0. -1.
    10030    2    1    2    0    0  0.00000000000E+00  0.00000000000E+00 -0.14972492693E+04  0.25461458150E+04  0.20593938761E+04 0.  0.
        3    1    3    3  502    0 -0.48798940708E+03  0.18166118178E+03 -0.18469253051E+04  0.19189235365E+04  0.10100000352E+00 0. -1.
       -3    1    3    3    0  502  0.48798940708E+03 -0.18166118178E+03  0.34967603576E+03  0.62722227844E+03  0.10100000352E+00 0.  1.
</event>
<event>
 5   0  0.3261500E-05  0.2306825E+04  0.7818609E-02  0.8475235E-01
       -4   -1    0    0    0  501  0.00000000000E+00  0.00000000000E+00  0.14859435716E+04  0.14859441143E+04  0.12699999809E+01 0.  1.
        4   -1    0    0  501    0  0.00000000000E+00  0.00000000000E+00 -0.89529588675E+03  0.89529678751E+03  0.12699999809E+01 0. -1.
    10030    2    1    2    0    0  0.00000000000E+00  0.00000000000E+00  0.59064768485E+03  0.23812409018E+04  0.23068254258E+04 0.  0.
        1    1    3    3  502    0 -0.77686495944E+03  0.80968295291E+03  0.57087167411E+03  0.12589678780E+04  0.50400001928E-02 0.  1.
       -1    1    3    3    0  502  0.77686495944E+03 -0.80968295291E+03  0.19776010748E+02  0.11222730239E+04  0.50400001928E-02 0. -1.
</event>
<event>
 5   0  0.9641157E-05  0.2329485E+04  0.7818609E-02  0.8466385E-01
        2   -1    0    0  501    0  0.00000000000E+00  0.00000000000E+00  0.19675929338E+04  0.19675929338E+04  0.25500000920E-02 0.  1.
       -2   -1    0    0    0  501  0.00000000000E+00  0.00000000000E+00 -0.68948489196E+03  0.68948489196E+03  0.25500000920E-02 0. -1.
    10030    2    1    2    0    0  0.00000000000E+00  0.00000000000E+00  0.12781080418E+04  0.26570778257E+04  0.23294854379E+04 0.  0.
        3    1    3    3  502    0  0.12530354147E+03 -0.88286189516E+03 -0.21564109583E+03  0.91741331789E+03  0.10100000352E+00 0. -1.
       -3    1    3    3    0  502 -0.12530354147E+03  0.88286189516E+03  0.14937491377E+04  0.17396645079E+04  0.10100000352E+00 0.  1.
</event>
<event>
 5   0  0.4095451E-05  0.2332695E+04  0.7818609E-02  0.8465140E-01
       -1   -1    0    0    0  501  0.00000000000E+00  0.00000000000E+00  0.14301322563E+04  0.14301322563E+04  0.50400001928E-02 0.  1.
        1   -1    0    0  501    0  0.00000000000E+00  0.00000000000E+00 -0.95121760385E+03  0.95121760386E+03  0.50400001928E-02 0. -1.
    10030    2    1    2    0    0  0.00000000000E+00  0.00000000000E+00  0.47891465248E+03  0.23813498602E+04  0.23326954178E+04 0.  0.
        3    1    3    3  502    0 -0.10448019045E+04  0.21982924174E+03 -0.23983619253E+03  0.10942839324E+04  0.10100000352E+00 0.  1.
       -3    1    3    3    0  502  0.10448019045E+04 -0.21982924174E+03  0.71875084501E+03  0.12870659278E+04  0.10100000352E+00 0. -1.
</event>
<event>
 5   0  0.9312074E-05  0.2244791E+04  0.7818609E-02  0.8500013E-01
        2   -1    0    0  501    0  0.00000000000E+00  0.00000000000E+00  0.18586100285E+04  0.18586100285E+04  0.25500000920E-02 0.  1.
       -2   -1    0    0    0  501  0.00000000000E+00  0.00000000000E+00 -0.67780295467E+03  0.67780295468E+03  0.25500000920E-02 0. -1.
    10030    2    1    2    0    0  0.00000000000E+00  0.00000000000E+00  0.11808070738E+04  0.25364129831E+04  0.22447907420E+04 0.  0.
        4    1    3    3  502    0  0.37507102182E+03 -0.69762855110E+03 -0.30814606849E+03  0.84989380463E+03  0.12699999809E+01 0. -1.
       -4    1    3    3    0  502 -0.37507102182E+03  0.69762855110E+03  0.14889531423E+04  0.16865191785E+04  0.12699999809E+01 0.  1.
</event>
<event>
 5   0  0.3261500E-05  0.2339039E+04  0.7818609E-02  0.8462686E-01
       -4   -1    0    0    0  501  0.00000000000E+00  0.00000000000E+00  0.17278840822E+04  0.17278845490E+04  0.12699999809E+01 0. -1.
        4   -1    0    0  501    0  0.00000000000E+00  0.00000000000E+00 -0.79158916318E+03  0.79159018195E+03  0.12699999809E+01 0.  1.
    10030    2    1    2    0    0  0.00000000000E+00  0.00000000000E+00  0.93629491906E+03  0.25194747309E+04  0.23390392781E+04 0.  0.
        5    1    3    3  502    0  0.91478187868E+03 -0.72189862847E+03  0.36156721341E+03  0.12201296878E+04  0.46999998093E+01 0. -1.
       -5    1    3    3    0  502 -0.91478187868E+03  0.72189862847E+03  0.57472770565E+03  0.12993450431E+04  0.46999998093E+01 0.  1.
</event>
<event>
 5   0  0.3885219E-05  0.2297814E+04  0.7818609E-02  0.8478783E-01
       -1   -1    0    0    0  501  0.00000000000E+00  0.00000000000E+00  0.13726448144E+04  0.13726448144E+04  0.50400001928E-02 0.  1.
        1   -1    0    0  501    0  0.00000000000E+00  0.00000000000E+00 -0.96163818594E+03  0.96163818595E+03  0.50400001928E-02 0. -1.
    10030    2    1    2    0    0  0.00000000000E+00  0.00000000000E+00  0.41100662843E+03  0.23342830003E+04  0.22978143261E+04 0.  0.
        2    1    3    3  502    0  0.13534284355E+03 -0.11975536118E+03  0.13581157202E+04  0.13700866181E+04  0.25500000920E-02 0.  1.
       -2    1    3    3    0  502 -0.13534284355E+03  0.11975536118E+03 -0.94710909172E+03  0.96419638220E+03  0.25500000920E-02 0. -1.
</event>
<event>
 5   0  0.4005462E-05  0.2295565E+04  0.7818609E-02  0.8479672E-01
        1   -1    0    0  501    0  0.00000000000E+00  0.00000000000E+00  0.95740938625E+03  0.95740938626E+03  0.50400001928E-02 0. -1.
       -1   -1    0    0    0  501  0.00000000000E+00  0.00000000000E+00 -0.13760096677E+04  0.13760096677E+04  0.50400001928E-02 0.  1.
    10030    2    1    2    0    0  0.00000000000E+00  0.00000000000E+00 -0.41860028146E+03  0.23334190540E+04  0.22955649165E+04 0.  0.
        4    1    3    3  502    0 -0.31766602947E+03 -0.10348637447E+04  0.17849887553E+03  0.10971408925E+04  0.12699999809E+01 0. -1.
       -4    1    3    3    0  502  0.31766602947E+03  0.10348637447E+04 -0.59709915699E+03  0.12362781615E+04  0.12699999809E+01 0.  1.
</event>
<event>
 5   0  0.4095451E-05  0.1753890E+04  0.7818609E-02  0.8731212E-01
        1   -1    0    0  501    0  0.00000000000E+00  0.00000000000E+00  0.65589816741E+03  0.65589816743E+03  0.50400001928E-02 0.  1.
       -1   -1    0    0    0  501  0.00000000000E+00  0.00000000000E+00 -0.11724877602E+04  0.11724877602E+04  0.50400001928E-02 0. -1.
    10030    2    1    2    0    0  0.00000000000E+00  0.00000000000E+00 -0.51658959278E+03  0.18283859276E+04  0.17538900459E+04 0.  0.
        3    1    3    3  502    0 -0.41245244265E+03  0.63651443366E+03 -0.71717897562E+03  0.10438454555E+04  0.10100000352E+00 0. -1.
       -3    1    3    3    0  502  0.41245244265E+03 -0.63651443366E+03  0.20058938283E+03  0.78454047213E+03  0.10100000352E+00 0.  1.
</event>
<event>
 5   0  0.4295775E-05  0.2316539E+04  0.7818609E-02  0.8471428E-01
        1   -1    0    0  501    0  0.00000000000E+00  0.00000000000E+00  0.18836465496E+04  0.18836465496E+04  0.50400001928E-02 0.  1.
       -1   -1    0    0    0  501  0.00000000000E+00  0.00000000000E+00 -0.71222937994E+03  0.71222937996E+03  0.50400001928E-02 0. -1.
    10030    2    1    2    0    0  0.00000000000E+00  0.00000000000E+00  0.11714171697E+04  0.25958759296E+04  0.23165391550E+04 0.  0.
        5    1    3    3  502    0 -0.36989838187E+03 -0.10653486152E+04  0.28970934427E+03  0.11643650969E+04  0.46999998093E+01 0.  1.
       -5    1    3    3    0  502  0.36989838187E+03  0.10653486152E+04  0.88170782542E+03  0.14315108327E+04  0.46999998093E+01 0. -1.
</event>
<event>
 5   0  0.9641157E-05  0.2290879E+04  0.7818609E-02  0.8481526E-01
       -2   -1    0    0    0  501  0.00000000000E+00  0.00000000000E+00  0.91833467954E+03  0.91833467954E+03  0.25500000920E-02 0. -1.
        2   -1    0    0  501    0  0.00000000000E+00  0.00000000000E+00 -0.14287078388E+04  0.14287078388E+04  0.25500000920E-02 0.  1.
    10030    2    1    2    0    0  0.00000000000E+00  0.00000000000E+00 -0.51037315926E+03  0.23470425183E+04  0.22908792681E+04 0.  0.
        3    1    3    3  502    0 -0.64489638140E+02 -0.81646447421E+03  0.56523187745E+03  0.99511820231E+03  0.10100000352E+00 0. -1.
       -3    1    3    3    0  502  0.64489638140E+02  0.81646447421E+03 -0.10756050367E+04  0.13519243160E+04  0.10100000352E+00 0.  1.
</event>
<event>
 5   0  0.4139830E-05  0.2280047E+04  0.7818609E-02  0.8485830E-01
        1   -1    0    0  501    0  0.00000000000E+00  0.00000000000E+00  0.12797649721E+04  0.12797649721E+04  0.50400001928E-02 0.  1.
       -1   -1    0    0    0  501  0.00000000000E+00  0.00000000000E+00 -0.10155405430E+04  0.10155405430E+04  0.50400001928E-02 0. -1.
    10030    2    1    2    0    0  0.00000000000E+00  0.00000000000E+00  0.26422442914E+03  0.22953055151E+04  0.22800466790E+04 0.  0.
        1    1    3    3  502    0 -0.27554639145E+03  0.22824768363E+03  0.12217748945E+04  0.12730894359E+04  0.50400001928E-02 0.  1.
       -1    1    3    3    0  502  0.27554639145E+03 -0.22824768363E+03 -0.95755046533E+03  0.10222160792E+04  0.50400001928E-02 0. -1.
</event>
<event>
 5   0  0.9313463E-05  0.2280976E+04  0.7818609E-02  0.8485460E-01
        2   -1    0    0  501    0  0.00000000000E+00  0.00000000000E+00  0.91591232370E+03  0.91591232371E+03  0.25500000920E-02 0. -1.
       -2   -1    0    0    0  501  0.00000000000E+00  0.00000000000E+00 -0.14201284581E+04  0.14201284581E+04  0.25500000920E-02 0.  1.
    10030    2    1    2    0    0  0.00000000000E+00  0.00000000000E+00 -0.50421613442E+03  0.23360407818E+04  0.22809762437E+04 0.  0.
        1    1    3    3  502    0  0.20813738210E+03  0.98473385546E+03 -0.80142496934E+03  0.12865861485E+04  0.50400001928E-02 0.  1.
       -1    1    3    3    0  502 -0.20813738210E+03 -0.98473385546E+03  0.29720883492E+03  0.10494546334E+04  0.50400001928E-02 0. -1.
</event>
<event>
 5   0  0.4095451E-05  0.1622452E+04  0.7818609E-02  0.8806872E-01
        1   -1    0    0  501    0  0.00000000000E+00  0.00000000000E+00  0.82359588541E+03  0.82359588542E+03  0.50400001928E-02 0. -1.
       -1   -1    0    0    0  501  0.00000000000E+00  0.00000000000E+00 -0.79904204034E+03  0.79904204035E+03  0.50400001928E-02 0.  1.
    10030    2    1    2    0    0  0.00000000000E+00  0.00000000000E+00  0.24553845069E+02  0.16226379258E+04  0.16224521401E+04 0.  0.
        3    1    3    3  502    0  0.67681748078E+03  0.11558634169E+03  0.44435141793E+03  0.81785713758E+03  0.10100000352E+00 0. -1.
       -3    1    3    3    0  502 -0.67681748078E+03 -0.11558634169E+03 -0.41979757286E+03  0.80478078820E+03  0.10100000352E+00 0.  1.
</event>
<event>
 5   0  0.3885219E-05  0.2280129E+04  0.7818609E-02  0.8485797E-01
       -1   -1    0    0    0  501  0.00000000000E+00  0.00000000000E+00  0.13032931378E+04  0.13032931379E+04  0.50400001928E-02 0. -1.
        1   -1    0    0  501    0  0.00000000000E+00  0.00000000000E+00 -0.99727928389E+03  0.99727928390E+03  0.50400001928E-02 0.  1.
    10030    2    1    2    0    0  0.00000000000E+00  0.00000000000E+00  0.30601385396E+03  0.23005724218E+04  0.22801291606E+04 0.  0.
        2    1    3    3  502    0 -0.76033059154E+03 -0.20713160969E+03  0.98425096944E+03  0.12608552982E+04  0.25500000920E-02 0. -1.
       -2    1    3    3    0  502  0.76033059154E+03  0.20713160969E+03 -0.67823711548E+03  0.10397171235E+04  0.25500000920E-02 0.  1.
</event>
<event>
 5   0  0.4295775E-05  0.2156512E+04  0.7818609E-02  0.8536750E-01
        1   -1    0    0  501    0  0.00000000000E+00  0.00000000000E+00  0.16200945240E+04  0.16200945240E+04  0.50400001928E-02 0.  1.
       -1   -1    0    0    0  501  0.00000000000E+00  0.00000000000E+00 -0.71763498026E+03  0.71763498028E+03  0.50400001928E-02 0. -1.
    10030    2    1    2    0    0  0.00000000000E+00  0.00000000000E+00  0.90245954373E+03  0.23377295043E+04  0.21565124639E+04 0.  0.
        5    1    3    3  502    0 -0.64688225629E+03  0.68112828727E+03  0.10250731982E+04  0.13903918688E+04  0.46999998093E+01 0.  1.
       -5    1    3    3    0  502  0.64688225629E+03 -0.68112828727E+03 -0.12261365450E+03  0.94733763543E+03  0.46999998093E+01 0. -1.
</event>
<event>
 5   0  0.9483073E-05  0.2349891E+04  0.7818609E-02  0.8458506E-01
        2   -1    0    0  501    0  0.00000000000E+00  0.00000000000E+00  0.11987584117E+04  0.11987584117E+04  0.25500000920E-02 0.  1.
       -2   -1    0    0    0  501  0.00000000000E+00  0.00000000000E+00 -0.11516055720E+04  0.11516055720E+04  0.25500000920E-02 0. -1.
    10030    2    1    2    0    0  0.00000000000E+00  0.00000000000E+00  0.47152839742E+02  0.23503639837E+04  0.23498909476E+04 0.  0.
        5    1    3    3  502    0  0.10324869065E+04  0.51567603285E+03  0.24390193216E+03  0.11796021471E+04  0.46999998093E+01 0.  1.
       -5    1    3    3    0  502 -0.10324869065E+04 -0.51567603285E+03 -0.19674909241E+03  0.11707618367E+04  0.46999998093E+01 0. -1.
</event>
<event>
 5   0  0.9483073E-05  0.1855536E+04  0.7818609E-02  0.8677311E-01
        2   -1    0    0  501    0  0.00000000000E+00  0.00000000000E+00  0.77674336591E+03  0.77674336591E+03  0.25500000920E-02 0. -1.
       -2   -1    0    0    0  501  0.00000000000E+00  0.00000000000E+00 -0.11081570575E+04  0.11081570575E+04  0.25500000920E-02 0.  1.
    10030    2    1    2    0    0  0.00000000000E+00  0.00000000000E+00 -0.33141369157E+03  0.18849004234E+04  0.18555361951E+04 0.  0.
        5    1    3    3  502    0 -0.48559497199E+03 -0.18305586524E+03 -0.94691514404E+03  0.10798066061E+04  0.46999998093E+01 0.  1.
       -5    1    3    3    0  502  0.48559497199E+03  0.18305586524E+03  0.61550145247E+03  0.80509381727E+03  0.46999998093E+01 0. -1.
</event>
<event>
 5   0  0.9483073E-05  0.2312076E+04  0.7818609E-02  0.8473175E-01
        2   -1    0    0  501    0  0.00000000000E+00  0.00000000000E+00  0.21502258533E+04  0.21502258533E+04  0.25500000920E-02 0. -1.
       -2   -1    0    0    0  501  0.00000000000E+00  0.00000000000E+00 -0.62152731595E+03  0.62152731595E+03  0.25500000920E-02 0.  1.
    10030    2    1    2    0    0  0.00000000000E+00  0.00000000000E+00  0.15286985374E+04  0.27717531693E+04  0.23120762127E+04 0.  0.
        5    1    3    3  502    0 -0.61140833364E+02  0.69667943152E+03 -0.33914838915E+03  0.77726710446E+03  0.46999998093E+01 0.  1.
       -5    1    3    3    0  502  0.61140833364E+02 -0.69667943152E+03  0.18678469265E+04  0.19944860648E+04  0.46999998093E+01 0. -1.
</event>
<event>
 5   0  0.4005462E-05  0.2314163E+04  0.7818609E-02  0.8472358E-01
       -1   -1    0    0    0  501  0.00000000000E+00  0.00000000000E+00  0.69256964353E+03  0.69256964355E+03  0.50400001928E-02 0.  1.
        1   -1    0    0  501    0  0.00000000000E+00  0.00000000000E+00 -0.19331443119E+04  0.19331443119E+04  0.50400001928E-02 0. -1.
    10030    2    1    2    0    0  0.00000000000E+00  0.00000000000E+00 -0.12405746683E+04  0.26257139554E+04  0.23141625414E+04 0.  0.
        4    1    3    3  502    0 -0.22773779811E+03  0.16833462433E+03  0.65263923736E+03  0.71143561724E+03  0.12699999809E+01 0.  1.
       -4    1    3    3    0  502  0.22773779811E+03 -0.16833462433E+03 -0.18932139057E+04  0.19142783382E+04  0.12699999809E+01 0. -1.
</event>
<event>
 5   0  0.9535394E-05  0.2321815E+04  0.7818609E-02  0.8469369E-01
       -2   -1    0    0    0  501  0.00000000000E+00  0.00000000000E+00  0.94494771135E+03  0.94494771135E+03  0.25500000920E-02 0. -1.
        2   -1    0    0  501    0  0.00000000000E+00  0.00000000000E+00 -0.14262228874E+04  0.14262228874E+04  0.25500000920E-02 0.  1.
    10030    2    1    2    0    0  0.00000000000E+00  0.00000000000E+00 -0.48127517607E+03  0.23711705988E+04  0.23218148534E+04 0.  0.
        2    1    3    3  502    0 -0.64755841554E+03  0.75440180812E+03  0.37147999101E+03  0.10613441352E+04  0.25500000920E-02 0. -1.
       -2    1    3    3    0  502  0.64755841554E+03 -0.75440180812E+03 -0.85275516708E+03  0.13098264636E+04  0.25500000920E-02 0.  1.
</event>
<event>
 5   0  0.9641157E-05  0.2320972E+04  0.7818609E-02  0.8469698E-01
        2   -1    0    0  501    0  0.00000000000E+00  0.00000000000E+00  0.26861839639E+04  0.26861839639E+04  0.25500000920E-02 0. -1.
       -2   -1    0    0    0  501  0.00000000000E+00  0.00000000000E+00 -0.50135341342E+03  0.50135341343E+03  0.25500000920E-02 0.  1.
    10030    2    1    2    0    0  0.00000000000E+00  0.00000000000E+00  0.21848305505E+04  0.31875373773E+04  0.23209717787E+04 0.  0.
        3    1    3    3  502    0  0.46016587771E+03 -0.12876926327E+03  0.25448034712E+04  0.25892776745E+04  0.10100000352E+00 0. -1.
       -3    1    3    3    0  502 -0.46016587771E+03  0.12876926327E+03 -0.35997292075E+03  0.59825970284E+03  0.10100000352E+00 0.  1.
</event>
<event>
 5   0  0.4139830E-05  0.2215383E+04  0.7818609E-02  0.8512053E-01
        1   -1    0    0  501    0  0.00000000000E+00  0.00000000000E+00  0.93255426997E+03  0.93255426998E+03  0.50400001928E-02 0. -1.
       -1   -1    0    0    0  501  0.00000000000E+00  0.00000000000E+00 -0.13157202409E+04  0.13157202410E+04  0.50400001928E-02 0.  1.
    10030    2    1    2    0    0  0.00000000000E+00  0.00000000000E+00 -0.38316597098E+03  0.22482745109E+04  0.22153830629E+04 0.  0.
        1    1    3    3  502    0  0.84732072243E+03  0.25770452133E+02 -0.91516523152E+03  0.12474549787E+04  0.50400001928E-02 0.  1.
       -1    1    3    3    0  502 -0.84732072243E+03 -0.25770452133E+02  0.53199926054E+03  0.10008195322E+04  0.50400001928E-02 0. -1.
</event>
<event>
 5   0  0.9641157E-05  0.2312533E+04  0.7818609E-02  0.8472996E-01
       -2   -1    0    0    0  501  0.00000000000E+00  0.00000000000E+00  0.15624700654E+04  0.15624700654E+04  0.25500000920E-02 0.  1.
        2   -1    0    0  501    0  0.00000000000E+00  0.00000000000E+00 -0.85566591390E+03  0.85566591391E+03  0.25500000920E-02 0. -1.
    10030    2    1    2    0    0  0.00000000000E+00  0.00000000000E+00  0.70680415147E+03  0.24181359793E+04  0.23125331361E+04 0.  0.
        3    1    3    3  502    0  0.79289080335E+03  0.11474045336E+03  0.12252081443E+04  0.14638907762E+04  0.10100000352E+00 0.  1.
       -3    1    3    3    0  502 -0.79289080335E+03 -0.11474045336E+03 -0.51840399279E+03  0.95424520309E+03  0.10100000352E+00 0. -1.
</event>
<event>
 5   0  0.4005462E-05  0.2288328E+04  0.7818609E-02  0.8482538E-01
        1   -1    0    0  501    0  0.00000000000E+00  0.00000000000E+00  0.20610157028E+04  0.20610157028E+04  0.50400001928E-02 0.  1.
       -1   -1    0    0    0  501  0.00000000000E+00  0.00000000000E+00 -0.63517765269E+03  0.63517765271E+03  0.50400001928E-02 0. -1.
    10030    2    1    2    0    0  0.00000000000E+00  0.00000000000E+00  0.14258380501E+04  0.26961933555E+04  0.22883278754E+04 0.  0.
        4    1    3    3  502    0  0.70926609946E+03  0.39391784884E+03  0.16634870258E+04  0.18507891208E+04  0.12699999809E+01 0.  1.
       -4    1    3    3    0  502 -0.70926609946E+03 -0.39391784884E+03 -0.23764897578E+03  0.84540423471E+03  0.12699999809E+01 0. -1.
</event>
<event>
 5   0  0.9483073E-05  0.2157812E+04  0.7818609E-02  0.8536196E-01
        2   -1    0    0  501    0  0.00000000000E+00  0.00000000000E+00  0.91836851830E+03  0.91836851830E+03  0.25500000920E-02 0.  1.
       -2   -1    0    0    0  501  0.00000000000E+00  0.00000000000E+00 -0.12675063075E+04  0.12675063075E+04  0.25500000920E-02 0. -1.
    10030    2    1    2    0    0  0.00000000000E+00  0.00000000000E+00 -0.34913778915E+03  0.21858748258E+04  0.21578117522E+04 0.  0.
        5    1    3    3  502    0  0.16484551600E+03  0.10211919282E+04 -0.48516498973E+03  0.11425472225E+04  0.46999998093E+01 0. -1.
       -5    1    3    3    0  502 -0.16484551600E+03 -0.10211919282E+04  0.13602720057E+03  0.10433276033E+04  0.46999998093E+01 0.  1.
</event>
<event>
 5   0  0.4095451E-05  0.2322127E+04  0.7818609E-02  0.8469248E-01
       -1   -1    0    0    0  501  0.00000000000E+00  0.00000000000E+00  0.13141596080E+04  0.13141596080E+04  0.50400001928E-02 0. -1.
        1   -1    0    0  501    0  0.00000000000E+00  0.00000000000E+00 -0.10258026023E+04  0.10258026023E+04  0.50400001928E-02 0.  1.
    10030    2    1    2    0    0  0.00000000000E+00  0.00000000000E+00  0.28835700572E+03  0.23399622103E+04  0.23221269093E+04 0.  0.
        3    1    3    3  502    0 -0.79768962975E+02 -0.11036088628E+04  0.49866547552E+03  0.12136650593E+04  0.10100000352E+00 0. -1.
       -3    1    3    3    0  502  0.79768962975E+02  0.11036088628E+04 -0.21030846980E+03  0.11262971510E+04  0.10100000352E+00 0.  1.
</event>
<event>
 5   0  0.9535394E-05  0.2287800E+04  0.7818609E-02  0.8482747E-01
        2   -1    0    0  501    0  0.00000000000E+00  0.00000000000E+00  0.19598377091E+04  0.19598377091E+04  0.25500000920E-02 0. -1.
       -2   -1    0    0    0  501  0.00000000000E+00  0.00000000000E+00 -0.66766080459E+03  0.66766080459E+03  0.25500000920E-02 0.  1.
    10030    2    1    2    0    0  0.00000000000E+00  0.00000000000E+00  0.12921769045E+04  0.26274985137E+04  0.22877996606E+04 0.  0.
        2    1    3    3  502    0  0.93317428353E+03 -0.65945291635E+03  0.70701683747E+03  0.13437132137E+04  0.25500000920E-02 0. -1.
       -2    1    3    3    0  502 -0.93317428353E+03  0.65945291635E+03  0.58516006706E+03  0.12837853000E+04  0.25500000920E-02 0.  1.
</event>
<event>
 5   0  0.4295775E-05  0.2294488E+04  0.7818609E-02  0.8480098E-01
       -1   -1    0    0    0  501  0.00000000000E+00  0.00000000000E+00  0.12734769503E+04  0.12734769503E+04  0.50400001928E-02 0. -1.
        1   -1    0    0  501    0  0.00000000000E+00  0.00000000000E+00 -0.10335239612E+04  0.10335239612E+04  0.50400001928E-02 0.  1.
    10030    2    1    2    0    0  0.00000000000E+00  0.00000000000E+00  0.23995298907E+03  0.23070009115E+04  0.22944881279E+04 0.  0.
        5    1    3    3  502    0  0.75234301540E+03  0.15180846621E+03 -0.73736404080E+03  0.10643277887E+04  0.46999998093E+01 0. -1.
       -5    1    3    3    0  502 -0.75234301540E+03 -0.15180846621E+03  0.97731702987E+03  0.12426731228E+04  0.46999998093E+01 0.  1.
</event>
<event>
 5   0  0.3885219E-05  0.2158514E+04  0.7818609E-02  0.8535897E-01
       -1   -1    0    0    0  501  0.00000000000E+00  0.00000000000E+00  0.85473843451E+03  0.85473843453E+03  0.50400001928E-02 0.  1.
        1   -1    0    0  501    0  0.00000000000E+00  0.00000000000E+00 -0.13627504833E+04  0.13627504833E+04  0.50400001928E-02 0. -1.
    10030    2    1    2    0    0  0.00000000000E+00  0.00000000000E+00 -0.50801204876E+03  0.22174889178E+04  0.21585135763E+04 0.  0.
        2    1    3    3  502    0  0.85611004693E+03  0.58038238411E+03 -0.57069313646E+03  0.11812953823E+04  0.25500000920E-02 0. -1.
       -2    1    3    3    0  502 -0.85611004693E+03 -0.58038238411E+03  0.62681087697E+02  0.10361935355E+04  0.25500000920E-02 0.  1.
</event>
<event>
 5   0  0.4295775E-05  0.2341227E+04  0.7818609E-02  0.8461841E-01
       -1   -1    0    0    0  501  0.00000000000E+00  0.00000000000E+00  0.11841723093E+04  0.11841723093E+04  0.50400001928E-02 0. -1.
        1   -1    0    0  501    0  0.00000000000E+00  0.00000000000E+00 -0.11572096727E+04  0.11572096727E+04  0.50400001928E-02 0.  1.
    10030    2    1    2    0    0  0.00000000000E+00  0.00000000000E+00  0.26962636635E+02  0.23413819820E+04  0.23412267301E+04 0.  0.
        5    1    3    3  502    0 -0.82198363560E+03  0.79403258230E+03  0.26681357464E+03  0.11736082875E+04  0.46999998093E+01 0.  1.
       -5    1    3    3    0  502  0.82198363560E+03 -0.79403258230E+03 -0.23985093800E+03  0.11677736944E+04  0.46999998093E+01 0. -1.
</event>
<event>
 5   0  0.9483073E-05  0.2319021E+04  0.7818609E-02  0.8470459E-01
       -2   -1    0    0    0  501  0.00000000000E+00  0.00000000000E+00  0.10073922114E+04  0.10073922114E+04  0.25500000920E-02 0.  1.
        2   -1    0    0  501    0  0.00000000000E+00  0.00000000000E+00 -0.13345992333E+04  0.13345992333E+04  0.25500000920E-02 0. -1.
    10030    2    1    2    0    0  0.00000000000E+00  0.00000000000E+00 -0.32720702199E+03  0.23419914447E+04  0.23190212358E+04 0.  0.
        5    1    3    3  502    0 -0.21257191420E+03  0.16464018869E+03 -0.13026715517E+04  0.13301385161E+04  0.46999998093E+01 0. -1.
       -5    1    3    3    0  502  0.21257191420E+03 -0.16464018869E+03  0.97546452970E+03  0.10118529286E+04  0.46999998093E+01 0.  1.
</event>
<event>
 5   0  0.4295775E-05  0.2289264E+04  0.7818609E-02  0.8482166E-01
        1   -1    0    0  501    0  0.00000000000E+00  0.00000000000E+00  0.12284479987E+04  0.12284479987E+04  0.50400001928E-02 0.  1.
       -1   -1    0    0    0  501  0.00000000000E+00  0.00000000000E+00 -0.10665347070E+04  0.10665347070E+04  0.50400001928E-02 0. -1.
    10030    2    1    2    0    0  0.00000000000E+00  0.00000000000E+00  0.16191329169E+03  0.22949827057E+04  0.22892640096E+04 0.  0.
        5    1    3    3  502    0 -0.91248298045E+03  0.37724616076E+03  0.66138525291E+03  0.11884411631E+04  0.46999998093E+01 0.  1.
       -5    1    3    3    0  502  0.91248298045E+03 -0.37724616076E+03 -0.49947196123E+03  0.11065415426E+04  0.46999998093E+01 0. -1.
</event>
<event>
 5   0  0.9313463E-05  0.1916698E+04  0.7818609E-02  0.8646589E-01
        2   -1    0    0  501    0  0.00000000000E+00  0.00000000000E+00  0.18397301555E+04  0.18397301555E+04  0.25500000920E-02 0. -1.
       -2   -1    0    0    0  501  0.00000000000E+00  0.00000000000E+00 -0.49922133579E+03  0.49922133580E+03  0.25500000920E-02 0.  1.
    10030    2    1    2    0    0  0.00000000000E+00  0.00000000000E+00  0.13405088197E+04  0.23389514913E+04  0.19166977286E+04 0.  0.
        1    1    3    3  502    0  0.33782652934E+03 -0.67354091508E+03  0.13928636792E+04  0.15836203324E+04  0.50400001928E-02 0. -1.
       -1    1    3    3    0  502 -0.33782652934E+03  0.67354091508E+03 -0.52354859563E+02  0.75533115887E+03  0.50400001928E-02 0.  1.
</event>
<event>
 5   0  0.9483073E-05  0.1679198E+04  0.7818609E-02  0.8773318E-01
        2   -1    0    0  501    0  0.00000000000E+00  0.00000000000E+00  0.82657435656E+03  0.82657435656E+03  0.25500000920E-02 0.  1.
       -2   -1    0    0    0  501  0.00000000000E+00  0.00000000000E+00 -0.85282869072E+03  0.85282869072E+03  0.25500000920E-02 0. -1.
    10030    2    1    2    0    0  0.00000000000E+00  0.00000000000E+00 -0.26254334161E+02  0.16794030473E+04  0.16791978160E+04 0.  0.
        5    1    3    3  502    0 -0.13455252496E+03 -0.65321026124E+02  0.81312937070E+03  0.82678454383E+03  0.46999998093E+01 0.  1.
       -5    1    3    3    0  502  0.13455252496E+03  0.65321026124E+02 -0.83938370486E+03  0.85261850344E+03  0.46999998093E+01 0. -1.
</event>
<event>
 5   0  0.9483073E-05  0.1442440E+04  0.7818609E-02  0.8923659E-01
       -2   -1    0    0    0  501  0.00000000000E+00  0.00000000000E+00  0.54808943900E+03  0.54808943901E+03  0.25500000920E-02 0. -1.
        2   -1    0    0  501    0  0.00000000000E+00  0.00000000000E+00 -0.94903853834E+03  0.94903853835E+03  0.25500000920E-02 0.  1.
    10030    2    1    2    0    0  0.00000000000E+00  0.00000000000E+00 -0.40094909934E+03  0.14971279774E+04  0.14424396002E+04 0.  0.
        5    1    3    3  502    0 -0.10520267103E+03  0.23255186615E+03  0.49962730947E+03  0.56106818730E+03  0.46999998093E+01 0. -1.
       -5    1    3    3    0  502  0.10520267103E+03 -0.23255186615E+03 -0.90057640881E+03  0.93605979005E+03  0.46999998093E+01 0.  1.
</event>
<event>
 5   0  0.4295775E-05  0.2300846E+04  0.7818609E-02  0.8477588E-01
       -1   -1    0    0    0  501  0.00000000000E+00  0.00000000000E+00  0.12338202044E+04  0.12338202044E+04  0.50400001928E-02 0. -1.
        1   -1    0    0  501    0  0.00000000000E+00  0.00000000000E+00 -0.10726630745E+04  0.10726630745E+04  0.50400001928E-02 0.  1.
    10030    2    1    2    0    0  0.00000000000E+00  0.00000000000E+00  0.16115712989E+03  0.23064832789E+04  0.23008462563E+04 0.  0.
        5    1    3    3  502    0 -0.19599305799E+03 -0.79770420543E+03  0.88797470702E+03  0.12096555082E+04  0.46999998093E+01 0. -1.
       -5    1    3    3    0  502  0.19599305799E+03  0.79770420543E+03 -0.72681757713E+03  0.10968277707E+04  0.46999998093E+01 0.  1.
</event>
<event>
 5   0  0.4295775E-05  0.2297608E+04  0.7818609E-02  0.8478865E-01
       -1   -1    0    0    0  501  0.00000000000E+00  0.00000000000E+00  0.29786716274E+04  0.29786716274E+04  0.50400001928E-02 0. -1.
        1   -1    0    0  501    0  0.00000000000E+00  0.00000000000E+00 -0.44306672431E+03  0.44306672434E+03  0.50400001928E-02 0.  1.
    10030    2    1    2    0    0  0.00000000000E+00  0.00000000000E+00  0.25356049031E+04  0.34217383518E+04  0.22976076957E+04 0.  0.
        5    1    3    3  502    0  0.28425969507E+02  0.28505775750E+03 -0.38900480924E+03  0.48312813256E+03  0.46999998093E+01 0.  1.
       -5    1    3    3    0  502 -0.28425969507E+02 -0.28505775750E+03  0.29246097124E+04  0.29386102192E+04  0.46999998093E+01 0. -1.
</event>
<event>
 5   0  0.9483073E-05  0.2328471E+04  0.7818609E-02  0.8466779E-01
       -2   -1    0    0    0  501  0.00000000000E+00  0.00000000000E+00  0.86474700528E+03  0.86474700529E+03  0.25500000920E-02 0.  1.
        2   -1    0    0  501    0  0.00000000000E+00  0.00000000000E+00 -0.15674456628E+04  0.15674456628E+04  0.25500000920E-02 0. -1.
    10030    2    1    2    0    0  0.00000000000E+00  0.00000000000E+00 -0.70269865748E+03  0.24321926681E+04  0.23284706937E+04 0.  0.
        5    1    3    3  502    0  0.67801014712E+03 -0.42024587395E+03 -0.12371318924E+04  0.14720128272E+04  0.46999998093E+01 0. -1.
       -5    1    3    3    0  502 -0.67801014712E+03  0.42024587395E+03  0.53443323495E+03  0.96017984085E+03  0.46999998093E+01 0.  1.
</event>
<event>
 5   0  0.4005462E-05  0.1537173E+04  0.7818609E-02  0.8860103E-01
       -1   -1    0    0    0  501  0.00000000000E+00  0.00000000000E+00  0.15607408918E+04  0.15607408918E+04  0.50400001928E-02 0.  1.
        1   -1    0    0  501    0  0.00000000000E+00  0.00000000000E+00 -0.37849028598E+03  0.37849028602E+03  0.50400001928E-02 0. -1.
    10030    2    1    2    0    0  0.00000000000E+00  0.00000000000E+00  0.11822506058E+04  0.19392311778E+04  0.15371730761E+04 0.  0.
        4    1    3    3  502    0 -0.87338423870E+02 -0.59178203016E+03  0.11999355306E+04  0.13407762163E+04  0.12699999809E+01 0.  1.
       -4    1    3    3    0  502  0.87338423870E+02  0.59178203016E+03 -0.17684924858E+02  0.59845496153E+03  0.12699999809E+01 0. -1.
</event>
<event>
 5   0  0.9313463E-05  0.2264520E+04  0.7818609E-02  0.8492043E-01
       -2   -1    0    0    0  501  0.00000000000E+00  0.00000000000E+00  0.10725062311E+04  0.10725062311E+04  0.25500000920E-02 0.  1.
        2   -1    0    0  501    0  0.00000000000E+00  0.00000000000E+00 -0.11953433182E+04  0.11953433182E+04  0.25500000920E-02 0. -1.
    10030    2    1    2    0    0  0.00000000000E+00  0.00000000000E+00 -0.12283708705E+03  0.22678495493E+04  0.22645203969E+04 0.  0.
        1    1    3    3  502    0  0.90168588312E+03  0.45797474475E+03 -0.57131818021E+03  0.11615432673E+04  0.50400001928E-02 0. -1.
       -1    1    3    3    0  502 -0.90168588312E+03 -0.45797474475E+03  0.44848109316E+03  0.11063062820E+04  0.50400001928E-02 0.  1.
</event>
<event>
 5   0  0.4295775E-05  0.2330386E+04  0.7818609E-02  0.8466036E-01
       -1   -1    0    0    0  501  0.00000000000E+00  0.00000000000E+00  0.11475943990E+04  0.11475943990E+04  0.50400001928E-02 0.  1.
        1   -1    0    0  501    0  0.00000000000E+00  0.00000000000E+00 -0.11830618323E+04  0.11830618323E+04  0.50400001928E-02 0. -1.
    10030    2    1    2    0    0  0.00000000000E+00  0.00000000000E+00 -0.35467433287E+02  0.23306562313E+04  0.23303863478E+04 0.  0.
        5    1    3    3  502    0 -0.61219992268E+03  0.97749129150E+03  0.14773958397E+03  0.11628099780E+04  0.46999998093E+01 0.  1.
       -5    1    3    3    0  502  0.61219992268E+03 -0.97749129150E+03 -0.18320701725E+03  0.11678462533E+04  0.46999998093E+01 0. -1.
</event>
<event>
 5   0  0.4139830E-05  0.2362052E+04  0.7818609E-02  0.8453849E-01
        1   -1    0    0  501    0  0.00000000000E+00  0.00000000000E+00  0.17015334722E+04  0.17015334722E+04  0.50400001928E-02 0. -1.
       -1   -1    0    0    0  501  0.00000000000E+00  0.00000000000E+00 -0.81974427914E+03  0.81974427915E+03  0.50400001928E-02 0.  1.
    10030    2    1    2    0    0  0.00000000000E+00  0.00000000000E+00  0.88178919304E+03  0.25212777513E+04  0.23620519297E+04 0.  0.
        1    1    3    3  502    0 -0.47474934536E+03 -0.44808911017E+03  0.14914405065E+04  0.16280557657E+04  0.50400001928E-02 0. -1.
       -1    1    3    3    0  502  0.47474934536E+03  0.44808911017E+03 -0.60965131351E+03  0.89322198565E+03  0.50400001928E-02 0.  1.
</event>
<event>
 5   0  0.4139830E-05  0.2301569E+04  0.7818609E-02  0.8477303E-01
       -1   -1    0    0    0  501  0.00000000000E+00  0.00000000000E+00  0.67092553679E+03  0.67092553681E+03  0.50400001928E-02 0. -1.
        1   -1    0    0  501    0  0.00000000000E+00  0.00000000000E+00 -0.19738474401E+04  0.19738474401E+04  0.50400001928E-02 0.  1.
    10030    2    1    2    0    0  0.00000000000E+00  0.00000000000E+00 -0.13029219033E+04  0.26447729769E+04  0.23015687288E+04 0.  0.
        1    1    3    3  502    0  0.17878432214E+03  0.73859923984E+03 -0.16445086048E+04  0.18116018387E+04  0.50400001928E-02 0.  1.
       -1    1    3    3    0  502 -0.17878432214E+03 -0.73859923984E+03  0.34158670143E+03  0.83317113821E+03  0.50400001928E-02 0. -1.
</event>
<event>
 5   0  0.4005462E-05  0.2295442E+04  0.7818609E-02  0.8479721E-01
        1   -1    0    0  501    0  0.00000000000E+00  0.00000000000E+00  0.12619398230E+04  0.12619398231E+04  0.50400001928E-02 0.  1.
       -1   -1    0    0    0  501  0.00000000000E+00  0.00000000000E+00 -0.10438400063E+04  0.10438400063E+04  0.50400001928E-02 0. -1.
    10030    2    1    2    0    0  0.00000000000E+00  0.00000000000E+00  0.21809981679E+03  0.23057798293E+04  0.22954418074E+04 0.  0.
        4    1    3    3  502    0  0.10655329705E+04 -0.28748434904E+03 -0.20741483526E+03  0.11229560495E+04  0.12699999809E+01 0. -1.
       -4    1    3    3    0  502 -0.10655329705E+04  0.28748434904E+03  0.42551465204E+03  0.11828237799E+04  0.12699999809E+01 0.  1.
</event>
<event>
 5   0  0.9312074E-05  0.2145098E+04  0.7818609E-02  0.8541634E-01
        2   -1    0    0  501    0  0.00000000000E+00  0.00000000000E+00  0.78523637653E+03  0.78523637653E+03  0.25500000920E-02 0. -1.
       -2   -1    0    0    0  501  0.00000000000E+00  0.00000000000E+00 -0.14649869270E+04  0.14649869270E+04  0.25500000920E-02 0.  1.
    10030    2    1    2    0    0  0.00000000000E+00  0.00000000000E+00 -0.67975055047E+03  0.22502233035E+04  0.21450976912E+04 0.  0.
        4    1    3    3  502    0 -0.10534397708E+04  0.62747570807E+02 -0.54080004927E+03  0.11858072839E+04  0.12699999809E+01 0.  1.
       -4    1    3    3    0  502  0.10534397708E+04 -0.62747570807E+02 -0.13895050121E+03  0.10644160197E+04  0.12699999809E+01 0. -1.
</event>
<event>
 5   0  0.9641157E-05  0.2323438E+04  0.7818609E-02  0.8468737E-01
        2   -1    0    0  501    0  0.00000000000E+00  0.00000000000E+00  0.18807873993E+04  0.18807873994E+04  0.25500000920E-02 0.  1.
       -2   -1    0    0    0  501  0.00000000000E+00  0.00000000000E+00 -0.71756724663E+03  0.71756724664E+03  0.25500000920E-02 0. -1.
    10030    2    1    2    0    0  0.00000000000E+00  0.00000000000E+00  0.11632201527E+04  0.25983546460E+04  0.23234383449E+04 0.  0.
        3    1    3    3  502    0  0.29898473544E+03 -0.32537312982E+03  0.17831345452E+04  0.18370705926E+04  0.10100000352E+00 0.  1.
       -3    1    3    3    0  502 -0.29898473544E+03  0.32537312982E+03 -0.61991439253E+03  0.76128405336E+03  0.10100000352E+00 0. -1.
</event>
<event>
 5   0  0.4005462E-05  0.2318475E+04  0.7818609E-02  0.8470672E-01
        1   -1    0    0  501    0  0.00000000000E+00  0.00000000000E+00  0.15871704503E+04  0.15871704503E+04  0.50400001928E-02 0. -1.
       -1   -1    0    0    0  501  0.00000000000E+00  0.00000000000E+00 -0.84668355611E+03  0.84668355612E+03  0.50400001928E-02 0.  1.
    10030    2    1    2    0    0  0.00000000000E+00  0.00000000000E+00  0.74048689422E+03  0.24338540065E+04  0.23184746029E+04 0.  0.
        4    1    3    3  502    0  0.77662637402E+02 -0.94742334884E+03 -0.32623999700E+03  0.10050256891E+04  0.12699999809E+01 0.  1.
       -4    1    3    3    0  502 -0.77662637402E+02  0.94742334884E+03  0.10667268912E+04  0.14288283174E+04  0.12699999809E+01 0. -1.
</event>
<event>
 5   0  0.9483073E-05  0.2329062E+04  0.7818609E-02  0.8466550E-01
        2   -1    0    0  501    0  0.00000000000E+00  0.00000000000E+00  0.12637608346E+04  0.12637608346E+04  0.25500000920E-02 0.  1.
       -2   -1    0    0    0  501  0.00000000000E+00  0.00000000000E+00 -0.10730924424E+04  0.10730924424E+04  0.25500000920E-02 0. -1.
    10030    2    1    2    0    0  0.00000000000E+00  0.00000000000E+00  0.19066839219E+03  0.23368532770E+04  0.23290617858E+04 0.  0.
        5    1    3    3  502    0  0.21309856737E+03 -0.96897545545E+03 -0.51644790045E+03  0.11185101504E+04  0.46999998093E+01 0. -1.
       -5    1    3    3    0  502 -0.21309856737E+03  0.96897545545E+03  0.70711629264E+03  0.12183431265E+04  0.46999998093E+01 0.  1.
</event>
<event>
 5   0  0.9641157E-05  0.2238152E+04  0.7818609E-02  0.8502714E-01
        2   -1    0    0  501    0  0.00000000000E+00  0.00000000000E+00  0.10817587392E+04  0.10817587392E+04  0.25500000920E-02 0.  1.
       -2   -1    0    0    0  501  0.00000000000E+00  0.00000000000E+00 -0.11576804597E+04  0.11576804597E+04  0.25500000920E-02 0. -1.
    10030    2    1    2    0    0  0.00000000000E+00  0.00000000000E+00 -0.75921720501E+02  0.22394391989E+04  0.22381518755E+04 0.  0.
        3    1    3    3  502    0  0.58799374946E+03  0.94507178011E+03 -0.15393104211E+03  0.11236512337E+04  0.10100000352E+00 0. -1.
       -3    1    3    3    0  502 -0.58799374946E+03 -0.94507178011E+03  0.78009321608E+02  0.11157879653E+04  0.10100000352E+00 0.  1.
</event>
<event>
 5   0  0.9312074E-05  0.2285084E+04  0.7818609E-02  0.8483826E-01
       -2   -1    0    0    0  501  0.00000000000E+00  0.00000000000E+00  0.86628913897E+03  0.86628913898E+03  0.25500000920E-02 0. -1.
        2   -1    0    0  501    0  0.00000000000E+00  0.00000000000E+00 -0.15068893255E+04  0.15068893255E+04  0.25500000920E-02 0.  1.
    10030    2    1    2    0    0  0.00000000000E+00  0.00000000000E+00 -0.64060018650E+03  0.23731784644E+04  0.22850836801E+04 0.  0.
        4    1    3    3  502    0 -0.40879146443E+03  0.58511255647E+02 -0.14266706857E+04  0.14852356335E+04  0.12699999809E+01 0.  1.
       -4    1    3    3    0  502  0.40879146443E+03 -0.58511255647E+02  0.78607049924E+03  0.88794283099E+03  0.12699999809E+01 0. -1.
</event>
<event>
 5   0  0.9535394E-05  0.2328879E+04  0.7818609E-02  0.8466621E-01
        2   -1    0    0  501    0  0.00000000000E+00  0.00000000000E+00  0.14251421145E+04  0.14251421145E+04  0.25500000920E-02 0.  1.
       -2   -1    0    0    0  501  0.00000000000E+00  0.00000000000E+00 -0.95142750814E+03  0.95142750815E+03  0.25500000920E-02 0. -1.
    10030    2    1    2    0    0  0.00000000000E+00  0.00000000000E+00  0.47371460633E+03  0.23765696226E+04  0.23288790529E+04 0.  0.
        2    1    3    3  502    0 -0.75724348995E+03 -0.65635751543E+03  0.84204158850E+03  0.13089144082E+04  0.25500000920E-02 0.  1.
       -2    1    3    3    0  502  0.75724348995E+03  0.65635751543E+03 -0.36832698217E+03  0.10676552144E+04  0.25500000920E-02 0. -1.
</event>
<event>
 5   0  0.9535394E-05  0.2125170E+04  0.7818609E-02  0.8550236E-01
        2   -1    0    0  501    0  0.00000000000E+00  0.00000000000E+00  0.99748869325E+03  0.99748869325E+03  0.25500000920E-02 0. -1.
       -2   -1    0    0    0  501  0.00000000000E+00  0.00000000000E+00 -0.11319291921E+04  0.11319291921E+04  0.25500000920E-02 0.  1.
    10030    2    1    2    0    0  0.00000000000E+00  0.00000000000E+00 -0.13444049886E+03  0.21294178854E+04  0.21251697068E+04 0.  0.
        2    1    3    3  502    0  0.21382113355E+03 -0.36817172442E+03 -0.10427251451E+04  0.11262973071E+04  0.25500000920E-02 0.  1.
       -2    1    3    3    0  502 -0.21382113355E+03  0.36817172442E+03  0.90828464626E+03  0.10031205782E+04  0.25500000920E-02 0. -1.
</event>
<event>
 5   0  0.9535394E-05  0.2292535E+04  0.7818609E-02  0.8480870E-01
        2   -1    0    0  501    0  0.00000000000E+00  0.00000000000E+00  0.15488465962E+04  0.15488465962E+04  0.25500000920E-02 0. -1.
       -2   -1    0    0    0  501  0.00000000000E+00  0.00000000000E+00 -0.84832772653E+03  0.84832772654E+03  0.25500000920E-02 0.  1.
    10030    2    1    2    0    0  0.00000000000E+00  0.00000000000E+00  0.70051886963E+03  0.23971743227E+04  0.22925352880E+04 0.  0.
        2    1    3    3  502    0 -0.47922432343E+03 -0.83234729739E+03 -0.30397542756E+03  0.10074021224E+04  0.25500000920E-02 0. -1.
       -2    1    3    3    0  502  0.47922432343E+03  0.83234729739E+03  0.10044942972E+04  0.13897722003E+04  0.25500000920E-02 0.  1.
</event>
<event>
 5   0  0.9641157E-05  0.2253871E+04  0.7818609E-02  0.8496334E-01
        2   -1    0    0  501    0  0.00000000000E+00  0.00000000000E+00  0.19775484934E+04  0.19775484934E+04  0.25500000920E-02 0. -1.
       -2   -1    0    0    0  501  0.00000000000E+00  0.00000000000E+00 -0.64220119348E+03  0.64220119348E+03  0.25500000920E-02 0.  1.
    10030    2    1    2    0    0  0.00000000000E+00  0.00000000000E+00  0.13353472999E+04  0.26197496869E+04  0.22538713385E+04 0.  0.
        3    1    3    3  502    0  0.37541220714E+02 -0.80351360429E+03 -0.24971628853E+03  0.84225987112E+03  0.10100000352E+00 0.  1.
       -3    1    3    3    0  502 -0.37541220714E+02  0.80351360429E+03  0.15850635885E+04  0.17774898158E+04  0.10100000352E+00 0. -1.
</event>
<event>
 5   0  0.9312074E-05  0.2300082E+04  0.7818609E-02  0.8477889E-01
        2   -1    0    0  501    0  0.00000000000E+00  0.00000000000E+00  0.13940406289E+04  0.13940406289E+04  0.25500000920E-02 0.  1.
       -2   -1    0    0    0  501  0.00000000000E+00  0.00000000000E+00 -0.94874838442E+03  0.94874838443E+03  0.25500000920E-02 0. -1.
    10030    2    1    2    0    0  0.00000000000E+00  0.00000000000E+00  0.44529224446E+03  0.23427890133E+04  0.23000815590E+04 0.  0.
        4    1    3    3  502    0 -0.26371468315E+03  0.10941191520E+04 -0.18283444434E+02  0.11256011950E+04  0.12699999809E+01 0. -1.
       -4    1    3    3    0  502  0.26371468315E+03 -0.10941191520E+04  0.46357568890E+03  0.12171878183E+04  0.12699999809E+01 0.  1.
</event>
<event>
 5   0  0.9313463E-05  0.2289218E+04  0.7818609E-02  0.8482185E-01
       -2   -1    0    0    0  501  0.00000000000E+00  0.00000000000E+00  0.12318119413E+04  0.12318119413E+04  0.25500000920E-02 0. -1.
        2   -1    0    0  501    0  0.00000000000E+00  0.00000000000E+00 -0.10635789631E+04  0.10635789631E+04  0.25500000920E-02 0.  1.
    10030    2    1    2    0    0  0.00000000000E+00  0.00000000000E+00  0.16823297813E+03  0.22953909044E+04  0.22892175670E+04 0.  0.
        1    1    3    3  502    0 -0.40561896657E+02  0.10405633750E+04  0.56048909438E+03  0.11826095847E+04  0.50400001928E-02 0. -1.
       -1    1    3    3    0  502  0.40561896657E+02 -0.10405633750E+04 -0.39225611625E+03  0.11127813197E+04  0.50400001928E-02 0.  1.
</event>
<event>
 5   0  0.4139830E-05  0.2281458E+04  0.7818609E-02  0.8485268E-01
        1   -1    0    0  501    0  0.00000000000E+00  0.00000000000E+00  0.18241309226E+04  0.18241309226E+04  0.50400001928E-02 0. -1.
       -1   -1    0    0    0  501  0.00000000000E+00  0.00000000000E+00 -0.71336021925E+03  0.71336021926E+03  0.50400001928E-02 0.  1.
    10030    2    1    2    0    0  0.00000000000E+00  0.00000000000E+00  0.11107707034E+04  0.25374911419E+04  0.22814578102E+04 0.  0.
        1    1    3    3  502    0  0.12880189262E+03  0.37807887488E+03 -0.63304458884E+03  0.74851787865E+03  0.50400001928E-02 0.  1.
       -1    1    3    3    0  502 -0.12880189262E+03 -0.37807887488E+03  0.17438152922E+04  0.17889732632E+04  0.50400001928E-02 0. -1.
</event>
<event>
 5   0  0.4095451E-05  0.1855200E+04  0.7818609E-02  0.8677483E-01
        1   -1    0    0  501    0  0.00000000000E+00  0.00000000000E+00  0.84712100977E+03  0.84712100978E+03  0.50400001928E-02 0. -1.
       -1   -1    0    0    0  501  0.00000000000E+00  0.00000000000E+00 -0.10157243025E+04  0.10157243025E+04  0.50400001928E-02 0.  1.
    10030    2    1    2    0    0  0.00000000000E+00  0.00000000000E+00 -0.16860329277E+03  0.18628453123E+04  0.18551996085E+04 0.  0.
        3    1    3    3  502    0  0.17419209089E+03 -0.73228899333E+03  0.46001295106E+03  0.88215757075E+03  0.10100000352E+00 0. -1.
       -3    1    3    3    0  502 -0.17419209089E+03  0.73228899333E+03 -0.62861624383E+03  0.98068774158E+03  0.10100000352E+00 0.  1.
</event>
<event>
 5   0  0.4139830E-05  0.2310627E+04  0.7818609E-02  0.8473743E-01
        1   -1    0    0  501    0  0.00000000000E+00  0.00000000000E+00  0.83738403096E+03  0.83738403098E+03  0.50400001928E-02 0.  1.
       -1   -1    0    0    0  501  0.00000000000E+00  0.00000000000E+00 -0.15939510340E+04  0.15939510340E+04  0.50400001928E-02 0. -1.
    10030    2    1    2    0    0  0.00000000000E+00  0.00000000000E+00 -0.75656700306E+03  0.24313350650E+04  0.23106268778E+04 0.  0.
        1    1    3    3  502    0  0.57201679601E+03 -0.45506568138E+03 -0.13197071916E+04  0.15086136221E+04  0.50400001928E-02 0. -1.
       -1    1    3    3    0  502 -0.57201679601E+03  0.45506568138E+03  0.56314018850E+03  0.92272144292E+03  0.50400001928E-02 0.  1.
</event>
<event>
 5   0  0.9312074E-05  0.2458259E+04  0.7818609E-02  0.8418009E-01
       -2   -1    0    0    0  501  0.00000000000E+00  0.00000000000E+00  0.11939119945E+04  0.11939119945E+04  0.25500000920E-02 0.  1.
        2   -1    0    0  501    0  0.00000000000E+00  0.00000000000E+00 -0.12653855505E+04  0.12653855505E+04  0.25500000920E-02 0. -1.
    10030    2    1    2    0    0  0.00000000000E+00  0.00000000000E+00 -0.71473556000E+02  0.24592975449E+04  0.24582587222E+04 0.  0.
        4    1    3    3  502    0  0.91425371370E+03 -0.79329645336E+03  0.17784408961E+03  0.12234415593E+04  0.12699999809E+01 0.  1.
       -4    1    3    3    0  502 -0.91425371370E+03  0.79329645336E+03 -0.24931764561E+03  0.12358559856E+04  0.12699999809E+01 0. -1.
</event>
<event>
 5   0  0.9535394E-05  0.2286325E+04  0.7818609E-02  0.8483332E-01
       -2   -1    0    0    0  501  0.00000000000E+00  0.00000000000E+00  0.15375903093E+04  0.15375903094E+04  0.25500000920E-02 0.  1.
        2   -1    0    0  501    0  0.00000000000E+00  0.00000000000E+00 -0.84991483258E+03  0.84991483258E+03  0.25500000920E-02 0. -1.
    10030    2    1    2    0    0  0.00000000000E+00  0.00000000000E+00  0.68767547677E+03  0.23875051419E+04  0.22863252703E+04 0.  0.
        2    1    3    3  502    0  0.52452154390E+03 -0.95451625325E+03  0.70647629688E+03  0.12982037151E+04  0.25500000920E-02 0.  1.
       -2    1    3    3    0  502 -0.52452154390E+03  0.95451625325E+03 -0.18800820110E+02  0.10893014269E+04  0.25500000920E-02 0. -1.
</event>
<event>
 5   0  0.9535394E-05  0.2322701E+04  0.7818609E-02  0.8469024E-01
       -2   -1    0    0    0  501  0.00000000000E+00  0.00000000000E+00  0.15402653276E+04  0.15402653276E+04  0.25500000920E-02 0. -1.
        2   -1    0    0  501    0  0.00000000000E+00  0.00000000000E+00 -0.87565088103E+03  0.87565088103E+03  0.25500000920E-02 0.  1.
    10030    2    1    2    0    0  0.00000000000E+00  0.00000000000E+00  0.66461444653E+03  0.24159162086E+04  0.23227007479E+04 0.  0.
        2    1    3    3  502    0  0.30922890535E+03  0.35521163199E+03 -0.77186902800E+03  0.90420109257E+03  0.25500000920E-02 0.  1.
       -2    1    3    3    0  502 -0.30922890535E+03 -0.35521163199E+03  0.14364834745E+04  0.15117151160E+04  0.25500000920E-02 0. -1.
</event>
<event>
 5   0  0.9313463E-05  0.2284944E+04  0.7818609E-02  0.8483881E-01
       -2   -1    0    0    0  501  0.00000000000E+00  0.00000000000E+00  0.14317682584E+04  0.14317682584E+04  0.25500000920E-02 0.  1.
        2   -1    0    0  501    0  0.00000000000E+00  0.00000000000E+00 -0.91162934006E+03  0.91162934006E+03  0.25500000920E-02 0. -1.
    10030    2    1    2    0    0  0.00000000000E+00  0.00000000000E+00  0.52013891834E+03  0.23433975985E+04  0.22849437214E+04 0.  0.
        1    1    3    3  502    0  0.99093689335E+03  0.48477018119E+03 -0.44657740897E+02  0.11040617596E+04  0.50400001928E-02 0. -1.
       -1    1    3    3    0  502 -0.99093689335E+03 -0.48477018119E+03  0.56479665924E+03  0.12393358389E+04  0.50400001928E-02 0.  1.
</event>
<event>
 5   0  0.9483073E-05  0.2236052E+04  0.7818609E-02  0.8503571E-01
       -2   -1    0    0    0  501  0.00000000000E+00  0.00000000000E+00  0.18822738952E+04  0.18822738952E+04  0.25500000920E-02 0.  1.
        2   -1    0    0  501    0  0.00000000000E+00  0.00000000000E+00 -0.66408095837E+03  0.66408095838E+03  0.25500000920E-02 0. -1.
    10030    2    1    2    0    0  0.00000000000E+00  0.00000000000E+00  0.12181929368E+04  0.25463548536E+04  0.22360521034E+04 0.  0.
        5    1    3    3  502    0  0.30826057284E+03 -0.35781856687E+02 -0.61404031868E+03  0.68802073006E+03  0.46999998093E+01 0. -1.
       -5    1    3    3    0  502 -0.30826057284E+03  0.35781856687E+02  0.18322332555E+04  0.18583341235E+04  0.46999998093E+01 0.  1.
</event>
<event>
 5   0  0.3885219E-05  0.2304416E+04  0.7818609E-02  0.8476182E-01
       -1   -1    0    0    0  501  0.00000000000E+00  0.00000000000E+00  0.12018480861E+04  0.12018480861E+04  0.50400001928E-02 0.  1.
        1   -1    0    0  501    0  0.00000000000E+00  0.00000000000E+00 -0.11046180794E+04  0.11046180794E+04  0.50400001928E-02 0. -1.
    10030    2    1    2    0    0  0.00000000000E+00  0.00000000000E+00  0.97230006697E+02  0.23064661656E+04  0.23044158693E+04 0.  0.
        2    1    3    3  502    0 -0.11395996591E+04  0.43894248578E+02 -0.11575363132E+03  0.11463040570E+04  0.25500000920E-02 0. -1.
       -2    1    3    3    0  502  0.11395996591E+04 -0.43894248578E+02  0.21298363801E+03  0.11601621085E+04  0.25500000920E-02 0.  1.
</event>
<event>
 5   0  0.4095451E-05  0.2294868E+04  0.7818609E-02  0.8479947E-01
        1   -1    0    0  501    0  0.00000000000E+00  0.00000000000E+00  0.16776154397E+04  0.16776154397E+04  0.50400001928E-02 0.  1.
       -1   -1    0    0    0  501  0.00000000000E+00  0.00000000000E+00 -0.78480744875E+03  0.78480744877E+03  0.50400001928E-02 0. -1.
    10030    2    1    2    0    0  0.00000000000E+00  0.00000000000E+00  0.89280799092E+03  0.24624228884E+04  0.22948682692E+04 0.  0.
        3    1    3    3  502    0 -0.22759387192E+03 -0.46097033674E+03 -0.65431696055E+03  0.83211977321E+03  0.10100000352E+00 0. -1.
       -3    1    3    3    0  502  0.22759387192E+03  0.46097033674E+03  0.15471249515E+04  0.16303031152E+04  0.10100000352E+00 0.  1.
</event>
<event>
 5   0  0.4139830E-05  0.2292459E+04  0.7818609E-02  0.8480901E-01
        1   -1    0    0  501    0  0.00000000000E+00  0.00000000000E+00  0.97434987006E+03  0.97434987008E+03  0.50400001928E-02 0. -1.
       -1   -1    0    0    0  501  0.00000000000E+00  0.00000000000E+00 -0.13484289169E+04  0.13484289169E+04  0.50400001928E-02 0.  1.
    10030    2    1    2    0    0  0.00000000000E+00  0.00000000000E+00 -0.37407904684E+03  0.23227787870E+04  0.22924585405E+04 0.  0.
        1    1    3    3  502    0  0.30405090375E+03  0.53793657667E+03 -0.11652193541E+04  0.13189233699E+04  0.50400001928E-02 0.  1.
       -1    1    3    3    0  502 -0.30405090375E+03 -0.53793657667E+03  0.79114030725E+03  0.10038554171E+04  0.50400001928E-02 0. -1.
</event>
<event>
 5   0  0.3885219E-05  0.2288763E+04  0.7818609E-02  0.8482365E-01
        1   -1    0    0  501    0  0.00000000000E+00  0.00000000000E+00  0.13534716292E+04  0.13534716292E+04  0.50400001928E-02 0.  1.
       -1   -1    0    0    0  501  0.00000000000E+00  0.00000000000E+00 -0.96759213279E+03  0.96759213280E+03  0.50400001928E-02 0. -1.
    10030    2    1    2    0    0  0.00000000000E+00  0.00000000000E+00  0.38587949639E+03  0.23210637620E+04  0.22887625481E+04 0.  0.
        2    1    3    3  502    0 -0.57920679071E+03 -0.11090213315E+03  0.11875093956E+04  0.13258802187E+04  0.25500000920E-02 0.  1.
       -2    1    3    3    0  502  0.57920679071E+03  0.11090213315E+03 -0.80162989924E+03  0.99518354332E+03  0.25500000920E-02 0. -1.
</event>
<event>
 5   0  0.9641157E-05  0.2267896E+04  0.7818609E-02  0.8490688E-01
       -2   -1    0    0    0  501  0.00000000000E+00  0.00000000000E+00  0.58797070849E+03  0.58797070849E+03  0.25500000920E-02 0.  1.
        2   -1    0    0  501    0  0.00000000000E+00  0.00000000000E+00 -0.21869076537E+04  0.21869076537E+04  0.25500000920E-02 0. -1.
    10030    2    1    2    0    0  0.00000000000E+00  0.00000000000E+00 -0.15989369452E+04  0.27748783622E+04  0.22678956259E+04 0.  0.
        3    1    3    3  502    0 -0.37393165209E+03  0.51293169506E+03 -0.19491565997E+04  0.20499110382E+04  0.10100000352E+00 0. -1.
       -3    1    3    3    0  502  0.37393165209E+03 -0.51293169506E+03  0.35021965450E+03  0.72496732397E+03  0.10100000352E+00 0.  1.
</event>
<event>
 5   0  0.3885219E-05  0.2333412E+04  0.7818609E-02  0.8464862E-01
        1   -1    0    0  501    0  0.00000000000E+00  0.00000000000E+00  0.94969171260E+03  0.94969171262E+03  0.50400001928E-02 0. -1.
       -1   -1    0    0    0  501  0.00000000000E+00  0.00000000000E+00 -0.14333105064E+04  0.14333105064E+04  0.50400001928E-02 0.  1.
    10030    2    1    2    0    0  0.00000000000E+00  0.00000000000E+00 -0.48361879377E+03  0.23830022190E+04  0.23334121878E+04 0.  0.
        2    1    3    3  502    0 -0.11007996713E+03  0.76940182557E+03  0.64680107447E+03  0.10111619051E+04  0.25500000920E-02 0. -1.
       -2    1    3    3    0  502  0.11007996713E+03 -0.76940182557E+03 -0.11304198682E+04  0.13718403139E+04  0.25500000920E-02 0.  1.
</event>
<event>
 5   0  0.9483073E-05  0.2276153E+04  0.7818609E-02  0.8487383E-01
        2   -1    0    0  501    0  0.00000000000E+00  0.00000000000E+00  0.11474188811E+04  0.11474188811E+04  0.25500000920E-02 0.  1.
       -2   -1    0    0    0  501  0.00000000000E+00  0.00000000000E+00 -0.11288103537E+04  0.11288103537E+04  0.25500000920E-02 0. -1.
    10030    2    1    2    0    0  0.00000000000E+00  0.00000000000E+00  0.18608527439E+02  0.22762292347E+04  0.22761531697E+04 0.  0.
        5    1    3    3  502    0 -0.53144518939E+03 -0.39191533662E+03 -0.91763803604E+03  0.11305367201E+04  0.46999998093E+01 0. -1.
       -5    1    3    3    0  502  0.53144518939E+03  0.39191533662E+03  0.93624656347E+03  0.11456925146E+04  0.46999998093E+01 0.  1.
</event>
<event>
 5   0  0.9313463E-05  0.2300032E+04  0.7818609E-02  0.8477909E-01
       -2   -1    0    0    0  501  0.00000000000E+00  0.00000000000E+00  0.10596815623E+04  0.10596815623E+04  0.25500000920E-02 0. -1.
        2   -1    0    0  501    0  0.00000000000E+00  0.00000000000E+00 -0.12480509538E+04  0.12480509538E+04  0.25500000920E-02 0.  1.
    10030    2    1    2    0    0  0.00000000000E+00  0.00000000000E+00 -0.18836939151E+03  0.23077325161E+04  0.23000318124E+04 0.  0.
        1    1    3    3  502    0 -0.22671367701E+03  0.11079983879E+04  0.11502496667E+03  0.11367894536E+04  0.50400001928E-02 0. -1.
       -1    1    3    3    0  502  0.22671367701E+03 -0.11079983879E+04 -0.30339435818E+03  0.11709430624E+04  0.50400001928E-02 0.  1.
</event>
<event>
 5   0  0.4295775E-05  0.2349716E+04  0.7818609E-02  0.8458573E-01
       -1   -1    0    0    0  501  0.00000000000E+00  0.00000000000E+00  0.96026369041E+03  0.96026369042E+03  0.50400001928E-02 0.  1.
        1   -1    0    0  501    0  0.00000000000E+00  0.00000000000E+00 -0.14374090656E+04  0.14374090656E+04  0.50400001928E-02 0. -1.
    10030    2    1    2    0    0  0.00000000000E+00  0.00000000000E+00 -0.47714537516E+03  0.23976727560E+04  0.23497163522E+04 0.  0.
        5    1    3    3  502    0  0.39614866065E+03  0.17814914808E+03 -0.13524554707E+04  0.14205029991E+04  0.46999998093E+01 0. -1.
       -5    1    3    3    0  502 -0.39614866065E+03 -0.17814914808E+03  0.87531009557E+03  0.97716975685E+03  0.46999998093E+01 0.  1.
</event>
<event>
 5   0  0.4095451E-05  0.2326923E+04  0.7818609E-02  0.8467381E-01
       -1   -1    0    0    0  501  0.00000000000E+00  0.00000000000E+00  0.12086315281E+04  0.12086315281E+04  0.50400001928E-02 0. -1.
        1   -1    0    0  501    0  0.00000000000E+00  0.00000000000E+00 -0.11199794252E+04  0.11199794252E+04  0.50400001928E-02 0.  1.
    10030    2    1    2    0    0  0.00000000000E+00  0.00000000000E+00  0.88652102878E+02  0.23286109533E+04  0.23269228128E+04 0.  0.
        3    1    3    3  502    0  0.38494015745E+03 -0.12168867783E+03  0.11362892374E+04  0.12058773986E+04  0.10100000352E+00 0. -1.
       -3    1    3    3    0  502 -0.38494015745E+03  0.12168867783E+03 -0.10476371345E+04  0.11227335548E+04  0.10100000352E+00 0.  1.
</event>
<event>
 5   0  0.4005462E-05  0.2251716E+04  0.7818609E-02  0.8497206E-01
       -1   -1    0    0    0  501  0.00000000000E+00  0.00000000000E+00  0.28448034173E+04  0.28448034173E+04  0.50400001928E-02 0. -1.
        1   -1    0    0  501    0  0.00000000000E+00  0.00000000000E+00 -0.44556898560E+03  0.44556898563E+03  0.50400001928E-02 0.  1.
    10030    2    1    2    0    0  0.00000000000E+00  0.00000000000E+00  0.23992344317E+04  0.32903724029E+04  0.22517159438E+04 0.  0.
        4    1    3    3  502    0  0.63122948113E+02 -0.23077244730E+03  0.28072264902E+04  0.28174035226E+04  0.12699999809E+01 0. -1.
       -4    1    3    3    0  502 -0.63122948113E+02  0.23077244730E+03 -0.40799205852E+03  0.47296888030E+03  0.12699999809E+01 0.  1.
</event>
<event>
 5   0  0.4295775E-05  0.2365600E+04  0.7818609E-02  0.8452496E-01
        1   -1    0    0  501    0  0.00000000000E+00  0.00000000000E+00  0.23874382799E+04  0.23874382799E+04  0.50400001928E-02 0. -1.
       -1   -1    0    0    0  501  0.00000000000E+00  0.00000000000E+00 -0.58599015526E+03  0.58599015528E+03  0.50400001928E-02 0.  1.
    10030    2    1    2    0    0  0.00000000000E+00  0.00000000000E+00  0.18014481247E+04  0.29734284352E+04  0.23655995674E+04 0.  0.
        5    1    3    3  502    0  0.19445114604E+03  0.11666675476E+04  0.91115167763E+03  0.14930317761E+04  0.46999998093E+01 0. -1.
       -5    1    3    3    0  502 -0.19445114604E+03 -0.11666675476E+04  0.89029644703E+03  0.14803966591E+04  0.46999998093E+01 0.  1.
</event>
<event>
 5   0  0.9535394E-05  0.2203163E+04  0.7818609E-02  0.8517113E-01
        2   -1    0    0  501    0  0.00000000000E+00  0.00000000000E+00  0.28410920939E+04  0.28410920939E+04  0.25500000920E-02 0. -1.
       -2   -1    0    0    0  501  0.00000000000E+00  0.00000000000E+00 -0.42711815797E+03  0.42711815798E+03  0.25500000920E-02 0.  1.
    10030    2    1    2    0    0  0.00000000000E+00  0.00000000000E+00  0.24139739360E+04  0.32682102519E+04  0.22031632003E+04 0.  0.
        2    1    3    3  502    0 -0.99762880461E+03 -0.37730437416E+03  0.79841336105E+03  0.13323234283E+04  0.25500000920E-02 0.  1.
       -2    1    3    3    0  502  0.99762880461E+03  0.37730437416E+03  0.16155605749E+04  0.19358868236E+04  0.25500000920E-02 0. -1.
</event>
<event>
 5   0  0.3885219E-05  0.2293900E+04  0.7818609E-02  0.8480330E-01
        1   -1    0    0  501    0  0.00000000000E+00  0.00000000000E+00  0.13393890620E+04  0.13393890621E+04  0.50400001928E-02 0. -1.
       -1   -1    0    0    0  501  0.00000000000E+00  0.00000000000E+00 -0.98215963351E+03  0.98215963352E+03  0.50400001928E-02 0.  1.
    10030    2    1    2    0    0  0.00000000000E+00  0.00000000000E+00  0.35722942854E+03  0.23215486956E+04  0.22938996232E+04 0.  0.
        2    1    3    3  502    0 -0.51820268494E+03  0.92142417722E+03 -0.27164930633E+03  0.10914897538E+04  0.25500000920E-02 0. -1.
       -2    1    3    3    0  502  0.51820268494E+03 -0.92142417722E+03  0.62887873486E+03  0.12300589418E+04  0.25500000920E-02 0.  1.
</event>
<event>
 5   0  0.9483073E-05  0.1426808E+04  0.7818609E-02  0.8934639E-01
       -2   -1    0    0    0  501  0.00000000000E+00  0.00000000000E+00  0.75259127314E+03  0.75259127314E+03  0.25500000920E-02 0.  1.
        2   -1    0    0  501    0  0.00000000000E+00  0.00000000000E+00 -0.67625725558E+03  0.67625725559E+03  0.25500000920E-02 0. -1.
    10030    2    1    2    0    0  0.00000000000E+00  0.00000000000E+00  0.76334017552E+02  0.14288485287E+04  0.14268080585E+04 0.  0.
        5    1    3    3  502    0 -0.80371122967E+02 -0.59894062857E+03  0.41783163030E+03  0.73470725819E+03  0.46999998093E+01 0.  1.
       -5    1    3    3    0  502  0.80371122967E+02  0.59894062857E+03 -0.34149761274E+03  0.69414127054E+03  0.46999998093E+01 0. -1.
</event>
<event>
 5   0  0.4139830E-05  0.2205109E+04  0.7818609E-02  0.8516305E-01
        1   -1    0    0  501    0  0.00000000000E+00  0.00000000000E+00  0.15896440463E+04  0.15896440463E+04  0.50400001928E-02 0. -1.
       -1   -1    0    0    0  501  0.00000000000E+00  0.00000000000E+00 -0.76471581749E+03  0.76471581750E+03  0.50400001928E-02 0.  1.
    10030    2    1    2    0    0  0.00000000000E+00  0.00000000000E+00  0.82492822883E+03  0.23543598638E+04  0.22051085655E+04 0.  0.
        1    1    3    3  502    0  0.47192381938E+03  0.99431297649E+03  0.34281409820E+03  0.11527757338E+04  0.50400001928E-02 0.  1.
       -1    1    3    3    0  502 -0.47192381938E+03 -0.99431297649E+03  0.48211413063E+03  0.12015841300E+04  0.50400001928E-02 0. -1.
</event>
<event>
 5   0  0.9641157E-05  0.2203723E+04  0.7818609E-02  0.8516880E-01
       -2   -1    0    0    0  501  0.00000000000E+00  0.00000000000E+00  0.92694040228E+03  0.92694040228E+03  0.25500000920E-02 0.  1.
        2   -1    0    0  501    0  0.00000000000E+00  0.00000000000E+00 -0.13097917889E+04  0.13097917889E+04  0.25500000920E-02 0. -1.
    10030    2    1    2    0    0  0.00000000000E+00  0.00000000000E+00 -0.38285138665E+03  0.22367321912E+04  0.22037231475E+04 0.  0.
        3    1    3    3  502    0  0.73185381474E+03  0.62721709044E+03  0.35050798845E+03  0.10256057453E+04  0.10100000352E+00 0.  1.
       -3    1    3    3    0  502 -0.73185381474E+03 -0.62721709044E+03 -0.73335937510E+03  0.12111264459E+04  0.10100000352E+00 0. -1.
</event>
<event>
 5   0  0.9483073E-05  0.1769330E+04  0.7818609E-02  0.8722782E-01
        2   -1    0    0  501    0  0.00000000000E+00  0.00000000000E+00  0.10637980909E+04  0.10637980909E+04  0.25500000920E-02 0. -1.
       -2   -1    0    0    0  501  0.00000000000E+00  0.00000000000E+00 -0.73569628684E+03  0.73569628684E+03  0.25500000920E-02 0.  1.
    10030    2    1    2    0    0  0.00000000000E+00  0.00000000000E+00  0.32810180406E+03  0.17994943777E+04  0.17693301619E+04 0.  0.
        5    1    3    3  502    0 -0.62223199602E+03  0.47279973475E+03 -0.25762325586E+03  0.82286334103E+03  0.46999998093E+01 0.  1.
       -5    1    3    3    0  502  0.62223199602E+03 -0.47279973475E+03  0.58572505992E+03  0.97663103671E+03  0.46999998093E+01 0. -1.
</event>
<event>
 5   0  0.9483073E-05  0.2284774E+04  0.7818609E-02  0.8483949E-01
       -2   -1    0    0    0  501  0.00000000000E+00  0.00000000000E+00  0.10010539311E+04  0.10010539311E+04  0.25500000920E-02 0.  1.
        2   -1    0    0  501    0  0.00000000000E+00  0.00000000000E+00 -0.13036742345E+04  0.13036742345E+04  0.25500000920E-02 0. -1.
    10030    2    1    2    0    0  0.00000000000E+00  0.00000000000E+00 -0.30262030345E+03  0.23047281656E+04  0.22847741397E+04 0.  0.
        5    1    3    3  502    0 -0.47945011069E+03 -0.50639312938E+03  0.76142349295E+03  0.10325183949E+04  0.46999998093E+01 0.  1.
       -5    1    3    3    0  502  0.47945011069E+03  0.50639312938E+03 -0.10640437964E+04  0.12722097707E+04  0.46999998093E+01 0. -1.
</event>
<event>
 5   0  0.9641157E-05  0.1572673E+04  0.7818609E-02  0.8837514E-01
       -2   -1    0    0    0  501  0.00000000000E+00  0.00000000000E+00  0.56226726080E+03  0.56226726081E+03  0.25500000920E-02 0.  1.
        2   -1    0    0  501    0  0.00000000000E+00  0.00000000000E+00 -0.10996990464E+04  0.10996990464E+04  0.25500000920E-02 0. -1.
    10030    2    1    2    0    0  0.00000000000E+00  0.00000000000E+00 -0.53743178556E+03  0.16619663072E+04  0.15726725921E+04 0.  0.
        3    1    3    3  502    0  0.39802238039E+03  0.65983566765E+03 -0.43419481510E+03  0.88449424603E+03  0.10100000352E+00 0. -1.
       -3    1    3    3    0  502 -0.39802238039E+03 -0.65983566765E+03 -0.10323697046E+03  0.77747206115E+03  0.10100000352E+00 0.  1.
</event>
<event>
 5   0  0.4139830E-05  0.2304263E+04  0.7818609E-02  0.8476242E-01
       -1   -1    0    0    0  501  0.00000000000E+00  0.00000000000E+00  0.15292157447E+04  0.15292157447E+04  0.50400001928E-02 0. -1.
        1   -1    0    0  501    0  0.00000000000E+00  0.00000000000E+00 -0.86803101833E+03  0.86803101834E+03  0.50400001928E-02 0.  1.
    10030    2    1    2    0    0  0.00000000000E+00  0.00000000000E+00  0.66118472639E+03  0.23972467631E+04  0.23042627456E+04 0.  0.
        1    1    3    3  502    0 -0.79064131354E+03  0.16995160770E+03 -0.52313725880E+03  0.96315618007E+03  0.50400001928E-02 0.  1.
       -1    1    3    3    0  502  0.79064131354E+03 -0.16995160770E+03  0.11843219852E+04  0.14340905830E+04  0.50400001928E-02 0. -1.
</event>
<event>
 5   0  0.4005462E-05  0.2310534E+04  0.7818609E-02  0.8473779E-01
        1   -1    0    0  501    0  0.00000000000E+00  0.00000000000E+00  0.91554443554E+03  0.91554443556E+03  0.50400001928E-02 0.  1.
       -1   -1    0    0    0  501  0.00000000000E+00  0.00000000000E+00 -0.14577577503E+04  0.14577577504E+04  0.50400001928E-02 0. -1.
    10030    2    1    2    0    0  0.00000000000E+00  0.00000000000E+00 -0.54221331481E+03  0.23733021859E+04  0.23105341345E+04 0.  0.
        4    1    3    3  502    0  0.90220258369E+03  0.29212259730E+03  0.40661689315E+03  0.10318158869E+04  0.12699999809E+01 0.  1.
       -4    1    3    3    0  502 -0.90220258369E+03 -0.29212259730E+03 -0.94883020796E+03  0.13414862990E+04  0.12699999809E+01 0. -1.
</event>
<event>
 5   0  0.4295775E-05  0.2315478E+04  0.7818609E-02  0.8471843E-01
        1   -1    0    0  501    0  0.00000000000E+00  0.00000000000E+00  0.16876898140E+04  0.16876898140E+04  0.50400001928E-02 0. -1.
       -1   -1    0    0    0  501  0.00000000000E+00  0.00000000000E+00 -0.79419764972E+03  0.79419764974E+03  0.50400001928E-02 0.  1.
    10030    2    1    2    0    0  0.00000000000E+00  0.00000000000E+00  0.89349216432E+03  0.24818874638E+04  0.23154777337E+04 0.  0.
        5    1    3    3  502    0  0.82966614392E+03  0.10711055085E+03  0.13045881774E+04  0.15497712680E+04  0.46999998093E+01 0. -1.
       -5    1    3    3    0  502 -0.82966614392E+03 -0.10711055085E+03 -0.41109601310E+03  0.93211619579E+03  0.46999998093E+01 0.  1.
</event>
<event>
 5   0  0.9535394E-05  0.2290924E+04  0.7818609E-02  0.8481508E-01
       -2   -1    0    0    0  501  0.00000000000E+00  0.00000000000E+00  0.73503095737E+03  0.73503095738E+03  0.25500000920E-02 0. -1.
        2   -1    0    0  501    0  0.00000000000E+00  0.00000000000E+00 -0.17850719050E+04  0.17850719050E+04  0.25500000920E-02 0.  1.
    10030    2    1    2    0    0  0.00000000000E+00  0.00000000000E+00 -0.10500409476E+04  0.25201028623E+04  0.22909239283E+04 0.  0.
        2    1    3    3  502    0  0.21518343817E+03  0.10692676079E+04 -0.90994879733E+03  0.14204379406E+04  0.25500000920E-02 0. -1.
       -2    1    3    3    0  502 -0.21518343817E+03 -0.10692676079E+04 -0.14009215026E+03  0.10996649217E+04  0.25500000920E-02 0.  1.
</event>
<event>
 5   0  0.4095451E-05  0.2307257E+04  0.7818609E-02  0.8475065E-01
       -1   -1    0    0    0  501  0.00000000000E+00  0.00000000000E+00  0.72020553004E+03  0.72020553006E+03  0.50400001928E-02 0. -1.
        1   -1    0    0  501    0  0.00000000000E+00  0.00000000000E+00 -0.18478874329E+04  0.18478874329E+04  0.50400001928E-02 0.  1.
    10030    2    1    2    0    0  0.00000000000E+00  0.00000000000E+00 -0.11276819028E+04  0.25680929629E+04  0.23072570278E+04 0.  0.
        3    1    3    3  502    0 -0.84950954203E+02 -0.29726738856E+03  0.67323522672E+03  0.74083078069E+03  0.10100000352E+00 0. -1.
       -3    1    3    3    0  502  0.84950954203E+02  0.29726738856E+03 -0.18009171295E+04  0.18272621822E+04  0.10100000352E+00 0.  1.
</event>
<event>
 5   0  0.4005462E-05  0.2233569E+04  0.7818609E-02  0.8504584E-01
       -1   -1    0    0    0  501  0.00000000000E+00  0.00000000000E+00  0.70926765927E+03  0.70926765929E+03  0.50400001928E-02 0. -1.
        1   -1    0    0  501    0  0.00000000000E+00  0.00000000000E+00 -0.17584442936E+04  0.17584442936E+04  0.50400001928E-02 0.  1.
    10030    2    1    2    0    0  0.00000000000E+00  0.00000000000E+00 -0.10491766344E+04  0.24677119529E+04  0.22335690436E+04 0.  0.
        4    1    3    3  502    0 -0.10368333094E+04  0.32024405789E+03 -0.23305893976E+03  0.11099088478E+04  0.12699999809E+01 0. -1.
       -4    1    3    3    0  502  0.10368333094E+04 -0.32024405789E+03 -0.81611769461E+03  0.13578031052E+04  0.12699999809E+01 0.  1.
</event>
<event>
 5   0  0.9312074E-05  0.2277708E+04  0.7818609E-02  0.8486763E-01
       -2   -1    0    0    0  501  0.00000000000E+00  0.00000000000E+00  0.10185924777E+04  0.10185924777E+04  0.25500000920E-02 0. -1.
        2   -1    0    0  501    0  0.00000000000E+00  0.00000000000E+00 -0.12733139323E+04  0.12733139323E+04  0.25500000920E-02 0.  1.
    10030    2    1    2    0    0  0.00000000000E+00  0.00000000000E+00 -0.25472145466E+03  0.22919064100E+04  0.22777076135E+04 0.  0.
        4    1    3    3  502    0  0.50998831792E+03  0.94906569692E+03  0.24395536272E+03  0.11046853006E+04  0.12699999809E+01 0. -1.
       -4    1    3    3    0  502 -0.50998831792E+03 -0.94906569692E+03 -0.49867681738E+03  0.11872211094E+04  0.12699999809E+01 0.  1.
</event>
<event>
 5   0  0.4005462E-05  0.2229393E+04  0.7818609E-02  0.8506293E-01
        1   -1    0    0  501    0  0.00000000000E+00  0.00000000000E+00  0.23233569941E+04  0.23233569941E+04  0.50400001928E-02 0. -1.
       -1   -1    0    0    0  501  0.00000000000E+00  0.00000000000E+00 -0.53480751764E+03  0.53480751766E+03  0.50400001928E-02 0.  1.
    10030    2    1    2    0    0  0.00000000000E+00  0.00000000000E+00  0.17885494764E+04  0.28581645117E+04  0.22293934481E+04 0.  0.
        4    1    3    3  502    0  0.90710735180E+03 -0.10897326129E+03  0.75547654369E+02  0.91674859168E+03  0.12699999809E+01 0.  1.
       -4    1    3    3    0  502 -0.90710735180E+03  0.10897326129E+03  0.17130018221E+04  0.19414159201E+04  0.12699999809E+01 0. -1.
</event>
<event>
 5   0  0.4005462E-05  0.2258342E+04  0.7818609E-02  0.8494530E-01
        1   -1    0    0  501    0  0.00000000000E+00  0.00000000000E+00  0.15777316409E+04  0.15777316409E+04  0.50400001928E-02 0. -1.
       -1   -1    0    0    0  501  0.00000000000E+00  0.00000000000E+00 -0.80813975669E+03  0.80813975670E+03  0.50400001928E-02 0.  1.
    10030    2    1    2    0    0  0.00000000000E+00  0.00000000000E+00  0.76959188423E+03  0.23858713976E+04  0.22583424580E+04 0.  0.
        4    1    3    3  502    0  0.18897294807E+03  0.25069044441E+03 -0.76110633329E+03  0.82331096039E+03  0.12699999809E+01 0.  1.
       -4    1    3    3    0  502 -0.18897294807E+03 -0.25069044441E+03  0.15306982175E+04  0.15625604372E+04  0.12699999809E+01 0. -1.
</event>
<event>
 5   0  0.4139830E-05  0.2253871E+04  0.7818609E-02  0.8496335E-01
        1   -1    0    0  501    0  0.00000000000E+00  0.00000000000E+00  0.14597234934E+04  0.14597234934E+04  0.50400001928E-02 0. -1.
       -1   -1    0    0    0  501  0.00000000000E+00  0.00000000000E+00 -0.87001646725E+03  0.87001646727E+03  0.50400001928E-02 0.  1.
    10030    2    1    2    0    0  0.00000000000E+00  0.00000000000E+00  0.58970702619E+03  0.23297399607E+04  0.22538708720E+04 0.  0.
        1    1    3    3  502    0  0.88117942691E+03 -0.39211512306E+03 -0.30764980749E+03  0.10123635000E+04  0.50400001928E-02 0.  1.
       -1    1    3    3    0  502 -0.88117942691E+03  0.39211512306E+03  0.89735683368E+03  0.13173764607E+04  0.50400001928E-02 0. -1.
</event>
<event>
 5   0  0.9313463E-05  0.2391054E+04  0.7818609E-02  0.8442860E-01
       -2   -1    0    0    0  501  0.00000000000E+00  0.00000000000E+00  0.14258552766E+04  0.14258552766E+04  0.25500000920E-02 0.  1.
        2   -1    0    0  501    0  0.00000000000E+00  0.00000000000E+00 -0.10024056023E+04  0.10024056023E+04  0.25500000920E-02 0. -1.
    10030    2    1    2    0    0  0.00000000000E+00  0.00000000000E+00  0.42344967434E+03  0.24282608789E+04  0.23910544262E+04 0.  0.
        1    1    3    3  502    0  0.18165811093E+03 -0.71491597198E+03 -0.74375576407E+03  0.10475099775E+04  0.50400001928E-02 0. -1.
       -1    1    3    3    0  502 -0.18165811093E+03  0.71491597198E+03  0.11672054384E+04  0.13807509014E+04  0.50400001928E-02 0.  1.
</event>
<event>
 5   0  0.4095451E-05  0.2330256E+04  0.7818609E-02  0.8466086E-01
       -1   -1    0    0    0  501  0.00000000000E+00  0.00000000000E+00  0.14029824227E+04  0.14029824227E+04  0.50400001928E-02 0. -1.
        1   -1    0    0  501    0  0.00000000000E+00  0.00000000000E+00 -0.96759799309E+03  0.96759799310E+03  0.50400001928E-02 0.  1.
    10030    2    1    2    0    0  0.00000000000E+00  0.00000000000E+00  0.43538442958E+03  0.23705804158E+04  0.23302557598E+04 0.  0.
        3    1    3    3  502    0  0.37111742260E+03 -0.82450925468E+02 -0.90272792404E+03  0.97951212933E+03  0.10100000352E+00 0.  1.
       -3    1    3    3    0  502 -0.37111742260E+03  0.82450925468E+02  0.13381123536E+04  0.13910682865E+04  0.10100000352E+00 0. -1.
</event>
<event>
 5   0  0.9535394E-05  0.2219871E+04  0.7818609E-02  0.8510203E-01
        2   -1    0    0  501    0  0.00000000000E+00  0.00000000000E+00  0.13929699885E+04  0.13929699885E+04  0.25500000920E-02 0.  1.
       -2   -1    0    0    0  501  0.00000000000E+00  0.00000000000E+00 -0.88440990316E+03  0.88440990317E+03  0.25500000920E-02 0. -1.
    10030    2    1    2    0    0  0.00000000000E+00  0.00000000000E+00  0.50856008532E+03  0.22773798916E+04  0.22198706743E+04 0.  0.
        2    1    3    3  502    0  0.11022176497E+04  0.12936785494E+03  0.23545630866E+03  0.11344864312E+04  0.25500000920E-02 0.  1.
       -2    1    3    3    0  502 -0.11022176497E+04 -0.12936785494E+03  0.27310377665E+03  0.11428934605E+04  0.25500000920E-02 0. -1.
</event>
<event>
 5   0  0.9641157E-05  0.2257776E+04  0.7818609E-02  0.8494758E-01
        2   -1    0    0  501    0  0.00000000000E+00  0.00000000000E+00  0.15312352284E+04  0.15312352284E+04  0.25500000920E-02 0.  1.
       -2   -1    0    0    0  501  0.00000000000E+00  0.00000000000E+00 -0.83226167844E+03  0.83226167844E+03  0.25500000920E-02 0. -1.
    10030    2    1    2    0    0  0.00000000000E+00  0.00000000000E+00  0.69897354993E+03  0.23634969068E+04  0.22577762522E+04 0.  0.
        3    1    3    3  502    0 -0.98208248141E+03  0.36749115752E+03 -0.88247178262E+02  0.10522943152E+04  0.10100000352E+00 0.  1.
       -3    1    3    3    0  502  0.98208248141E+03 -0.36749115752E+03  0.78722072819E+03  0.13112025916E+04  0.10100000352E+00 0. -1.
</event>
<event>
 5   0  0.3261500E-05  0.2254095E+04  0.7818609E-02  0.8496244E-01
        3   -1    0    0  501    0  0.00000000000E+00  0.00000000000E+00  0.25942398482E+04  0.25942398501E+04  0.10100000352E+00 0. -1.
       -3   -1    0    0    0  501  0.00000000000E+00  0.00000000000E+00 -0.48963714860E+03  0.48963715901E+03  0.10100000352E+00 0.  1.
    10030    2    1    2    0    0  0.00000000000E+00  0.00000000000E+00  0.21046026996E+04  0.30838770091E+04  0.22540951365E+04 0.  0.
        5    1    3    3  502    0  0.18046179211E+03 -0.11111984334E+04  0.11257952794E+04  0.15920946951E+04  0.46999998093E+01 0. -1.
       -5    1    3    3    0  502 -0.18046179211E+03  0.11111984334E+04  0.97880742013E+03  0.14917823141E+04  0.46999998093E+01 0.  1.
</event>
<event>
 5   0  0.4295775E-05  0.2292490E+04  0.7818609E-02  0.8480888E-01
       -1   -1    0    0    0  501  0.00000000000E+00  0.00000000000E+00  0.52736308615E+03  0.52736308617E+03  0.50400001928E-02 0.  1.
        1   -1    0    0  501    0  0.00000000000E+00  0.00000000000E+00 -0.24914090741E+04  0.24914090741E+04  0.50400001928E-02 0. -1.
    10030    2    1    2    0    0  0.00000000000E+00  0.00000000000E+00 -0.19640459879E+04  0.30187721602E+04  0.22924896320E+04 0.  0.
        5    1    3    3  502    0  0.65811332753E+03 -0.87379290541E+03 -0.14328796015E+04  0.18027182908E+04  0.46999998093E+01 0. -1.
       -5    1    3    3    0  502 -0.65811332753E+03  0.87379290541E+03 -0.53116638640E+03  0.12160538695E+04  0.46999998093E+01 0.  1.
</event>
<event>
 5   0  0.9312074E-05  0.2433042E+04  0.7818609E-02  0.8427236E-01
       -2   -1    0    0    0  501  0.00000000000E+00  0.00000000000E+00  0.10528103342E+04  0.10528103342E+04  0.25500000920E-02 0. -1.
        2   -1    0    0  501    0  0.00000000000E+00  0.00000000000E+00 -0.14056885001E+04  0.14056885001E+04  0.25500000920E-02 0.  1.
    10030    2    1    2    0    0  0.00000000000E+00  0.00000000000E+00 -0.35287816588E+03  0.24584988342E+04  0.24330420296E+04 0.  0.
        4    1    3    3  502    0  0.68133122440E+03 -0.34945272248E+03 -0.11316298376E+04  0.13663517646E+04  0.12699999809E+01 0.  1.
       -4    1    3    3    0  502 -0.68133122440E+03  0.34945272248E+03  0.77875167168E+03  0.10921470696E+04  0.12699999809E+01 0. -1.
</event>
<event>
 5   0  0.9312074E-05  0.2263322E+04  0.7818609E-02  0.8492525E-01
       -2   -1    0    0    0  501  0.00000000000E+00  0.00000000000E+00  0.85264293652E+03  0.85264293652E+03  0.25500000920E-02 0. -1.
        2   -1    0    0  501    0  0.00000000000E+00  0.00000000000E+00 -0.15019845015E+04  0.15019845015E+04  0.25500000920E-02 0.  1.
    10030    2    1    2    0    0  0.00000000000E+00  0.00000000000E+00 -0.64934156501E+03  0.23546274381E+04  0.22633218737E+04 0.  0.
        4    1    3    3  502    0 -0.44930688983E+03 -0.89112803177E+02 -0.14012291540E+04  0.14741989445E+04  0.12699999809E+01 0.  1.
       -4    1    3    3    0  502  0.44930688983E+03  0.89112803177E+02  0.75188758899E+03  0.88042849359E+03  0.12699999809E+01 0. -1.
</event>
<event>
 5   0  0.9535394E-05  0.2248634E+04  0.7818609E-02  0.8498454E-01
       -2   -1    0    0    0  501  0.00000000000E+00  0.00000000000E+00  0.85284253199E+03  0.85284253200E+03  0.25500000920E-02 0.  1.
        2   -1    0    0  501    0  0.00000000000E+00  0.00000000000E+00 -0.14822070567E+04  0.14822070567E+04  0.25500000920E-02 0. -1.
    10030    2    1    2    0    0  0.00000000000E+00  0.00000000000E+00 -0.62936452473E+03  0.23350495887E+04  0.22486344471E+04 0.  0.
        2    1    3    3  502    0  0.80062707041E+03 -0.57005116195E+03  0.25231118394E+03  0.10147033885E+04  0.25500000920E-02 0.  1.
       -2    1    3    3    0  502 -0.80062707041E+03  0.57005116195E+03 -0.88167570867E+03  0.13203462002E+04  0.25500000920E-02 0. -1.
</event>
<event>
 5   0  0.4295775E-05  0.2273238E+04  0.7818609E-02  0.8488548E-01
       -1   -1    0    0    0  501  0.00000000000E+00  0.00000000000E+00  0.91840067242E+03  0.91840067243E+03  0.50400001928E-02 0. -1.
        1   -1    0    0  501    0  0.00000000000E+00  0.00000000000E+00 -0.14066872961E+04  0.14066872961E+04  0.50400001928E-02 0.  1.
    10030    2    1    2    0    0  0.00000000000E+00  0.00000000000E+00 -0.48828662369E+03  0.23250879685E+04  0.22732378306E+04 0.  0.
        5    1    3    3  502    0 -0.63518054581E+03  0.84857919514E+03 -0.66379359521E+03  0.12506738197E+04  0.46999998093E+01 0.  1.
       -5    1    3    3    0  502  0.63518054581E+03 -0.84857919514E+03  0.17550697152E+03  0.10744141489E+04  0.46999998093E+01 0. -1.
</event>
<event>
 5   0  0.9641157E-05  0.2350535E+04  0.7818609E-02  0.8458258E-01
       -2   -1    0    0    0  501  0.00000000000E+00  0.00000000000E+00  0.13520841215E+04  0.13520841215E+04  0.25500000920E-02 0. -1.
        2   -1    0    0  501    0  0.00000000000E+00  0.00000000000E+00 -0.10215735435E+04  0.10215735435E+04  0.25500000920E-02 0.  1.
    10030    2    1    2    0    0  0.00000000000E+00  0.00000000000E+00  0.33051057803E+03  0.23736576650E+04  0.23505347196E+04 0.  0.
        3    1    3    3  502    0  0.15072283625E+03  0.28828097985E+03  0.13057144491E+04  0.13456275598E+04  0.10100000352E+00 0. -1.
       -3    1    3    3    0  502 -0.15072283625E+03 -0.28828097985E+03 -0.97520387112E+03  0.10280301052E+04  0.10100000352E+00 0.  1.
</event>
<event>
 5   0  0.3261500E-05  0.2390609E+04  0.7818609E-02  0.8443028E-01
       -3   -1    0    0    0  501  0.00000000000E+00  0.00000000000E+00  0.96312650993E+03  0.96312651522E+03  0.10100000352E+00 0.  1.
        3   -1    0    0  501    0  0.00000000000E+00  0.00000000000E+00 -0.14834527682E+04  0.14834527717E+04  0.10100000352E+00 0. -1.
    10030    2    1    2    0    0  0.00000000000E+00  0.00000000000E+00 -0.52032625832E+03  0.24465792869E+04  0.23906088748E+04 0.  0.
        4    1    3    3  502    0 -0.10135970174E+04  0.62995076293E+03 -0.19125007881E+03  0.12086335602E+04  0.12699999809E+01 0.  1.
       -4    1    3    3    0  502  0.10135970174E+04 -0.62995076293E+03 -0.32907617951E+03  0.12379457267E+04  0.12699999809E+01 0. -1.
</event>
<event>
 5   0  0.4095451E-05  0.2302086E+04  0.7818609E-02  0.8477099E-01
        1   -1    0    0  501    0  0.00000000000E+00  0.00000000000E+00  0.16405303359E+04  0.16405303359E+04  0.50400001928E-02 0.  1.
       -1   -1    0    0    0  501  0.00000000000E+00  0.00000000000E+00 -0.80760490789E+03  0.80760490790E+03  0.50400001928E-02 0. -1.
    10030    2    1    2    0    0  0.00000000000E+00  0.00000000000E+00  0.83292542800E+03  0.24481352438E+04  0.23020863154E+04 0.  0.
        3    1    3    3  502    0  0.47319968825E+03  0.77569464622E+03 -0.33496287374E+03  0.96841120714E+03  0.10100000352E+00 0. -1.
       -3    1    3    3    0  502 -0.47319968825E+03 -0.77569464622E+03  0.11678883017E+04  0.14797240367E+04  0.10100000352E+00 0.  1.
</event>
<event>
 5   0  0.3261500E-05  0.2346539E+04  0.7818609E-02  0.8459794E-01
        3   -1    0    0  501    0  0.00000000000E+00  0.00000000000E+00  0.61816190543E+03  0.61816191368E+03  0.10100000352E+00 0. -1.
       -3   -1    0    0    0  501  0.00000000000E+00  0.00000000000E+00 -0.22268626994E+04  0.22268627017E+04  0.10100000352E+00 0.  1.
    10030    2    1    2    0    0  0.00000000000E+00  0.00000000000E+00 -0.16087007939E+04  0.28450246153E+04  0.23465393279E+04 0.  0.
        1    1    3    3  502    0 -0.55932826095E+03 -0.10252531690E+04 -0.66841959162E+03  0.13456511117E+04  0.50400001928E-02 0. -1.
       -1    1    3    3    0  502  0.55932826095E+03  0.10252531690E+04 -0.94028120231E+03  0.14993735036E+04  0.50400001928E-02 0.  1.
</event>
<event>
 5   0  0.9312074E-05  0.1954942E+04  0.7818609E-02  0.8627981E-01
       -2   -1    0    0    0  501  0.00000000000E+00  0.00000000000E+00  0.40195704482E+03  0.40195704483E+03  0.25500000920E-02 0. -1.
        2   -1    0    0  501    0  0.00000000000E+00  0.00000000000E+00 -0.23769941436E+04  0.23769941436E+04  0.25500000920E-02 0.  1.
    10030    2    1    2    0    0  0.00000000000E+00  0.00000000000E+00 -0.19750370988E+04  0.27789511884E+04  0.19549419854E+04 0.  0.
        4    1    3    3  502    0  0.71802619945E+02 -0.79747823226E+02  0.39355731843E+03  0.40792684066E+03  0.12699999809E+01 0. -1.
       -4    1    3    3    0  502 -0.71802619945E+02  0.79747823226E+02 -0.23685944172E+04  0.23710243478E+04  0.12699999809E+01 0.  1.
</event>
<event>
 5   0  0.4005462E-05  0.2255912E+04  0.7818609E-02  0.8495510E-01
       -1   -1    0    0    0  501  0.00000000000E+00  0.00000000000E+00  0.82951306847E+03  0.82951306848E+03  0.50400001928E-02 0. -1.
        1   -1    0    0  501    0  0.00000000000E+00  0.00000000000E+00 -0.15337725515E+04  0.15337725516E+04  0.50400001928E-02 0.  1.
    10030    2    1    2    0    0  0.00000000000E+00  0.00000000000E+00 -0.70425948308E+03  0.23632856200E+04  0.22559116788E+04 0.  0.
        4    1    3    3  502    0  0.83285939127E+02 -0.54523937298E+03 -0.13828606792E+04  0.14888007901E+04  0.12699999809E+01 0.  1.
       -4    1    3    3    0  502 -0.83285939127E+02  0.54523937298E+03  0.67860119615E+03  0.87448482995E+03  0.12699999809E+01 0. -1.
</event>
<event>
 5   0  0.4095451E-05  0.2313161E+04  0.7818609E-02  0.8472750E-01
        1   -1    0    0  501    0  0.00000000000E+00  0.00000000000E+00  0.18422137684E+04  0.18422137685E+04  0.50400001928E-02 0. -1.
       -1   -1    0    0    0  501  0.00000000000E+00  0.00000000000E+00 -0.72612579416E+03  0.72612579418E+03  0.50400001928E-02 0.  1.
    10030    2    1    2    0    0  0.00000000000E+00  0.00000000000E+00  0.11160879743E+04  0.25683395626E+04  0.23131614173E+04 0.  0.
        3    1    3    3  502    0 -0.15882120858E+03  0.14706712792E+03 -0.70343597269E+03  0.73598579761E+03  0.10100000352E+00 0.  1.
       -3    1    3    3    0  502  0.15882120858E+03 -0.14706712792E+03  0.18195239470E+04  0.18323537650E+04  0.10100000352E+00 0. -1.
</event>
<event>
 5   0  0.9535394E-05  0.2293829E+04  0.7818609E-02  0.8480358E-01
       -2   -1    0    0    0  501  0.00000000000E+00  0.00000000000E+00  0.10164003649E+04  0.10164003649E+04  0.25500000920E-02 0.  1.
        2   -1    0    0  501    0  0.00000000000E+00  0.00000000000E+00 -0.12941879411E+04  0.12941879411E+04  0.25500000920E-02 0. -1.
    10030    2    1    2    0    0  0.00000000000E+00  0.00000000000E+00 -0.27778757614E+03  0.23105883060E+04  0.22938291964E+04 0.  0.
        2    1    3    3  502    0  0.88892542012E+03  0.66945103942E+03 -0.41851878595E+03  0.11889117170E+04  0.25500000920E-02 0. -1.
       -2    1    3    3    0  502 -0.88892542012E+03 -0.66945103942E+03  0.14073120981E+03  0.11216765889E+04  0.25500000920E-02 0.  1.
</event>
<event>
 5   0  0.4095451E-05  0.2080754E+04  0.7818609E-02  0.8569769E-01
       -1   -1    0    0    0  501  0.00000000000E+00  0.00000000000E+00  0.13786125999E+04  0.13786125999E+04  0.50400001928E-02 0. -1.
        1   -1    0    0  501    0  0.00000000000E+00  0.00000000000E+00 -0.78512588043E+03  0.78512588045E+03  0.50400001928E-02 0.  1.
    10030    2    1    2    0    0  0.00000000000E+00  0.00000000000E+00  0.59348671948E+03  0.21637384804E+04  0.20807541242E+04 0.  0.
        3    1    3    3  502    0 -0.40886624797E+03 -0.15458322935E+03 -0.68500471889E+03  0.81258787748E+03  0.10100000352E+00 0.  1.
       -3    1    3    3    0  502  0.40886624797E+03  0.15458322935E+03  0.12784914384E+04  0.13511506029E+04  0.10100000352E+00 0. -1.
</event>
<event>
 5   0  0.9312074E-05  0.2177590E+04  0.7818609E-02  0.8527814E-01
        2   -1    0    0  501    0  0.00000000000E+00  0.00000000000E+00  0.12449484646E+04  0.12449484646E+04  0.25500000920E-02 0.  1.
       -2   -1    0    0    0  501  0.00000000000E+00  0.00000000000E+00 -0.95222824712E+03  0.95222824712E+03  0.25500000920E-02 0. -1.
    10030    2    1    2    0    0  0.00000000000E+00  0.00000000000E+00  0.29272021744E+03  0.21971767117E+04  0.21775904979E+04 0.  0.
        4    1    3    3  502    0 -0.42298646981E+03  0.48117419573E+03  0.10346347841E+04  0.12169292953E+04  0.12699999809E+01 0.  1.
       -4    1    3    3    0  502  0.42298646981E+03 -0.48117419573E+03 -0.74191456666E+03  0.98024741642E+03  0.12699999809E+01 0. -1.
</event>
<event>
 5   0  0.9313463E-05  0.2276847E+04  0.7818609E-02  0.8487106E-01
       -2   -1    0    0    0  501  0.00000000000E+00  0.00000000000E+00  0.70040585894E+03  0.70040585895E+03  0.25500000920E-02 0.  1.
        2   -1    0    0  501    0  0.00000000000E+00  0.00000000000E+00 -0.18503673210E+04  0.18503673210E+04  0.25500000920E-02 0. -1.
    10030    2    1    2    0    0  0.00000000000E+00  0.00000000000E+00 -0.11499614621E+04  0.25507731800E+04  0.22768470417E+04 0.  0.
        1    1    3    3  502    0 -0.10244832307E+04 -0.49623500367E+03 -0.59054633962E+03  0.12824040113E+04  0.50400001928E-02 0.  1.
       -1    1    3    3    0  502  0.10244832307E+04  0.49623500367E+03 -0.55941512244E+03  0.12683691687E+04  0.50400001928E-02 0. -1.
</event>
<event>
 5   0  0.9641157E-05  0.2332121E+04  0.7818609E-02  0.8465363E-01
       -2   -1    0    0    0  501  0.00000000000E+00  0.00000000000E+00  0.71429056943E+03  0.71429056943E+03  0.25500000920E-02 0. -1.
        2   -1    0    0  501    0  0.00000000000E+00  0.00000000000E+00 -0.19035632378E+04  0.19035632378E+04  0.25500000920E-02 0.  1.
    10030    2    1    2    0    0  0.00000000000E+00  0.00000000000E+00 -0.11892726684E+04  0.26178538073E+04  0.23321211539E+04 0.  0.
        3    1    3    3  502    0  0.42698403965E+03  0.24581170632E+03  0.59171356895E+03  0.76997644312E+03  0.10100000352E+00 0. -1.
       -3    1    3    3    0  502 -0.42698403965E+03 -0.24581170632E+03 -0.17809862374E+04  0.18478773641E+04  0.10100000352E+00 0.  1.
</event>
<event>
 5   0  0.9641157E-05  0.2241473E+04  0.7818609E-02  0.8501362E-01
        2   -1    0    0  501    0  0.00000000000E+00  0.00000000000E+00  0.79058303593E+03  0.79058303594E+03  0.25500000920E-02 0. -1.
       -2   -1    0    0    0  501  0.00000000000E+00  0.00000000000E+00 -0.15887650899E+04  0.15887650899E+04  0.25500000920E-02 0.  1.
    10030    2    1    2    0    0  0.00000000000E+00  0.00000000000E+00 -0.79818205392E+03  0.23793481258E+04  0.22414733798E+04 0.  0.
        3    1    3    3  502    0 -0.91268858001E+03 -0.18963972025E+03  0.26134191092E+03  0.96812358312E+03  0.10100000352E+00 0. -1.
       -3    1    3    3    0  502  0.91268858001E+03  0.18963972025E+03 -0.10595239648E+04  0.14112245427E+04  0.10100000352E+00 0.  1.
</event>
<event>
 5   0  0.9483073E-05  0.2313157E+04  0.7818609E-02  0.8472752E-01
       -2   -1    0    0    0  501  0.00000000000E+00  0.00000000000E+00  0.95190122788E+03  0.95190122788E+03  0.25500000920E-02 0.  1.
        2   -1    0    0  501    0  0.00000000000E+00  0.00000000000E+00 -0.14052648586E+04  0.14052648586E+04  0.25500000920E-02 0. -1.
    10030    2    1    2    0    0  0.00000000000E+00  0.00000000000E+00 -0.45336363073E+03  0.23571660865E+04  0.23131565830E+04 0.  0.
        5    1    3    3  502    0  0.94469685013E+03 -0.47316344084E+03 -0.70607410197E+03  0.12707865705E+04  0.46999998093E+01 0. -1.
       -5    1    3    3    0  502 -0.94469685013E+03  0.47316344084E+03  0.25271047124E+03  0.10863795159E+04  0.46999998093E+01 0.  1.
</event>
<event>
 5   0  0.4095451E-05  0.1954877E+04  0.7818609E-02  0.8628012E-01
        1   -1    0    0  501    0  0.00000000000E+00  0.00000000000E+00  0.23031531137E+04  0.23031531137E+04  0.50400001928E-02 0. -1.
       -1   -1    0    0    0  501  0.00000000000E+00  0.00000000000E+00 -0.41481665534E+03  0.41481665537E+03  0.50400001928E-02 0.  1.
    10030    2    1    2    0    0  0.00000000000E+00  0.00000000000E+00  0.18883364583E+04  0.27179697690E+04  0.19548772559E+04 0.  0.
        3    1    3    3  502    0  0.73221319849E+03 -0.57165898066E+03  0.13669272858E+04  0.16527009327E+04  0.10100000352E+00 0. -1.
       -3    1    3    3    0  502 -0.73221319849E+03  0.57165898066E+03  0.52140917253E+03  0.10652688363E+04  0.10100000352E+00 0.  1.
</event>
<event>
 5   0  0.4005462E-05  0.2329311E+04  0.7818609E-02  0.8466453E-01
       -1   -1    0    0    0  501  0.00000000000E+00  0.00000000000E+00  0.81638907412E+03  0.81638907414E+03  0.50400001928E-02 0.  1.
        1   -1    0    0  501    0  0.00000000000E+00  0.00000000000E+00 -0.16614908107E+04  0.16614908107E+04  0.50400001928E-02 0. -1.
    10030    2    1    2    0    0  0.00000000000E+00  0.00000000000E+00 -0.84510173657E+03  0.24778798848E+04  0.23293114387E+04 0.  0.
        4    1    3    3  502    0  0.22101730527E+03 -0.38548527837E+03 -0.15677723786E+04  0.16295273527E+04  0.12699999809E+01 0. -1.
       -4    1    3    3    0  502 -0.22101730527E+03  0.38548527837E+03  0.72267064204E+03  0.84835253216E+03  0.12699999809E+01 0.  1.
</event>
<event>
 5   0  0.9312074E-05  0.2252744E+04  0.7818609E-02  0.8496790E-01
        2   -1    0    0  501    0  0.00000000000E+00  0.00000000000E+00  0.18048061724E+04  0.18048061724E+04  0.25500000920E-02 0. -1.
       -2   -1    0    0    0  501  0.00000000000E+00  0.00000000000E+00 -0.70296395803E+03  0.70296395803E+03  0.25500000920E-02 0.  1.
    10030    2    1    2    0    0  0.00000000000E+00  0.00000000000E+00  0.11018422143E+04  0.25077701304E+04  0.22527438296E+04 0.  0.
        4    1    3    3  502    0 -0.65837143219E+03 -0.38859815624E+03  0.14717596997E+04  0.16584751118E+04  0.12699999809E+01 0. -1.
       -4    1    3    3    0  502  0.65837143219E+03  0.38859815624E+03 -0.36991748538E+03  0.84929501862E+03  0.12699999809E+01 0.  1.
</event>
<event>
 5   0  0.4095451E-05  0.1720515E+04  0.7818609E-02  0.8749750E-01
        1   -1    0    0  501    0  0.00000000000E+00  0.00000000000E+00  0.93725275467E+03  0.93725275469E+03  0.50400001928E-02 0. -1.
       -1   -1    0    0    0  501  0.00000000000E+00  0.00000000000E+00 -0.78958698263E+03  0.78958698264E+03  0.50400001928E-02 0.  1.
    10030    2    1    2    0    0  0.00000000000E+00  0.00000000000E+00  0.14766577204E+03  0.17268397373E+04  0.17205145446E+04 0.  0.
        3    1    3    3  502    0  0.56238910574E+03 -0.23129433958E+03 -0.53689735056E+03  0.81119501540E+03  0.10100000352E+00 0.  1.
       -3    1    3    3    0  502 -0.56238910574E+03  0.23129433958E+03  0.68456312260E+03  0.91564472193E+03  0.10100000352E+00 0. -1.
</event>
<event>
 5   0  0.3885219E-05  0.2426399E+04  0.7818609E-02  0.8429686E-01
        1   -1    0    0  501    0  0.00000000000E+00  0.00000000000E+00  0.16883593276E+04  0.16883593276E+04  0.50400001928E-02 0. -1.
       -1   -1    0    0    0  501  0.00000000000E+00  0.00000000000E+00 -0.87176514837E+03  0.87176514838E+03  0.50400001928E-02 0.  1.
    10030    2    1    2    0    0  0.00000000000E+00  0.00000000000E+00  0.81659417926E+03  0.25601244760E+04  0.24263988294E+04 0.  0.
        2    1    3    3  502    0  0.36567090629E+03  0.11511621259E+04  0.52842884319E+03  0.13183802540E+04  0.25500000920E-02 0. -1.
       -2    1    3    3    0  502 -0.36567090629E+03 -0.11511621259E+04  0.28816533607E+03  0.12417442220E+04  0.25500000920E-02 0.  1.
</event>
<event>
 5   0  0.4095451E-05  0.2000687E+04  0.7818609E-02  0.8606300E-01
       -1   -1    0    0    0  501  0.00000000000E+00  0.00000000000E+00  0.86508932253E+03  0.86508932254E+03  0.50400001928E-02 0. -1.
        1   -1    0    0  501    0  0.00000000000E+00  0.00000000000E+00 -0.11567439087E+04  0.11567439087E+04  0.50400001928E-02 0.  1.
    10030    2    1    2    0    0  0.00000000000E+00  0.00000000000E+00 -0.29165458615E+03  0.20218332312E+04  0.20006866864E+04 0.  0.
        3    1    3    3  502    0  0.24349564941E+02  0.47889577130E+03 -0.10330318932E+04  0.11388981358E+04  0.10100000352E+00 0.  1.
       -3    1    3    3    0  502 -0.24349564941E+02 -0.47889577130E+03  0.74137730708E+03  0.88293509543E+03  0.10100000352E+00 0. -1.
</event>
<event>
 5   0  0.4095451E-05  0.2297325E+04  0.7818609E-02  0.8478977E-01
        1   -1    0    0  501    0  0.00000000000E+00  0.00000000000E+00  0.28875541252E+04  0.28875541252E+04  0.50400001928E-02 0.  1.
       -1   -1    0    0    0  501  0.00000000000E+00  0.00000000000E+00 -0.45693537215E+03  0.45693537218E+03  0.50400001928E-02 0. -1.
    10030    2    1    2    0    0  0.00000000000E+00  0.00000000000E+00  0.24306187531E+04  0.33444894974E+04  0.22973250696E+04 0.  0.
        3    1    3    3  502    0  0.94170792477E+02  0.78753184749E+03  0.57076931756E+01  0.79316274303E+03  0.10100000352E+00 0. -1.
       -3    1    3    3    0  502 -0.94170792477E+02 -0.78753184749E+03  0.24249110599E+04  0.25513267544E+04  0.10100000352E+00 0.  1.
</event>
<event>
 5   0  0.4295775E-05  0.2344784E+04  0.7818609E-02  0.8460470E-01
        1   -1    0    0  501    0  0.00000000000E+00  0.00000000000E+00  0.20396232451E+04  0.20396232451E+04  0.50400001928E-02 0.  1.
       -1   -1    0    0    0  501  0.00000000000E+00  0.00000000000E+00 -0.67390034304E+03  0.67390034306E+03  0.50400001928E-02 0. -1.
    10030    2    1    2    0    0  0.00000000000E+00  0.00000000000E+00  0.13657229021E+04  0.27135235882E+04  0.23447838319E+04 0.  0.
        5    1    3    3  502    0  0.20781989028E+03 -0.11532258730E+04  0.64015726188E+03  0.13352686737E+04  0.46999998093E+01 0.  1.
       -5    1    3    3    0  502 -0.20781989028E+03  0.11532258730E+04  0.72556564019E+03  0.13782549145E+04  0.46999998093E+01 0. -1.
</event>
<event>
 5   0  0.3885219E-05  0.2401750E+04  0.7818609E-02  0.8438849E-01
       -1   -1    0    0    0  501  0.00000000000E+00  0.00000000000E+00  0.66388216733E+03  0.66388216735E+03  0.50400001928E-02 0. -1.
        1   -1    0    0  501    0  0.00000000000E+00  0.00000000000E+00 -0.21722230845E+04  0.21722230845E+04  0.50400001928E-02 0.  1.
    10030    2    1    2    0    0  0.00000000000E+00  0.00000000000E+00 -0.15083409172E+04  0.28361052519E+04  0.24017495034E+04 0.  0.
        2    1    3    3  502    0 -0.26363319164E+03 -0.95406363185E+03 -0.15571138001E+04  0.18450862473E+04  0.25500000920E-02 0.  1.
       -2    1    3    3    0  502  0.26363319164E+03  0.95406363185E+03  0.48772882938E+02  0.99101900460E+03  0.25500000920E-02 0. -1.
</event>
<event>
 5   0  0.3885219E-05  0.2333183E+04  0.7818609E-02  0.8464951E-01
        1   -1    0    0  501    0  0.00000000000E+00  0.00000000000E+00  0.96151211403E+03  0.96151211404E+03  0.50400001928E-02 0.  1.
       -1   -1    0    0    0  501  0.00000000000E+00  0.00000000000E+00 -0.14154121949E+04  0.14154121949E+04  0.50400001928E-02 0. -1.
    10030    2    1    2    0    0  0.00000000000E+00  0.00000000000E+00 -0.45390008088E+03  0.23769243090E+04  0.23331832091E+04 0.  0.
        2    1    3    3  502    0 -0.91746381288E+03  0.71540118597E+03 -0.13933026102E+03  0.11717301850E+04  0.25500000920E-02 0.  1.
       -2    1    3    3    0  502  0.91746381288E+03 -0.71540118597E+03 -0.31456981987E+03  0.12051941239E+04  0.25500000920E-02 0. -1.
</event>
<event>
 5   0  0.9483073E-05  0.2369163E+04  0.7818609E-02  0.8451139E-01
        2   -1    0    0  501    0  0.00000000000E+00  0.00000000000E+00  0.19152114508E+04  0.19152114508E+04  0.25500000920E-02 0. -1.
       -2   -1    0    0    0  501  0.00000000000E+00  0.00000000000E+00 -0.73267810384E+03  0.73267810384E+03  0.25500000920E-02 0.  1.
    10030    2    1    2    0    0  0.00000000000E+00  0.00000000000E+00  0.11825333469E+04  0.26478895546E+04  0.23691631385E+04 0.  0.
        5    1    3    3  502    0 -0.11568750235E+04  0.17482756360E+03  0.38431494583E+03  0.12315212400E+04  0.46999998093E+01 0.  1.
       -5    1    3    3    0  502  0.11568750235E+04 -0.17482756360E+03  0.79821840110E+03  0.14163683146E+04  0.46999998093E+01 0. -1.
</event>
<event>
 5   0  0.4095451E-05  0.2336950E+04  0.7818609E-02  0.8463493E-01
        1   -1    0    0  501    0  0.00000000000E+00  0.00000000000E+00  0.22442721596E+04  0.22442721596E+04  0.50400001928E-02 0.  1.
       -1   -1    0    0    0  501  0.00000000000E+00  0.00000000000E+00 -0.60836362092E+03  0.60836362094E+03  0.50400001928E-02 0. -1.
    10030    2    1    2    0    0  0.00000000000E+00  0.00000000000E+00  0.16359085387E+04  0.28526357806E+04  0.23369497533E+04 0.  0.
        3    1    3    3  502    0  0.65984764885E+03 -0.79702247976E+03  0.14805970695E+04  0.18063253985E+04  0.10100000352E+00 0.  1.
       -3    1    3    3    0  502 -0.65984764885E+03  0.79702247976E+03  0.15531146922E+03  0.10463103821E+04  0.10100000352E+00 0. -1.
</event>
<event>
 5   0  0.9483073E-05  0.2308400E+04  0.7818609E-02  0.8474616E-01
       -2   -1    0    0    0  501  0.00000000000E+00  0.00000000000E+00  0.16845378439E+04  0.16845378439E+04  0.25500000920E-02 0. -1.
        2   -1    0    0  501    0  0.00000000000E+00  0.00000000000E+00 -0.79082707881E+03  0.79082707881E+03  0.25500000920E-02 0.  1.
    10030    2    1    2    0    0  0.00000000000E+00  0.00000000000E+00  0.89371076510E+03  0.24753649227E+04  0.23084004351E+04 0.  0.
        5    1    3    3  502    0  0.35079718355E+03 -0.10445897622E+04  0.78608118603E+02  0.11047297234E+04  0.46999998093E+01 0.  1.
       -5    1    3    3    0  502 -0.35079718355E+03  0.10445897622E+04  0.81510264649E+03  0.13706351994E+04  0.46999998093E+01 0. -1.
</event>
<event>
 5   0  0.4095451E-05  0.2301847E+04  0.7818609E-02  0.8477193E-01
        1   -1    0    0  501    0  0.00000000000E+00  0.00000000000E+00  0.25512478552E+04  0.25512478552E+04  0.50400001928E-02 0.  1.
       -1   -1    0    0    0  501  0.00000000000E+00  0.00000000000E+00 -0.51920648821E+03  0.51920648824E+03  0.50400001928E-02 0. -1.
    10030    2    1    2    0    0  0.00000000000E+00  0.00000000000E+00  0.20320413670E+04  0.30704543435E+04  0.23018465974E+04 0.  0.
        3    1    3    3  502    0  0.86269534853E+03 -0.18684089662E+03  0.30848011936E+02  0.88323518672E+03  0.10100000352E+00 0. -1.
       -3    1    3    3    0  502 -0.86269534853E+03  0.18684089662E+03  0.20011933551E+04  0.21872191567E+04  0.10100000352E+00 0.  1.
</event>
<event>
 5   0  0.9312074E-05  0.2300749E+04  0.7818609E-02  0.8477626E-01
        2   -1    0    0  501    0  0.00000000000E+00  0.00000000000E+00  0.18331199798E+04  0.18331199798E+04  0.25500000920E-02 0. -1.
       -2   -1    0    0    0  501  0.00000000000E+00  0.00000000000E+00 -0.72191726287E+03  0.72191726288E+03  0.25500000920E-02 0.  1.
    10030    2    1    2    0    0  0.00000000000E+00  0.00000000000E+00  0.11112027169E+04  0.25550372427E+04  0.23007485376E+04 0.  0.
        4    1    3    3  502    0  0.86643566487E+03  0.72376887268E+03  0.80094230721E+03  0.13842190343E+04  0.12699999809E+01 0. -1.
       -4    1    3    3    0  502 -0.86643566487E+03 -0.72376887268E+03  0.31026040971E+03  0.11708182084E+04  0.12699999809E+01 0.  1.
</event>
<event>
 5   0  0.4005462E-05  0.2239373E+04  0.7818609E-02  0.8502217E-01
       -1   -1    0    0    0  501  0.00000000000E+00  0.00000000000E+00  0.10787175654E+04  0.10787175654E+04  0.50400001928E-02 0.  1.
        1   -1    0    0  501    0  0.00000000000E+00  0.00000000000E+00 -0.11622113477E+04  0.11622113477E+04  0.50400001928E-02 0. -1.
    10030    2    1    2    0    0  0.00000000000E+00  0.00000000000E+00 -0.83493782288E+02  0.22409289131E+04  0.22393729439E+04 0.  0.
        4    1    3    3  502    0  0.97694892121E+01 -0.42298843557E+03 -0.10791356659E+04  0.11591160675E+04  0.12699999809E+01 0. -1.
       -4    1    3    3    0  502 -0.97694892121E+01  0.42298843557E+03  0.99564188366E+03  0.10818128456E+04  0.12699999809E+01 0.  1.
</event>
<event>
 5   0  0.9312074E-05  0.2305935E+04  0.7818609E-02  0.8475585E-01
        2   -1    0    0  501    0  0.00000000000E+00  0.00000000000E+00  0.14399293014E+04  0.14399293014E+04  0.25500000920E-02 0.  1.
       -2   -1    0    0    0  501  0.00000000000E+00  0.00000000000E+00 -0.92319366978E+03  0.92319366979E+03  0.25500000920E-02 0. -1.
    10030    2    1    2    0    0  0.00000000000E+00  0.00000000000E+00  0.51673563166E+03  0.23631229712E+04  0.23059346184E+04 0.  0.
        4    1    3    3  502    0 -0.40938712201E+03  0.73616901022E+03  0.10651594687E+04  0.13579797251E+04  0.12699999809E+01 0.  1.
       -4    1    3    3    0  502  0.40938712201E+03 -0.73616901022E+03 -0.54842383701E+03  0.10051432461E+04  0.12699999809E+01 0. -1.
</event>
<event>
 5   0  0.9535394E-05  0.1952039E+04  0.7818609E-02  0.8629378E-01
       -2   -1    0    0    0  501  0.00000000000E+00  0.00000000000E+00  0.52101276276E+03  0.52101276277E+03  0.25500000920E-02 0. -1.
        2   -1    0    0  501    0  0.00000000000E+00  0.00000000000E+00 -0.18283895308E+04  0.18283895308E+04  0.25500000920E-02 0.  1.
    10030    2    1    2    0    0  0.00000000000E+00  0.00000000000E+00 -0.13073767680E+04  0.23494022935E+04  0.19520392218E+04 0.  0.
        2    1    3    3  502    0 -0.60410917603E+02  0.49517490422E+03 -0.16633670494E+04  0.17365591283E+04  0.25500000920E-02 0.  1.
       -2    1    3    3    0  502  0.60410917603E+02 -0.49517490422E+03  0.35599028145E+03  0.61284316528E+03  0.25500000920E-02 0. -1.
</event>
<event>
 5   0  0.4139830E-05  0.2046435E+04  0.7818609E-02  0.8585213E-01
       -1   -1    0    0    0  501  0.00000000000E+00  0.00000000000E+00  0.60807887613E+03  0.60807887615E+03  0.50400001928E-02 0. -1.
        1   -1    0    0  501    0  0.00000000000E+00  0.00000000000E+00 -0.17217738355E+04  0.17217738355E+04  0.50400001928E-02 0.  1.
    10030    2    1    2    0    0  0.00000000000E+00  0.00000000000E+00 -0.11136949594E+04  0.23298527117E+04  0.20464352410E+04 0.  0.
        1    1    3    3  502    0  0.42603312628E+03  0.29530167557E+03  0.44752491399E+03  0.68482541787E+03  0.50400001928E-02 0. -1.
       -1    1    3    3    0  502 -0.42603312628E+03 -0.29530167557E+03 -0.15612198734E+04  0.16450272938E+04  0.50400001928E-02 0.  1.
</event>
<event>
 5   0  0.3261500E-05  0.2289666E+04  0.7818609E-02  0.8482007E-01
        3   -1    0    0  501    0  0.00000000000E+00  0.00000000000E+00  0.88753299119E+03  0.88753299694E+03  0.10100000352E+00 0. -1.
       -3   -1    0    0    0  501  0.00000000000E+00  0.00000000000E+00 -0.14767252597E+04  0.14767252631E+04  0.10100000352E+00 0.  1.
    10030    2    1    2    0    0  0.00000000000E+00  0.00000000000E+00 -0.58919226847E+03  0.23642582601E+04  0.22896658252E+04 0.  0.
        1    1    3    3  502    0  0.14732904122E+03 -0.35987529887E+03  0.81724923240E+03  0.90504827772E+03  0.50400001928E-02 0. -1.
       -1    1    3    3    0  502 -0.14732904122E+03  0.35987529887E+03 -0.14064415009E+04  0.14592099823E+04  0.50400001928E-02 0.  1.
</event>
<event>
 5   0  0.4139830E-05  0.2227722E+04  0.7818609E-02  0.8506977E-01
       -1   -1    0    0    0  501  0.00000000000E+00  0.00000000000E+00  0.83541190605E+03  0.83541190607E+03  0.50400001928E-02 0.  1.
        1   -1    0    0  501    0  0.00000000000E+00  0.00000000000E+00 -0.14851198876E+04  0.14851198876E+04  0.50400001928E-02 0. -1.
    10030    2    1    2    0    0  0.00000000000E+00  0.00000000000E+00 -0.64970798158E+03  0.23205317937E+04  0.22277224567E+04 0.  0.
        1    1    3    3  502    0  0.61372407806E+03 -0.80885442435E+03 -0.80195763900E+03  0.12938465050E+04  0.50400001928E-02 0. -1.
       -1    1    3    3    0  502 -0.61372407806E+03  0.80885442435E+03  0.15224965742E+03  0.10266852887E+04  0.50400001928E-02 0.  1.
</event>
<event>
 5   0  0.9483073E-05  0.2299124E+04  0.7818609E-02  0.8478267E-01
       -2   -1    0    0    0  501  0.00000000000E+00  0.00000000000E+00  0.72596577566E+03  0.72596577566E+03  0.25500000920E-02 0. -1.
        2   -1    0    0  501    0  0.00000000000E+00  0.00000000000E+00 -0.18203232389E+04  0.18203232389E+04  0.25500000920E-02 0.  1.
    10030    2    1    2    0    0  0.00000000000E+00  0.00000000000E+00 -0.10943574632E+04  0.25462890146E+04  0.22991236348E+04 0.  0.
        5    1    3    3  502    0 -0.78659170776E+03  0.22558577787E+03 -0.14413502088E+04  0.16574462200E+04  0.46999998093E+01 0.  1.
       -5    1    3    3    0  502  0.78659170776E+03 -0.22558577787E+03  0.34699274557E+03  0.88884279452E+03  0.46999998093E+01 0. -1.
</event>
<event>
 5   0  0.9641157E-05  0.2310229E+04  0.7818609E-02  0.8473899E-01
       -2   -1    0    0    0  501  0.00000000000E+00  0.00000000000E+00  0.13903564067E+04  0.13903564067E+04  0.25500000920E-02 0. -1.
        2   -1    0    0  501    0  0.00000000000E+00  0.00000000000E+00 -0.95967443263E+03  0.95967443263E+03  0.25500000920E-02 0.  1.
    10030    2    1    2    0    0  0.00000000000E+00  0.00000000000E+00  0.43068197403E+03  0.23500308393E+04  0.23102289893E+04 0.  0.
        3    1    3    3  502    0  0.48384840720E+03 -0.97721664796E+03 -0.17231228355E+03  0.11039715537E+04  0.10100000352E+00 0.  1.
       -3    1    3    3    0  502 -0.48384840720E+03  0.97721664796E+03  0.60299425758E+03  0.12460592855E+04  0.10100000352E+00 0. -1.
</event>
<event>
 5   0  0.9483073E-05  0.2309672E+04  0.7818609E-02  0.8474117E-01
       -2   -1    0    0    0  501  0.00000000000E+00  0.00000000000E+00  0.14325518074E+04  0.14325518074E+04  0.25500000920E-02 0.  1.
        2   -1    0    0  501    0  0.00000000000E+00  0.00000000000E+00 -0.93095809982E+03  0.93095809982E+03  0.25500000920E-02 0. -1.
    10030    2    1    2    0    0  0.00000000000E+00  0.00000000000E+00  0.50159370758E+03  0.23635099072E+04  0.23096715858E+04 0.  0.
        5    1    3    3  502    0 -0.58955223119E+03 -0.74838715240E+03  0.91867297314E+03  0.13234943463E+04  0.46999998093E+01 0.  1.
       -5    1    3    3    0  502  0.58955223119E+03  0.74838715240E+03 -0.41707926556E+03  0.10400155609E+04  0.46999998093E+01 0. -1.
</event>
<event>
 5   0  0.3885219E-05  0.2422352E+04  0.7818609E-02  0.8431182E-01
        1   -1    0    0  501    0  0.00000000000E+00  0.00000000000E+00  0.17341467996E+04  0.17341467996E+04  0.50400001928E-02 0. -1.
       -1   -1    0    0    0  501  0.00000000000E+00  0.00000000000E+00 -0.84591871967E+03  0.84591871969E+03  0.50400001928E-02 0.  1.
    10030    2    1    2    0    0  0.00000000000E+00  0.00000000000E+00  0.88822807994E+03  0.25800655193E+04  0.24223519484E+04 0.  0.
        2    1    3    3  502    0  0.81136862628E+03  0.49710689859E+03  0.12422435528E+04  0.15648013806E+04  0.25500000920E-02 0. -1.
       -2    1    3    3    0  502 -0.81136862628E+03 -0.49710689859E+03 -0.35401547283E+03  0.10152641387E+04  0.25500000920E-02 0.  1.
</event>
<event>
 5   0  0.9312074E-05  0.2267641E+04  0.7818609E-02  0.8490790E-01
        2   -1    0    0  501    0  0.00000000000E+00  0.00000000000E+00  0.16651383768E+04  0.16651383768E+04  0.25500000920E-02 0.  1.
       -2   -1    0    0    0  501  0.00000000000E+00  0.00000000000E+00 -0.77203757674E+03  0.77203757674E+03  0.25500000920E-02 0. -1.
    10030    2    1    2    0    0  0.00000000000E+00  0.00000000000E+00  0.89310080005E+03  0.24371759535E+04  0.22676414155E+04 0.  0.
        4    1    3    3  502    0 -0.52745072558E+03  0.34470188836E+03  0.14596382720E+04  0.15898330597E+04  0.12699999809E+01 0.  1.
       -4    1    3    3    0  502  0.52745072558E+03 -0.34470188836E+03 -0.56653747192E+03  0.84734289385E+03  0.12699999809E+01 0. -1.
</event>
<event>
 5   0  0.4139830E-05  0.2431167E+04  0.7818609E-02  0.8427926E-01
       -1   -1    0    0    0  501  0.00000000000E+00  0.00000000000E+00  0.82652460261E+03  0.82652460263E+03  0.50400001928E-02 0.  1.
        1   -1    0    0  501    0  0.00000000000E+00  0.00000000000E+00 -0.17877790668E+04  0.17877790668E+04  0.50400001928E-02 0. -1.
    10030    2    1    2    0    0  0.00000000000E+00  0.00000000000E+00 -0.96125446419E+03  0.26143036694E+04  0.24311671130E+04 0.  0.
        1    1    3    3  502    0 -0.60693283908E+02  0.11517123783E+04 -0.67613797997E+02  0.11552907438E+04  0.50400001928E-02 0.  1.
       -1    1    3    3    0  502  0.60693283908E+02 -0.11517123783E+04 -0.89364066619E+03  0.14590129257E+04  0.50400001928E-02 0. -1.
</event>
<event>
 5   0  0.9641157E-05  0.2216742E+04  0.7818609E-02  0.8511492E-01
        2   -1    0    0  501    0  0.00000000000E+00  0.00000000000E+00  0.11247477678E+04  0.11247477678E+04  0.25500000920E-02 0.  1.
       -2   -1    0    0    0  501  0.00000000000E+00  0.00000000000E+00 -0.10922326995E+04  0.10922326995E+04  0.25500000920E-02 0. -1.
    10030    2    1    2    0    0  0.00000000000E+00  0.00000000000E+00  0.32515068298E+02  0.22169804673E+04  0.22167420153E+04 0.  0.
        3    1    3    3  502    0 -0.38295287713E+03 -0.95515368885E+03  0.42802357929E+03  0.11145293491E+04  0.10100000352E+00 0.  1.
       -3    1    3    3    0  502  0.38295287713E+03  0.95515368885E+03 -0.39550851100E+03  0.11024511181E+04  0.10100000352E+00 0. -1.
</event>
<event>
 5   0  0.4139830E-05  0.2333350E+04  0.7818609E-02  0.8464886E-01
       -1   -1    0    0    0  501  0.00000000000E+00  0.00000000000E+00  0.87329337363E+03  0.87329337365E+03  0.50400001928E-02 0.  1.
        1   -1    0    0  501    0  0.00000000000E+00  0.00000000000E+00 -0.15586180401E+04  0.15586180401E+04  0.50400001928E-02 0. -1.
    10030    2    1    2    0    0  0.00000000000E+00  0.00000000000E+00 -0.68532466650E+03  0.24319114138E+04  0.23333502150E+04 0.  0.
        1    1    3    3  502    0  0.74428297771E+03  0.34457370786E+03  0.52210982037E+03  0.97225863618E+03  0.50400001928E-02 0.  1.
       -1    1    3    3    0  502 -0.74428297771E+03 -0.34457370786E+03 -0.12074344869E+04  0.14596527776E+04  0.50400001928E-02 0. -1.
</event>
<event>
 5   0  0.9483073E-05  0.2252255E+04  0.7818609E-02  0.8496988E-01
       -2   -1    0    0    0  501  0.00000000000E+00  0.00000000000E+00  0.10589787469E+04  0.10589787469E+04  0.25500000920E-02 0. -1.
        2   -1    0    0  501    0  0.00000000000E+00  0.00000000000E+00 -0.11975337986E+04  0.11975337986E+04  0.25500000920E-02 0.  1.
    10030    2    1    2    0    0  0.00000000000E+00  0.00000000000E+00 -0.13855505171E+03  0.22565125456E+04  0.22522547294E+04 0.  0.
        5    1    3    3  502    0 -0.14856671201E+03  0.40519714779E+03  0.97282532712E+03  0.10642687647E+04  0.46999998093E+01 0. -1.
       -5    1    3    3    0  502  0.14856671201E+03 -0.40519714779E+03 -0.11113803788E+04  0.11922437808E+04  0.46999998093E+01 0.  1.
</event>
<event>
 5   0  0.3261500E-05  0.2783586E+04  0.7818609E-02  0.8308382E-01
        3   -1    0    0  501    0  0.00000000000E+00  0.00000000000E+00  0.13250249489E+04  0.13250249527E+04  0.10100000352E+00 0.  1.
       -3   -1    0    0    0  501  0.00000000000E+00  0.00000000000E+00 -0.14619253589E+04  0.14619253624E+04  0.10100000352E+00 0. -1.
    10030    2    1    2    0    0  0.00000000000E+00  0.00000000000E+00 -0.13690041004E+03  0.27869503151E+04  0.27835858773E+04 0.  0.
        5    1    3    3  502    0  0.17803672590E+03  0.91371335469E+03 -0.11043486759E+04  0.14443605015E+04  0.46999998093E+01 0. -1.
       -5    1    3    3    0  502 -0.17803672590E+03 -0.91371335469E+03  0.96744826589E+03  0.13425898136E+04  0.46999998093E+01 0.  1.
</event>
<event>
 5   0  0.4005462E-05  0.2701244E+04  0.7818609E-02  0.8334601E-01
       -1   -1    0    0    0  501  0.00000000000E+00  0.00000000000E+00  0.97309277952E+03  0.97309277953E+03  0.50400001928E-02 0.  1.
        1   -1    0    0  501    0  0.00000000000E+00  0.00000000000E+00 -0.18746211656E+04  0.18746211656E+04  0.50400001928E-02 0. -1.
    10030    2    1    2    0    0  0.00000000000E+00  0.00000000000E+00 -0.90152838611E+03  0.28477139452E+04  0.27012443952E+04 0.  0.
        4    1    3    3  502    0  0.49696643159E+03 -0.10113075011E+04  0.33423222759E+03  0.11753430524E+04  0.12699999809E+01 0.  1.
       -4    1    3    3    0  502 -0.49696643159E+03  0.10113075011E+04 -0.12357606137E+04  0.16723708928E+04  0.12699999809E+01 0. -1.
</event>
<event>
 5   0  0.9535394E-05  0.2260985E+04  0.7818609E-02  0.8493465E-01
       -2   -1    0    0    0  501  0.00000000000E+00  0.00000000000E+00  0.70705963117E+03  0.70705963117E+03  0.25500000920E-02 0.  1.
        2   -1    0    0  501    0  0.00000000000E+00  0.00000000000E+00 -0.18075047490E+04  0.18075047490E+04  0.25500000920E-02 0. -1.
    10030    2    1    2    0    0  0.00000000000E+00  0.00000000000E+00 -0.11004451178E+04  0.25145643802E+04  0.22609853084E+04 0.  0.
        2    1    3    3  502    0 -0.30498485295E+03  0.58974101316E+03 -0.15678305654E+04  0.17026164879E+04  0.25500000920E-02 0. -1.
       -2    1    3    3    0  502  0.30498485295E+03 -0.58974101316E+03  0.46738544757E+03  0.81194789225E+03  0.25500000920E-02 0.  1.
</event>
<event>
 5   0  0.9641157E-05  0.2144882E+04  0.7818609E-02  0.8541726E-01
       -2   -1    0    0    0  501  0.00000000000E+00  0.00000000000E+00  0.81351275315E+03  0.81351275316E+03  0.25500000920E-02 0. -1.
        2   -1    0    0  501    0  0.00000000000E+00  0.00000000000E+00 -0.14137825592E+04  0.14137825592E+04  0.25500000920E-02 0.  1.
    10030    2    1    2    0    0  0.00000000000E+00  0.00000000000E+00 -0.60026980604E+03  0.22272953124E+04  0.21448824136E+04 0.  0.
        3    1    3    3  502    0  0.78547575494E+03 -0.71314316587E+03 -0.46295485137E+03  0.11575286352E+04  0.10100000352E+00 0.  1.
       -3    1    3    3    0  502 -0.78547575494E+03  0.71314316587E+03 -0.13731495468E+03  0.10697666772E+04  0.10100000352E+00 0. -1.
</event>
<event>
 5   0  0.4295775E-05  0.2314230E+04  0.7818609E-02  0.8472332E-01
        1   -1    0    0  501    0  0.00000000000E+00  0.00000000000E+00  0.10679994344E+04  0.10679994344E+04  0.50400001928E-02 0.  1.
       -1   -1    0    0    0  501  0.00000000000E+00  0.00000000000E+00 -0.12536659957E+04  0.12536659957E+04  0.50400001928E-02 0. -1.
    10030    2    1    2    0    0  0.00000000000E+00  0.00000000000E+00 -0.18566656126E+03  0.23216654301E+04  0.23142295257E+04 0.  0.
        5    1    3    3  502    0 -0.31622256456E+03 -0.96436961700E+03 -0.65039510579E+03  0.12054216491E+04  0.46999998093E+01 0. -1.
       -5    1    3    3    0  502  0.31622256456E+03  0.96436961700E+03  0.46472854454E+03  0.11162437810E+04  0.46999998093E+01 0.  1.
</event>
<event>
 5   0  0.3885219E-05  0.2250588E+04  0.7818609E-02  0.8497662E-01
        1   -1    0    0  501    0  0.00000000000E+00  0.00000000000E+00  0.19108300962E+04  0.19108300962E+04  0.50400001928E-02 0.  1.
       -1   -1    0    0    0  501  0.00000000000E+00  0.00000000000E+00 -0.66268915114E+03  0.66268915116E+03  0.50400001928E-02 0. -1.
    10030    2    1    2    0    0  0.00000000000E+00  0.00000000000E+00  0.12481409451E+04  0.25735192474E+04  0.22505878116E+04 0.  0.
        2    1    3    3  502    0 -0.61220871144E+02  0.72679354751E+03 -0.35580533888E+03  0.81152590528E+03  0.25500000920E-02 0. -1.
       -2    1    3    3    0  502  0.61220871144E+02 -0.72679354751E+03  0.16039462839E+04  0.17619933421E+04  0.25500000920E-02 0.  1.
</event>
<event>
 5   0  0.9312074E-05  0.2319553E+04  0.7818609E-02  0.8470251E-01
        2   -1    0    0  501    0  0.00000000000E+00  0.00000000000E+00  0.18068591175E+04  0.18068591175E+04  0.25500000920E-02 0. -1.
       -2   -1    0    0    0  501  0.00000000000E+00  0.00000000000E+00 -0.74443100138E+03  0.74443100139E+03  0.25500000920E-02 0.  1.
    10030    2    1    2    0    0  0.00000000000E+00  0.00000000000E+00  0.10624281162E+04  0.25512901189E+04  0.23195533555E+04 0.  0.
        4    1    3    3  502    0 -0.42623073050E+03 -0.32342507116E+03  0.16629972759E+04  0.17469510482E+04  0.12699999809E+01 0. -1.
       -4    1    3    3    0  502  0.42623073050E+03  0.32342507116E+03 -0.60056915970E+03  0.80433907076E+03  0.12699999809E+01 0.  1.
</event>
<event>
 5   0  0.9535394E-05  0.2261797E+04  0.7818609E-02  0.8493138E-01
       -2   -1    0    0    0  501  0.00000000000E+00  0.00000000000E+00  0.11644590349E+04  0.11644590349E+04  0.25500000920E-02 0. -1.
        2   -1    0    0  501    0  0.00000000000E+00  0.00000000000E+00 -0.10983050017E+04  0.10983050017E+04  0.25500000920E-02 0.  1.
    10030    2    1    2    0    0  0.00000000000E+00  0.00000000000E+00  0.66154033233E+02  0.22627640366E+04  0.22617967922E+04 0.  0.
        2    1    3    3  502    0 -0.92009411986E+03 -0.37781838377E+03  0.57146258101E+03  0.11471222263E+04  0.25500000920E-02 0. -1.
       -2    1    3    3    0  502  0.92009411986E+03  0.37781838377E+03 -0.50530854778E+03  0.11156418103E+04  0.25500000920E-02 0.  1.
</event>
<event>
 5   0  0.3885219E-05  0.2311577E+04  0.7818609E-02  0.8473370E-01
        1   -1    0    0  501    0  0.00000000000E+00  0.00000000000E+00  0.13387667017E+04  0.13387667017E+04  0.50400001928E-02 0.  1.
       -1   -1    0    0    0  501  0.00000000000E+00  0.00000000000E+00 -0.99781949865E+03  0.99781949866E+03  0.50400001928E-02 0. -1.
    10030    2    1    2    0    0  0.00000000000E+00  0.00000000000E+00  0.34094720301E+03  0.23365862003E+04  0.23115774000E+04 0.  0.
        2    1    3    3  502    0 -0.11346787359E+04  0.71874096539E+02  0.38053383804E+03  0.11989444196E+04  0.25500000920E-02 0.  1.
       -2    1    3    3    0  502  0.11346787359E+04 -0.71874096539E+02 -0.39586635021E+02  0.11376417807E+04  0.25500000920E-02 0. -1.
</event>
<event>
 5   0  0.9312074E-05  0.2168312E+04  0.7818609E-02  0.8531734E-01
        2   -1    0    0  501    0  0.00000000000E+00  0.00000000000E+00  0.10468729558E+04  0.10468729558E+04  0.25500000920E-02 0.  1.
       -2   -1    0    0    0  501  0.00000000000E+00  0.00000000000E+00 -0.11227673172E+04  0.11227673172E+04  0.25500000920E-02 0. -1.
    10030    2    1    2    0    0  0.00000000000E+00  0.00000000000E+00 -0.75894361456E+02  0.21696402730E+04  0.21683124683E+04 0.  0.
        4    1    3    3  502    0 -0.67656534136E+03 -0.78820894316E+03 -0.34858717009E+03  0.10956863727E+04  0.12699999809E+01 0. -1.
       -4    1    3    3    0  502  0.67656534136E+03  0.78820894316E+03  0.27269280863E+03  0.10739539003E+04  0.12699999809E+01 0.  1.
</event>
<event>
 5   0  0.9483073E-05  0.2343249E+04  0.7818609E-02  0.8461061E-01
       -2   -1    0    0    0  501  0.00000000000E+00  0.00000000000E+00  0.32458450108E+04  0.32458450108E+04  0.25500000920E-02 0.  1.
        2   -1    0    0  501    0  0.00000000000E+00  0.00000000000E+00 -0.42291107505E+03  0.42291107506E+03  0.25500000920E-02 0. -1.
    10030    2    1    2    0    0  0.00000000000E+00  0.00000000000E+00  0.28229339358E+04  0.36687560859E+04  0.23432488583E+04 0.  0.
        5    1    3    3  502    0 -0.32171588132E+03  0.67331546287E+03 -0.26959120900E+01  0.74624672782E+03  0.46999998093E+01 0. -1.
       -5    1    3    3    0  502  0.32171588132E+03 -0.67331546287E+03  0.28256298479E+04  0.29225093581E+04  0.46999998093E+01 0.  1.
</event>
<event>
 5   0  0.9312074E-05  0.2312380E+04  0.7818609E-02  0.8473056E-01
       -2   -1    0    0    0  501  0.00000000000E+00  0.00000000000E+00  0.10062274554E+04  0.10062274554E+04  0.25500000920E-02 0. -1.
        2   -1    0    0  501    0  0.00000000000E+00  0.00000000000E+00 -0.13285026902E+04  0.13285026902E+04  0.25500000920E-02 0.  1.
    10030    2    1    2    0    0  0.00000000000E+00  0.00000000000E+00 -0.32227523480E+03  0.23347301457E+04  0.23123804890E+04 0.  0.
        4    1    3    3  502    0  0.26592833561E+02 -0.19859298597E+03 -0.13108390654E+04  0.13260644860E+04  0.12699999809E+01 0.  1.
       -4    1    3    3    0  502 -0.26592833561E+02  0.19859298597E+03  0.98856383059E+03  0.10086656596E+04  0.12699999809E+01 0. -1.
</event>
<event>
 5   0  0.9535394E-05  0.2334103E+04  0.7818609E-02  0.8464595E-01
        2   -1    0    0  501    0  0.00000000000E+00  0.00000000000E+00  0.87832756454E+03  0.87832756455E+03  0.25500000920E-02 0. -1.
       -2   -1    0    0    0  501  0.00000000000E+00  0.00000000000E+00 -0.15506849122E+04  0.15506849122E+04  0.25500000920E-02 0.  1.
    10030    2    1    2    0    0  0.00000000000E+00  0.00000000000E+00 -0.67235734767E+03  0.24290124768E+04  0.23341030845E+04 0.  0.
        2    1    3    3  502    0 -0.10057525573E+04  0.58254266656E+03 -0.44589395768E+03  0.12448757313E+04  0.25500000920E-02 0.  1.
       -2    1    3    3    0  502  0.10057525573E+04 -0.58254266656E+03 -0.22646338999E+03  0.11841367454E+04  0.25500000920E-02 0. -1.
</event>
<event>
 5   0  0.3261500E-05  0.2283609E+04  0.7818609E-02  0.8484412E-01
        4   -1    0    0  501    0  0.00000000000E+00  0.00000000000E+00  0.13060360581E+04  0.13060366756E+04  0.12699999809E+01 0. -1.
       -4   -1    0    0    0  501  0.00000000000E+00  0.00000000000E+00 -0.99822389632E+03  0.99822470421E+03  0.12699999809E+01 0.  1.
    10030    2    1    2    0    0  0.00000000000E+00  0.00000000000E+00  0.30781216183E+03  0.23042613798E+04  0.22836094630E+04 0.  0.
        4    1    3    3  502    0 -0.68341227646E+03  0.87771663332E+03 -0.10586649860E+03  0.11174292624E+04  0.12699999809E+01 0.  1.
       -4    1    3    3    0  502  0.68341227646E+03 -0.87771663332E+03  0.41367866043E+03  0.11868321174E+04  0.12699999809E+01 0. -1.
</event>
<event>
 5   0  0.4139830E-05  0.2191173E+04  0.7818609E-02  0.8522111E-01
        1   -1    0    0  501    0  0.00000000000E+00  0.00000000000E+00  0.15410969188E+04  0.15410969188E+04  0.50400001928E-02 0. -1.
       -1   -1    0    0    0  501  0.00000000000E+00  0.00000000000E+00 -0.77886697949E+03  0.77886697950E+03  0.50400001928E-02 0.  1.
    10030    2    1    2    0    0  0.00000000000E+00  0.00000000000E+00  0.76222993927E+03  0.23199638983E+04  0.21911727474E+04 0.  0.
        1    1    3    3  502    0  0.45054089702E+03  0.89765423783E+03  0.84449095736E+03  0.13122252885E+04  0.50400001928E-02 0.  1.
       -1    1    3    3    0  502 -0.45054089702E+03 -0.89765423783E+03 -0.82261018094E+02  0.10077386098E+04  0.50400001928E-02 0. -1.
</event>
<event>
 5   0  0.9641157E-05  0.2307875E+04  0.7818609E-02  0.8474822E-01
        2   -1    0    0  501    0  0.00000000000E+00  0.00000000000E+00  0.18103644103E+04  0.18103644103E+04  0.25500000920E-02 0. -1.
       -2   -1    0    0    0  501  0.00000000000E+00  0.00000000000E+00 -0.73552720387E+03  0.73552720388E+03  0.25500000920E-02 0.  1.
    10030    2    1    2    0    0  0.00000000000E+00  0.00000000000E+00  0.10748372064E+04  0.25458916142E+04  0.23078754496E+04 0.  0.
        3    1    3    3  502    0  0.31739552580E+03 -0.10999532518E+04  0.37780644831E+03  0.12055599523E+04  0.10100000352E+00 0. -1.
       -3    1    3    3    0  502 -0.31739552580E+03  0.10999532518E+04  0.69703075813E+03  0.13403316619E+04  0.10100000352E+00 0.  1.
</event>
<event>
 5   0  0.4139830E-05  0.2126311E+04  0.7818609E-02  0.8549741E-01
        1   -1    0    0  501    0  0.00000000000E+00  0.00000000000E+00  0.20835424044E+04  0.20835424044E+04  0.50400001928E-02 0. -1.
       -1   -1    0    0    0  501  0.00000000000E+00  0.00000000000E+00 -0.54248917473E+03  0.54248917475E+03  0.50400001928E-02 0.  1.
    10030    2    1    2    0    0  0.00000000000E+00  0.00000000000E+00  0.15410532296E+04  0.26260315791E+04  0.21263106071E+04 0.  0.
        1    1    3    3  502    0  0.95517744480E+03 -0.26987996775E+03  0.12409696268E+04  0.15890892872E+04  0.50400001928E-02 0. -1.
       -1    1    3    3    0  502 -0.95517744480E+03  0.26987996775E+03  0.30008360283E+03  0.10369422919E+04  0.50400001928E-02 0.  1.
</event>
<event>
 5   0  0.9535394E-05  0.2232390E+04  0.7818609E-02  0.8505066E-01
        2   -1    0    0  501    0  0.00000000000E+00  0.00000000000E+00  0.10969856337E+04  0.10969856337E+04  0.25500000920E-02 0. -1.
       -2   -1    0    0    0  501  0.00000000000E+00  0.00000000000E+00 -0.11357409600E+04  0.11357409600E+04  0.25500000920E-02 0.  1.
    10030    2    1    2    0    0  0.00000000000E+00  0.00000000000E+00 -0.38755326281E+02  0.22327265937E+04  0.22323902138E+04 0.  0.
        2    1    3    3  502    0  0.49808677472E+03  0.72745795659E+03 -0.70402884008E+03  0.11282473671E+04  0.25500000920E-02 0.  1.
       -2    1    3    3    0  502 -0.49808677472E+03 -0.72745795659E+03  0.66527351380E+03  0.11044792266E+04  0.25500000920E-02 0. -1.
</event>
<event>
 5   0  0.9483073E-05  0.2131852E+04  0.7818609E-02  0.8547341E-01
       -2   -1    0    0    0  501  0.00000000000E+00  0.00000000000E+00  0.73292290948E+03  0.73292290949E+03  0.25500000920E-02 0. -1.
        2   -1    0    0  501    0  0.00000000000E+00  0.00000000000E+00 -0.15502281706E+04  0.15502281706E+04  0.25500000920E-02 0.  1.
    10030    2    1    2    0    0  0.00000000000E+00  0.00000000000E+00 -0.81730526114E+03  0.22831510801E+04  0.21318515344E+04 0.  0.
        5    1    3    3  502    0 -0.60551832877E+03  0.15309266301E+03  0.51641203613E+03  0.81042784441E+03  0.46999998093E+01 0. -1.
       -5    1    3    3    0  502  0.60551832877E+03 -0.15309266301E+03 -0.13337172973E+04  0.14727232357E+04  0.46999998093E+01 0.  1.
</event>
<event>
 5   0  0.4139830E-05  0.2291157E+04  0.7818609E-02  0.8481416E-01
       -1   -1    0    0    0  501  0.00000000000E+00  0.00000000000E+00  0.16376729016E+04  0.16376729016E+04  0.50400001928E-02 0.  1.
        1   -1    0    0  501    0  0.00000000000E+00  0.00000000000E+00 -0.80135054770E+03  0.80135054772E+03  0.50400001928E-02 0. -1.
    10030    2    1    2    0    0  0.00000000000E+00  0.00000000000E+00  0.83632235390E+03  0.24390234493E+04  0.22911569799E+04 0.  0.
        1    1    3    3  502    0 -0.42803532197E+03  0.12725359146E+03  0.15412069731E+04  0.16045954778E+04  0.50400001928E-02 0.  1.
       -1    1    3    3    0  502  0.42803532197E+03 -0.12725359146E+03 -0.70488461916E+03  0.83442797157E+03  0.50400001928E-02 0. -1.
</event>
<event>
 5   0  0.4005462E-05  0.2049581E+04  0.7818609E-02  0.8583785E-01
        1   -1    0    0  501    0  0.00000000000E+00  0.00000000000E+00  0.13390120248E+04  0.13390120248E+04  0.50400001928E-02 0. -1.
       -1   -1    0    0    0  501  0.00000000000E+00  0.00000000000E+00 -0.78430593550E+03  0.78430593551E+03  0.50400001928E-02 0.  1.
    10030    2    1    2    0    0  0.00000000000E+00  0.00000000000E+00  0.55470608932E+03  0.21233179603E+04  0.20495805218E+04 0.  0.
        4    1    3    3  502    0  0.43143659184E+03 -0.18390392228E+03  0.12213066303E+04  0.13082620852E+04  0.12699999809E+01 0. -1.
       -4    1    3    3    0  502 -0.43143659184E+03  0.18390392228E+03 -0.66660054101E+03  0.81505587513E+03  0.12699999809E+01 0.  1.
</event>
<event>
 5   0  0.4295775E-05  0.2036208E+04  0.7818609E-02  0.8589877E-01
        1   -1    0    0  501    0  0.00000000000E+00  0.00000000000E+00  0.10018053276E+04  0.10018053276E+04  0.50400001928E-02 0.  1.
       -1   -1    0    0    0  501  0.00000000000E+00  0.00000000000E+00 -0.10346678152E+04  0.10346678153E+04  0.50400001928E-02 0. -1.
    10030    2    1    2    0    0  0.00000000000E+00  0.00000000000E+00 -0.32862487616E+02  0.20364731429E+04  0.20362079753E+04 0.  0.
        5    1    3    3  502    0  0.43664170942E+03 -0.68244232942E+03  0.60019598275E+03  0.10082860820E+04  0.46999998093E+01 0.  1.
       -5    1    3    3    0  502 -0.43664170942E+03  0.68244232942E+03 -0.63305847036E+03  0.10281870609E+04  0.46999998093E+01 0. -1.
</event>
<event>
 5   0  0.3261500E-05  0.2307621E+04  0.7818609E-02  0.8474922E-01
       -3   -1    0    0    0  501  0.00000000000E+00  0.00000000000E+00  0.15346684888E+04  0.15346684921E+04  0.10100000352E+00 0.  1.
        3   -1    0    0  501    0  0.00000000000E+00  0.00000000000E+00 -0.86746989651E+03  0.86746990239E+03  0.10100000352E+00 0. -1.
    10030    2    1    2    0    0  0.00000000000E+00  0.00000000000E+00  0.66719859225E+03  0.24021383945E+04  0.23076210488E+04 0.  0.
        5    1    3    3  502    0 -0.66827939720E+03 -0.47075805347E+02 -0.64426119999E+03  0.92946655023E+03  0.46999998093E+01 0. -1.
       -5    1    3    3    0  502  0.66827939720E+03  0.47075805347E+02  0.13114597922E+04  0.14726718442E+04  0.46999998093E+01 0.  1.
</event>
<event>
 5   0  0.3261500E-05  0.2329559E+04  0.7818609E-02  0.8466357E-01
       -3   -1    0    0    0  501  0.00000000000E+00  0.00000000000E+00  0.11979708361E+04  0.11979708404E+04  0.10100000352E+00 0. -1.
        3   -1    0    0  501    0  0.00000000000E+00  0.00000000000E+00 -0.11325072905E+04  0.11325072950E+04  0.10100000352E+00 0.  1.
    10030    2    1    2    0    0  0.00000000000E+00  0.00000000000E+00  0.65463545613E+02  0.23304781354E+04  0.23295585126E+04 0.  0.
        4    1    3    3  502    0  0.97141023837E+03  0.62897979274E+03  0.16490384455E+03  0.11689518047E+04  0.12699999809E+01 0. -1.
       -4    1    3    3    0  502 -0.97141023837E+03 -0.62897979274E+03 -0.99440298937E+02  0.11615263307E+04  0.12699999809E+01 0.  1.
</event>
<event>
 5   0  0.4095451E-05  0.2098383E+04  0.7818609E-02  0.8561956E-01
       -1   -1    0    0    0  501  0.00000000000E+00  0.00000000000E+00  0.91714413953E+03  0.91714413954E+03  0.50400001928E-02 0. -1.
        1   -1    0    0  501    0  0.00000000000E+00  0.00000000000E+00 -0.12002507670E+04  0.12002507670E+04  0.50400001928E-02 0.  1.
    10030    2    1    2    0    0  0.00000000000E+00  0.00000000000E+00 -0.28310662750E+03  0.21173949066E+04  0.20983831461E+04 0.  0.
        3    1    3    3  502    0 -0.34867831018E+03  0.82348238305E+03  0.41214693976E+03  0.98466487159E+03  0.10100000352E+00 0. -1.
       -3    1    3    3    0  502  0.34867831018E+03 -0.82348238305E+03 -0.69525356726E+03  0.11327300350E+04  0.10100000352E+00 0.  1.
</event>
<event>
 5   0  0.9483073E-05  0.2333662E+04  0.7818609E-02  0.8464766E-01
       -2   -1    0    0    0  501  0.00000000000E+00  0.00000000000E+00  0.77729836550E+03  0.77729836550E+03  0.25500000920E-02 0. -1.
        2   -1    0    0  501    0  0.00000000000E+00  0.00000000000E+00 -0.17515722963E+04  0.17515722963E+04  0.25500000920E-02 0.  1.
    10030    2    1    2    0    0  0.00000000000E+00  0.00000000000E+00 -0.97427393082E+03  0.25288706618E+04  0.23336617433E+04 0.  0.
        5    1    3    3  502    0  0.75952589085E+03  0.77064953024E+03 -0.96034798804E+03  0.14467448377E+04  0.46999998093E+01 0.  1.
       -5    1    3    3    0  502 -0.75952589085E+03 -0.77064953024E+03 -0.13925942782E+02  0.10821258241E+04  0.46999998093E+01 0. -1.
</event>
<event>
 5   0  0.3261500E-05  0.2104308E+04  0.7818609E-02  0.8559348E-01
       -3   -1    0    0    0  501  0.00000000000E+00  0.00000000000E+00  0.48384792107E+03  0.48384793161E+03  0.10100000352E+00 0. -1.
        3   -1    0    0  501    0  0.00000000000E+00  0.00000000000E+00 -0.22879666512E+04  0.22879666534E+04  0.10100000352E+00 0.  1.
    10030    2    1    2    0    0  0.00000000000E+00  0.00000000000E+00 -0.18041187301E+04  0.27718145850E+04  0.21043078913E+04 0.  0.
        4    1    3    3  502    0  0.29888439750E+03  0.98871554929E+03 -0.11659487327E+04  0.15576676091E+04  0.12699999809E+01 0.  1.
       -4    1    3    3    0  502 -0.29888439750E+03 -0.98871554929E+03 -0.63816999744E+03  0.12141469759E+04  0.12699999809E+01 0. -1.
</event>
<event>
 5   0  0.9483073E-05  0.2286265E+04  0.7818609E-02  0.8483356E-01
        2   -1    0    0  501    0  0.00000000000E+00  0.00000000000E+00  0.17266108716E+04  0.17266108716E+04  0.25500000920E-02 0. -1.
       -2   -1    0    0    0  501  0.00000000000E+00  0.00000000000E+00 -0.75683044909E+03  0.75683044909E+03  0.25500000920E-02 0.  1.
    10030    2    1    2    0    0  0.00000000000E+00  0.00000000000E+00  0.96978042248E+03  0.24834413207E+04  0.22862647977E+04 0.  0.
        5    1    3    3  502    0  0.47125546529E+03 -0.73199206218E+03 -0.31983659860E+03  0.92747594710E+03  0.46999998093E+01 0.  1.
       -5    1    3    3    0  502 -0.47125546529E+03  0.73199206218E+03  0.12896170211E+04  0.15559653736E+04  0.46999998093E+01 0. -1.
</event>
<event>
 5   0  0.4005462E-05  0.2345783E+04  0.7818609E-02  0.8460085E-01
       -1   -1    0    0    0  501  0.00000000000E+00  0.00000000000E+00  0.17655159847E+04  0.17655159847E+04  0.50400001928E-02 0. -1.
        1   -1    0    0  501    0  0.00000000000E+00  0.00000000000E+00 -0.77919092478E+03  0.77919092480E+03  0.50400001928E-02 0.  1.
    10030    2    1    2    0    0  0.00000000000E+00  0.00000000000E+00  0.98632505989E+03  0.25447069095E+04  0.23457826266E+04 0.  0.
        4    1    3    3  502    0  0.39490448102E+03 -0.65038698098E+03 -0.47512149476E+03  0.89704783698E+03  0.12699999809E+01 0.  1.
       -4    1    3    3    0  502 -0.39490448102E+03  0.65038698098E+03  0.14614465546E+04  0.16476590725E+04  0.12699999809E+01 0. -1.
</event>
<event>
 5   0  0.4295775E-05  0.2274620E+04  0.7818609E-02  0.8487996E-01
       -1   -1    0    0    0  501  0.00000000000E+00  0.00000000000E+00  0.91177395397E+03  0.91177395399E+03  0.50400001928E-02 0.  1.
        1   -1    0    0  501    0  0.00000000000E+00  0.00000000000E+00 -0.14186343468E+04  0.14186343468E+04  0.50400001928E-02 0. -1.
    10030    2    1    2    0    0  0.00000000000E+00  0.00000000000E+00 -0.50686039286E+03  0.23304083008E+04  0.22746198343E+04 0.  0.
        5    1    3    3  502    0 -0.27971338112E+03  0.90556210650E+03 -0.89747321949E+03  0.13052825648E+04  0.46999998093E+01 0. -1.
       -5    1    3    3    0  502  0.27971338112E+03 -0.90556210650E+03  0.39061282663E+03  0.10251257360E+04  0.46999998093E+01 0.  1.
</event>
<event>
 5   0  0.9641157E-05  0.2269453E+04  0.7818609E-02  0.8490064E-01
        2   -1    0    0  501    0  0.00000000000E+00  0.00000000000E+00  0.19543573830E+04  0.19543573830E+04  0.25500000920E-02 0.  1.
       -2   -1    0    0    0  501  0.00000000000E+00  0.00000000000E+00 -0.65883740707E+03  0.65883740707E+03  0.25500000920E-02 0. -1.
    10030    2    1    2    0    0  0.00000000000E+00  0.00000000000E+00  0.12955199760E+04  0.26131947901E+04  0.22694525778E+04 0.  0.
        3    1    3    3  502    0  0.13718903320E+03 -0.86398751940E+03 -0.18441413747E+03  0.89403794596E+03  0.10100000352E+00 0.  1.
       -3    1    3    3    0  502 -0.13718903320E+03  0.86398751940E+03  0.14799341134E+04  0.17191568442E+04  0.10100000352E+00 0. -1.
</event>
<event>
 5   0  0.9483073E-05  0.2293429E+04  0.7818609E-02  0.8480516E-01
        2   -1    0    0  501    0  0.00000000000E+00  0.00000000000E+00  0.10907721433E+04  0.10907721433E+04  0.25500000920E-02 0.  1.
       -2   -1    0    0    0  501  0.00000000000E+00  0.00000000000E+00 -0.12055261751E+04  0.12055261751E+04  0.25500000920E-02 0. -1.
    10030    2    1    2    0    0  0.00000000000E+00  0.00000000000E+00 -0.11475403188E+03  0.22962983184E+04  0.22934291965E+04 0.  0.
        5    1    3    3  502    0 -0.27110847533E+02 -0.32618539989E+02  0.10899768420E+04  0.10908118872E+04  0.46999998093E+01 0.  1.
       -5    1    3    3    0  502  0.27110847533E+02  0.32618539989E+02 -0.12047308739E+04  0.12054864312E+04  0.46999998093E+01 0. -1.
</event>
<event>
 5   0  0.3261500E-05  0.2307294E+04  0.7818609E-02  0.8475051E-01
       -3   -1    0    0    0  501  0.00000000000E+00  0.00000000000E+00  0.98703852879E+03  0.98703853396E+03  0.10100000352E+00 0.  1.
        3   -1    0    0  501    0  0.00000000000E+00  0.00000000000E+00 -0.13483780930E+04  0.13483780968E+04  0.10100000352E+00 0. -1.
    10030    2    1    2    0    0  0.00000000000E+00  0.00000000000E+00 -0.36133956419E+03  0.23354166307E+04  0.23072937738E+04 0.  0.
        1    1    3    3  502    0  0.70330124622E+03 -0.89511585233E+03  0.87910323174E+01  0.11383946215E+04  0.50400001928E-02 0.  1.
       -1    1    3    3    0  502 -0.70330124622E+03  0.89511585233E+03 -0.37013059651E+03  0.11970220092E+04  0.50400001928E-02 0. -1.
</event>
<event>
 5   0  0.9312074E-05  0.2216345E+04  0.7818609E-02  0.8511656E-01
        2   -1    0    0  501    0  0.00000000000E+00  0.00000000000E+00  0.14618349549E+04  0.14618349549E+04  0.25500000920E-02 0.  1.
       -2   -1    0    0    0  501  0.00000000000E+00  0.00000000000E+00 -0.84007160578E+03  0.84007160578E+03  0.25500000920E-02 0. -1.
    10030    2    1    2    0    0  0.00000000000E+00  0.00000000000E+00  0.62176334909E+03  0.23019065607E+04  0.22163447727E+04 0.  0.
        4    1    3    3  502    0  0.34727745889E+03 -0.70513160767E+03  0.11222124195E+04  0.13701001953E+04  0.12699999809E+01 0.  1.
       -4    1    3    3    0  502 -0.34727745889E+03  0.70513160767E+03 -0.50044907044E+03  0.93180636540E+03  0.12699999809E+01 0. -1.
</event>
<event>
 5   0  0.4139830E-05  0.2181499E+04  0.7818609E-02  0.8526168E-01
        1   -1    0    0  501    0  0.00000000000E+00  0.00000000000E+00  0.70702855595E+03  0.70702855597E+03  0.50400001928E-02 0.  1.
       -1   -1    0    0    0  501  0.00000000000E+00  0.00000000000E+00 -0.16827247211E+04  0.16827247212E+04  0.50400001928E-02 0. -1.
    10030    2    1    2    0    0  0.00000000000E+00  0.00000000000E+00 -0.97569616520E+03  0.23897532771E+04  0.21814989614E+04 0.  0.
        1    1    3    3  502    0  0.41181532855E+03  0.66440104291E+03  0.34550679512E+03  0.85463182491E+03  0.50400001928E-02 0.  1.
       -1    1    3    3    0  502 -0.41181532855E+03 -0.66440104291E+03 -0.13212029603E+04  0.15351214522E+04  0.50400001928E-02 0. -1.
</event>
<event>
 5   0  0.4005462E-05  0.2264825E+04  0.7818609E-02  0.8491921E-01
        1   -1    0    0  501    0  0.00000000000E+00  0.00000000000E+00  0.82419561360E+03  0.82419561361E+03  0.50400001928E-02 0.  1.
       -1   -1    0    0    0  501  0.00000000000E+00  0.00000000000E+00 -0.15558901500E+04  0.15558901500E+04  0.50400001928E-02 0. -1.
    10030    2    1    2    0    0  0.00000000000E+00  0.00000000000E+00 -0.73169453644E+03  0.23800857637E+04  0.22648247940E+04 0.  0.
        4    1    3    3  502    0  0.13471978511E+03  0.19985536199E+03 -0.15286221685E+04  0.15475073290E+04  0.12699999809E+01 0. -1.
       -4    1    3    3    0  502 -0.13471978511E+03 -0.19985536199E+03  0.79692763209E+03  0.83257843468E+03  0.12699999809E+01 0.  1.
</event>
<event>
 5   0  0.4005462E-05  0.2272524E+04  0.7818609E-02  0.8488834E-01
       -1   -1    0    0    0  501  0.00000000000E+00  0.00000000000E+00  0.14149578935E+04  0.14149578935E+04  0.50400001928E-02 0.  1.
        1   -1    0    0  501    0  0.00000000000E+00  0.00000000000E+00 -0.91245954939E+03  0.91245954940E+03  0.50400001928E-02 0. -1.
    10030    2    1    2    0    0  0.00000000000E+00  0.00000000000E+00  0.50249834409E+03  0.23274174429E+04  0.22725244482E+04 0.  0.
        4    1    3    3  502    0 -0.84035693622E+03 -0.29642289437E+03  0.97327771170E+03  0.13195974498E+04  0.12699999809E+01 0.  1.
       -4    1    3    3    0  502  0.84035693622E+03  0.29642289437E+03 -0.47077936762E+03  0.10078199931E+04  0.12699999809E+01 0. -1.
</event>
<event>
 5   0  0.4005462E-05  0.2311219E+04  0.7818609E-02  0.8473511E-01
        1   -1    0    0  501    0  0.00000000000E+00  0.00000000000E+00  0.17395732622E+04  0.17395732622E+04  0.50400001928E-02 0. -1.
       -1   -1    0    0    0  501  0.00000000000E+00  0.00000000000E+00 -0.76767878226E+03  0.76767878228E+03  0.50400001928E-02 0.  1.
    10030    2    1    2    0    0  0.00000000000E+00  0.00000000000E+00  0.97189447989E+03  0.25072520444E+04  0.23112191446E+04 0.  0.
        4    1    3    3  502    0 -0.36014531038E+03  0.40600829514E+03  0.15927191713E+04  0.16826477207E+04  0.12699999809E+01 0. -1.
       -4    1    3    3    0  502  0.36014531038E+03 -0.40600829514E+03 -0.62082469145E+03  0.82460432374E+03  0.12699999809E+01 0.  1.
</event>
<event>
 5   0  0.4139830E-05  0.2305386E+04  0.7818609E-02  0.8475800E-01
        1   -1    0    0  501    0  0.00000000000E+00  0.00000000000E+00  0.10441482973E+04  0.10441482973E+04  0.50400001928E-02 0. -1.
       -1   -1    0    0    0  501  0.00000000000E+00  0.00000000000E+00 -0.12725215641E+04  0.12725215641E+04  0.50400001928E-02 0.  1.
    10030    2    1    2    0    0  0.00000000000E+00  0.00000000000E+00 -0.22837326681E+03  0.23166698615E+04  0.23053860627E+04 0.  0.
        1    1    3    3  502    0 -0.15752875840E+03 -0.53960698422E+03 -0.11254472204E+04  0.12580232323E+04  0.50400001928E-02 0.  1.
       -1    1    3    3    0  502  0.15752875840E+03  0.53960698422E+03  0.89707395360E+03  0.10586466291E+04  0.50400001928E-02 0. -1.
</event>
<event>
 5   0  0.4295775E-05  0.1948622E+04  0.7818609E-02  0.8631026E-01
       -1   -1    0    0    0  501  0.00000000000E+00  0.00000000000E+00  0.53406647996E+03  0.53406647998E+03  0.50400001928E-02 0. -1.
        1   -1    0    0  501    0  0.00000000000E+00  0.00000000000E+00 -0.17774602708E+04  0.17774602708E+04  0.50400001928E-02 0.  1.
    10030    2    1    2    0    0  0.00000000000E+00  0.00000000000E+00 -0.12433937908E+04  0.23115267507E+04  0.19486220261E+04 0.  0.
        5    1    3    3  502    0  0.91942807689E+03  0.32114779729E+03 -0.65474085286E+03  0.11735380568E+04  0.46999998093E+01 0. -1.
       -5    1    3    3    0  502 -0.91942807689E+03 -0.32114779729E+03 -0.58865293793E+03  0.11379886940E+04  0.46999998093E+01 0.  1.
</event>
<event>
 5   0  0.9312074E-05  0.2192449E+04  0.7818609E-02  0.8521578E-01
        2   -1    0    0  501    0  0.00000000000E+00  0.00000000000E+00  0.13094825489E+04  0.13094825489E+04  0.25500000920E-02 0. -1.
       -2   -1    0    0    0  501  0.00000000000E+00  0.00000000000E+00 -0.91769702468E+03  0.91769702469E+03  0.25500000920E-02 0.  1.
    10030    2    1    2    0    0  0.00000000000E+00  0.00000000000E+00  0.39178552419E+03  0.22271795736E+04  0.21924490772E+04 0.  0.
        4    1    3    3  502    0 -0.80729306238E+03  0.27853578853E+03  0.89409581820E+03  0.12364114279E+04  0.12699999809E+01 0. -1.
       -4    1    3    3    0  502  0.80729306238E+03 -0.27853578853E+03 -0.50231029401E+03  0.99076814565E+03  0.12699999809E+01 0.  1.
</event>
<event>
 5   0  0.4295775E-05  0.2250095E+04  0.7818609E-02  0.8497862E-01
        1   -1    0    0  501    0  0.00000000000E+00  0.00000000000E+00  0.15667764556E+04  0.15667764556E+04  0.50400001928E-02 0.  1.
       -1   -1    0    0    0  501  0.00000000000E+00  0.00000000000E+00 -0.80785731186E+03  0.80785731187E+03  0.50400001928E-02 0. -1.
    10030    2    1    2    0    0  0.00000000000E+00  0.00000000000E+00  0.75891914375E+03  0.23746337675E+04  0.22500949453E+04 0.  0.
        5    1    3    3  502    0  0.53237977725E+03 -0.40452894606E+03  0.13343239681E+04  0.14924859923E+04  0.46999998093E+01 0.  1.
       -5    1    3    3    0  502 -0.53237977725E+03  0.40452894606E+03 -0.57540482432E+03  0.88214777519E+03  0.46999998093E+01 0. -1.
</event>
<event>
 5   0  0.9312074E-05  0.2327306E+04  0.7818609E-02  0.8467232E-01
       -2   -1    0    0    0  501  0.00000000000E+00  0.00000000000E+00  0.10331570528E+04  0.10331570528E+04  0.25500000920E-02 0. -1.
        2   -1    0    0  501    0  0.00000000000E+00  0.00000000000E+00 -0.13106318046E+04  0.13106318046E+04  0.25500000920E-02 0.  1.
    10030    2    1    2    0    0  0.00000000000E+00  0.00000000000E+00 -0.27747475175E+03  0.23437888574E+04  0.23273061617E+04 0.  0.
        4    1    3    3  502    0  0.84264526462E+03  0.78770465789E+03 -0.29330797473E+03  0.11901936191E+04  0.12699999809E+01 0.  1.
       -4    1    3    3    0  502 -0.84264526462E+03 -0.78770465789E+03  0.15833222979E+02  0.11535952383E+04  0.12699999809E+01 0. -1.
</event>
<event>
 5   0  0.4139830E-05  0.2202431E+04  0.7818609E-02  0.8517417E-01
       -1   -1    0    0    0  501  0.00000000000E+00  0.00000000000E+00  0.14352781211E+04  0.14352781211E+04  0.50400001928E-02 0.  1.
        1   -1    0    0  501    0  0.00000000000E+00  0.00000000000E+00 -0.84490671716E+03  0.84490671717E+03  0.50400001928E-02 0. -1.
    10030    2    1    2    0    0  0.00000000000E+00  0.00000000000E+00  0.59037140395E+03  0.22801848383E+04  0.22024314977E+04 0.  0.
        1    1    3    3  502    0 -0.99841758842E+03 -0.13678528616E+03  0.75485135687E+03  0.12591062173E+04  0.50400001928E-02 0.  1.
       -1    1    3    3    0  502  0.99841758842E+03  0.13678528616E+03 -0.16447995292E+03  0.10210786210E+04  0.50400001928E-02 0. -1.
</event>
<event>
 5   0  0.9313463E-05  0.2331047E+04  0.7818609E-02  0.8465779E-01
        2   -1    0    0  501    0  0.00000000000E+00  0.00000000000E+00  0.23619781947E+04  0.23619781947E+04  0.25500000920E-02 0.  1.
       -2   -1    0    0    0  501  0.00000000000E+00  0.00000000000E+00 -0.57513035567E+03  0.57513035567E+03  0.25500000920E-02 0. -1.
    10030    2    1    2    0    0  0.00000000000E+00  0.00000000000E+00  0.17868478390E+04  0.29371085504E+04  0.23310472833E+04 0.  0.
        1    1    3    3  502    0  0.11111758953E+04 -0.24296155891E+03  0.57292121889E+03  0.12735701443E+04  0.50400001928E-02 0. -1.
       -1    1    3    3    0  502 -0.11111758953E+04  0.24296155891E+03  0.12139266201E+04  0.16635384061E+04  0.50400001928E-02 0.  1.
</event>
<event>
 5   0  0.4095451E-05  0.2250017E+04  0.7818609E-02  0.8497894E-01
       -1   -1    0    0    0  501  0.00000000000E+00  0.00000000000E+00  0.12138273652E+04  0.12138273652E+04  0.50400001928E-02 0.  1.
        1   -1    0    0  501    0  0.00000000000E+00  0.00000000000E+00 -0.10426882926E+04  0.10426882926E+04  0.50400001928E-02 0. -1.
    10030    2    1    2    0    0  0.00000000000E+00  0.00000000000E+00  0.17113907261E+03  0.22565156579E+04  0.22500165182E+04 0.  0.
        3    1    3    3  502    0  0.10468693396E+04  0.40972512312E+03  0.12851239873E+03  0.11315147094E+04  0.10100000352E+00 0.  1.
       -3    1    3    3    0  502 -0.10468693396E+04 -0.40972512312E+03  0.42626673881E+02  0.11250009485E+04  0.10100000352E+00 0. -1.
</event>
<event>
 5   0  0.9535394E-05  0.2277749E+04  0.7818609E-02  0.8486746E-01
       -2   -1    0    0    0  501  0.00000000000E+00  0.00000000000E+00  0.68352266143E+03  0.68352266144E+03  0.25500000920E-02 0. -1.
        2   -1    0    0  501    0  0.00000000000E+00  0.00000000000E+00 -0.18975747683E+04  0.18975747683E+04  0.25500000920E-02 0.  1.
    10030    2    1    2    0    0  0.00000000000E+00  0.00000000000E+00 -0.12140521068E+04  0.25810974297E+04  0.22777492012E+04 0.  0.
        2    1    3    3  502    0 -0.88175856801E+02  0.79529529829E+03 -0.15253665747E+04  0.17225018956E+04  0.25500000920E-02 0.  1.
       -2    1    3    3    0  502  0.88175856801E+02 -0.79529529829E+03  0.31131446788E+03  0.85859553407E+03  0.25500000920E-02 0. -1.
</event>
<event>
 5   0  0.4139830E-05  0.2360356E+04  0.7818609E-02  0.8454497E-01
        1   -1    0    0  501    0  0.00000000000E+00  0.00000000000E+00  0.18797688096E+04  0.18797688096E+04  0.50400001928E-02 0.  1.
       -1   -1    0    0    0  501  0.00000000000E+00  0.00000000000E+00 -0.74095289146E+03  0.74095289147E+03  0.50400001928E-02 0. -1.
    10030    2    1    2    0    0  0.00000000000E+00  0.00000000000E+00  0.11388159181E+04  0.26207217011E+04  0.23603560196E+04 0.  0.
        1    1    3    3  502    0  0.11498749146E+04 -0.27164811638E+02  0.86289465335E+03  0.14378933997E+04  0.50400001928E-02 0.  1.
       -1    1    3    3    0  502 -0.11498749146E+04  0.27164811638E+02  0.27592126480E+03  0.11828283014E+04  0.50400001928E-02 0. -1.
</event>
<event>
 5   0  0.4095451E-05  0.2381119E+04  0.7818609E-02  0.8446606E-01
       -1   -1    0    0    0  501  0.00000000000E+00  0.00000000000E+00  0.94374102339E+03  0.94374102340E+03  0.50400001928E-02 0. -1.
        1   -1    0    0  501    0  0.00000000000E+00  0.00000000000E+00 -0.15019295242E+04  0.15019295242E+04  0.50400001928E-02 0.  1.
    10030    2    1    2    0    0  0.00000000000E+00  0.00000000000E+00 -0.55818850083E+03  0.24456705476E+04  0.23811194899E+04 0.  0.
        3    1    3    3  502    0  0.27261467748E+03 -0.10324257078E+03  0.90651885466E+03  0.95223643853E+03  0.10100000352E+00 0. -1.
       -3    1    3    3    0  502 -0.27261467748E+03  0.10324257078E+03 -0.14647073555E+04  0.14934341091E+04  0.10100000352E+00 0.  1.
</event>
<event>
 5   0  0.4139830E-05  0.2282884E+04  0.7818609E-02  0.8484700E-01
       -1   -1    0    0    0  501  0.00000000000E+00  0.00000000000E+00  0.63754575795E+03  0.63754575797E+03  0.50400001928E-02 0. -1.
        1   -1    0    0  501    0  0.00000000000E+00  0.00000000000E+00 -0.20436026272E+04  0.20436026272E+04  0.50400001928E-02 0.  1.
    10030    2    1    2    0    0  0.00000000000E+00  0.00000000000E+00 -0.14060568692E+04  0.26811483852E+04  0.22828843036E+04 0.  0.
        1    1    3    3  502    0  0.52998317237E+03  0.51918774422E+03 -0.17217989798E+04  0.18748412742E+04  0.50400001928E-02 0.  1.
       -1    1    3    3    0  502 -0.52998317237E+03 -0.51918774422E+03  0.31574211055E+03  0.80630711093E+03  0.50400001928E-02 0. -1.
</event>
<event>
 5   0  0.9483073E-05  0.2138839E+04  0.7818609E-02  0.8544325E-01
       -2   -1    0    0    0  501  0.00000000000E+00  0.00000000000E+00  0.48805564505E+03  0.48805564505E+03  0.25500000920E-02 0. -1.
        2   -1    0    0  501    0  0.00000000000E+00  0.00000000000E+00 -0.23432943409E+04  0.23432943409E+04  0.25500000920E-02 0.  1.
    10030    2    1    2    0    0  0.00000000000E+00  0.00000000000E+00 -0.18552386958E+04  0.28313499859E+04  0.21388389664E+04 0.  0.
        5    1    3    3  502    0  0.16012974061E+03  0.73389700221E+03  0.80010016550E+02  0.75542705566E+03  0.46999998093E+01 0. -1.
       -5    1    3    3    0  502 -0.16012974061E+03 -0.73389700221E+03 -0.19352487124E+04  0.20759229303E+04  0.46999998093E+01 0.  1.
</event>
<event>
 5   0  0.9641157E-05  0.1518937E+04  0.7818609E-02  0.8871957E-01
       -2   -1    0    0    0  501  0.00000000000E+00  0.00000000000E+00  0.32443634128E+03  0.32443634129E+03  0.25500000920E-02 0. -1.
        2   -1    0    0  501    0  0.00000000000E+00  0.00000000000E+00 -0.17778292664E+04  0.17778292664E+04  0.25500000920E-02 0.  1.
    10030    2    1    2    0    0  0.00000000000E+00  0.00000000000E+00 -0.14533929251E+04  0.21022656077E+04  0.15189370265E+04 0.  0.
        3    1    3    3  502    0  0.42121737088E+03 -0.14633035718E+03  0.12418351442E+03  0.46288033272E+03  0.10100000352E+00 0. -1.
       -3    1    3    3    0  502 -0.42121737088E+03  0.14633035718E+03 -0.15775764395E+04  0.16393852749E+04  0.10100000352E+00 0.  1.
</event>
<event>
 5   0  0.9313463E-05  0.2261800E+04  0.7818609E-02  0.8493137E-01
        2   -1    0    0  501    0  0.00000000000E+00  0.00000000000E+00  0.18885779369E+04  0.18885779369E+04  0.25500000920E-02 0. -1.
       -2   -1    0    0    0  501  0.00000000000E+00  0.00000000000E+00 -0.67719485549E+03  0.67719485550E+03  0.25500000920E-02 0.  1.
    10030    2    1    2    0    0  0.00000000000E+00  0.00000000000E+00  0.12113830814E+04  0.25657727924E+04  0.22618004006E+04 0.  0.
        1    1    3    3  502    0  0.10005782299E+04 -0.47464114223E+03  0.34578344505E+03  0.11601755035E+04  0.50400001928E-02 0. -1.
       -1    1    3    3    0  502 -0.10005782299E+04  0.47464114223E+03  0.86559963633E+03  0.14055972889E+04  0.50400001928E-02 0.  1.
</event>
<event>
 5   0  0.3885219E-05  0.2294602E+04  0.7818609E-02  0.8480052E-01
        1   -1    0    0  501    0  0.00000000000E+00  0.00000000000E+00  0.13946696493E+04  0.13946696493E+04  0.50400001928E-02 0.  1.
       -1   -1    0    0    0  501  0.00000000000E+00  0.00000000000E+00 -0.94380779233E+03  0.94380779234E+03  0.50400001928E-02 0. -1.
    10030    2    1    2    0    0  0.00000000000E+00  0.00000000000E+00  0.45086185697E+03  0.23384774417E+04  0.22946024342E+04 0.  0.
        2    1    3    3  502    0 -0.57939696989E+03  0.87874150205E+03 -0.23982051313E+03  0.10795375652E+04  0.25500000920E-02 0. -1.
       -2    1    3    3    0  502  0.57939696989E+03 -0.87874150205E+03  0.69068237011E+03  0.12589398765E+04  0.25500000920E-02 0.  1.
</event>
<event>
 5   0  0.4139830E-05  0.2289989E+04  0.7818609E-02  0.8481879E-01
       -1   -1    0    0    0  501  0.00000000000E+00  0.00000000000E+00  0.11331434252E+04  0.11331434252E+04  0.50400001928E-02 0.  1.
        1   -1    0    0  501    0  0.00000000000E+00  0.00000000000E+00 -0.11569691811E+04  0.11569691811E+04  0.50400001928E-02 0. -1.
    10030    2    1    2    0    0  0.00000000000E+00  0.00000000000E+00 -0.23825755905E+02  0.22901126063E+04  0.22899886644E+04 0.  0.
        1    1    3    3  502    0 -0.55008488475E+03 -0.87578315451E+03  0.47946135875E+03  0.11399441691E+04  0.50400001928E-02 0.  1.
       -1    1    3    3    0  502  0.55008488475E+03  0.87578315451E+03 -0.50328711465E+03  0.11501684372E+04  0.50400001928E-02 0. -1.
</event>
<event>
 5   0  0.9483073E-05  0.2333206E+04  0.7818609E-02  0.8464942E-01
       -2   -1    0    0    0  501  0.00000000000E+00  0.00000000000E+00  0.14654398598E+04  0.14654398599E+04  0.25500000920E-02 0. -1.
        2   -1    0    0  501    0  0.00000000000E+00  0.00000000000E+00 -0.92870591877E+03  0.92870591877E+03  0.25500000920E-02 0.  1.
    10030    2    1    2    0    0  0.00000000000E+00  0.00000000000E+00  0.53673394108E+03  0.23941457786E+04  0.23332060959E+04 0.  0.
        5    1    3    3  502    0 -0.10309394140E+04  0.10626206732E+03  0.81790381171E+03  0.13202713500E+04  0.46999998093E+01 0. -1.
       -5    1    3    3    0  502  0.10309394140E+04 -0.10626206732E+03 -0.28116987063E+03  0.10738744286E+04  0.46999998093E+01 0.  1.
</event>
<event>
 5   0  0.4095451E-05  0.2387999E+04  0.7818609E-02  0.8444010E-01
       -1   -1    0    0    0  501  0.00000000000E+00  0.00000000000E+00  0.14673356054E+04  0.14673356054E+04  0.50400001928E-02 0.  1.
        1   -1    0    0  501    0  0.00000000000E+00  0.00000000000E+00 -0.97158068764E+03  0.97158068765E+03  0.50400001928E-02 0. -1.
    10030    2    1    2    0    0  0.00000000000E+00  0.00000000000E+00  0.49575491779E+03  0.24389162931E+04  0.23879991093E+04 0.  0.
        3    1    3    3  502    0 -0.14807033443E+03 -0.11847736745E+04  0.24314811948E+03  0.12184968207E+04  0.10100000352E+00 0.  1.
       -3    1    3    3    0  502  0.14807033443E+03  0.11847736745E+04  0.25260679831E+03  0.12204194724E+04  0.10100000352E+00 0. -1.
</event>
<event>
 5   0  0.4005462E-05  0.2030135E+04  0.7818609E-02  0.8592660E-01
        1   -1    0    0  501    0  0.00000000000E+00  0.00000000000E+00  0.82344973362E+03  0.82344973364E+03  0.50400001928E-02 0.  1.
       -1   -1    0    0    0  501  0.00000000000E+00  0.00000000000E+00 -0.12512752488E+04  0.12512752489E+04  0.50400001928E-02 0. -1.
    10030    2    1    2    0    0  0.00000000000E+00  0.00000000000E+00 -0.42782551522E+03  0.20747249825E+04  0.20301352372E+04 0.  0.
        4    1    3    3  502    0  0.34544644286E+03  0.28290930943E+03  0.71769564442E+03  0.84525710477E+03  0.12699999809E+01 0.  1.
       -4    1    3    3    0  502 -0.34544644286E+03 -0.28290930943E+03 -0.11455211596E+04  0.12294678777E+04  0.12699999809E+01 0. -1.
</event>
<event>
 5   0  0.9483073E-05  0.2321085E+04  0.7818609E-02  0.8469654E-01
       -2   -1    0    0    0  501  0.00000000000E+00  0.00000000000E+00  0.84150236493E+03  0.84150236494E+03  0.25500000920E-02 0.  1.
        2   -1    0    0  501    0  0.00000000000E+00  0.00000000000E+00 -0.16005403708E+04  0.16005403708E+04  0.25500000920E-02 0. -1.
    10030    2    1    2    0    0  0.00000000000E+00  0.00000000000E+00 -0.75903800589E+03  0.24420427358E+04  0.23210846665E+04 0.  0.
        5    1    3    3  502    0  0.10054621936E+04  0.55181922180E+03 -0.19315024392E+03  0.11630940560E+04  0.46999998093E+01 0.  1.
       -5    1    3    3    0  502 -0.10054621936E+04 -0.55181922180E+03 -0.56588776197E+03  0.12789486798E+04  0.46999998093E+01 0. -1.
</event>
<event>
 5   0  0.4295775E-05  0.1859025E+04  0.7818609E-02  0.8675525E-01
       -1   -1    0    0    0  501  0.00000000000E+00  0.00000000000E+00  0.10462787446E+04  0.10462787446E+04  0.50400001928E-02 0.  1.
        1   -1    0    0  501    0  0.00000000000E+00  0.00000000000E+00 -0.82577745880E+03  0.82577745881E+03  0.50400001928E-02 0. -1.
    10030    2    1    2    0    0  0.00000000000E+00  0.00000000000E+00  0.22050128581E+03  0.18720562034E+04  0.18590249089E+04 0.  0.
        5    1    3    3  502    0  0.77268955052E+03 -0.60238417063E+02  0.62696882886E+03  0.99689006953E+03  0.46999998093E+01 0.  1.
       -5    1    3    3    0  502 -0.77268955052E+03  0.60238417063E+02 -0.40646754305E+03  0.87516613390E+03  0.46999998093E+01 0. -1.
</event>
<event>
 5   0  0.9483073E-05  0.2331862E+04  0.7818609E-02  0.8465463E-01
        2   -1    0    0  501    0  0.00000000000E+00  0.00000000000E+00  0.20507329527E+04  0.20507329527E+04  0.25500000920E-02 0.  1.
       -2   -1    0    0    0  501  0.00000000000E+00  0.00000000000E+00 -0.66288231096E+03  0.66288231096E+03  0.25500000920E-02 0. -1.
    10030    2    1    2    0    0  0.00000000000E+00  0.00000000000E+00  0.13878506417E+04  0.27136152637E+04  0.23318615729E+04 0.  0.
        5    1    3    3  502    0  0.10215477261E+04 -0.44522285978E+03  0.10929773430E+04  0.15608986879E+04  0.46999998093E+01 0.  1.
       -5    1    3    3    0  502 -0.10215477261E+04  0.44522285978E+03  0.29487329875E+03  0.11527165757E+04  0.46999998093E+01 0. -1.
</event>
<event>
 5   0  0.9312074E-05  0.2343482E+04  0.7818609E-02  0.8460971E-01
        2   -1    0    0  501    0  0.00000000000E+00  0.00000000000E+00  0.15483592978E+04  0.15483592978E+04  0.25500000920E-02 0. -1.
       -2   -1    0    0    0  501  0.00000000000E+00  0.00000000000E+00 -0.88673034262E+03  0.88673034262E+03  0.25500000920E-02 0.  1.
    10030    2    1    2    0    0  0.00000000000E+00  0.00000000000E+00  0.66162895521E+03  0.24350896404E+04  0.23434821703E+04 0.  0.
        4    1    3    3  502    0 -0.73684826718E+03  0.42441616968E+03  0.11684921440E+04  0.14451470366E+04  0.12699999809E+01 0. -1.
       -4    1    3    3    0  502  0.73684826718E+03 -0.42441616968E+03 -0.50686318876E+03  0.98994260386E+03  0.12699999809E+01 0.  1.
</event>
<event>
 5   0  0.9313463E-05  0.2309831E+04  0.7818609E-02  0.8474055E-01
       -2   -1    0    0    0  501  0.00000000000E+00  0.00000000000E+00  0.83314570453E+03  0.83314570453E+03  0.25500000920E-02 0. -1.
        2   -1    0    0  501    0  0.00000000000E+00  0.00000000000E+00 -0.16009557439E+04  0.16009557439E+04  0.25500000920E-02 0.  1.
    10030    2    1    2    0    0  0.00000000000E+00  0.00000000000E+00 -0.76781003933E+03  0.24341014484E+04  0.23098306441E+04 0.  0.
        1    1    3    3  502    0 -0.10040509992E+04  0.42742647082E+03  0.14617883399E+02  0.10913411380E+04  0.50400001928E-02 0. -1.
       -1    1    3    3    0  502  0.10040509992E+04 -0.42742647082E+03 -0.78242792273E+03  0.13427603104E+04  0.50400001928E-02 0.  1.
</event>
<event>
 5   0  0.9313463E-05  0.2105902E+04  0.7818609E-02  0.8558648E-01
        2   -1    0    0  501    0  0.00000000000E+00  0.00000000000E+00  0.19461953456E+04  0.19461953456E+04  0.25500000920E-02 0. -1.
       -2   -1    0    0    0  501  0.00000000000E+00  0.00000000000E+00 -0.56967873337E+03  0.56967873338E+03  0.25500000920E-02 0.  1.
    10030    2    1    2    0    0  0.00000000000E+00  0.00000000000E+00  0.13765166122E+04  0.25158740789E+04  0.21059022763E+04 0.  0.
        1    1    3    3  502    0 -0.82396575616E+01  0.85052663206E+03 -0.53253159199E+02  0.85223197710E+03  0.50400001928E-02 0.  1.
       -1    1    3    3    0  502  0.82396575616E+01 -0.85052663206E+03  0.14297697714E+04  0.16636421018E+04  0.50400001928E-02 0. -1.
</event>
<event>
 5   0  0.3885219E-05  0.2265676E+04  0.7818609E-02  0.8491579E-01
       -1   -1    0    0    0  501  0.00000000000E+00  0.00000000000E+00  0.12875037733E+04  0.12875037733E+04  0.50400001928E-02 0.  1.
        1   -1    0    0  501    0  0.00000000000E+00  0.00000000000E+00 -0.99675227980E+03  0.99675227982E+03  0.50400001928E-02 0. -1.
    10030    2    1    2    0    0  0.00000000000E+00  0.00000000000E+00  0.29075149348E+03  0.22842560531E+04  0.22656763417E+04 0.  0.
        2    1    3    3  502    0  0.15792673019E+03 -0.10911482150E+03  0.12709879036E+04  0.12854015511E+04  0.25500000920E-02 0.  1.
       -2    1    3    3    0  502 -0.15792673019E+03  0.10911482150E+03 -0.98023641016E+03  0.99885450201E+03  0.25500000920E-02 0. -1.
</event>
<event>
 5   0  0.9313463E-05  0.2289205E+04  0.7818609E-02  0.8482189E-01
        2   -1    0    0  501    0  0.00000000000E+00  0.00000000000E+00  0.98015768077E+03  0.98015768077E+03  0.25500000920E-02 0.  1.
       -2   -1    0    0    0  501  0.00000000000E+00  0.00000000000E+00 -0.13366372018E+04  0.13366372018E+04  0.25500000920E-02 0. -1.
    10030    2    1    2    0    0  0.00000000000E+00  0.00000000000E+00 -0.35647952107E+03  0.23167948826E+04  0.22892052942E+04 0.  0.
        1    1    3    3  502    0 -0.58907360446E+03 -0.94956729804E+03  0.72596994603E+02  0.11198018077E+04  0.50400001928E-02 0.  1.
       -1    1    3    3    0  502  0.58907360446E+03  0.94956729804E+03 -0.42907651567E+03  0.11969930749E+04  0.50400001928E-02 0. -1.
</event>
<event>
 5   0  0.4295775E-05  0.1525477E+04  0.7818609E-02  0.8867686E-01
       -1   -1    0    0    0  501  0.00000000000E+00  0.00000000000E+00  0.67703694602E+03  0.67703694604E+03  0.50400001928E-02 0. -1.
        1   -1    0    0  501    0  0.00000000000E+00  0.00000000000E+00 -0.85928826458E+03  0.85928826459E+03  0.50400001928E-02 0.  1.
    10030    2    1    2    0    0  0.00000000000E+00  0.00000000000E+00 -0.18225131856E+03  0.15363252106E+04  0.15254768467E+04 0.  0.
        5    1    3    3  502    0 -0.63388787923E+03  0.40787783924E+03 -0.20844285031E+03  0.78207971909E+03  0.46999998093E+01 0. -1.
       -5    1    3    3    0  502  0.63388787923E+03 -0.40787783924E+03  0.26191531749E+02  0.75424549154E+03  0.46999998093E+01 0.  1.
</event>
<event>
 5   0  0.4095451E-05  0.2156465E+04  0.7818609E-02  0.8536770E-01
       -1   -1    0    0    0  501  0.00000000000E+00  0.00000000000E+00  0.86237384865E+03  0.86237384867E+03  0.50400001928E-02 0.  1.
        1   -1    0    0  501    0  0.00000000000E+00  0.00000000000E+00 -0.13481223060E+04  0.13481223060E+04  0.50400001928E-02 0. -1.
    10030    2    1    2    0    0  0.00000000000E+00  0.00000000000E+00 -0.48574845734E+03  0.22104961547E+04  0.21564650904E+04 0.  0.
        3    1    3    3  502    0  0.73460154823E+03 -0.74616652180E+03  0.20829110758E+02  0.10473002315E+04  0.10100000352E+00 0.  1.
       -3    1    3    3    0  502 -0.73460154823E+03  0.74616652180E+03 -0.50657756810E+03  0.11631959231E+04  0.10100000352E+00 0. -1.
</event>
<event>
 5   0  0.9312074E-05  0.2034702E+04  0.7818609E-02  0.8590566E-01
        2   -1    0    0  501    0  0.00000000000E+00  0.00000000000E+00  0.80932267891E+03  0.80932267891E+03  0.25500000920E-02 0. -1.
       -2   -1    0    0    0  501  0.00000000000E+00  0.00000000000E+00 -0.12788510519E+04  0.12788510519E+04  0.25500000920E-02 0.  1.
    10030    2    1    2    0    0  0.00000000000E+00  0.00000000000E+00 -0.46952837298E+03  0.20881737308E+04  0.20347021003E+04 0.  0.
        4    1    3    3  502    0 -0.50101077668E+03  0.54241506200E+03 -0.95299558802E+03  0.12055820592E+04  0.12699999809E+01 0.  1.
       -4    1    3    3    0  502  0.50101077668E+03 -0.54241506200E+03  0.48346721504E+03  0.88259167159E+03  0.12699999809E+01 0. -1.
</event>
<event>
 5   0  0.4005462E-05  0.2539934E+04  0.7818609E-02  0.8388895E-01
        1   -1    0    0  501    0  0.00000000000E+00  0.00000000000E+00  0.74141502725E+03  0.74141502727E+03  0.50400001928E-02 0. -1.
       -1   -1    0    0    0  501  0.00000000000E+00  0.00000000000E+00 -0.21753213348E+04  0.21753213348E+04  0.50400001928E-02 0.  1.
    10030    2    1    2    0    0  0.00000000000E+00  0.00000000000E+00 -0.14339063075E+04  0.29167363620E+04  0.25399337997E+04 0.  0.
        4    1    3    3  502    0  0.36549279437E+03  0.91729029683E+03 -0.16340595153E+04  0.19092298405E+04  0.12699999809E+01 0.  1.
       -4    1    3    3    0  502 -0.36549279437E+03 -0.91729029683E+03  0.20015320783E+03  0.10075065215E+04  0.12699999809E+01 0. -1.
</event>
<event>
 5   0  0.9641157E-05  0.1706763E+04  0.7818609E-02  0.8757516E-01
       -2   -1    0    0    0  501  0.00000000000E+00  0.00000000000E+00  0.95050565959E+03  0.95050565959E+03  0.25500000920E-02 0. -1.
        2   -1    0    0  501    0  0.00000000000E+00  0.00000000000E+00 -0.76618198034E+03  0.76618198034E+03  0.25500000920E-02 0.  1.
    10030    2    1    2    0    0  0.00000000000E+00  0.00000000000E+00  0.18432367925E+03  0.17166876399E+04  0.17067633797E+04 0.  0.
        3    1    3    3  502    0  0.42096667906E+03 -0.19315705760E+03  0.81308451323E+03  0.93575051677E+03  0.10100000352E+00 0. -1.
       -3    1    3    3    0  502 -0.42096667906E+03  0.19315705760E+03 -0.62876083399E+03  0.78093712316E+03  0.10100000352E+00 0.  1.
</event>
<event>
 5   0  0.9641157E-05  0.2164487E+04  0.7818609E-02  0.8533357E-01
       -2   -1    0    0    0  501  0.00000000000E+00  0.00000000000E+00  0.78430406418E+03  0.78430406419E+03  0.25500000920E-02 0.  1.
        2   -1    0    0  501    0  0.00000000000E+00  0.00000000000E+00 -0.14933630388E+04  0.14933630388E+04  0.25500000920E-02 0. -1.
    10030    2    1    2    0    0  0.00000000000E+00  0.00000000000E+00 -0.70905897464E+03  0.22776671030E+04  0.21644867296E+04 0.  0.
        3    1    3    3  502    0  0.38692153474E+03 -0.99593438196E+03 -0.53574686126E+03  0.11952482072E+04  0.10100000352E+00 0. -1.
       -3    1    3    3    0  502 -0.38692153474E+03  0.99593438196E+03 -0.17331211338E+03  0.10824188958E+04  0.10100000352E+00 0.  1.
</event>
<event>
 5   0  0.9641157E-05  0.2148935E+04  0.7818609E-02  0.8539988E-01
        2   -1    0    0  501    0  0.00000000000E+00  0.00000000000E+00  0.98922257327E+03  0.98922257328E+03  0.25500000920E-02 0. -1.
       -2   -1    0    0    0  501  0.00000000000E+00  0.00000000000E+00 -0.11670587520E+04  0.11670587520E+04  0.25500000920E-02 0.  1.
    10030    2    1    2    0    0  0.00000000000E+00  0.00000000000E+00 -0.17783617871E+03  0.21562813253E+04  0.21489354218E+04 0.  0.
        3    1    3    3  502    0 -0.75573081040E+03  0.36577257973E+03 -0.76170410787E+03  0.11336277149E+04  0.10100000352E+00 0.  1.
       -3    1    3    3    0  502  0.75573081040E+03 -0.36577257973E+03  0.58386792916E+03  0.10226536104E+04  0.10100000352E+00 0. -1.
</event>
<event>
 5   0  0.3885219E-05  0.2101817E+04  0.7818609E-02  0.8560443E-01
        1   -1    0    0  501    0  0.00000000000E+00  0.00000000000E+00  0.22246318676E+04  0.22246318676E+04  0.50400001928E-02 0. -1.
       -1   -1    0    0    0  501  0.00000000000E+00  0.00000000000E+00 -0.49644547995E+03  0.49644547998E+03  0.50400001928E-02 0.  1.
    10030    2    1    2    0    0  0.00000000000E+00  0.00000000000E+00  0.17281863877E+04  0.27210773476E+04  0.21018167715E+04 0.  0.
        2    1    3    3  502    0 -0.53514909052E+03  0.79104575950E+03  0.29641481548E+03  0.99999984278E+03  0.25500000920E-02 0.  1.
       -2    1    3    3    0  502  0.53514909052E+03 -0.79104575950E+03  0.14317715722E+04  0.17210775048E+04  0.25500000920E-02 0. -1.
</event>
<event>
 5   0  0.9483073E-05  0.2322491E+04  0.7818609E-02  0.8469106E-01
        2   -1    0    0  501    0  0.00000000000E+00  0.00000000000E+00  0.13749070138E+04  0.13749070138E+04  0.25500000920E-02 0.  1.
       -2   -1    0    0    0  501  0.00000000000E+00  0.00000000000E+00 -0.98078732937E+03  0.98078732937E+03  0.25500000920E-02 0. -1.
    10030    2    1    2    0    0  0.00000000000E+00  0.00000000000E+00  0.39411968444E+03  0.23556943432E+04  0.23224912299E+04 0.  0.
        5    1    3    3  502    0 -0.67527673982E+03  0.83054312822E+03  0.65368330592E+03  0.12542426072E+04  0.46999998093E+01 0.  1.
       -5    1    3    3    0  502  0.67527673982E+03 -0.83054312822E+03 -0.25956362148E+03  0.11014517360E+04  0.46999998093E+01 0. -1.
</event>
<event>
 5   0  0.9483073E-05  0.2301934E+04  0.7818609E-02  0.8477159E-01
       -2   -1    0    0    0  501  0.00000000000E+00  0.00000000000E+00  0.10025515841E+04  0.10025515841E+04  0.25500000920E-02 0.  1.
        2   -1    0    0  501    0  0.00000000000E+00  0.00000000000E+00 -0.13213534192E+04  0.13213534192E+04  0.25500000920E-02 0. -1.
    10030    2    1    2    0    0  0.00000000000E+00  0.00000000000E+00 -0.31880183507E+03  0.23239050033E+04  0.23019339379E+04 0.  0.
        5    1    3    3  502    0  0.90849025167E+03  0.33386269426E+03 -0.78814870375E+03  0.12482064353E+04  0.46999998093E+01 0. -1.
       -5    1    3    3    0  502 -0.90849025167E+03 -0.33386269426E+03  0.46934686868E+03  0.10756985680E+04  0.46999998093E+01 0.  1.
</event>
<event>
 5   0  0.9312074E-05  0.2249371E+04  0.7818609E-02  0.8498155E-01
        2   -1    0    0  501    0  0.00000000000E+00  0.00000000000E+00  0.17136026348E+04  0.17136026348E+04  0.25500000920E-02 0. -1.
       -2   -1    0    0    0  501  0.00000000000E+00  0.00000000000E+00 -0.73816281033E+03  0.73816281033E+03  0.25500000920E-02 0.  1.
    10030    2    1    2    0    0  0.00000000000E+00  0.00000000000E+00  0.97543982444E+03  0.24517654451E+04  0.22493712336E+04 0.  0.
        4    1    3    3  502    0  0.91059576637E+02 -0.11111486091E+04  0.32614909776E+03  0.11616014483E+04  0.12699999809E+01 0. -1.
       -4    1    3    3    0  502 -0.91059576637E+02  0.11111486091E+04  0.64929072667E+03  0.12901639968E+04  0.12699999809E+01 0.  1.
</event>
<event>
 5   0  0.9312074E-05  0.2329760E+04  0.7818609E-02  0.8466279E-01
        2   -1    0    0  501    0  0.00000000000E+00  0.00000000000E+00  0.20298355374E+04  0.20298355374E+04  0.25500000920E-02 0.  1.
       -2   -1    0    0    0  501  0.00000000000E+00  0.00000000000E+00 -0.66850037760E+03  0.66850037761E+03  0.25500000920E-02 0. -1.
    10030    2    1    2    0    0  0.00000000000E+00  0.00000000000E+00  0.13613351598E+04  0.26983359150E+04  0.23297603510E+04 0.  0.
        4    1    3    3  502    0  0.76914971952E+03  0.61441643071E+03  0.14019644854E+04  0.17130688464E+04  0.12699999809E+01 0.  1.
       -4    1    3    3    0  502 -0.76914971952E+03 -0.61441643071E+03 -0.40629325645E+02  0.98526706855E+03  0.12699999809E+01 0. -1.
</event>
<event>
 5   0  0.3885219E-05  0.2079856E+04  0.7818609E-02  0.8570169E-01
        1   -1    0    0  501    0  0.00000000000E+00  0.00000000000E+00  0.17009779524E+04  0.17009779524E+04  0.50400001928E-02 0.  1.
       -1   -1    0    0    0  501  0.00000000000E+00  0.00000000000E+00 -0.63578117431E+03  0.63578117433E+03  0.50400001928E-02 0. -1.
    10030    2    1    2    0    0  0.00000000000E+00  0.00000000000E+00  0.10651967781E+04  0.23367591267E+04  0.20798555335E+04 0.  0.
        2    1    3    3  502    0  0.39003011067E+02 -0.44907582083E+03  0.15855106645E+04  0.16483429240E+04  0.25500000920E-02 0.  1.
       -2    1    3    3    0  502 -0.39003011067E+02  0.44907582083E+03 -0.52031388646E+03  0.68841620273E+03  0.25500000920E-02 0. -1.
</event>
<event>
 5   0  0.9641157E-05  0.2282041E+04  0.7818609E-02  0.8485036E-01
        2   -1    0    0  501    0  0.00000000000E+00  0.00000000000E+00  0.15910003410E+04  0.15910003410E+04  0.25500000920E-02 0.  1.
       -2   -1    0    0    0  501  0.00000000000E+00  0.00000000000E+00 -0.81830739104E+03  0.81830739104E+03  0.25500000920E-02 0. -1.
    10030    2    1    2    0    0  0.00000000000E+00  0.00000000000E+00  0.77269294996E+03  0.24093077320E+04  0.22820406115E+04 0.  0.
        3    1    3    3  502    0  0.20736926214E+03 -0.11143572673E+04  0.52454013592E+03  0.12489741768E+04  0.10100000352E+00 0.  1.
       -3    1    3    3    0  502 -0.20736926214E+03  0.11143572673E+04  0.24815281404E+03  0.11603335552E+04  0.10100000352E+00 0. -1.
</event>
<event>
 5   0  0.4005462E-05  0.2235711E+04  0.7818609E-02  0.8503710E-01
       -1   -1    0    0    0  501  0.00000000000E+00  0.00000000000E+00  0.97945390433E+03  0.97945390435E+03  0.50400001928E-02 0.  1.
        1   -1    0    0  501    0  0.00000000000E+00  0.00000000000E+00 -0.12758138527E+04  0.12758138527E+04  0.50400001928E-02 0. -1.
    10030    2    1    2    0    0  0.00000000000E+00  0.00000000000E+00 -0.29635994839E+03  0.22552677571E+04  0.22357109467E+04 0.  0.
        4    1    3    3  502    0 -0.45321488890E+03 -0.33386133067E+03  0.82604873759E+03  0.99961255165E+03  0.12699999809E+01 0.  1.
       -4    1    3    3    0  502  0.45321488890E+03  0.33386133067E+03 -0.11224086860E+04  0.12556552054E+04  0.12699999809E+01 0. -1.
</event>
<event>
 5   0  0.9313463E-05  0.2174898E+04  0.7818609E-02  0.8528949E-01
        2   -1    0    0  501    0  0.00000000000E+00  0.00000000000E+00  0.10819238113E+04  0.10819238113E+04  0.25500000920E-02 0.  1.
       -2   -1    0    0    0  501  0.00000000000E+00  0.00000000000E+00 -0.10930028379E+04  0.10930028379E+04  0.25500000920E-02 0. -1.
    10030    2    1    2    0    0  0.00000000000E+00  0.00000000000E+00 -0.11079026677E+02  0.21749266492E+04  0.21748984309E+04 0.  0.
        1    1    3    3  502    0 -0.29757986943E+03  0.83634404856E+03 -0.63365645100E+03  0.10906629379E+04  0.50400001928E-02 0. -1.
       -1    1    3    3    0  502  0.29757986943E+03 -0.83634404856E+03  0.62257742433E+03  0.10842637113E+04  0.50400001928E-02 0.  1.
</event>
<event>
 5   0  0.9535394E-05  0.2223148E+04  0.7818609E-02  0.8508855E-01
        2   -1    0    0  501    0  0.00000000000E+00  0.00000000000E+00  0.14393855673E+04  0.14393855673E+04  0.25500000920E-02 0.  1.
       -2   -1    0    0    0  501  0.00000000000E+00  0.00000000000E+00 -0.85841993076E+03  0.85841993076E+03  0.25500000920E-02 0. -1.
    10030    2    1    2    0    0  0.00000000000E+00  0.00000000000E+00  0.58096563656E+03  0.22978054981E+04  0.22231484512E+04 0.  0.
        2    1    3    3  502    0  0.32090697889E+03 -0.11200723213E+03  0.13843571989E+04  0.14254724702E+04  0.25500000920E-02 0.  1.
       -2    1    3    3    0  502 -0.32090697889E+03  0.11200723213E+03 -0.80339156232E+03  0.87233302790E+03  0.25500000920E-02 0. -1.
</event>
<event>
 5   0  0.4005462E-05  0.2267920E+04  0.7818609E-02  0.8490678E-01
       -1   -1    0    0    0  501  0.00000000000E+00  0.00000000000E+00  0.11353587893E+04  0.11353587893E+04  0.50400001928E-02 0. -1.
        1   -1    0    0  501    0  0.00000000000E+00  0.00000000000E+00 -0.11325631546E+04  0.11325631546E+04  0.50400001928E-02 0.  1.
    10030    2    1    2    0    0  0.00000000000E+00  0.00000000000E+00  0.27956347063E+01  0.22679219439E+04  0.22679202208E+04 0.  0.
        4    1    3    3  502    0  0.13034724840E+01  0.10230536641E+04 -0.48770726740E+03  0.11333580592E+04  0.12699999809E+01 0.  1.
       -4    1    3    3    0  502 -0.13034724840E+01 -0.10230536641E+04  0.49050290211E+03  0.11345638847E+04  0.12699999809E+01 0. -1.
</event>
<event>
 5   0  0.3885219E-05  0.2319079E+04  0.7818609E-02  0.8470436E-01
        1   -1    0    0  501    0  0.00000000000E+00  0.00000000000E+00  0.64172439043E+03  0.64172439045E+03  0.50400001928E-02 0. -1.
       -1   -1    0    0    0  501  0.00000000000E+00  0.00000000000E+00 -0.20951866147E+04  0.20951866147E+04  0.50400001928E-02 0.  1.
    10030    2    1    2    0    0  0.00000000000E+00  0.00000000000E+00 -0.14534622243E+04  0.27369110052E+04  0.23190794322E+04 0.  0.
        2    1    3    3  502    0 -0.86498887801E+03  0.59894637613E+03 -0.13019842251E+04  0.16739490563E+04  0.25500000920E-02 0. -1.
       -2    1    3    3    0  502  0.86498887801E+03 -0.59894637613E+03 -0.15147799919E+03  0.10629619489E+04  0.25500000920E-02 0.  1.
</event>
<event>
 5   0  0.9312074E-05  0.2291162E+04  0.7818609E-02  0.8481414E-01
       -2   -1    0    0    0  501  0.00000000000E+00  0.00000000000E+00  0.12043466866E+04  0.12043466866E+04  0.25500000920E-02 0. -1.
        2   -1    0    0  501    0  0.00000000000E+00  0.00000000000E+00 -0.10896828308E+04  0.10896828308E+04  0.25500000920E-02 0.  1.
    10030    2    1    2    0    0  0.00000000000E+00  0.00000000000E+00  0.11466385572E+03  0.22940295174E+04  0.22911620691E+04 0.  0.
        4    1    3    3  502    0 -0.39935306591E+02 -0.18066124247E+03 -0.10746231000E+04  0.10904355704E+04  0.12699999809E+01 0.  1.
       -4    1    3    3    0  502  0.39935306591E+02  0.18066124247E+03  0.11892869557E+04  0.12035939470E+04  0.12699999809E+01 0. -1.
</event>
<event>
 5   0  0.9312074E-05  0.2309456E+04  0.7818609E-02  0.8474202E-01
        2   -1    0    0  501    0  0.00000000000E+00  0.00000000000E+00  0.22544855739E+04  0.22544855739E+04  0.25500000920E-02 0.  1.
       -2   -1    0    0    0  501  0.00000000000E+00  0.00000000000E+00 -0.59144173824E+03  0.59144173825E+03  0.25500000920E-02 0. -1.
    10030    2    1    2    0    0  0.00000000000E+00  0.00000000000E+00  0.16630438356E+04  0.28459273121E+04  0.23094560976E+04 0.  0.
        4    1    3    3  502    0 -0.69452477565E+03  0.45007769494E+03  0.18238514337E+04  0.20028405479E+04  0.12699999809E+01 0.  1.
       -4    1    3    3    0  502  0.69452477565E+03 -0.45007769494E+03 -0.16080759804E+03  0.84308676419E+03  0.12699999809E+01 0. -1.
</event>
<event>
 5   0  0.4005462E-05  0.2323663E+04  0.7818609E-02  0.8468649E-01
       -1   -1    0    0    0  501  0.00000000000E+00  0.00000000000E+00  0.90236664990E+03  0.90236664991E+03  0.50400001928E-02 0. -1.
        1   -1    0    0  501    0  0.00000000000E+00  0.00000000000E+00 -0.14959018989E+04  0.14959018989E+04  0.50400001928E-02 0.  1.
    10030    2    1    2    0    0  0.00000000000E+00  0.00000000000E+00 -0.59353524902E+03  0.23982685488E+04  0.23236626133E+04 0.  0.
        4    1    3    3  502    0  0.96602903736E+03  0.58782606486E+03 -0.21562927115E+02  0.11310252677E+04  0.12699999809E+01 0. -1.
       -4    1    3    3    0  502 -0.96602903736E+03 -0.58782606486E+03 -0.57197232191E+03  0.12672432811E+04  0.12699999809E+01 0.  1.
</event>
<event>
 5   0  0.3885219E-05  0.2319591E+04  0.7818609E-02  0.8470236E-01
        1   -1    0    0  501    0  0.00000000000E+00  0.00000000000E+00  0.10746831119E+04  0.10746831119E+04  0.50400001928E-02 0.  1.
       -1   -1    0    0    0  501  0.00000000000E+00  0.00000000000E+00 -0.12516491271E+04  0.12516491271E+04  0.50400001928E-02 0. -1.
    10030    2    1    2    0    0  0.00000000000E+00  0.00000000000E+00 -0.17696601523E+03  0.23263322390E+04  0.23195914976E+04 0.  0.
        2    1    3    3  502    0  0.28787759651E+03  0.87798079986E+03 -0.79152110582E+03  0.12166468084E+04  0.25500000920E-02 0. -1.
       -2    1    3    3    0  502 -0.28787759651E+03 -0.87798079986E+03  0.61455509060E+03  0.11096854306E+04  0.25500000920E-02 0.  1.
</event>
<event>
 5   0  0.9483073E-05  0.2275491E+04  0.7818609E-02  0.8487648E-01
       -2   -1    0    0    0  501  0.00000000000E+00  0.00000000000E+00  0.72868781143E+03  0.72868781143E+03  0.25500000920E-02 0. -1.
        2   -1    0    0  501    0  0.00000000000E+00  0.00000000000E+00 -0.17764321561E+04  0.17764321561E+04  0.25500000920E-02 0.  1.
    10030    2    1    2    0    0  0.00000000000E+00  0.00000000000E+00 -0.10477443446E+04  0.25051199675E+04  0.22754906811E+04 0.  0.
        5    1    3    3  502    0  0.10186871136E+04 -0.19879180280E+03 -0.10369510444E+04  0.14671506994E+04  0.46999998093E+01 0. -1.
       -5    1    3    3    0  502 -0.10186871136E+04  0.19879180280E+03 -0.10793300219E+02  0.10379692681E+04  0.46999998093E+01 0.  1.
</event>
<event>
 5   0  0.3261500E-05  0.2292882E+04  0.7818609E-02  0.8480733E-01
       -4   -1    0    0    0  501  0.00000000000E+00  0.00000000000E+00  0.13102558556E+04  0.13102564711E+04  0.12699999809E+01 0.  1.
        4   -1    0    0  501    0  0.00000000000E+00  0.00000000000E+00 -0.10031056197E+04  0.10031064236E+04  0.12699999809E+01 0. -1.
    10030    2    1    2    0    0  0.00000000000E+00  0.00000000000E+00  0.30715023600E+03  0.23133628947E+04  0.22928817273E+04 0.  0.
        4    1    3    3  502    0  0.27706941734E+03 -0.14361557916E+03  0.12665754491E+04  0.13044569283E+04  0.12699999809E+01 0.  1.
       -4    1    3    3    0  502 -0.27706941734E+03  0.14361557916E+03 -0.95942521313E+03  0.10089059664E+04  0.12699999809E+01 0. -1.
</event>
<event>
 5   0  0.4295775E-05  0.2278375E+04  0.7818609E-02  0.8486497E-01
        1   -1    0    0  501    0  0.00000000000E+00  0.00000000000E+00  0.15092285537E+04  0.15092285537E+04  0.50400001928E-02 0.  1.
       -1   -1    0    0    0  501  0.00000000000E+00  0.00000000000E+00 -0.85987489585E+03  0.85987489587E+03  0.50400001928E-02 0. -1.
    10030    2    1    2    0    0  0.00000000000E+00  0.00000000000E+00  0.64935365788E+03  0.23691034496E+04  0.22783746360E+04 0.  0.
        5    1    3    3  502    0  0.21220881651E+03  0.55619668868E+03  0.13346099739E+04  0.14613668981E+04  0.46999998093E+01 0.  1.
       -5    1    3    3    0  502 -0.21220881651E+03 -0.55619668868E+03 -0.68525631605E+03  0.90773655153E+03  0.46999998093E+01 0. -1.
</event>
<event>
 5   0  0.9535394E-05  0.2312129E+04  0.7818609E-02  0.8473154E-01
       -2   -1    0    0    0  501  0.00000000000E+00  0.00000000000E+00  0.73889492579E+03  0.73889492579E+03  0.25500000920E-02 0. -1.
        2   -1    0    0  501    0  0.00000000000E+00  0.00000000000E+00 -0.18087618952E+04  0.18087618952E+04  0.25500000920E-02 0.  1.
    10030    2    1    2    0    0  0.00000000000E+00  0.00000000000E+00 -0.10698669694E+04  0.25476568210E+04  0.23121288773E+04 0.  0.
        2    1    3    3  502    0  0.29839060637E+03  0.58638525158E+03 -0.15823443831E+04  0.17136797728E+04  0.25500000920E-02 0.  1.
       -2    1    3    3    0  502 -0.29839060637E+03 -0.58638525158E+03  0.51247741368E+03  0.83397704811E+03  0.25500000920E-02 0. -1.
</event>
<event>
 5   0  0.4005462E-05  0.2309905E+04  0.7818609E-02  0.8474026E-01
       -1   -1    0    0    0  501  0.00000000000E+00  0.00000000000E+00  0.22475718512E+04  0.22475718512E+04  0.50400001928E-02 0. -1.
        1   -1    0    0  501    0  0.00000000000E+00  0.00000000000E+00 -0.59349148201E+03  0.59349148203E+03  0.50400001928E-02 0.  1.
    10030    2    1    2    0    0  0.00000000000E+00  0.00000000000E+00  0.16540803692E+04  0.28410633333E+04  0.23099045426E+04 0.  0.
        4    1    3    3  502    0  0.97347115006E+02 -0.92718645444E+02 -0.58383440757E+03  0.59911387597E+03  0.12699999809E+01 0.  1.
       -4    1    3    3    0  502 -0.97347115006E+02  0.92718645444E+02  0.22379147768E+04  0.22419494573E+04  0.12699999809E+01 0. -1.
</event>
<event>
 5   0  0.9641157E-05  0.2295200E+04  0.7818609E-02  0.8479816E-01
        2   -1    0    0  501    0  0.00000000000E+00  0.00000000000E+00  0.16868732858E+04  0.16868732858E+04  0.25500000920E-02 0. -1.
       -2   -1    0    0    0  501  0.00000000000E+00  0.00000000000E+00 -0.78072595803E+03  0.78072595803E+03  0.25500000920E-02 0.  1.
    10030    2    1    2    0    0  0.00000000000E+00  0.00000000000E+00  0.90614732777E+03  0.24675992438E+04  0.22952000019E+04 0.  0.
        3    1    3    3  502    0  0.20033606020E+03 -0.19709358913E+03  0.16493054837E+04  0.16730777055E+04  0.10100000352E+00 0. -1.
       -3    1    3    3    0  502 -0.20033606020E+03  0.19709358913E+03 -0.74315815595E+03  0.79452153831E+03  0.10100000352E+00 0.  1.
</event>
<event>
 5   0  0.3261500E-05  0.2242565E+04  0.7818609E-02  0.8500918E-01
        4   -1    0    0  501    0  0.00000000000E+00  0.00000000000E+00  0.14284364458E+04  0.14284370104E+04  0.12699999809E+01 0.  1.
       -4   -1    0    0    0  501  0.00000000000E+00  0.00000000000E+00 -0.88017411433E+03  0.88017503057E+03  0.12699999809E+01 0. -1.
    10030    2    1    2    0    0  0.00000000000E+00  0.00000000000E+00  0.54826233148E+03  0.23086120409E+04  0.22425650429E+04 0.  0.
        5    1    3    3  502    0 -0.36932641157E+03 -0.54597395830E+03 -0.65964598586E+03  0.93254730608E+03  0.46999998093E+01 0. -1.
       -5    1    3    3    0  502  0.36932641157E+03  0.54597395830E+03  0.12079083173E+04  0.13760647349E+04  0.46999998093E+01 0.  1.
</event>
<event>
 5   0  0.9535394E-05  0.2268348E+04  0.7818609E-02  0.8490507E-01
       -2   -1    0    0    0  501  0.00000000000E+00  0.00000000000E+00  0.67310155624E+03  0.67310155624E+03  0.25500000920E-02 0.  1.
        2   -1    0    0  501    0  0.00000000000E+00  0.00000000000E+00 -0.19110797672E+04  0.19110797672E+04  0.25500000920E-02 0. -1.
    10030    2    1    2    0    0  0.00000000000E+00  0.00000000000E+00 -0.12379782110E+04  0.25841813235E+04  0.22683480909E+04 0.  0.
        2    1    3    3  502    0  0.15629549052E+03 -0.70782506971E+03  0.37476476208E+03  0.81602281620E+03  0.25500000920E-02 0.  1.
       -2    1    3    3    0  502 -0.15629549052E+03  0.70782506971E+03 -0.16127429731E+04  0.17681585073E+04  0.25500000920E-02 0. -1.
</event>
<event>
 5   0  0.4095451E-05  0.2261118E+04  0.7818609E-02  0.8493411E-01
       -1   -1    0    0    0  501  0.00000000000E+00  0.00000000000E+00  0.85696104919E+03  0.85696104921E+03  0.50400001928E-02 0. -1.
        1   -1    0    0  501    0  0.00000000000E+00  0.00000000000E+00 -0.14915077428E+04  0.14915077428E+04  0.50400001928E-02 0.  1.
    10030    2    1    2    0    0  0.00000000000E+00  0.00000000000E+00 -0.63454669364E+03  0.23484687921E+04  0.22611183430E+04 0.  0.
        3    1    3    3  502    0 -0.94545930113E+03  0.61488679773E+03 -0.23559063369E+03  0.11521640599E+04  0.10100000352E+00 0. -1.
       -3    1    3    3    0  502  0.94545930113E+03 -0.61488679773E+03 -0.39895605994E+03  0.11963047321E+04  0.10100000352E+00 0.  1.
</event>
<event>
 5   0  0.9535394E-05  0.2242181E+04  0.7818609E-02  0.8501074E-01
        2   -1    0    0  501    0  0.00000000000E+00  0.00000000000E+00  0.17969333492E+04  0.17969333492E+04  0.25500000920E-02 0. -1.
       -2   -1    0    0    0  501  0.00000000000E+00  0.00000000000E+00 -0.69943820156E+03  0.69943820156E+03  0.25500000920E-02 0.  1.
    10030    2    1    2    0    0  0.00000000000E+00  0.00000000000E+00  0.10974951477E+04  0.24963715508E+04  0.22421809295E+04 0.  0.
        2    1    3    3  502    0 -0.20229348423E+03 -0.10414959307E+04  0.95203783939E+03  0.14254867503E+04  0.25500000920E-02 0.  1.
       -2    1    3    3    0  502  0.20229348423E+03  0.10414959307E+04  0.14545730828E+03  0.10708848005E+04  0.25500000920E-02 0. -1.
</event>
<event>
 5   0  0.4295775E-05  0.2300253E+04  0.7818609E-02  0.8477822E-01
       -1   -1    0    0    0  501  0.00000000000E+00  0.00000000000E+00  0.47912650794E+03  0.47912650797E+03  0.50400001928E-02 0.  1.
        1   -1    0    0  501    0  0.00000000000E+00  0.00000000000E+00 -0.27608377146E+04  0.27608377147E+04  0.50400001928E-02 0. -1.
    10030    2    1    2    0    0  0.00000000000E+00  0.00000000000E+00 -0.22817112067E+04  0.32399642226E+04  0.23002526238E+04 0.  0.
        5    1    3    3  502    0  0.10460329872E+04  0.97586568959E+02 -0.18001001007E+04  0.20842482125E+04  0.46999998093E+01 0. -1.
       -5    1    3    3    0  502 -0.10460329872E+04 -0.97586568959E+02 -0.48161110598E+03  0.11557160101E+04  0.46999998093E+01 0.  1.
</event>
<event>
 5   0  0.4005462E-05  0.2277401E+04  0.7818609E-02  0.8486885E-01
       -1   -1    0    0    0  501  0.00000000000E+00  0.00000000000E+00  0.77811301429E+03  0.77811301431E+03  0.50400001928E-02 0. -1.
        1   -1    0    0  501    0  0.00000000000E+00  0.00000000000E+00 -0.16663895180E+04  0.16663895180E+04  0.50400001928E-02 0.  1.
    10030    2    1    2    0    0  0.00000000000E+00  0.00000000000E+00 -0.88827650372E+03  0.24445025323E+04  0.22774014761E+04 0.  0.
        4    1    3    3  502    0  0.33166138810E+03 -0.64512126082E+03  0.49802271504E+03  0.87989144508E+03  0.12699999809E+01 0. -1.
       -4    1    3    3    0  502 -0.33166138810E+03  0.64512126082E+03 -0.13862992188E+04  0.15646110873E+04  0.12699999809E+01 0.  1.
</event>
<event>
 5   0  0.9641157E-05  0.2254400E+04  0.7818609E-02  0.8496121E-01
        2   -1    0    0  501    0  0.00000000000E+00  0.00000000000E+00  0.12395963508E+04  0.12395963508E+04  0.25500000920E-02 0.  1.
       -2   -1    0    0    0  501  0.00000000000E+00  0.00000000000E+00 -0.10249952029E+04  0.10249952029E+04  0.25500000920E-02 0. -1.
    10030    2    1    2    0    0  0.00000000000E+00  0.00000000000E+00  0.21460114782E+03  0.22645915537E+04  0.22544004197E+04 0.  0.
        3    1    3    3  502    0 -0.77114318679E+03 -0.11936983371E+03  0.92440832304E+03  0.12097279569E+04  0.10100000352E+00 0.  1.
       -3    1    3    3    0  502  0.77114318679E+03  0.11936983371E+03 -0.70980717522E+03  0.10548635968E+04  0.10100000352E+00 0. -1.
</event>
<event>
 5   0  0.4095451E-05  0.2313053E+04  0.7818609E-02  0.8472792E-01
       -1   -1    0    0    0  501  0.00000000000E+00  0.00000000000E+00  0.11728114956E+04  0.11728114956E+04  0.50400001928E-02 0. -1.
        1   -1    0    0  501    0  0.00000000000E+00  0.00000000000E+00 -0.11404672407E+04  0.11404672407E+04  0.50400001928E-02 0.  1.
    10030    2    1    2    0    0  0.00000000000E+00  0.00000000000E+00  0.32344254946E+02  0.23132787363E+04  0.23130526066E+04 0.  0.
        3    1    3    3  502    0  0.98788286900E+03  0.38406030351E+03 -0.44662380144E+03  0.11501685571E+04  0.10100000352E+00 0.  1.
       -3    1    3    3    0  502 -0.98788286900E+03 -0.38406030351E+03  0.47896805638E+03  0.11631101791E+04  0.10100000352E+00 0. -1.
</event>
<event>
 5   0  0.3885219E-05  0.2302966E+04  0.7818609E-02  0.8476752E-01
        1   -1    0    0  501    0  0.00000000000E+00  0.00000000000E+00  0.16867880580E+04  0.16867880580E+04  0.50400001928E-02 0. -1.
       -1   -1    0    0    0  501  0.00000000000E+00  0.00000000000E+00 -0.78605817919E+03  0.78605817921E+03  0.50400001928E-02 0.  1.
    10030    2    1    2    0    0  0.00000000000E+00  0.00000000000E+00  0.90072987878E+03  0.24728462372E+04  0.23029663910E+04 0.  0.
        2    1    3    3  502    0 -0.55388352984E+03  0.25441169375E+03  0.14993638036E+04  0.16185191040E+04  0.25500000920E-02 0. -1.
       -2    1    3    3    0  502  0.55388352984E+03 -0.25441169375E+03 -0.59863392481E+03  0.85432713318E+03  0.25500000920E-02 0.  1.
</event>
<event>
 5   0  0.3885219E-05  0.2126234E+04  0.7818609E-02  0.8549774E-01
       -1   -1    0    0    0  501  0.00000000000E+00  0.00000000000E+00  0.13502704491E+04  0.13502704491E+04  0.50400001928E-02 0. -1.
        1   -1    0    0  501    0  0.00000000000E+00  0.00000000000E+00 -0.83703095153E+03  0.83703095155E+03  0.50400001928E-02 0.  1.
    10030    2    1    2    0    0  0.00000000000E+00  0.00000000000E+00  0.51323949756E+03  0.21873014006E+04  0.21262343792E+04 0.  0.
        2    1    3    3  502    0  0.52117842874E+03 -0.59891211797E+03  0.98395912486E+03  0.12643173016E+04  0.25500000920E-02 0. -1.
       -2    1    3    3    0  502 -0.52117842874E+03  0.59891211797E+03 -0.47071962729E+03  0.92298409908E+03  0.25500000920E-02 0.  1.
</event>
<event>
 5   0  0.9312074E-05  0.2010404E+04  0.7818609E-02  0.8601772E-01
       -2   -1    0    0    0  501  0.00000000000E+00  0.00000000000E+00  0.70085959220E+03  0.70085959220E+03  0.25500000920E-02 0. -1.
        2   -1    0    0  501    0  0.00000000000E+00  0.00000000000E+00 -0.14417021433E+04  0.14417021433E+04  0.25500000920E-02 0.  1.
    10030    2    1    2    0    0  0.00000000000E+00  0.00000000000E+00 -0.74084255108E+03  0.21425617355E+04  0.20104037169E+04 0.  0.
        4    1    3    3  502    0  0.76786826251E+03  0.58941470561E+03 -0.65915105959E+03  0.11711161753E+04  0.12699999809E+01 0. -1.
       -4    1    3    3    0  502 -0.76786826251E+03 -0.58941470561E+03 -0.81691491499E+02  0.97144556020E+03  0.12699999809E+01 0.  1.
</event>
<event>
 5   0  0.4139830E-05  0.2226005E+04  0.7818609E-02  0.8507682E-01
       -1   -1    0    0    0  501  0.00000000000E+00  0.00000000000E+00  0.63616116585E+03  0.63616116587E+03  0.50400001928E-02 0. -1.
        1   -1    0    0  501    0  0.00000000000E+00  0.00000000000E+00 -0.19472651006E+04  0.19472651006E+04  0.50400001928E-02 0.  1.
    10030    2    1    2    0    0  0.00000000000E+00  0.00000000000E+00 -0.13111039347E+04  0.25834262664E+04  0.22260048847E+04 0.  0.
        1    1    3    3  502    0 -0.54262463962E+03 -0.11973433804E+03  0.46365561618E+03  0.72370874091E+03  0.50400001928E-02 0. -1.
       -1    1    3    3    0  502  0.54262463962E+03  0.11973433804E+03 -0.17747595509E+04  0.18597175255E+04  0.50400001928E-02 0.  1.
</event>
<event>
 5   0  0.4139830E-05  0.2017140E+04  0.7818609E-02  0.8598649E-01
       -1   -1    0    0    0  501  0.00000000000E+00  0.00000000000E+00  0.63500340734E+03  0.63500340736E+03  0.50400001928E-02 0. -1.
        1   -1    0    0  501    0  0.00000000000E+00  0.00000000000E+00 -0.16019028313E+04  0.16019028313E+04  0.50400001928E-02 0.  1.
    10030    2    1    2    0    0  0.00000000000E+00  0.00000000000E+00 -0.96689942392E+03  0.22369062386E+04  0.20171403086E+04 0.  0.
        1    1    3    3  502    0  0.70197983702E+03 -0.35205528553E+03 -0.11852447579E+04  0.14218029933E+04  0.50400001928E-02 0.  1.
       -1    1    3    3    0  502 -0.70197983702E+03  0.35205528553E+03  0.21834533396E+03  0.81510324532E+03  0.50400001928E-02 0. -1.
</event>
<event>
 5   0  0.9483073E-05  0.2297138E+04  0.7818609E-02  0.8479051E-01
       -2   -1    0    0    0  501  0.00000000000E+00  0.00000000000E+00  0.15353864620E+04  0.15353864620E+04  0.25500000920E-02 0.  1.
        2   -1    0    0  501    0  0.00000000000E+00  0.00000000000E+00 -0.85920400153E+03  0.85920400153E+03  0.25500000920E-02 0. -1.
    10030    2    1    2    0    0  0.00000000000E+00  0.00000000000E+00  0.67618246051E+03  0.23945904636E+04  0.22971375162E+04 0.  0.
        5    1    3    3  502    0  0.82313087397E+02 -0.67713584855E+03  0.13013604532E+04  0.14693023926E+04  0.46999998093E+01 0.  1.
       -5    1    3    3    0  502 -0.82313087397E+02  0.67713584855E+03 -0.62517799269E+03  0.92528807097E+03  0.46999998093E+01 0. -1.
</event>
<event>
 5   0  0.9313463E-05  0.2361664E+04  0.7818609E-02  0.8453997E-01
        2   -1    0    0  501    0  0.00000000000E+00  0.00000000000E+00  0.89692321308E+03  0.89692321309E+03  0.25500000920E-02 0.  1.
       -2   -1    0    0    0  501  0.00000000000E+00  0.00000000000E+00 -0.15546081013E+04  0.15546081013E+04  0.25500000920E-02 0. -1.
    10030    2    1    2    0    0  0.00000000000E+00  0.00000000000E+00 -0.65768488821E+03  0.24515313144E+04  0.23616638993E+04 0.  0.
        1    1    3    3  502    0 -0.73812568168E+03  0.84715016389E+03 -0.70580159076E+03  0.13268944222E+04  0.50400001928E-02 0.  1.
       -1    1    3    3    0  502  0.73812568168E+03 -0.84715016389E+03  0.48116702550E+02  0.11246368922E+04  0.50400001928E-02 0. -1.
</event>
<event>
 5   0  0.9313463E-05  0.2298165E+04  0.7818609E-02  0.8478645E-01
       -2   -1    0    0    0  501  0.00000000000E+00  0.00000000000E+00  0.60479681383E+03  0.60479681384E+03  0.25500000920E-02 0. -1.
        2   -1    0    0  501    0  0.00000000000E+00  0.00000000000E+00 -0.21831969850E+04  0.21831969850E+04  0.25500000920E-02 0.  1.
    10030    2    1    2    0    0  0.00000000000E+00  0.00000000000E+00 -0.15784001711E+04  0.27879937988E+04  0.22981649902E+04 0.  0.
        1    1    3    3  502    0  0.12611738124E+03  0.11304392103E+04 -0.59137217841E+03  0.12819982276E+04  0.50400001928E-02 0. -1.
       -1    1    3    3    0  502 -0.12611738124E+03 -0.11304392103E+04 -0.98702799272E+03  0.15059955712E+04  0.50400001928E-02 0.  1.
</event>
<event>
 5   0  0.4095451E-05  0.2330181E+04  0.7818609E-02  0.8466115E-01
       -1   -1    0    0    0  501  0.00000000000E+00  0.00000000000E+00  0.10826520200E+04  0.10826520200E+04  0.50400001928E-02 0.  1.
        1   -1    0    0  501    0  0.00000000000E+00  0.00000000000E+00 -0.12538067143E+04  0.12538067143E+04  0.50400001928E-02 0. -1.
    10030    2    1    2    0    0  0.00000000000E+00  0.00000000000E+00 -0.17115469428E+03  0.23364587343E+04  0.23301814281E+04 0.  0.
        3    1    3    3  502    0  0.10651044070E+04 -0.39905966141E+03 -0.33872598923E+03  0.11867734903E+04  0.10100000352E+00 0. -1.
       -3    1    3    3    0  502 -0.10651044070E+04  0.39905966141E+03  0.16757129495E+03  0.11496852440E+04  0.10100000352E+00 0.  1.
</event>
<event>
 5   0  0.9483073E-05  0.2297615E+04  0.7818609E-02  0.8478862E-01
       -2   -1    0    0    0  501  0.00000000000E+00  0.00000000000E+00  0.62831872915E+03  0.62831872916E+03  0.25500000920E-02 0. -1.
        2   -1    0    0  501    0  0.00000000000E+00  0.00000000000E+00 -0.21004609020E+04  0.21004609020E+04  0.25500000920E-02 0.  1.
    10030    2    1    2    0    0  0.00000000000E+00  0.00000000000E+00 -0.14721421728E+04  0.27287796311E+04  0.22976152198E+04 0.  0.
        5    1    3    3  502    0  0.11160504415E+04  0.27165262065E+03 -0.71313052779E+03  0.13520136737E+04  0.46999998093E+01 0.  1.
       -5    1    3    3    0  502 -0.11160504415E+04 -0.27165262065E+03 -0.75901164504E+03  0.13767659574E+04  0.46999998093E+01 0. -1.
</event>
<event>
 5   0  0.9535394E-05  0.2297408E+04  0.7818609E-02  0.8478944E-01
       -2   -1    0    0    0  501  0.00000000000E+00  0.00000000000E+00  0.65706778013E+03  0.65706778014E+03  0.25500000920E-02 0.  1.
        2   -1    0    0  501    0  0.00000000000E+00  0.00000000000E+00 -0.20081951465E+04  0.20081951465E+04  0.25500000920E-02 0. -1.
    10030    2    1    2    0    0  0.00000000000E+00  0.00000000000E+00 -0.13511273663E+04  0.26652629266E+04  0.22974075189E+04 0.  0.
        2    1    3    3  502    0  0.80407191116E+03  0.32497635862E+03 -0.15494172638E+04  0.17756224625E+04  0.25500000920E-02 0. -1.
       -2    1    3    3    0  502 -0.80407191116E+03 -0.32497635862E+03  0.19828989744E+03  0.88964046413E+03  0.25500000920E-02 0.  1.
</event>
<event>
 5   0  0.4295775E-05  0.2316919E+04  0.7818609E-02  0.8471280E-01
       -1   -1    0    0    0  501  0.00000000000E+00  0.00000000000E+00  0.69017418157E+03  0.69017418159E+03  0.50400001928E-02 0.  1.
        1   -1    0    0  501    0  0.00000000000E+00  0.00000000000E+00 -0.19444772306E+04  0.19444772306E+04  0.50400001928E-02 0. -1.
    10030    2    1    2    0    0  0.00000000000E+00  0.00000000000E+00 -0.12543030491E+04  0.26346514122E+04  0.23169186272E+04 0.  0.
        5    1    3    3  502    0  0.14039910892E+03  0.56085507879E+03 -0.17686771720E+04  0.18607824585E+04  0.46999998093E+01 0. -1.
       -5    1    3    3    0  502 -0.14039910892E+03 -0.56085507879E+03  0.51437412293E+03  0.77386895372E+03  0.46999998093E+01 0.  1.
</event>
<event>
 5   0  0.9313463E-05  0.2301352E+04  0.7818609E-02  0.8477388E-01
       -2   -1    0    0    0  501  0.00000000000E+00  0.00000000000E+00  0.70360192175E+03  0.70360192175E+03  0.25500000920E-02 0. -1.
        2   -1    0    0  501    0  0.00000000000E+00  0.00000000000E+00 -0.18818235750E+04  0.18818235750E+04  0.25500000920E-02 0.  1.
    10030    2    1    2    0    0  0.00000000000E+00  0.00000000000E+00 -0.11782216532E+04  0.25854254967E+04  0.23013515018E+04 0.  0.
        1    1    3    3  502    0 -0.10018950204E+04 -0.52011104873E+03 -0.33854249324E+03  0.11785245668E+04  0.50400001928E-02 0. -1.
       -1    1    3    3    0  502  0.10018950204E+04  0.52011104873E+03 -0.83967915998E+03  0.14069009299E+04  0.50400001928E-02 0.  1.
</event>
<event>
 5   0  0.9312074E-05  0.2292088E+04  0.7818609E-02  0.8481047E-01
       -2   -1    0    0    0  501  0.00000000000E+00  0.00000000000E+00  0.87505068857E+03  0.87505068857E+03  0.25500000920E-02 0. -1.
        2   -1    0    0  501    0  0.00000000000E+00  0.00000000000E+00 -0.15009608764E+04  0.15009608764E+04  0.25500000920E-02 0.  1.
    10030    2    1    2    0    0  0.00000000000E+00  0.00000000000E+00 -0.62591018786E+03  0.23760115650E+04  0.22920879987E+04 0.  0.
        4    1    3    3  502    0 -0.22005545697E+03 -0.42041832518E+03  0.76842770833E+03  0.90313826633E+03  0.12699999809E+01 0. -1.
       -4    1    3    3    0  502  0.22005545697E+03  0.42041832518E+03 -0.13943378962E+04  0.14728732987E+04  0.12699999809E+01 0.  1.
</event>
<event>
 5   0  0.9313463E-05  0.2270584E+04  0.7818609E-02  0.8489611E-01
        2   -1    0    0  501    0  0.00000000000E+00  0.00000000000E+00  0.16354228624E+04  0.16354228624E+04  0.25500000920E-02 0. -1.
       -2   -1    0    0    0  501  0.00000000000E+00  0.00000000000E+00 -0.78810678459E+03  0.78810678459E+03  0.25500000920E-02 0.  1.
    10030    2    1    2    0    0  0.00000000000E+00  0.00000000000E+00  0.84731607779E+03  0.24235296470E+04  0.22705839368E+04 0.  0.
        1    1    3    3  502    0  0.99401274499E+03 -0.10332747200E+03 -0.15128130042E+03  0.10107541420E+04  0.50400001928E-02 0. -1.
       -1    1    3    3    0  502 -0.99401274499E+03  0.10332747200E+03  0.99859737821E+03  0.14127755050E+04  0.50400001928E-02 0.  1.
</event>
<event>
 5   0  0.9535394E-05  0.2347397E+04  0.7818609E-02  0.8459464E-01
        2   -1    0    0  501    0  0.00000000000E+00  0.00000000000E+00  0.14249395257E+04  0.14249395257E+04  0.25500000920E-02 0. -1.
       -2   -1    0    0    0  501  0.00000000000E+00  0.00000000000E+00 -0.96675532039E+03  0.96675532039E+03  0.25500000920E-02 0.  1.
    10030    2    1    2    0    0  0.00000000000E+00  0.00000000000E+00  0.45818420528E+03  0.23916948461E+04  0.23473967434E+04 0.  0.
        2    1    3    3  502    0  0.19792608233E+03  0.95589353955E+03 -0.43486541509E+03  0.10686510760E+04  0.25500000920E-02 0.  1.
       -2    1    3    3    0  502 -0.19792608233E+03 -0.95589353955E+03  0.89304962036E+03  0.13230437700E+04  0.25500000920E-02 0. -1.
</event>
<event>
 5   0  0.3885219E-05  0.2292493E+04  0.7818609E-02  0.8480887E-01
       -1   -1    0    0    0  501  0.00000000000E+00  0.00000000000E+00  0.10916978186E+04  0.10916978186E+04  0.50400001928E-02 0.  1.
        1   -1    0    0  501    0  0.00000000000E+00  0.00000000000E+00 -0.12035206214E+04  0.12035206214E+04  0.50400001928E-02 0. -1.
    10030    2    1    2    0    0  0.00000000000E+00  0.00000000000E+00 -0.11182280280E+03  0.22952184400E+04  0.22924928240E+04 0.  0.
        2    1    3    3  502    0 -0.10885426467E+04 -0.31426329869E+03  0.11806032935E+03  0.11391333354E+04  0.25500000920E-02 0.  1.
       -2    1    3    3    0  502  0.10885426467E+04  0.31426329869E+03 -0.22988313215E+03  0.11560851046E+04  0.25500000920E-02 0. -1.
</event>
<event>
 5   0  0.3885219E-05  0.2326970E+04  0.7818609E-02  0.8467362E-01
       -1   -1    0    0    0  501  0.00000000000E+00  0.00000000000E+00  0.95098529040E+03  0.95098529042E+03  0.50400001928E-02 0.  1.
        1   -1    0    0  501    0  0.00000000000E+00  0.00000000000E+00 -0.14234687583E+04  0.14234687583E+04  0.50400001928E-02 0. -1.
    10030    2    1    2    0    0  0.00000000000E+00  0.00000000000E+00 -0.47248346787E+03  0.23744540487E+04  0.23269704343E+04 0.  0.
        2    1    3    3  502    0  0.43035625106E+03 -0.28922003076E+03  0.82657008150E+03  0.97574219375E+03  0.25500000920E-02 0.  1.
       -2    1    3    3    0  502 -0.43035625106E+03  0.28922003076E+03 -0.12990535494E+04  0.13987118550E+04  0.25500000920E-02 0. -1.
</event>
<event>
 5   0  0.9313463E-05  0.2346443E+04  0.7818609E-02  0.8459831E-01
       -2   -1    0    0    0  501  0.00000000000E+00  0.00000000000E+00  0.10491581484E+04  0.10491581484E+04  0.25500000920E-02 0. -1.
        2   -1    0    0  501    0  0.00000000000E+00  0.00000000000E+00 -0.13119557508E+04  0.13119557508E+04  0.25500000920E-02 0.  1.
    10030    2    1    2    0    0  0.00000000000E+00  0.00000000000E+00 -0.26279760238E+03  0.23611138991E+04  0.23464433223E+04 0.  0.
        1    1    3    3  502    0 -0.99722701605E+02  0.20081531813E+03  0.10273991608E+04  0.10515799755E+04  0.50400001928E-02 0. -1.
       -1    1    3    3    0  502  0.99722701605E+02 -0.20081531813E+03 -0.12901967632E+04  0.13095339236E+04  0.50400001928E-02 0.  1.
</event>
<event>
 5   0  0.4139830E-05  0.2308996E+04  0.7818609E-02  0.8474383E-01
       -1   -1    0    0    0  501  0.00000000000E+00  0.00000000000E+00  0.79378954710E+03  0.79378954712E+03  0.50400001928E-02 0.  1.
        1   -1    0    0  501    0  0.00000000000E+00  0.00000000000E+00 -0.16791172457E+04  0.16791172457E+04  0.50400001928E-02 0. -1.
    10030    2    1    2    0    0  0.00000000000E+00  0.00000000000E+00 -0.88532769863E+03  0.24729067929E+04  0.23089960745E+04 0.  0.
        1    1    3    3  502    0  0.46453423612E+03  0.49543956498E+03 -0.14425406156E+04  0.15944202227E+04  0.50400001928E-02 0. -1.
       -1    1    3    3    0  502 -0.46453423612E+03 -0.49543956498E+03  0.55721291694E+03  0.87848657013E+03  0.50400001928E-02 0.  1.
</event>
<event>
 5   0  0.4295775E-05  0.2373795E+04  0.7818609E-02  0.8449380E-01
        1   -1    0    0  501    0  0.00000000000E+00  0.00000000000E+00  0.10148562188E+04  0.10148562188E+04  0.50400001928E-02 0. -1.
       -1   -1    0    0    0  501  0.00000000000E+00  0.00000000000E+00 -0.13881034590E+04  0.13881034590E+04  0.50400001928E-02 0.  1.
    10030    2    1    2    0    0  0.00000000000E+00  0.00000000000E+00 -0.37324724017E+03  0.24029596778E+04  0.23737947913E+04 0.  0.
        5    1    3    3  502    0 -0.67281305185E+03  0.95339906011E+03  0.32965888093E+02  0.11673714106E+04  0.46999998093E+01 0. -1.
       -5    1    3    3    0  502  0.67281305185E+03 -0.95339906011E+03 -0.40621312826E+03  0.12355882672E+04  0.46999998093E+01 0.  1.
</event>
<event>
 5   0  0.9641157E-05  0.1832566E+04  0.7818609E-02  0.8689170E-01
        2   -1    0    0  501    0  0.00000000000E+00  0.00000000000E+00  0.10996239544E+04  0.10996239544E+04  0.25500000920E-02 0.  1.
       -2   -1    0    0    0  501  0.00000000000E+00  0.00000000000E+00 -0.76351066863E+03  0.76351066863E+03  0.25500000920E-02 0. -1.
    10030    2    1    2    0    0  0.00000000000E+00  0.00000000000E+00  0.33611328579E+03  0.18631346231E+04  0.18325660923E+04 0.  0.
        3    1    3    3  502    0  0.67899398890E+03 -0.33860481258E+03  0.69032638664E+03  0.10257858384E+04  0.10100000352E+00 0.  1.
       -3    1    3    3    0  502 -0.67899398890E+03  0.33860481258E+03 -0.35421310085E+03  0.83734878461E+03  0.10100000352E+00 0. -1.
</event>
<event>
 5   0  0.4005462E-05  0.2323327E+04  0.7818609E-02  0.8468780E-01
        1   -1    0    0  501    0  0.00000000000E+00  0.00000000000E+00  0.17298815432E+04  0.17298815432E+04  0.50400001928E-02 0. -1.
       -1   -1    0    0    0  501  0.00000000000E+00  0.00000000000E+00 -0.78008918299E+03  0.78008918301E+03  0.50400001928E-02 0.  1.
    10030    2    1    2    0    0  0.00000000000E+00  0.00000000000E+00  0.94979236023E+03  0.25099707262E+04  0.23233268214E+04 0.  0.
        4    1    3    3  502    0  0.67952004516E+03  0.94115375149E+03  0.52250930594E+03  0.12730025387E+04  0.12699999809E+01 0. -1.
       -4    1    3    3    0  502 -0.67952004516E+03 -0.94115375149E+03  0.42728305429E+03  0.12369681876E+04  0.12699999809E+01 0.  1.
</event>
<event>
 5   0  0.9535394E-05  0.2338689E+04  0.7818609E-02  0.8462821E-01
       -2   -1    0    0    0  501  0.00000000000E+00  0.00000000000E+00  0.15819797551E+04  0.15819797551E+04  0.25500000920E-02 0.  1.
        2   -1    0    0  501    0  0.00000000000E+00  0.00000000000E+00 -0.86433861506E+03  0.86433861507E+03  0.25500000920E-02 0. -1.
    10030    2    1    2    0    0  0.00000000000E+00  0.00000000000E+00  0.71764114005E+03  0.24463183702E+04  0.23386886844E+04 0.  0.
        2    1    3    3  502    0  0.17822142999E+03 -0.76162805820E+03 -0.55039166920E+03  0.95643670291E+03  0.25500000920E-02 0. -1.
       -2    1    3    3    0  502 -0.17822142999E+03  0.76162805820E+03  0.12680328092E+04  0.14898816673E+04  0.25500000920E-02 0.  1.
</event>
<event>
 5   0  0.4005462E-05  0.2298229E+04  0.7818609E-02  0.8478620E-01
        1   -1    0    0  501    0  0.00000000000E+00  0.00000000000E+00  0.11270028601E+04  0.11270028601E+04  0.50400001928E-02 0.  1.
       -1   -1    0    0    0  501  0.00000000000E+00  0.00000000000E+00 -0.11716597649E+04  0.11716597649E+04  0.50400001928E-02 0. -1.
    10030    2    1    2    0    0  0.00000000000E+00  0.00000000000E+00 -0.44656904808E+02  0.22986626251E+04  0.22982288016E+04 0.  0.
        4    1    3    3  502    0 -0.74724819304E+03 -0.31893021723E+03 -0.83511088227E+03  0.11651215147E+04  0.12699999809E+01 0. -1.
       -4    1    3    3    0  502  0.74724819304E+03  0.31893021723E+03  0.79045397746E+03  0.11335411103E+04  0.12699999809E+01 0.  1.
</event>
<event>
 5   0  0.4139830E-05  0.2243440E+04  0.7818609E-02  0.8500562E-01
       -1   -1    0    0    0  501  0.00000000000E+00  0.00000000000E+00  0.12833639417E+04  0.12833639417E+04  0.50400001928E-02 0.  1.
        1   -1    0    0  501    0  0.00000000000E+00  0.00000000000E+00 -0.98043571500E+03  0.98043571502E+03  0.50400001928E-02 0. -1.
    10030    2    1    2    0    0  0.00000000000E+00  0.00000000000E+00  0.30292822667E+03  0.22637996567E+04  0.22434400761E+04 0.  0.
        1    1    3    3  502    0  0.75971558185E+03  0.61241388795E+03 -0.40676271240E+03  0.10572012295E+04  0.50400001928E-02 0. -1.
       -1    1    3    3    0  502 -0.75971558185E+03 -0.61241388795E+03  0.70969093907E+03  0.12065984272E+04  0.50400001928E-02 0.  1.
</event>
<event>
 5   0  0.9483073E-05  0.2216961E+04  0.7818609E-02  0.8511402E-01
        2   -1    0    0  501    0  0.00000000000E+00  0.00000000000E+00  0.11602010267E+04  0.11602010267E+04  0.25500000920E-02 0.  1.
       -2   -1    0    0    0  501  0.00000000000E+00  0.00000000000E+00 -0.10590654211E+04  0.10590654211E+04  0.25500000920E-02 0. -1.
    10030    2    1    2    0    0  0.00000000000E+00  0.00000000000E+00  0.10113560564E+03  0.22192664478E+04  0.22169607925E+04 0.  0.
        5    1    3    3  502    0 -0.96118174225E+03 -0.32880807553E+03 -0.39342657020E+03  0.10893996734E+04  0.46999998093E+01 0. -1.
       -5    1    3    3    0  502  0.96118174225E+03  0.32880807553E+03  0.49456217584E+03  0.11298667744E+04  0.46999998093E+01 0.  1.
</event>
<event>
 5   0  0.4095451E-05  0.2286130E+04  0.7818609E-02  0.8483410E-01
       -1   -1    0    0    0  501  0.00000000000E+00  0.00000000000E+00  0.89239679960E+03  0.89239679961E+03  0.50400001928E-02 0.  1.
        1   -1    0    0  501    0  0.00000000000E+00  0.00000000000E+00 -0.14641445924E+04  0.14641445925E+04  0.50400001928E-02 0. -1.
    10030    2    1    2    0    0  0.00000000000E+00  0.00000000000E+00 -0.57174779284E+03  0.23565413921E+04  0.22861303099E+04 0.  0.
        3    1    3    3  502    0 -0.22263049637E+03 -0.70927192995E+03 -0.11809299609E+04  0.13954306114E+04  0.10100000352E+00 0. -1.
       -3    1    3    3    0  502  0.22263049637E+03  0.70927192995E+03  0.60918216808E+03  0.96111078063E+03  0.10100000352E+00 0.  1.
</event>
<event>
 5   0  0.4095451E-05  0.2274528E+04  0.7818609E-02  0.8488033E-01
        1   -1    0    0  501    0  0.00000000000E+00  0.00000000000E+00  0.12120298331E+04  0.12120298331E+04  0.50400001928E-02 0.  1.
       -1   -1    0    0    0  501  0.00000000000E+00  0.00000000000E+00 -0.10671098434E+04  0.10671098435E+04  0.50400001928E-02 0. -1.
    10030    2    1    2    0    0  0.00000000000E+00  0.00000000000E+00  0.14491998966E+03  0.22791396766E+04  0.22745276129E+04 0.  0.
        3    1    3    3  502    0  0.74474057028E+03  0.62158210708E+02  0.93144194922E+03  0.11941885425E+04  0.10100000352E+00 0.  1.
       -3    1    3    3    0  502 -0.74474057028E+03 -0.62158210708E+02 -0.78652195955E+03  0.10849511340E+04  0.10100000352E+00 0. -1.
</event>
<event>
 5   0  0.9535394E-05  0.2331131E+04  0.7818609E-02  0.8465747E-01
        2   -1    0    0  501    0  0.00000000000E+00  0.00000000000E+00  0.15402323875E+04  0.15402323875E+04  0.25500000920E-02 0.  1.
       -2   -1    0    0    0  501  0.00000000000E+00  0.00000000000E+00 -0.88203799796E+03  0.88203799796E+03  0.25500000920E-02 0. -1.
    10030    2    1    2    0    0  0.00000000000E+00  0.00000000000E+00  0.65819438952E+03  0.24222703854E+04  0.23311314776E+04 0.  0.
        2    1    3    3  502    0 -0.46788977897E+03 -0.74456313233E+03  0.11240218440E+04  0.14271370674E+04  0.25500000920E-02 0.  1.
       -2    1    3    3    0  502  0.46788977897E+03  0.74456313233E+03 -0.46582745451E+03  0.99513331804E+03  0.25500000920E-02 0. -1.
</event>
<event>
 5   0  0.9312074E-05  0.2155937E+04  0.7818609E-02  0.8536995E-01
       -2   -1    0    0    0  501  0.00000000000E+00  0.00000000000E+00  0.54675101041E+03  0.54675101042E+03  0.25500000920E-02 0.  1.
        2   -1    0    0  501    0  0.00000000000E+00  0.00000000000E+00 -0.21253110246E+04  0.21253110246E+04  0.25500000920E-02 0. -1.
    10030    2    1    2    0    0  0.00000000000E+00  0.00000000000E+00 -0.15785600142E+04  0.26720620350E+04  0.21559368731E+04 0.  0.
        4    1    3    3  502    0  0.57314065904E+03  0.61127032728E+03 -0.16297637451E+04  0.18325591685E+04  0.12699999809E+01 0. -1.
       -4    1    3    3    0  502 -0.57314065904E+03 -0.61127032728E+03  0.51203730906E+02  0.83950286659E+03  0.12699999809E+01 0.  1.
</event>
<event>
 5   0  0.4095451E-05  0.2292704E+04  0.7818609E-02  0.8480803E-01
        1   -1    0    0  501    0  0.00000000000E+00  0.00000000000E+00  0.19445992898E+04  0.19445992898E+04  0.50400001928E-02 0.  1.
       -1   -1    0    0    0  501  0.00000000000E+00  0.00000000000E+00 -0.67578087898E+03  0.67578087900E+03  0.50400001928E-02 0. -1.
    10030    2    1    2    0    0  0.00000000000E+00  0.00000000000E+00  0.12688184108E+04  0.26203801688E+04  0.22927040954E+04 0.  0.
        3    1    3    3  502    0  0.80988079036E+03 -0.35511572212E+03  0.14681222056E+04  0.17138835700E+04  0.10100000352E+00 0.  1.
       -3    1    3    3    0  502 -0.80988079036E+03  0.35511572212E+03 -0.19930379485E+03  0.90649659875E+03  0.10100000352E+00 0. -1.
</event>
<event>
 5   0  0.9535394E-05  0.2307436E+04  0.7818609E-02  0.8474995E-01
        2   -1    0    0  501    0  0.00000000000E+00  0.00000000000E+00  0.14677356774E+04  0.14677356774E+04  0.25500000920E-02 0. -1.
       -2   -1    0    0    0  501  0.00000000000E+00  0.00000000000E+00 -0.90688345553E+03  0.90688345553E+03  0.25500000920E-02 0.  1.
    10030    2    1    2    0    0  0.00000000000E+00  0.00000000000E+00  0.56085222187E+03  0.23746191329E+04  0.23074359821E+04 0.  0.
        2    1    3    3  502    0 -0.28994146626E+03 -0.33194467038E+02  0.14291229347E+04  0.14586158812E+04  0.25500000920E-02 0. -1.
       -2    1    3    3    0  502  0.28994146626E+03  0.33194467038E+02 -0.86827071279E+03  0.91600325174E+03  0.25500000920E-02 0.  1.
</event>
<event>
 5   0  0.9312074E-05  0.2449682E+04  0.7818609E-02  0.8421134E-01
       -2   -1    0    0    0  501  0.00000000000E+00  0.00000000000E+00  0.84625069022E+03  0.84625069022E+03  0.25500000920E-02 0.  1.
        2   -1    0    0  501    0  0.00000000000E+00  0.00000000000E+00 -0.17728028995E+04  0.17728028995E+04  0.25500000920E-02 0. -1.
    10030    2    1    2    0    0  0.00000000000E+00  0.00000000000E+00 -0.92655220927E+03  0.26190535897E+04  0.24496821649E+04 0.  0.
        4    1    3    3  502    0 -0.11729785200E+04 -0.16670639351E+03 -0.79550946984E+03  0.14270622129E+04  0.12699999809E+01 0. -1.
       -4    1    3    3    0  502  0.11729785200E+04  0.16670639351E+03 -0.13104273943E+03  0.11919913768E+04  0.12699999809E+01 0.  1.
</event>
<event>
 5   0  0.9641157E-05  0.2261536E+04  0.7818609E-02  0.8493243E-01
       -2   -1    0    0    0  501  0.00000000000E+00  0.00000000000E+00  0.16062508624E+04  0.16062508624E+04  0.25500000920E-02 0. -1.
        2   -1    0    0  501    0  0.00000000000E+00  0.00000000000E+00 -0.79603786593E+03  0.79603786593E+03  0.25500000920E-02 0.  1.
    10030    2    1    2    0    0  0.00000000000E+00  0.00000000000E+00  0.81021299651E+03  0.24022887284E+04  0.22615362112E+04 0.  0.
        3    1    3    3  502    0 -0.11733898799E+03  0.12911794587E+03 -0.78165420727E+03  0.80088900104E+03  0.10100000352E+00 0.  1.
       -3    1    3    3    0  502  0.11733898799E+03 -0.12911794587E+03  0.15918672038E+04  0.16013997273E+04  0.10100000352E+00 0. -1.
</event>
<event>
 5   0  0.4095451E-05  0.2305339E+04  0.7818609E-02  0.8475819E-01
       -1   -1    0    0    0  501  0.00000000000E+00  0.00000000000E+00  0.12248004231E+04  0.12248004231E+04  0.50400001928E-02 0. -1.
        1   -1    0    0  501    0  0.00000000000E+00  0.00000000000E+00 -0.10847864112E+04  0.10847864112E+04  0.50400001928E-02 0.  1.
    10030    2    1    2    0    0  0.00000000000E+00  0.00000000000E+00  0.14001401194E+03  0.23095868343E+04  0.23053388952E+04 0.  0.
        3    1    3    3  502    0  0.18588692335E+03  0.71346261397E+03  0.95767803832E+03  0.12086066710E+04  0.10100000352E+00 0. -1.
       -3    1    3    3    0  502 -0.18588692335E+03 -0.71346261397E+03 -0.81766402639E+03  0.11009801633E+04  0.10100000352E+00 0.  1.
</event>
<event>
 5   0  0.9535394E-05  0.2277469E+04  0.7818609E-02  0.8486858E-01
        2   -1    0    0  501    0  0.00000000000E+00  0.00000000000E+00  0.13131234507E+04  0.13131234507E+04  0.25500000920E-02 0. -1.
       -2   -1    0    0    0  501  0.00000000000E+00  0.00000000000E+00 -0.98750482373E+03  0.98750482373E+03  0.25500000920E-02 0.  1.
    10030    2    1    2    0    0  0.00000000000E+00  0.00000000000E+00  0.32561862700E+03  0.23006282745E+04  0.22774685436E+04 0.  0.
        2    1    3    3  502    0 -0.97501205404E+03  0.25366496211E+03 -0.37336243342E+03  0.10744272545E+04  0.25500000920E-02 0. -1.
       -2    1    3    3    0  502  0.97501205404E+03 -0.25366496211E+03  0.69898106042E+03  0.12262010200E+04  0.25500000920E-02 0.  1.
</event>
<event>
 5   0  0.3261500E-05  0.2320983E+04  0.7818609E-02  0.8469694E-01
       -3   -1    0    0    0  501  0.00000000000E+00  0.00000000000E+00  0.73007847079E+03  0.73007847777E+03  0.10100000352E+00 0. -1.
        3   -1    0    0  501    0  0.00000000000E+00  0.00000000000E+00 -0.18446510639E+04  0.18446510667E+04  0.10100000352E+00 0.  1.
    10030    2    1    2    0    0  0.00000000000E+00  0.00000000000E+00 -0.11145725932E+04  0.25747295445E+04  0.23209825854E+04 0.  0.
        2    1    3    3  502    0 -0.68992438946E+03  0.77014595737E+03 -0.11417866556E+04  0.15403886606E+04  0.25500000920E-02 0.  1.
       -2    1    3    3    0  502  0.68992438946E+03 -0.77014595737E+03  0.27214062452E+02  0.10343408839E+04  0.25500000920E-02 0. -1.
</event>
<event>
 5   0  0.4005462E-05  0.2306010E+04  0.7818609E-02  0.8475555E-01
       -1   -1    0    0    0  501  0.00000000000E+00  0.00000000000E+00  0.10458416405E+04  0.10458416405E+04  0.50400001928E-02 0.  1.
        1   -1    0    0  501    0  0.00000000000E+00  0.00000000000E+00 -0.12711491039E+04  0.12711491039E+04  0.50400001928E-02 0. -1.
    10030    2    1    2    0    0  0.00000000000E+00  0.00000000000E+00 -0.22530746342E+03  0.23169907445E+04  0.23060101164E+04 0.  0.
        4    1    3    3  502    0  0.25208400744E+02  0.11849179728E+03 -0.12647362081E+04  0.12705255049E+04  0.12699999809E+01 0. -1.
       -4    1    3    3    0  502 -0.25208400744E+02 -0.11849179728E+03  0.10394287447E+04  0.10464652396E+04  0.12699999809E+01 0.  1.
</event>
<event>
 5   0  0.9535394E-05  0.2279277E+04  0.7818609E-02  0.8486137E-01
       -2   -1    0    0    0  501  0.00000000000E+00  0.00000000000E+00  0.75971192916E+03  0.75971192916E+03  0.25500000920E-02 0.  1.
        2   -1    0    0  501    0  0.00000000000E+00  0.00000000000E+00 -0.17095640653E+04  0.17095640653E+04  0.25500000920E-02 0. -1.
    10030    2    1    2    0    0  0.00000000000E+00  0.00000000000E+00 -0.94985213615E+03  0.24692759945E+04  0.22792772662E+04 0.  0.
        2    1    3    3  502    0  0.10235107860E+03  0.71521970770E+03  0.47988237098E+03  0.86735348247E+03  0.25500000920E-02 0.  1.
       -2    1    3    3    0  502 -0.10235107860E+03 -0.71521970770E+03 -0.14297345071E+04  0.16019225120E+04  0.25500000920E-02 0. -1.
</event>
<event>
 5   0  0.4295775E-05  0.2297596E+04  0.7818609E-02  0.8478870E-01
        1   -1    0    0  501    0  0.00000000000E+00  0.00000000000E+00  0.20137187861E+04  0.20137187861E+04  0.50400001928E-02 0. -1.
       -1   -1    0    0    0  501  0.00000000000E+00  0.00000000000E+00 -0.65537283777E+03  0.65537283779E+03  0.50400001928E-02 0.  1.
    10030    2    1    2    0    0  0.00000000000E+00  0.00000000000E+00  0.13583459483E+04  0.26690916239E+04  0.22975957829E+04 0.  0.
        5    1    3    3  502    0  0.32887721733E+03 -0.95233124841E+03  0.38009624262E+02  0.10082469203E+04  0.46999998093E+01 0.  1.
       -5    1    3    3    0  502 -0.32887721733E+03  0.95233124841E+03  0.13203363241E+04  0.16608447036E+04  0.46999998093E+01 0. -1.
</event>
<event>
 5   0  0.4095451E-05  0.2306143E+04  0.7818609E-02  0.8475503E-01
       -1   -1    0    0    0  501  0.00000000000E+00  0.00000000000E+00  0.83988868970E+03  0.83988868972E+03  0.50400001928E-02 0. -1.
        1   -1    0    0  501    0  0.00000000000E+00  0.00000000000E+00 -0.15830362996E+04  0.15830362996E+04  0.50400001928E-02 0.  1.
    10030    2    1    2    0    0  0.00000000000E+00  0.00000000000E+00 -0.74314760990E+03  0.24229249893E+04  0.23061433463E+04 0.  0.
        3    1    3    3  502    0  0.71149988169E+03 -0.90734528823E+03 -0.36299196992E+03  0.12088303165E+04  0.10100000352E+00 0.  1.
       -3    1    3    3    0  502 -0.71149988169E+03  0.90734528823E+03 -0.38015563998E+03  0.12140946728E+04  0.10100000352E+00 0. -1.
</event>
<event>
 5   0  0.4095451E-05  0.2300941E+04  0.7818609E-02  0.8477550E-01
        1   -1    0    0  501    0  0.00000000000E+00  0.00000000000E+00  0.18783780429E+04  0.18783780430E+04  0.50400001928E-02 0.  1.
       -1   -1    0    0    0  501  0.00000000000E+00  0.00000000000E+00 -0.70464113081E+03  0.70464113083E+03  0.50400001928E-02 0. -1.
    10030    2    1    2    0    0  0.00000000000E+00  0.00000000000E+00  0.11737369121E+04  0.25830191738E+04  0.23009410495E+04 0.  0.
        3    1    3    3  502    0 -0.94434845677E+03 -0.14183134982E+03 -0.13340589430E+03  0.96421329716E+03  0.10100000352E+00 0. -1.
       -3    1    3    3    0  502  0.94434845677E+03  0.14183134982E+03  0.13071428064E+04  0.16188058766E+04  0.10100000352E+00 0.  1.
</event>
<event>
 5   0  0.3885219E-05  0.2986749E+04  0.7818609E-02  0.8247525E-01
        1   -1    0    0  501    0  0.00000000000E+00  0.00000000000E+00  0.16840216084E+04  0.16840216084E+04  0.50400001928E-02 0. -1.
       -1   -1    0    0    0  501  0.00000000000E+00  0.00000000000E+00 -0.13243107798E+04  0.13243107798E+04  0.50400001928E-02 0.  1.
    10030    2    1    2    0    0  0.00000000000E+00  0.00000000000E+00  0.35971082862E+03  0.30083323882E+04  0.29867493831E+04 0.  0.
        2    1    3    3  502    0 -0.35116908059E+03 -0.10315309962E+04 -0.84869573195E+03  0.13811807864E+04  0.25500000920E-02 0.  1.
       -2    1    3    3    0  502  0.35116908059E+03  0.10315309962E+04  0.12084065606E+04  0.16271516017E+04  0.25500000920E-02 0. -1.
</event>
<event>
 5   0  0.9483073E-05  0.2316979E+04  0.7818609E-02  0.8471257E-01
        2   -1    0    0  501    0  0.00000000000E+00  0.00000000000E+00  0.11463264945E+04  0.11463264945E+04  0.25500000920E-02 0. -1.
       -2   -1    0    0    0  501  0.00000000000E+00  0.00000000000E+00 -0.11707813321E+04  0.11707813321E+04  0.25500000920E-02 0.  1.
    10030    2    1    2    0    0  0.00000000000E+00  0.00000000000E+00 -0.24454837532E+02  0.23171078266E+04  0.23169787744E+04 0.  0.
        5    1    3    3  502    0  0.75137619954E+03 -0.52725984614E+03  0.69456963605E+03  0.11510943523E+04  0.46999998093E+01 0. -1.
       -5    1    3    3    0  502 -0.75137619954E+03  0.52725984614E+03 -0.71902447358E+03  0.11660134743E+04  0.46999998093E+01 0.  1.
</event>
<event>
 5   0  0.4005462E-05  0.2315044E+04  0.7818609E-02  0.8472013E-01
        1   -1    0    0  501    0  0.00000000000E+00  0.00000000000E+00  0.21803553182E+04  0.21803553182E+04  0.50400001928E-02 0.  1.
       -1   -1    0    0    0  501  0.00000000000E+00  0.00000000000E+00 -0.61451343003E+03  0.61451343005E+03  0.50400001928E-02 0. -1.
    10030    2    1    2    0    0  0.00000000000E+00  0.00000000000E+00  0.15658418881E+04  0.27948687482E+04  0.23150443843E+04 0.  0.
        4    1    3    3  502    0 -0.64216318219E+03 -0.24288023644E+03 -0.34216298074E+03  0.76709939389E+03  0.12699999809E+01 0. -1.
       -4    1    3    3    0  502  0.64216318219E+03  0.24288023644E+03  0.19080048689E+04  0.20277693543E+04  0.12699999809E+01 0.  1.
</event>
<event>
 5   0  0.4095451E-05  0.2295679E+04  0.7818609E-02  0.8479627E-01
       -1   -1    0    0    0  501  0.00000000000E+00  0.00000000000E+00  0.78064927031E+03  0.78064927033E+03  0.50400001928E-02 0.  1.
        1   -1    0    0  501    0  0.00000000000E+00  0.00000000000E+00 -0.16877429004E+04  0.16877429004E+04  0.50400001928E-02 0. -1.
    10030    2    1    2    0    0  0.00000000000E+00  0.00000000000E+00 -0.90709363009E+03  0.24683921707E+04  0.22956787787E+04 0.  0.
        3    1    3    3  502    0 -0.17663278413E+03 -0.45088098764E+03  0.66544208844E+03  0.82298601975E+03  0.10100000352E+00 0.  1.
       -3    1    3    3    0  502  0.17663278413E+03  0.45088098764E+03 -0.15725357185E+04  0.16454061510E+04  0.10100000352E+00 0. -1.
</event>
<event>
 5   0  0.9535394E-05  0.2293490E+04  0.7818609E-02  0.8480492E-01
        2   -1    0    0  501    0  0.00000000000E+00  0.00000000000E+00  0.18202938018E+04  0.18202938018E+04  0.25500000920E-02 0.  1.
       -2   -1    0    0    0  501  0.00000000000E+00  0.00000000000E+00 -0.72242420108E+03  0.72242420108E+03  0.25500000920E-02 0. -1.
    10030    2    1    2    0    0  0.00000000000E+00  0.00000000000E+00  0.10978696007E+04  0.25427180029E+04  0.22934901748E+04 0.  0.
        2    1    3    3  502    0 -0.66101457820E+03  0.59524145771E+03 -0.25343079730E+03  0.92492152889E+03  0.25500000920E-02 0. -1.
       -2    1    3    3    0  502  0.66101457820E+03 -0.59524145771E+03  0.13513003980E+04  0.16177964740E+04  0.25500000920E-02 0.  1.
</event>
<event>
 5   0  0.3885219E-05  0.2317001E+04  0.7818609E-02  0.8471248E-01
       -1   -1    0    0    0  501  0.00000000000E+00  0.00000000000E+00  0.74358249628E+03  0.74358249630E+03  0.50400001928E-02 0. -1.
        1   -1    0    0  501    0  0.00000000000E+00  0.00000000000E+00 -0.18049424707E+04  0.18049424707E+04  0.50400001928E-02 0.  1.
    10030    2    1    2    0    0  0.00000000000E+00  0.00000000000E+00 -0.10613599744E+04  0.25485249670E+04  0.23170011895E+04 0.  0.
        2    1    3    3  502    0 -0.29689326638E+02  0.36866556362E+03  0.67689813385E+03  0.77135389902E+03  0.25500000920E-02 0. -1.
       -2    1    3    3    0  502  0.29689326638E+02 -0.36866556362E+03 -0.17382581083E+04  0.17771710680E+04  0.25500000920E-02 0.  1.
</event>
<event>
 5   0  0.9483073E-05  0.2285180E+04  0.7818609E-02  0.8483788E-01
       -2   -1    0    0    0  501  0.00000000000E+00  0.00000000000E+00  0.61420615006E+03  0.61420615007E+03  0.25500000920E-02 0.  1.
        2   -1    0    0  501    0  0.00000000000E+00  0.00000000000E+00 -0.21255264597E+04  0.21255264597E+04  0.25500000920E-02 0. -1.
    10030    2    1    2    0    0  0.00000000000E+00  0.00000000000E+00 -0.15113203096E+04  0.27397326097E+04  0.22851795760E+04 0.  0.
        5    1    3    3  502    0  0.56989876087E+03 -0.81330335016E+02  0.42761954167E+03  0.71713303051E+03  0.46999998093E+01 0.  1.
       -5    1    3    3    0  502 -0.56989876087E+03  0.81330335016E+02 -0.19389398513E+04  0.20225995792E+04  0.46999998093E+01 0. -1.
</event>
<event>
 5   0  0.4139830E-05  0.2236419E+04  0.7818609E-02  0.8503421E-01
        1   -1    0    0  501    0  0.00000000000E+00  0.00000000000E+00  0.82724891386E+03  0.82724891388E+03  0.50400001928E-02 0.  1.
       -1   -1    0    0    0  501  0.00000000000E+00  0.00000000000E+00 -0.15115072438E+04  0.15115072438E+04  0.50400001928E-02 0. -1.
    10030    2    1    2    0    0  0.00000000000E+00  0.00000000000E+00 -0.68425832998E+03  0.23387561577E+04  0.22364192145E+04 0.  0.
        1    1    3    3  502    0  0.11998192285E+03  0.84992523279E+03 -0.10915995079E+04  0.13886533220E+04  0.50400001928E-02 0. -1.
       -1    1    3    3    0  502 -0.11998192285E+03 -0.84992523279E+03  0.40734117791E+03  0.95010283569E+03  0.50400001928E-02 0.  1.
</event>
<event>
 5   0  0.9641157E-05  0.2230146E+04  0.7818609E-02  0.8505985E-01
        2   -1    0    0  501    0  0.00000000000E+00  0.00000000000E+00  0.13260352093E+04  0.13260352093E+04  0.25500000920E-02 0.  1.
       -2   -1    0    0    0  501  0.00000000000E+00  0.00000000000E+00 -0.93767287481E+03  0.93767287481E+03  0.25500000920E-02 0. -1.
    10030    2    1    2    0    0  0.00000000000E+00  0.00000000000E+00  0.38836233454E+03  0.22637080842E+04  0.22301455081E+04 0.  0.
        3    1    3    3  502    0 -0.87201653156E+03  0.68538215888E+03  0.77447378335E+02  0.11118271636E+04  0.10100000352E+00 0.  1.
       -3    1    3    3    0  502  0.87201653156E+03 -0.68538215888E+03  0.31091495620E+03  0.11518809206E+04  0.10100000352E+00 0. -1.
</event>
<event>
 5   0  0.9483073E-05  0.2321701E+04  0.7818609E-02  0.8469413E-01
        2   -1    0    0  501    0  0.00000000000E+00  0.00000000000E+00  0.12259361797E+04  0.12259361797E+04  0.25500000920E-02 0. -1.
       -2   -1    0    0    0  501  0.00000000000E+00  0.00000000000E+00 -0.10992205724E+04  0.10992205724E+04  0.25500000920E-02 0.  1.
    10030    2    1    2    0    0  0.00000000000E+00  0.00000000000E+00  0.12671560726E+03  0.23251567521E+04  0.23217013323E+04 0.  0.
        5    1    3    3  502    0 -0.53918965475E+03  0.65622630899E+03 -0.72914396869E+03  0.11193888821E+04  0.46999998093E+01 0.  1.
       -5    1    3    3    0  502  0.53918965475E+03 -0.65622630899E+03  0.85585957595E+03  0.12057678699E+04  0.46999998093E+01 0. -1.
</event>
<event>
 5   0  0.4139830E-05  0.2314496E+04  0.7818609E-02  0.8472227E-01
       -1   -1    0    0    0  501  0.00000000000E+00  0.00000000000E+00  0.12106386478E+04  0.12106386478E+04  0.50400001928E-02 0. -1.
        1   -1    0    0  501    0  0.00000000000E+00  0.00000000000E+00 -0.11062120858E+04  0.11062120858E+04  0.50400001928E-02 0.  1.
    10030    2    1    2    0    0  0.00000000000E+00  0.00000000000E+00  0.10442656205E+03  0.23168507336E+04  0.23144961471E+04 0.  0.
        1    1    3    3  502    0 -0.91103185583E+03 -0.78879610862E+01 -0.66208243616E+03  0.11262301783E+04  0.50400001928E-02 0.  1.
       -1    1    3    3    0  502  0.91103185583E+03  0.78879610862E+01  0.76650899820E+03  0.11906205553E+04  0.50400001928E-02 0. -1.
</event>
<event>
 5   0  0.9535394E-05  0.2287860E+04  0.7818609E-02  0.8482723E-01
        2   -1    0    0  501    0  0.00000000000E+00  0.00000000000E+00  0.23034613346E+04  0.23034613346E+04  0.25500000920E-02 0. -1.
       -2   -1    0    0    0  501  0.00000000000E+00  0.00000000000E+00 -0.56809103914E+03  0.56809103914E+03  0.25500000920E-02 0.  1.
    10030    2    1    2    0    0  0.00000000000E+00  0.00000000000E+00  0.17353702955E+04  0.28715523738E+04  0.22878599111E+04 0.  0.
        2    1    3    3  502    0  0.10126491999E+04 -0.47451959707E+03  0.56554503522E+03  0.12531833214E+04  0.25500000920E-02 0.  1.
       -2    1    3    3    0  502 -0.10126491999E+04  0.47451959707E+03  0.11698252602E+04  0.16183690524E+04  0.25500000920E-02 0. -1.
</event>
<event>
 5   0  0.9483073E-05  0.2271895E+04  0.7818609E-02  0.8489085E-01
        2   -1    0    0  501    0  0.00000000000E+00  0.00000000000E+00  0.20418400109E+04  0.20418400109E+04  0.25500000920E-02 0.  1.
       -2   -1    0    0    0  501  0.00000000000E+00  0.00000000000E+00 -0.63196781870E+03  0.63196781870E+03  0.25500000920E-02 0. -1.
    10030    2    1    2    0    0  0.00000000000E+00  0.00000000000E+00  0.14098721922E+04  0.26738078296E+04  0.22718954006E+04 0.  0.
        5    1    3    3  502    0 -0.51092207145E+03  0.94297980011E+03  0.26441643258E+03  0.11046222913E+04  0.46999998093E+01 0. -1.
       -5    1    3    3    0  502  0.51092207145E+03 -0.94297980011E+03  0.11454557597E+04  0.15691855384E+04  0.46999998093E+01 0.  1.
</event>
<event>
 5   0  0.3885219E-05  0.2277538E+04  0.7818609E-02  0.8486830E-01
        1   -1    0    0  501    0  0.00000000000E+00  0.00000000000E+00  0.69313832534E+03  0.69313832535E+03  0.50400001928E-02 0.  1.
       -1   -1    0    0    0  501  0.00000000000E+00  0.00000000000E+00 -0.18709037838E+04  0.18709037838E+04  0.50400001928E-02 0. -1.
    10030    2    1    2    0    0  0.00000000000E+00  0.00000000000E+00 -0.11777654584E+04  0.25640421091E+04  0.22775382461E+04 0.  0.
        2    1    3    3  502    0  0.11532426797E+03  0.70998772888E+03  0.40501856572E+03  0.82548307101E+03  0.25500000920E-02 0.  1.
       -2    1    3    3    0  502 -0.11532426797E+03 -0.70998772888E+03 -0.15827840241E+04  0.17385590381E+04  0.25500000920E-02 0. -1.
</event>
<event>
 5   0  0.9483073E-05  0.2302375E+04  0.7818609E-02  0.8476985E-01
       -2   -1    0    0    0  501  0.00000000000E+00  0.00000000000E+00  0.61598680663E+03  0.61598680664E+03  0.25500000920E-02 0.  1.
        2   -1    0    0  501    0  0.00000000000E+00  0.00000000000E+00 -0.21513975786E+04  0.21513975786E+04  0.25500000920E-02 0. -1.
    10030    2    1    2    0    0  0.00000000000E+00  0.00000000000E+00 -0.15354107719E+04  0.27673843852E+04  0.23023748819E+04 0.  0.
        5    1    3    3  502    0 -0.96639700681E+03 -0.11457180918E+03 -0.28557117738E+02  0.97359512796E+03  0.46999998093E+01 0.  1.
       -5    1    3    3    0  502  0.96639700681E+03  0.11457180918E+03 -0.15068536542E+04  0.17937892572E+04  0.46999998093E+01 0. -1.
</event>
<event>
 5   0  0.4005462E-05  0.2293734E+04  0.7818609E-02  0.8480396E-01
        1   -1    0    0  501    0  0.00000000000E+00  0.00000000000E+00  0.19171641749E+04  0.19171641749E+04  0.50400001928E-02 0. -1.
       -1   -1    0    0    0  501  0.00000000000E+00  0.00000000000E+00 -0.68606752741E+03  0.68606752743E+03  0.50400001928E-02 0.  1.
    10030    2    1    2    0    0  0.00000000000E+00  0.00000000000E+00  0.12310966475E+04  0.26032317024E+04  0.22937341478E+04 0.  0.
        4    1    3    3  502    0  0.81156961965E+03 -0.23374609289E+03  0.14961412653E+04  0.17180578518E+04  0.12699999809E+01 0. -1.
       -4    1    3    3    0  502 -0.81156961965E+03  0.23374609289E+03 -0.26504461776E+03  0.88517385060E+03  0.12699999809E+01 0.  1.
</event>
<event>
 5   0  0.4295775E-05  0.1773921E+04  0.7818609E-02  0.8720292E-01
       -1   -1    0    0    0  501  0.00000000000E+00  0.00000000000E+00  0.96201912995E+03  0.96201912996E+03  0.50400001928E-02 0. -1.
        1   -1    0    0  501    0  0.00000000000E+00  0.00000000000E+00 -0.81775827401E+03  0.81775827403E+03  0.50400001928E-02 0.  1.
    10030    2    1    2    0    0  0.00000000000E+00  0.00000000000E+00  0.14426085594E+03  0.17797774040E+04  0.17739211970E+04 0.  0.
        5    1    3    3  502    0 -0.15487824783E+03  0.81284451950E+03 -0.24825672228E+03  0.86391954179E+03  0.46999998093E+01 0.  1.
       -5    1    3    3    0  502  0.15487824783E+03 -0.81284451950E+03  0.39251757822E+03  0.91585786220E+03  0.46999998093E+01 0. -1.
</event>
<event>
 5   0  0.4295775E-05  0.2314108E+04  0.7818609E-02  0.8472379E-01
       -1   -1    0    0    0  501  0.00000000000E+00  0.00000000000E+00  0.61436750069E+03  0.61436750071E+03  0.50400001928E-02 0.  1.
        1   -1    0    0  501    0  0.00000000000E+00  0.00000000000E+00 -0.21791087133E+04  0.21791087133E+04  0.50400001928E-02 0. -1.
    10030    2    1    2    0    0  0.00000000000E+00  0.00000000000E+00 -0.15647412126E+04  0.27934762140E+04  0.23141076673E+04 0.  0.
        5    1    3    3  502    0  0.72158967212E+02  0.97452725620E+03 -0.15302597127E+04  0.18156616337E+04  0.46999998093E+01 0. -1.
       -5    1    3    3    0  502 -0.72158967212E+02 -0.97452725620E+03 -0.34481499852E+02  0.97781458031E+03  0.46999998093E+01 0.  1.
</event>
<event>
 5   0  0.3261500E-05  0.2289844E+04  0.7818609E-02  0.8481936E-01
        3   -1    0    0  501    0  0.00000000000E+00  0.00000000000E+00  0.47084263704E+03  0.47084264787E+03  0.10100000352E+00 0. -1.
       -3   -1    0    0    0  501  0.00000000000E+00  0.00000000000E+00 -0.27840440874E+04  0.27840440892E+04  0.10100000352E+00 0.  1.
    10030    2    1    2    0    0  0.00000000000E+00  0.00000000000E+00 -0.23132014503E+04  0.32548867371E+04  0.22898442570E+04 0.  0.
        4    1    3    3  502    0  0.79715564047E+03 -0.48652456117E+03 -0.20980669536E+04  0.22965299516E+04  0.12699999809E+01 0.  1.
       -4    1    3    3    0  502 -0.79715564047E+03  0.48652456117E+03 -0.21513449674E+03  0.95835678551E+03  0.12699999809E+01 0. -1.
</event>
<event>
 5   0  0.9641157E-05  0.2316998E+04  0.7818609E-02  0.8471249E-01
        2   -1    0    0  501    0  0.00000000000E+00  0.00000000000E+00  0.16055909609E+04  0.16055909609E+04  0.25500000920E-02 0.  1.
       -2   -1    0    0    0  501  0.00000000000E+00  0.00000000000E+00 -0.83590403672E+03  0.83590403672E+03  0.25500000920E-02 0. -1.
    10030    2    1    2    0    0  0.00000000000E+00  0.00000000000E+00  0.76968692421E+03  0.24414949976E+04  0.23169980281E+04 0.  0.
        3    1    3    3  502    0 -0.37438028438E+03  0.47763748188E+03 -0.65500467830E+03  0.89293297633E+03  0.10100000352E+00 0. -1.
       -3    1    3    3    0  502  0.37438028438E+03 -0.47763748188E+03  0.14246916025E+04  0.15485620213E+04  0.10100000352E+00 0.  1.
</event>
<event>
 5   0  0.4295775E-05  0.2302335E+04  0.7818609E-02  0.8477001E-01
       -1   -1    0    0    0  501  0.00000000000E+00  0.00000000000E+00  0.12836768609E+04  0.12836768609E+04  0.50400001928E-02 0. -1.
        1   -1    0    0  501    0  0.00000000000E+00  0.00000000000E+00 -0.10323362494E+04  0.10323362494E+04  0.50400001928E-02 0.  1.
    10030    2    1    2    0    0  0.00000000000E+00  0.00000000000E+00  0.25134061148E+03  0.23160131103E+04  0.23023346030E+04 0.  0.
        5    1    3    3  502    0 -0.53913399010E+03 -0.64037870552E+03  0.92056352323E+03  0.12442707246E+04  0.46999998093E+01 0. -1.
       -5    1    3    3    0  502  0.53913399010E+03  0.64037870552E+03 -0.66922291175E+03  0.10717423857E+04  0.46999998093E+01 0.  1.
</event>
<event>
 5   0  0.4295775E-05  0.2095750E+04  0.7818609E-02  0.8563118E-01
       -1   -1    0    0    0  501  0.00000000000E+00  0.00000000000E+00  0.75127503094E+03  0.75127503096E+03  0.50400001928E-02 0. -1.
        1   -1    0    0  501    0  0.00000000000E+00  0.00000000000E+00 -0.14615715274E+04  0.14615715274E+04  0.50400001928E-02 0.  1.
    10030    2    1    2    0    0  0.00000000000E+00  0.00000000000E+00 -0.71029649643E+03  0.22128465583E+04  0.20957501707E+04 0.  0.
        5    1    3    3  502    0  0.87145639117E+03 -0.43762789642E+03  0.49770110962E+02  0.97644947201E+03  0.46999998093E+01 0. -1.
       -5    1    3    3    0  502 -0.87145639117E+03  0.43762789642E+03 -0.76006660739E+03  0.12363970863E+04  0.46999998093E+01 0.  1.
</event>
<event>
 5   0  0.9641157E-05  0.2306691E+04  0.7818609E-02  0.8475288E-01
       -2   -1    0    0    0  501  0.00000000000E+00  0.00000000000E+00  0.10010765874E+04  0.10010765874E+04  0.25500000920E-02 0. -1.
        2   -1    0    0  501    0  0.00000000000E+00  0.00000000000E+00 -0.13287755862E+04  0.13287755862E+04  0.25500000920E-02 0.  1.
    10030    2    1    2    0    0  0.00000000000E+00  0.00000000000E+00 -0.32769899876E+03  0.23298521737E+04  0.23066912488E+04 0.  0.
        3    1    3    3  502    0  0.10607233086E+04 -0.45283316091E+03 -0.16002865825E+03  0.11643886768E+04  0.10100000352E+00 0.  1.
       -3    1    3    3    0  502 -0.10607233086E+04  0.45283316091E+03 -0.16767034051E+03  0.11654634968E+04  0.10100000352E+00 0. -1.
</event>
<event>
 5   0  0.9313463E-05  0.2287745E+04  0.7818609E-02  0.8482769E-01
       -2   -1    0    0    0  501  0.00000000000E+00  0.00000000000E+00  0.78613704971E+03  0.78613704972E+03  0.25500000920E-02 0.  1.
        2   -1    0    0  501    0  0.00000000000E+00  0.00000000000E+00 -0.16643965221E+04  0.16643965221E+04  0.25500000920E-02 0. -1.
    10030    2    1    2    0    0  0.00000000000E+00  0.00000000000E+00 -0.87825947244E+03  0.24505335719E+04  0.22877445412E+04 0.  0.
        1    1    3    3  502    0 -0.29029720817E+03  0.61173263240E+03  0.54840178037E+03  0.87134022939E+03  0.50400001928E-02 0.  1.
       -1    1    3    3    0  502  0.29029720817E+03 -0.61173263240E+03 -0.14266612528E+04  0.15791933425E+04  0.50400001928E-02 0. -1.
</event>
<event>
 5   0  0.9312074E-05  0.2376325E+04  0.7818609E-02  0.8448421E-01
       -2   -1    0    0    0  501  0.00000000000E+00  0.00000000000E+00  0.10130877104E+04  0.10130877104E+04  0.25500000920E-02 0. -1.
        2   -1    0    0  501    0  0.00000000000E+00  0.00000000000E+00 -0.13934924007E+04  0.13934924007E+04  0.25500000920E-02 0.  1.
    10030    2    1    2    0    0  0.00000000000E+00  0.00000000000E+00 -0.38040469029E+03  0.24065801111E+04  0.23763249153E+04 0.  0.
        4    1    3    3  502    0 -0.76512718851E+03 -0.26759128705E+03  0.68959519150E+03  0.10642217121E+04  0.12699999809E+01 0. -1.
       -4    1    3    3    0  502  0.76512718851E+03  0.26759128705E+03 -0.10699998818E+04  0.13423583990E+04  0.12699999809E+01 0.  1.
</event>
<event>
 5   0  0.3885219E-05  0.2327089E+04  0.7818609E-02  0.8467316E-01
       -1   -1    0    0    0  501  0.00000000000E+00  0.00000000000E+00  0.93775709903E+03  0.93775709904E+03  0.50400001928E-02 0. -1.
        1   -1    0    0  501    0  0.00000000000E+00  0.00000000000E+00 -0.14436956985E+04  0.14436956985E+04  0.50400001928E-02 0.  1.
    10030    2    1    2    0    0  0.00000000000E+00  0.00000000000E+00 -0.50593859944E+03  0.23814527975E+04  0.23270890745E+04 0.  0.
        2    1    3    3  502    0  0.50307768813E+03  0.71484511963E+03  0.53291963223E+03  0.10237646408E+04  0.25500000920E-02 0. -1.
       -2    1    3    3    0  502 -0.50307768813E+03 -0.71484511963E+03 -0.10388582317E+04  0.13576881567E+04  0.25500000920E-02 0.  1.
</event>
<event>
 5   0  0.9483073E-05  0.2308766E+04  0.7818609E-02  0.8474473E-01
        2   -1    0    0  501    0  0.00000000000E+00  0.00000000000E+00  0.12888988635E+04  0.12888988635E+04  0.25500000920E-02 0. -1.
       -2   -1    0    0    0  501  0.00000000000E+00  0.00000000000E+00 -0.10339054400E+04  0.10339054400E+04  0.25500000920E-02 0.  1.
    10030    2    1    2    0    0  0.00000000000E+00  0.00000000000E+00  0.25499342348E+03  0.23228043035E+04  0.23087655113E+04 0.  0.
        5    1    3    3  502    0 -0.86463805445E+03  0.50023709659E+02  0.89533870190E+03  0.12456945123E+04  0.46999998093E+01 0. -1.
       -5    1    3    3    0  502  0.86463805445E+03 -0.50023709659E+02 -0.64034527842E+03  0.10771097912E+04  0.46999998093E+01 0.  1.
</event>
<event>
 5   0  0.4005462E-05  0.2332734E+04  0.7818609E-02  0.8465125E-01
       -1   -1    0    0    0  501  0.00000000000E+00  0.00000000000E+00  0.14423884456E+04  0.14423884457E+04  0.50400001928E-02 0. -1.
        1   -1    0    0  501    0  0.00000000000E+00  0.00000000000E+00 -0.94316616944E+03  0.94316616945E+03  0.50400001928E-02 0.  1.
    10030    2    1    2    0    0  0.00000000000E+00  0.00000000000E+00  0.49922227621E+03  0.23855546151E+04  0.23327340055E+04 0.  0.
        4    1    3    3  502    0  0.11075583404E+04  0.25913464845E+03  0.51347316205E+03  0.12479954104E+04  0.12699999809E+01 0. -1.
       -4    1    3    3    0  502 -0.11075583404E+04 -0.25913464845E+03 -0.14250885838E+02  0.11375592047E+04  0.12699999809E+01 0.  1.
</event>
<event>
 5   0  0.9313463E-05  0.2327791E+04  0.7818609E-02  0.8467043E-01
        2   -1    0    0  501    0  0.00000000000E+00  0.00000000000E+00  0.14837879449E+04  0.14837879449E+04  0.25500000920E-02 0.  1.
       -2   -1    0    0    0  501  0.00000000000E+00  0.00000000000E+00 -0.91296923538E+03  0.91296923538E+03  0.25500000920E-02 0. -1.
    10030    2    1    2    0    0  0.00000000000E+00  0.00000000000E+00  0.57081870949E+03  0.23967571802E+04  0.23277910091E+04 0.  0.
        1    1    3    3  502    0 -0.81737414965E+03 -0.46839753430E+03  0.98914737327E+03  0.13659828977E+04  0.50400001928E-02 0.  1.
       -1    1    3    3    0  502  0.81737414965E+03  0.46839753430E+03 -0.41832866378E+03  0.10307742826E+04  0.50400001928E-02 0. -1.
</event>
<event>
 5   0  0.3261500E-05  0.1631632E+04  0.7818609E-02  0.8801348E-01
        4   -1    0    0  501    0  0.00000000000E+00  0.00000000000E+00  0.12649657931E+04  0.12649664306E+04  0.12699999809E+01 0. -1.
       -4   -1    0    0    0  501  0.00000000000E+00  0.00000000000E+00 -0.52614355656E+03  0.52614508931E+03  0.12699999809E+01 0.  1.
    10030    2    1    2    0    0  0.00000000000E+00  0.00000000000E+00  0.73882223653E+03  0.17911115199E+04  0.16316317537E+04 0.  0.
        2    1    3    3  502    0 -0.13727497690E+03 -0.80075086076E+03  0.28793240883E+03  0.86194630479E+03  0.25500000920E-02 0.  1.
       -2    1    3    3    0  502  0.13727497690E+03  0.80075086076E+03  0.45088982770E+03  0.92916521513E+03  0.25500000920E-02 0. -1.
</event>
<event>
 5   0  0.9535394E-05  0.2302543E+04  0.7818609E-02  0.8476919E-01
       -2   -1    0    0    0  501  0.00000000000E+00  0.00000000000E+00  0.10939610494E+04  0.10939610494E+04  0.25500000920E-02 0. -1.
        2   -1    0    0  501    0  0.00000000000E+00  0.00000000000E+00 -0.12115839825E+04  0.12115839825E+04  0.25500000920E-02 0.  1.
    10030    2    1    2    0    0  0.00000000000E+00  0.00000000000E+00 -0.11762293303E+03  0.23055450319E+04  0.23025426684E+04 0.  0.
        2    1    3    3  502    0  0.10225502352E+04  0.52683041272E+03 -0.10648044945E+03  0.11552044639E+04  0.25500000920E-02 0.  1.
       -2    1    3    3    0  502 -0.10225502352E+04 -0.52683041272E+03 -0.11142483588E+02  0.11503405680E+04  0.25500000920E-02 0. -1.
</event>
<event>
 5   0  0.4139830E-05  0.1509736E+04  0.7818609E-02  0.8878004E-01
       -1   -1    0    0    0  501  0.00000000000E+00  0.00000000000E+00  0.54820123863E+03  0.54820123865E+03  0.50400001928E-02 0.  1.
        1   -1    0    0  501    0  0.00000000000E+00  0.00000000000E+00 -0.10394461174E+04  0.10394461174E+04  0.50400001928E-02 0. -1.
    10030    2    1    2    0    0  0.00000000000E+00  0.00000000000E+00 -0.49124487876E+03  0.15876473561E+04  0.15097359359E+04 0.  0.
        1    1    3    3  502    0 -0.54364814796E+03  0.46002071924E+03  0.17601237534E+02  0.71237783128E+03  0.50400001928E-02 0. -1.
       -1    1    3    3    0  502  0.54364814796E+03 -0.46002071924E+03 -0.50884611630E+03  0.87526952478E+03  0.50400001928E-02 0.  1.
</event>
<event>
 5   0  0.4005462E-05  0.2274060E+04  0.7818609E-02  0.8488220E-01
        1   -1    0    0  501    0  0.00000000000E+00  0.00000000000E+00  0.22974649269E+04  0.22974649269E+04  0.50400001928E-02 0.  1.
       -1   -1    0    0    0  501  0.00000000000E+00  0.00000000000E+00 -0.56272350378E+03  0.56272350380E+03  0.50400001928E-02 0. -1.
    10030    2    1    2    0    0  0.00000000000E+00  0.00000000000E+00  0.17347414231E+04  0.28601884307E+04  0.22740602574E+04 0.  0.
        4    1    3    3  502    0  0.16635321352E+03 -0.98685086493E+03  0.15461895468E+04  0.18418066535E+04  0.12699999809E+01 0.  1.
       -4    1    3    3    0  502 -0.16635321352E+03  0.98685086493E+03  0.18855187634E+03  0.10183817773E+04  0.12699999809E+01 0. -1.
</event>
<event>
 5   0  0.9535394E-05  0.2308284E+04  0.7818609E-02  0.8474662E-01
       -2   -1    0    0    0  501  0.00000000000E+00  0.00000000000E+00  0.11702036207E+04  0.11702036207E+04  0.25500000920E-02 0.  1.
        2   -1    0    0  501    0  0.00000000000E+00  0.00000000000E+00 -0.11383009996E+04  0.11383009996E+04  0.25500000920E-02 0. -1.
    10030    2    1    2    0    0  0.00000000000E+00  0.00000000000E+00  0.31902621115E+02  0.23085046203E+04  0.23082841690E+04 0.  0.
        2    1    3    3  502    0  0.53600608856E+03  0.10158202588E+04  0.12932273919E+03  0.11558190585E+04  0.25500000920E-02 0.  1.
       -2    1    3    3    0  502 -0.53600608856E+03 -0.10158202588E+04 -0.97420118079E+02  0.11526855618E+04  0.25500000920E-02 0. -1.
</event>
<event>
 5   0  0.9483073E-05  0.2280649E+04  0.7818609E-02  0.8485590E-01
        2   -1    0    0  501    0  0.00000000000E+00  0.00000000000E+00  0.21371589751E+04  0.21371589751E+04  0.25500000920E-02 0. -1.
       -2   -1    0    0    0  501  0.00000000000E+00  0.00000000000E+00 -0.60844339604E+03  0.60844339605E+03  0.25500000920E-02 0.  1.
    10030    2    1    2    0    0  0.00000000000E+00  0.00000000000E+00  0.15287155791E+04  0.27456023712E+04  0.22806492626E+04 0.  0.
        5    1    3    3  502    0  0.91052539586E+03  0.53177944914E+02  0.15883123183E+04  0.18315683173E+04  0.46999998093E+01 0. -1.
       -5    1    3    3    0  502 -0.91052539586E+03 -0.53177944914E+02 -0.59596739244E+02  0.91403405389E+03  0.46999998093E+01 0.  1.
</event>
<event>
 5   0  0.4005462E-05  0.2305092E+04  0.7818609E-02  0.8475916E-01
        1   -1    0    0  501    0  0.00000000000E+00  0.00000000000E+00  0.15626344072E+04  0.15626344072E+04  0.50400001928E-02 0. -1.
       -1   -1    0    0    0  501  0.00000000000E+00  0.00000000000E+00 -0.85007857017E+03  0.85007857019E+03  0.50400001928E-02 0.  1.
    10030    2    1    2    0    0  0.00000000000E+00  0.00000000000E+00  0.71255583700E+03  0.24127129774E+04  0.23050917748E+04 0.  0.
        4    1    3    3  502    0  0.85758648921E+03  0.52882636252E+03 -0.22953904068E+03  0.10333449048E+04  0.12699999809E+01 0.  1.
       -4    1    3    3    0  502 -0.85758648921E+03 -0.52882636252E+03  0.94209487768E+03  0.13793680726E+04  0.12699999809E+01 0. -1.
</event>
<event>
 5   0  0.3885219E-05  0.2315725E+04  0.7818609E-02  0.8471747E-01
       -1   -1    0    0    0  501  0.00000000000E+00  0.00000000000E+00  0.84557344007E+03  0.84557344008E+03  0.50400001928E-02 0. -1.
        1   -1    0    0  501    0  0.00000000000E+00  0.00000000000E+00 -0.15854868824E+04  0.15854868824E+04  0.50400001928E-02 0.  1.
    10030    2    1    2    0    0  0.00000000000E+00  0.00000000000E+00 -0.73991344231E+03  0.24310603225E+04  0.23157250246E+04 0.  0.
        2    1    3    3  502    0 -0.58562130847E+03 -0.41893593643E+03  0.58194864482E+03  0.92580984061E+03  0.25500000920E-02 0. -1.
       -2    1    3    3    0  502  0.58562130847E+03  0.41893593643E+03 -0.13218620871E+04  0.15052504819E+04  0.25500000920E-02 0.  1.
</event>
<event>
 5   0  0.9312074E-05  0.2304296E+04  0.7818609E-02  0.8476229E-01
       -2   -1    0    0    0  501  0.00000000000E+00  0.00000000000E+00  0.76762824540E+03  0.76762824540E+03  0.25500000920E-02 0. -1.
        2   -1    0    0  501    0  0.00000000000E+00  0.00000000000E+00 -0.17292812019E+04  0.17292812019E+04  0.25500000920E-02 0.  1.
    10030    2    1    2    0    0  0.00000000000E+00  0.00000000000E+00 -0.96165295653E+03  0.24969094473E+04  0.23042960702E+04 0.  0.
        4    1    3    3  502    0  0.14921436375E+03  0.72185988135E+03 -0.14403361854E+04  0.16179976991E+04  0.12699999809E+01 0.  1.
       -4    1    3    3    0  502 -0.14921436375E+03 -0.72185988135E+03  0.47868322882E+03  0.87891174819E+03  0.12699999809E+01 0. -1.
</event>
<event>
 5   0  0.4295775E-05  0.2249553E+04  0.7818609E-02  0.8498081E-01
       -1   -1    0    0    0  501  0.00000000000E+00  0.00000000000E+00  0.12682140934E+04  0.12682140935E+04  0.50400001928E-02 0.  1.
        1   -1    0    0  501    0  0.00000000000E+00  0.00000000000E+00 -0.99756233658E+03  0.99756233659E+03  0.50400001928E-02 0. -1.
    10030    2    1    2    0    0  0.00000000000E+00  0.00000000000E+00  0.27065175686E+03  0.22657764300E+04  0.22495533907E+04 0.  0.
        5    1    3    3  502    0 -0.94573740348E+03 -0.21035576648E+03 -0.44013650384E+03  0.10641480239E+04  0.46999998093E+01 0. -1.
       -5    1    3    3    0  502  0.94573740348E+03  0.21035576648E+03  0.71078826070E+03  0.12016284061E+04  0.46999998093E+01 0.  1.
</event>
<event>
 5   0  0.9312074E-05  0.2268965E+04  0.7818609E-02  0.8490259E-01
        2   -1    0    0  501    0  0.00000000000E+00  0.00000000000E+00  0.24028594744E+04  0.24028594744E+04  0.25500000920E-02 0. -1.
       -2   -1    0    0    0  501  0.00000000000E+00  0.00000000000E+00 -0.53563305151E+03  0.53563305151E+03  0.25500000920E-02 0.  1.
    10030    2    1    2    0    0  0.00000000000E+00  0.00000000000E+00  0.18672264229E+04  0.29384925259E+04  0.22689653612E+04 0.  0.
        4    1    3    3  502    0 -0.52211543139E+02  0.11200860284E+04  0.71030821461E+03  0.13273500400E+04  0.12699999809E+01 0.  1.
       -4    1    3    3    0  502  0.52211543139E+02 -0.11200860284E+04  0.11569182083E+04  0.16111424859E+04  0.12699999809E+01 0. -1.
</event>
<event>
 5   0  0.9312074E-05  0.2293907E+04  0.7818609E-02  0.8480327E-01
       -2   -1    0    0    0  501  0.00000000000E+00  0.00000000000E+00  0.10660420594E+04  0.10660420594E+04  0.25500000920E-02 0. -1.
        2   -1    0    0  501    0  0.00000000000E+00  0.00000000000E+00 -0.12340057167E+04  0.12340057167E+04  0.25500000920E-02 0.  1.
    10030    2    1    2    0    0  0.00000000000E+00  0.00000000000E+00 -0.16796365731E+03  0.23000477761E+04  0.22939067074E+04 0.  0.
        4    1    3    3  502    0  0.68738365730E+02 -0.80366877334E+03  0.73361017329E+03  0.10903182835E+04  0.12699999809E+01 0. -1.
       -4    1    3    3    0  502 -0.68738365730E+02  0.80366877334E+03 -0.90157383060E+03  0.12097294925E+04  0.12699999809E+01 0.  1.
</event>
<event>
 5   0  0.9483073E-05  0.2304410E+04  0.7818609E-02  0.8476184E-01
       -2   -1    0    0    0  501  0.00000000000E+00  0.00000000000E+00  0.10554424513E+04  0.10554424513E+04  0.25500000920E-02 0. -1.
        2   -1    0    0  501    0  0.00000000000E+00  0.00000000000E+00 -0.12578390043E+04  0.12578390043E+04  0.25500000920E-02 0.  1.
    10030    2    1    2    0    0  0.00000000000E+00  0.00000000000E+00 -0.20239655301E+03  0.23132814556E+04  0.23044102777E+04 0.  0.
        5    1    3    3  502    0  0.10349312463E+04  0.38691977523E+03 -0.42920527851E+03  0.11853391321E+04  0.46999998093E+01 0.  1.
       -5    1    3    3    0  502 -0.10349312463E+04 -0.38691977523E+03  0.22680872550E+03  0.11279423235E+04  0.46999998093E+01 0. -1.
</event>
<event>
 5   0  0.3885219E-05  0.2245321E+04  0.7818609E-02  0.8499798E-01
        1   -1    0    0  501    0  0.00000000000E+00  0.00000000000E+00  0.18007814843E+04  0.18007814843E+04  0.50400001928E-02 0.  1.
       -1   -1    0    0    0  501  0.00000000000E+00  0.00000000000E+00 -0.69989985496E+03  0.69989985498E+03  0.50400001928E-02 0. -1.
    10030    2    1    2    0    0  0.00000000000E+00  0.00000000000E+00  0.11008816293E+04  0.25006813393E+04  0.22453210904E+04 0.  0.
        2    1    3    3  502    0  0.32804739233E+03 -0.31124046894E+03 -0.59398430206E+03  0.74652734191E+03  0.25500000920E-02 0. -1.
       -2    1    3    3    0  502 -0.32804739233E+03  0.31124046894E+03  0.16948659314E+04  0.17541539974E+04  0.25500000920E-02 0.  1.
</event>
<event>
 5   0  0.4139830E-05  0.2306178E+04  0.7818609E-02  0.8475489E-01
        1   -1    0    0  501    0  0.00000000000E+00  0.00000000000E+00  0.12827971911E+04  0.12827971911E+04  0.50400001928E-02 0. -1.
       -1   -1    0    0    0  501  0.00000000000E+00  0.00000000000E+00 -0.10364965096E+04  0.10364965096E+04  0.50400001928E-02 0.  1.
    10030    2    1    2    0    0  0.00000000000E+00  0.00000000000E+00  0.24630068153E+03  0.23192937007E+04  0.23061784936E+04 0.  0.
        1    1    3    3  502    0 -0.58787088030E+03  0.23041480156E+03 -0.84718473483E+03  0.10566007418E+04  0.50400001928E-02 0.  1.
       -1    1    3    3    0  502  0.58787088030E+03 -0.23041480156E+03  0.10934854164E+04  0.12626929589E+04  0.50400001928E-02 0. -1.
</event>
<event>
 5   0  0.4295775E-05  0.2146799E+04  0.7818609E-02  0.8540903E-01
       -1   -1    0    0    0  501  0.00000000000E+00  0.00000000000E+00  0.17614429362E+04  0.17614429362E+04  0.50400001928E-02 0.  1.
        1   -1    0    0  501    0  0.00000000000E+00  0.00000000000E+00 -0.65411539445E+03  0.65411539447E+03  0.50400001928E-02 0. -1.
    10030    2    1    2    0    0  0.00000000000E+00  0.00000000000E+00  0.11073275417E+04  0.24155583307E+04  0.21467994234E+04 0.  0.
        5    1    3    3  502    0  0.34099086102E+03  0.20102502234E+03  0.16763079166E+04  0.17224157884E+04  0.46999998093E+01 0.  1.
       -5    1    3    3    0  502 -0.34099086102E+03 -0.20102502234E+03 -0.56898037486E+03  0.69314254225E+03  0.46999998093E+01 0. -1.
</event>
<event>
 5   0  0.9313463E-05  0.2303998E+04  0.7818609E-02  0.8476346E-01
        2   -1    0    0  501    0  0.00000000000E+00  0.00000000000E+00  0.18489380824E+04  0.18489380824E+04  0.25500000920E-02 0.  1.
       -2   -1    0    0    0  501  0.00000000000E+00  0.00000000000E+00 -0.71776449081E+03  0.71776449081E+03  0.25500000920E-02 0. -1.
    10030    2    1    2    0    0  0.00000000000E+00  0.00000000000E+00  0.11311735916E+04  0.25667025732E+04  0.23039983518E+04 0.  0.
        1    1    3    3  502    0  0.73526892936E+03  0.48294760520E+03 -0.26302568172E+03  0.91817280351E+03  0.50400001928E-02 0. -1.
       -1    1    3    3    0  502 -0.73526892936E+03 -0.48294760520E+03  0.13941992733E+04  0.16485297697E+04  0.50400001928E-02 0.  1.
</event>
<event>
 5   0  0.9483073E-05  0.2275444E+04  0.7818609E-02  0.8487666E-01
        2   -1    0    0  501    0  0.00000000000E+00  0.00000000000E+00  0.23760579396E+04  0.23760579396E+04  0.25500000920E-02 0. -1.
       -2   -1    0    0    0  501  0.00000000000E+00  0.00000000000E+00 -0.54477277373E+03  0.54477277373E+03  0.25500000920E-02 0.  1.
    10030    2    1    2    0    0  0.00000000000E+00  0.00000000000E+00  0.18312851659E+04  0.29208307133E+04  0.22754442857E+04 0.  0.
        5    1    3    3  502    0 -0.85205527565E+03 -0.72359254928E+03  0.64393331069E+03  0.12900606841E+04  0.46999998093E+01 0.  1.
       -5    1    3    3    0  502  0.85205527565E+03  0.72359254928E+03  0.11873518552E+04  0.16307700292E+04  0.46999998093E+01 0. -1.
</event>
<event>
 5   0  0.9312074E-05  0.2331475E+04  0.7818609E-02  0.8465613E-01
       -2   -1    0    0    0  501  0.00000000000E+00  0.00000000000E+00  0.66254490447E+03  0.66254490448E+03  0.25500000920E-02 0. -1.
        2   -1    0    0  501    0  0.00000000000E+00  0.00000000000E+00 -0.20510969047E+04  0.20510969047E+04  0.25500000920E-02 0.  1.
    10030    2    1    2    0    0  0.00000000000E+00  0.00000000000E+00 -0.13885520002E+04  0.27136418091E+04  0.23314749004E+04 0.  0.
        4    1    3    3  502    0  0.60638063005E+03 -0.56900148946E+03  0.25663870901E+03  0.87024433544E+03  0.12699999809E+01 0. -1.
       -4    1    3    3    0  502 -0.60638063005E+03  0.56900148946E+03 -0.16451907092E+04  0.18433974737E+04  0.12699999809E+01 0.  1.
</event>
<event>
 5   0  0.4295775E-05  0.2272764E+04  0.7818609E-02  0.8488738E-01
        1   -1    0    0  501    0  0.00000000000E+00  0.00000000000E+00  0.13306292751E+04  0.13306292751E+04  0.50400001928E-02 0. -1.
       -1   -1    0    0    0  501  0.00000000000E+00  0.00000000000E+00 -0.97049134793E+03  0.97049134794E+03  0.50400001928E-02 0.  1.
    10030    2    1    2    0    0  0.00000000000E+00  0.00000000000E+00  0.36013792718E+03  0.23011206231E+04  0.22727641310E+04 0.  0.
        5    1    3    3  502    0 -0.13528497643E+03  0.38237742003E+03 -0.89469662886E+03  0.98235363484E+03  0.46999998093E+01 0.  1.
       -5    1    3    3    0  502  0.13528497643E+03 -0.38237742003E+03  0.12548345560E+04  0.13187669882E+04  0.46999998093E+01 0. -1.
</event>
<event>
 5   0  0.4139830E-05  0.2286951E+04  0.7818609E-02  0.8483084E-01
       -1   -1    0    0    0  501  0.00000000000E+00  0.00000000000E+00  0.89194848684E+03  0.89194848685E+03  0.50400001928E-02 0. -1.
        1   -1    0    0  501    0  0.00000000000E+00  0.00000000000E+00 -0.14659318530E+04  0.14659318531E+04  0.50400001928E-02 0.  1.
    10030    2    1    2    0    0  0.00000000000E+00  0.00000000000E+00 -0.57398336620E+03  0.23578803399E+04  0.22869505444E+04 0.  0.
        1    1    3    3  502    0 -0.80353544087E+03 -0.10597165415E+03 -0.11186294440E+04  0.13813873567E+04  0.50400001928E-02 0.  1.
       -1    1    3    3    0  502  0.80353544087E+03  0.10597165415E+03  0.54464607778E+03  0.97649298322E+03  0.50400001928E-02 0. -1.
</event>
<event>
 5   0  0.3885219E-05  0.2263328E+04  0.7818609E-02  0.8492523E-01
       -1   -1    0    0    0  501  0.00000000000E+00  0.00000000000E+00  0.10921820871E+04  0.10921820871E+04  0.50400001928E-02 0.  1.
        1   -1    0    0  501    0  0.00000000000E+00  0.00000000000E+00 -0.11725726893E+04  0.11725726893E+04  0.50400001928E-02 0. -1.
    10030    2    1    2    0    0  0.00000000000E+00  0.00000000000E+00 -0.80390602163E+02  0.22647547764E+04  0.22633275389E+04 0.  0.
        2    1    3    3  502    0  0.10978257796E+04  0.16825334658E+03  0.17704124583E+03  0.11246662766E+04  0.25500000920E-02 0.  1.
       -2    1    3    3    0  502 -0.10978257796E+04 -0.16825334658E+03 -0.25743184800E+03  0.11400884998E+04  0.25500000920E-02 0. -1.
</event>
<event>
 5   0  0.3885219E-05  0.2520821E+04  0.7818609E-02  0.8395605E-01
        1   -1    0    0  501    0  0.00000000000E+00  0.00000000000E+00  0.20087879215E+04  0.20087879215E+04  0.50400001928E-02 0.  1.
       -1   -1    0    0    0  501  0.00000000000E+00  0.00000000000E+00 -0.79084255684E+03  0.79084255686E+03  0.50400001928E-02 0. -1.
    10030    2    1    2    0    0  0.00000000000E+00  0.00000000000E+00  0.12179453647E+04  0.27996304784E+04  0.25208212757E+04 0.  0.
        2    1    3    3  502    0 -0.31977960112E+03 -0.54561212724E+03 -0.60188124349E+03  0.87304788984E+03  0.25500000920E-02 0. -1.
       -2    1    3    3    0  502  0.31977960112E+03  0.54561212724E+03  0.18198266082E+04  0.19265825886E+04  0.25500000920E-02 0.  1.
</event>
<event>
 5   0  0.4295775E-05  0.2211915E+04  0.7818609E-02  0.8513485E-01
        1   -1    0    0  501    0  0.00000000000E+00  0.00000000000E+00  0.10631174849E+04  0.10631174849E+04  0.50400001928E-02 0. -1.
       -1   -1    0    0    0  501  0.00000000000E+00  0.00000000000E+00 -0.11505237550E+04  0.11505237551E+04  0.50400001928E-02 0.  1.
    10030    2    1    2    0    0  0.00000000000E+00  0.00000000000E+00 -0.87406270133E+02  0.22136412400E+04  0.22119149358E+04 0.  0.
        5    1    3    3  502    0 -0.70090155365E+03 -0.21678511141E+03  0.78450606830E+03  0.10741185380E+04  0.46999998093E+01 0. -1.
       -5    1    3    3    0  502  0.70090155365E+03  0.21678511141E+03 -0.87191233844E+03  0.11395227020E+04  0.46999998093E+01 0.  1.
</event>
<event>
 5   0  0.9313463E-05  0.2282114E+04  0.7818609E-02  0.8485007E-01
       -2   -1    0    0    0  501  0.00000000000E+00  0.00000000000E+00  0.82355452867E+03  0.82355452867E+03  0.25500000920E-02 0.  1.
        2   -1    0    0  501    0  0.00000000000E+00  0.00000000000E+00 -0.15809657721E+04  0.15809657721E+04  0.25500000920E-02 0. -1.
    10030    2    1    2    0    0  0.00000000000E+00  0.00000000000E+00 -0.75741124342E+03  0.24045203008E+04  0.22821143891E+04 0.  0.
        1    1    3    3  502    0  0.54853360880E+03  0.16090011053E+03 -0.14192134615E+04  0.15300146453E+04  0.50400001928E-02 0. -1.
       -1    1    3    3    0  502 -0.54853360880E+03 -0.16090011053E+03  0.66180221807E+03  0.87450565545E+03  0.50400001928E-02 0.  1.
</event>
<event>
 5   0  0.4005462E-05  0.2083576E+04  0.7818609E-02  0.8568513E-01
       -1   -1    0    0    0  501  0.00000000000E+00  0.00000000000E+00  0.99409438002E+03  0.99409438003E+03  0.50400001928E-02 0. -1.
        1   -1    0    0  501    0  0.00000000000E+00  0.00000000000E+00 -0.10917702934E+04  0.10917702934E+04  0.50400001928E-02 0.  1.
    10030    2    1    2    0    0  0.00000000000E+00  0.00000000000E+00 -0.97675913394E+02  0.20858646735E+04  0.20835764569E+04 0.  0.
        4    1    3    3  502    0 -0.10201807275E+04 -0.82063931834E+01 -0.25998435260E+03  0.10528198032E+04  0.12699999809E+01 0.  1.
       -4    1    3    3    0  502  0.10201807275E+04  0.82063931834E+01  0.16230843921E+03  0.10330448702E+04  0.12699999809E+01 0. -1.
</event>
<event>
 5   0  0.4139830E-05  0.2323002E+04  0.7818609E-02  0.8468907E-01
        1   -1    0    0  501    0  0.00000000000E+00  0.00000000000E+00  0.17175383040E+04  0.17175383040E+04  0.50400001928E-02 0. -1.
       -1   -1    0    0    0  501  0.00000000000E+00  0.00000000000E+00 -0.78547546034E+03  0.78547546036E+03  0.50400001928E-02 0.  1.
    10030    2    1    2    0    0  0.00000000000E+00  0.00000000000E+00  0.93206284368E+03  0.25030137644E+04  0.23230016703E+04 0.  0.
        1    1    3    3  502    0 -0.18966388957E+03 -0.63351607747E+03 -0.56282830892E+03  0.86838396851E+03  0.50400001928E-02 0.  1.
       -1    1    3    3    0  502  0.18966388957E+03  0.63351607747E+03  0.14948911526E+04  0.16346297959E+04  0.50400001928E-02 0. -1.
</event>
<event>
 5   0  0.9312074E-05  0.2237356E+04  0.7818609E-02  0.8503039E-01
        2   -1    0    0  501    0  0.00000000000E+00  0.00000000000E+00  0.11591048373E+04  0.11591048374E+04  0.25500000920E-02 0.  1.
       -2   -1    0    0    0  501  0.00000000000E+00  0.00000000000E+00 -0.10796607193E+04  0.10796607193E+04  0.25500000920E-02 0. -1.
    10030    2    1    2    0    0  0.00000000000E+00  0.00000000000E+00  0.79444118044E+02  0.22387655567E+04  0.22373555484E+04 0.  0.
        4    1    3    3  502    0 -0.55736580051E+03  0.15975200345E+03  0.99701772485E+03  0.11533530660E+04  0.12699999809E+01 0.  1.
       -4    1    3    3    0  502  0.55736580051E+03 -0.15975200345E+03 -0.91757360680E+03  0.10854124907E+04  0.12699999809E+01 0. -1.
</event>
<event>
 5   0  0.4295775E-05  0.2287984E+04  0.7818609E-02  0.8482674E-01
       -1   -1    0    0    0  501  0.00000000000E+00  0.00000000000E+00  0.52318830040E+03  0.52318830043E+03  0.50400001928E-02 0.  1.
        1   -1    0    0  501    0  0.00000000000E+00  0.00000000000E+00 -0.25014271930E+04  0.25014271930E+04  0.50400001928E-02 0. -1.
    10030    2    1    2    0    0  0.00000000000E+00  0.00000000000E+00 -0.19782388926E+04  0.30246154934E+04  0.22879837777E+04 0.  0.
        5    1    3    3  502    0  0.18875523711E+03 -0.81853280169E+03  0.37480897531E+02  0.84086348158E+03  0.46999998093E+01 0.  1.
       -5    1    3    3    0  502 -0.18875523711E+03  0.81853280169E+03 -0.20157197901E+04  0.21837520119E+04  0.46999998093E+01 0. -1.
</event>
<event>
 5   0  0.4295775E-05  0.2281792E+04  0.7818609E-02  0.8485135E-01
        1   -1    0    0  501    0  0.00000000000E+00  0.00000000000E+00  0.13665751212E+04  0.13665751212E+04  0.50400001928E-02 0. -1.
       -1   -1    0    0    0  501  0.00000000000E+00  0.00000000000E+00 -0.95248603852E+03  0.95248603853E+03  0.50400001928E-02 0.  1.
    10030    2    1    2    0    0  0.00000000000E+00  0.00000000000E+00  0.41408908269E+03  0.23190611597E+04  0.22817920357E+04 0.  0.
        5    1    3    3  502    0 -0.82555641871E+03  0.67127493401E+03  0.62543352956E+03  0.12342376705E+04  0.46999998093E+01 0.  1.
       -5    1    3    3    0  502  0.82555641871E+03 -0.67127493401E+03 -0.21134444686E+03  0.10848234892E+04  0.46999998093E+01 0. -1.
</event>
<event>
 5   0  0.3885219E-05  0.2337180E+04  0.7818609E-02  0.8463404E-01
       -1   -1    0    0    0  501  0.00000000000E+00  0.00000000000E+00  0.81209384443E+03  0.81209384445E+03  0.50400001928E-02 0. -1.
        1   -1    0    0  501    0  0.00000000000E+00  0.00000000000E+00 -0.16815826239E+04  0.16815826239E+04  0.50400001928E-02 0.  1.
    10030    2    1    2    0    0  0.00000000000E+00  0.00000000000E+00 -0.86948877950E+03  0.24936764684E+04  0.23371802650E+04 0.  0.
        2    1    3    3  502    0  0.10034401797E+04 -0.39425858314E+03 -0.91578913278E+03  0.14145676938E+04  0.25500000920E-02 0.  1.
       -2    1    3    3    0  502 -0.10034401797E+04  0.39425858314E+03  0.46300353282E+02  0.10791087746E+04  0.25500000920E-02 0. -1.
</event>
<event>
 5   0  0.9313463E-05  0.2381153E+04  0.7818609E-02  0.8446594E-01
       -2   -1    0    0    0  501  0.00000000000E+00  0.00000000000E+00  0.23506745909E+04  0.23506745909E+04  0.25500000920E-02 0.  1.
        2   -1    0    0  501    0  0.00000000000E+00  0.00000000000E+00 -0.60300657767E+03  0.60300657767E+03  0.25500000920E-02 0. -1.
    10030    2    1    2    0    0  0.00000000000E+00  0.00000000000E+00  0.17476680132E+04  0.29536811685E+04  0.23811528639E+04 0.  0.
        1    1    3    3  502    0 -0.22151983003E+02 -0.67644242512E+03  0.20888383161E+04  0.21957482952E+04  0.50400001928E-02 0.  1.
       -1    1    3    3    0  502  0.22151983003E+02  0.67644242512E+03 -0.34117030295E+03  0.75793287334E+03  0.50400001928E-02 0. -1.
</event>
<event>
 5   0  0.4005462E-05  0.2137216E+04  0.7818609E-02  0.8545024E-01
        1   -1    0    0  501    0  0.00000000000E+00  0.00000000000E+00  0.10413196321E+04  0.10413196321E+04  0.50400001928E-02 0. -1.
       -1   -1    0    0    0  501  0.00000000000E+00  0.00000000000E+00 -0.10966111374E+04  0.10966111374E+04  0.50400001928E-02 0.  1.
    10030    2    1    2    0    0  0.00000000000E+00  0.00000000000E+00 -0.55291505255E+02  0.21379307695E+04  0.21372156711E+04 0.  0.
        4    1    3    3  502    0  0.91894799674E+03 -0.47542643336E+03 -0.29499044391E+03  0.10758794956E+04  0.12699999809E+01 0.  1.
       -4    1    3    3    0  502 -0.91894799674E+03  0.47542643336E+03  0.23969893866E+03  0.10620512739E+04  0.12699999809E+01 0. -1.
</event>
<event>
 5   0  0.9313463E-05  0.2326228E+04  0.7818609E-02  0.8467651E-01
        2   -1    0    0  501    0  0.00000000000E+00  0.00000000000E+00  0.28919957338E+04  0.28919957338E+04  0.25500000920E-02 0.  1.
       -2   -1    0    0    0  501  0.00000000000E+00  0.00000000000E+00 -0.46778584137E+03  0.46778584137E+03  0.25500000920E-02 0. -1.
    10030    2    1    2    0    0  0.00000000000E+00  0.00000000000E+00  0.24242098924E+04  0.33597815752E+04  0.23262284132E+04 0.  0.
        1    1    3    3  502    0  0.87739683923E+03 -0.68164877050E+03  0.17090052182E+04  0.20384231886E+04  0.50400001928E-02 0.  1.
       -1    1    3    3    0  502 -0.87739683923E+03  0.68164877050E+03  0.71520467424E+03  0.13213583866E+04  0.50400001928E-02 0. -1.
</event>
<event>
 5   0  0.9641157E-05  0.2312768E+04  0.7818609E-02  0.8472904E-01
        2   -1    0    0  501    0  0.00000000000E+00  0.00000000000E+00  0.75056942803E+03  0.75056942804E+03  0.25500000920E-02 0. -1.
       -2   -1    0    0    0  501  0.00000000000E+00  0.00000000000E+00 -0.17816120703E+04  0.17816120703E+04  0.25500000920E-02 0.  1.
    10030    2    1    2    0    0  0.00000000000E+00  0.00000000000E+00 -0.10310426423E+04  0.25321814983E+04  0.23127676516E+04 0.  0.
        3    1    3    3  502    0 -0.14033869674E+03 -0.39671998958E+03 -0.16948052288E+04  0.17462664384E+04  0.10100000352E+00 0.  1.
       -3    1    3    3    0  502  0.14033869674E+03  0.39671998958E+03  0.66376258656E+03  0.78591505995E+03  0.10100000352E+00 0. -1.
</event>
<event>
 5   0  0.9641157E-05  0.2287114E+04  0.7818609E-02  0.8483019E-01
       -2   -1    0    0    0  501  0.00000000000E+00  0.00000000000E+00  0.12785869601E+04  0.12785869601E+04  0.25500000920E-02 0.  1.
        2   -1    0    0  501    0  0.00000000000E+00  0.00000000000E+00 -0.10227875933E+04  0.10227875933E+04  0.25500000920E-02 0. -1.
    10030    2    1    2    0    0  0.00000000000E+00  0.00000000000E+00  0.25579936684E+03  0.23013745534E+04  0.22871142339E+04 0.  0.
        3    1    3    3  502    0  0.31385296590E+03  0.10380480410E+04 -0.23723396415E+03  0.11101024203E+04  0.10100000352E+00 0.  1.
       -3    1    3    3    0  502 -0.31385296590E+03 -0.10380480410E+04  0.49303333099E+03  0.11912721331E+04  0.10100000352E+00 0. -1.
</event>
<event>
 5   0  0.4139830E-05  0.2315112E+04  0.7818609E-02  0.8471986E-01
       -1   -1    0    0    0  501  0.00000000000E+00  0.00000000000E+00  0.31192360741E+04  0.31192360741E+04  0.50400001928E-02 0.  1.
        1   -1    0    0  501    0  0.00000000000E+00  0.00000000000E+00 -0.42957190263E+03  0.42957190266E+03  0.50400001928E-02 0. -1.
    10030    2    1    2    0    0  0.00000000000E+00  0.00000000000E+00  0.26896641715E+04  0.35488079768E+04  0.23151122436E+04 0.  0.
        1    1    3    3  502    0  0.25238030184E+03  0.50168019909E+03 -0.20676366861E+03  0.59843968251E+03  0.50400001928E-02 0. -1.
       -1    1    3    3    0  502 -0.25238030184E+03 -0.50168019909E+03  0.28964278401E+04  0.29503682942E+04  0.50400001928E-02 0.  1.
</event>
<event>
 5   0  0.4295775E-05  0.2336105E+04  0.7818609E-02  0.8463820E-01
       -1   -1    0    0    0  501  0.00000000000E+00  0.00000000000E+00  0.87165403767E+03  0.87165403769E+03  0.50400001928E-02 0. -1.
        1   -1    0    0  501    0  0.00000000000E+00  0.00000000000E+00 -0.15652381597E+04  0.15652381597E+04  0.50400001928E-02 0.  1.
    10030    2    1    2    0    0  0.00000000000E+00  0.00000000000E+00 -0.69358412200E+03  0.24368921974E+04  0.23361045883E+04 0.  0.
        5    1    3    3  502    0 -0.25015279874E+03  0.10127297379E+03  0.83867584254E+03  0.88104023563E+03  0.46999998093E+01 0. -1.
       -5    1    3    3    0  502  0.25015279874E+03 -0.10127297379E+03 -0.15322599645E+04  0.15558519617E+04  0.46999998093E+01 0.  1.
</event>
<event>
 5   0  0.9641157E-05  0.2298326E+04  0.7818609E-02  0.8478581E-01
       -2   -1    0    0    0  501  0.00000000000E+00  0.00000000000E+00  0.15885032597E+04  0.15885032597E+04  0.25500000920E-02 0. -1.
        2   -1    0    0  501    0  0.00000000000E+00  0.00000000000E+00 -0.83133337021E+03  0.83133337022E+03  0.25500000920E-02 0.  1.
    10030    2    1    2    0    0  0.00000000000E+00  0.00000000000E+00  0.75716988945E+03  0.24198366299E+04  0.22983261461E+04 0.  0.
        3    1    3    3  502    0 -0.25013121395E+02  0.96718894970E+03 -0.27427511016E+03  0.10056375922E+04  0.10100000352E+00 0.  1.
       -3    1    3    3    0  502  0.25013121395E+02 -0.96718894970E+03  0.10314449996E+04  0.14141990376E+04  0.10100000352E+00 0. -1.
</event>
<event>
 5   0  0.4295775E-05  0.2352330E+04  0.7818609E-02  0.8457569E-01
        1   -1    0    0  501    0  0.00000000000E+00  0.00000000000E+00  0.83489717365E+03  0.83489717366E+03  0.50400001928E-02 0. -1.
       -1   -1    0    0    0  501  0.00000000000E+00  0.00000000000E+00 -0.16569278202E+04  0.16569278202E+04  0.50400001928E-02 0.  1.
    10030    2    1    2    0    0  0.00000000000E+00  0.00000000000E+00 -0.82203064652E+03  0.24918249938E+04  0.23523302098E+04 0.  0.
        5    1    3    3  502    0  0.54581093195E+03 -0.12904006564E+03  0.68410965679E+03  0.88464061884E+03  0.46999998093E+01 0. -1.
       -5    1    3    3    0  502 -0.54581093195E+03  0.12904006564E+03 -0.15061403033E+04  0.16071843750E+04  0.46999998093E+01 0.  1.
</event>
<event>
 5   0  0.9535394E-05  0.2319498E+04  0.7818609E-02  0.8470273E-01
       -2   -1    0    0    0  501  0.00000000000E+00  0.00000000000E+00  0.61382074718E+03  0.61382074719E+03  0.25500000920E-02 0.  1.
        2   -1    0    0  501    0  0.00000000000E+00  0.00000000000E+00 -0.21912229001E+04  0.21912229001E+04  0.25500000920E-02 0. -1.
    10030    2    1    2    0    0  0.00000000000E+00  0.00000000000E+00 -0.15774021529E+04  0.28050436472E+04  0.23194982887E+04 0.  0.
        2    1    3    3  502    0  0.46644683482E+03 -0.52062218598E+03 -0.19078384028E+04  0.20318630568E+04  0.25500000920E-02 0. -1.
       -2    1    3    3    0  502 -0.46644683482E+03  0.52062218598E+03  0.33043624992E+03  0.77318059049E+03  0.25500000920E-02 0.  1.
</event>
<event>
 5   0  0.4095451E-05  0.2169528E+04  0.7818609E-02  0.8531219E-01
        1   -1    0    0  501    0  0.00000000000E+00  0.00000000000E+00  0.96916824913E+03  0.96916824914E+03  0.50400001928E-02 0. -1.
       -1   -1    0    0    0  501  0.00000000000E+00  0.00000000000E+00 -0.12141475758E+04  0.12141475759E+04  0.50400001928E-02 0.  1.
    10030    2    1    2    0    0  0.00000000000E+00  0.00000000000E+00 -0.24497932672E+03  0.21833158250E+04  0.21695283177E+04 0.  0.
        3    1    3    3  502    0 -0.46576287417E+03  0.92048123617E+03 -0.46002017765E+03  0.11295305818E+04  0.10100000352E+00 0. -1.
       -3    1    3    3    0  502  0.46576287417E+03 -0.92048123617E+03  0.21504085093E+03  0.10537852432E+04  0.10100000352E+00 0.  1.
</event>
<event>
 5   0  0.4139830E-05  0.2329323E+04  0.7818609E-02  0.8466448E-01
        1   -1    0    0  501    0  0.00000000000E+00  0.00000000000E+00  0.10502146303E+04  0.10502146303E+04  0.50400001928E-02 0. -1.
       -1   -1    0    0    0  501  0.00000000000E+00  0.00000000000E+00 -0.12915802363E+04  0.12915802363E+04  0.50400001928E-02 0.  1.
    10030    2    1    2    0    0  0.00000000000E+00  0.00000000000E+00 -0.24136560599E+03  0.23417948666E+04  0.23293230436E+04 0.  0.
        1    1    3    3  502    0  0.91478145910E+03  0.44245651375E+03  0.45143672242E+03  0.11119298534E+04  0.50400001928E-02 0. -1.
       -1    1    3    3    0  502 -0.91478145910E+03 -0.44245651375E+03 -0.69280232841E+03  0.12298650132E+04  0.50400001928E-02 0.  1.
</event>
<event>
 5   0  0.4005462E-05  0.2335023E+04  0.7818609E-02  0.8464239E-01
        1   -1    0    0  501    0  0.00000000000E+00  0.00000000000E+00  0.20216881400E+04  0.20216881400E+04  0.50400001928E-02 0.  1.
       -1   -1    0    0    0  501  0.00000000000E+00  0.00000000000E+00 -0.67423030012E+03  0.67423030014E+03  0.50400001928E-02 0. -1.
    10030    2    1    2    0    0  0.00000000000E+00  0.00000000000E+00  0.13474578398E+04  0.26959184401E+04  0.23350232559E+04 0.  0.
        4    1    3    3  502    0  0.57653464368E+03 -0.55422291949E+03  0.16557996666E+04  0.18388119503E+04  0.12699999809E+01 0.  1.
       -4    1    3    3    0  502 -0.57653464368E+03  0.55422291949E+03 -0.30834182673E+03  0.85710648980E+03  0.12699999809E+01 0. -1.
</event>
<event>
 5   0  0.9312074E-05  0.2301669E+04  0.7818609E-02  0.8477263E-01
        2   -1    0    0  501    0  0.00000000000E+00  0.00000000000E+00  0.11207168483E+04  0.11207168483E+04  0.25500000920E-02 0. -1.
       -2   -1    0    0    0  501  0.00000000000E+00  0.00000000000E+00 -0.11817613153E+04  0.11817613153E+04  0.25500000920E-02 0.  1.
    10030    2    1    2    0    0  0.00000000000E+00  0.00000000000E+00 -0.61044466992E+02  0.23024781636E+04  0.23016688005E+04 0.  0.
        4    1    3    3  502    0  0.10620988541E+04  0.12949695177E+03 -0.45445748306E+03  0.11624786678E+04  0.12699999809E+01 0. -1.
       -4    1    3    3    0  502 -0.10620988541E+04 -0.12949695177E+03  0.39341301607E+03  0.11399994958E+04  0.12699999809E+01 0.  1.
</event>
<event>
 5   0  0.4095451E-05  0.2392749E+04  0.7818609E-02  0.8442223E-01
        1   -1    0    0  501    0  0.00000000000E+00  0.00000000000E+00  0.24968913284E+04  0.24968913284E+04  0.50400001928E-02 0. -1.
       -1   -1    0    0    0  501  0.00000000000E+00  0.00000000000E+00 -0.57323760570E+03  0.57323760572E+03  0.50400001928E-02 0.  1.
    10030    2    1    2    0    0  0.00000000000E+00  0.00000000000E+00  0.19236537227E+04  0.30701289341E+04  0.23927490523E+04 0.  0.
        3    1    3    3  502    0  0.70138994739E+03  0.63867208673E+03  0.18972230866E+04  0.21211566050E+04  0.10100000352E+00 0. -1.
       -3    1    3    3    0  502 -0.70138994739E+03 -0.63867208673E+03  0.26430636144E+02  0.94897232910E+03  0.10100000352E+00 0.  1.
</event>
<event>
 5   0  0.4295775E-05  0.2273389E+04  0.7818609E-02  0.8488488E-01
       -1   -1    0    0    0  501  0.00000000000E+00  0.00000000000E+00  0.69637116741E+03  0.69637116743E+03  0.50400001928E-02 0. -1.
        1   -1    0    0  501    0  0.00000000000E+00  0.00000000000E+00 -0.18554398725E+04  0.18554398725E+04  0.50400001928E-02 0.  1.
    10030    2    1    2    0    0  0.00000000000E+00  0.00000000000E+00 -0.11590687051E+04  0.25518110399E+04  0.22733893904E+04 0.  0.
        5    1    3    3  502    0  0.14879500477E+03 -0.66489469522E+03  0.44174533591E+03  0.81202582531E+03  0.46999998093E+01 0. -1.
       -5    1    3    3    0  502 -0.14879500477E+03  0.66489469522E+03 -0.16008140410E+04  0.17397852146E+04  0.46999998093E+01 0.  1.
</event>
<event>
 5   0  0.4005462E-05  0.2269509E+04  0.7818609E-02  0.8490041E-01
        1   -1    0    0  501    0  0.00000000000E+00  0.00000000000E+00  0.96816913573E+03  0.96816913574E+03  0.50400001928E-02 0.  1.
       -1   -1    0    0    0  501  0.00000000000E+00  0.00000000000E+00 -0.13300026041E+04  0.13300026041E+04  0.50400001928E-02 0. -1.
    10030    2    1    2    0    0  0.00000000000E+00  0.00000000000E+00 -0.36183346835E+03  0.22981717398E+04  0.22695087325E+04 0.  0.
        4    1    3    3  502    0 -0.74415816405E+03  0.40818489325E+03  0.58177527571E+03  0.10290045503E+04  0.12699999809E+01 0.  1.
       -4    1    3    3    0  502  0.74415816405E+03 -0.40818489325E+03 -0.94360874406E+03  0.12691671895E+04  0.12699999809E+01 0. -1.
</event>
<event>
 5   0  0.9535394E-05  0.2293621E+04  0.7818609E-02  0.8480441E-01
        2   -1    0    0  501    0  0.00000000000E+00  0.00000000000E+00  0.14852055804E+04  0.14852055804E+04  0.25500000920E-02 0.  1.
       -2   -1    0    0    0  501  0.00000000000E+00  0.00000000000E+00 -0.88551667094E+03  0.88551667095E+03  0.25500000920E-02 0. -1.
    10030    2    1    2    0    0  0.00000000000E+00  0.00000000000E+00  0.59968890943E+03  0.23707222513E+04  0.22936209811E+04 0.  0.
        2    1    3    3  502    0 -0.60492357672E+02  0.62606737034E+03 -0.69132472553E+03  0.93463872896E+03  0.25500000920E-02 0. -1.
       -2    1    3    3    0  502  0.60492357672E+02 -0.62606737034E+03  0.12910136350E+04  0.14360835224E+04  0.25500000920E-02 0.  1.
</event>
<event>
 5   0  0.9312074E-05  0.2325437E+04  0.7818609E-02  0.8467959E-01
        2   -1    0    0  501    0  0.00000000000E+00  0.00000000000E+00  0.10239627974E+04  0.10239627974E+04  0.25500000920E-02 0. -1.
       -2   -1    0    0    0  501  0.00000000000E+00  0.00000000000E+00 -0.13202772922E+04  0.13202772922E+04  0.25500000920E-02 0.  1.
    10030    2    1    2    0    0  0.00000000000E+00  0.00000000000E+00 -0.29631449473E+03  0.23442400896E+04  0.23254374466E+04 0.  0.
        4    1    3    3  502    0 -0.59032731350E+03  0.41339026847E+03  0.77165412027E+03  0.10558548884E+04  0.12699999809E+01 0. -1.
       -4    1    3    3    0  502  0.59032731350E+03 -0.41339026847E+03 -0.10679686150E+04  0.12883852012E+04  0.12699999809E+01 0.  1.
</event>
<event>
 5   0  0.9312074E-05  0.1627423E+04  0.7818609E-02  0.8803876E-01
        2   -1    0    0  501    0  0.00000000000E+00  0.00000000000E+00  0.14412436685E+04  0.14412436685E+04  0.25500000920E-02 0.  1.
       -2   -1    0    0    0  501  0.00000000000E+00  0.00000000000E+00 -0.45941299657E+03  0.45941299658E+03  0.25500000920E-02 0. -1.
    10030    2    1    2    0    0  0.00000000000E+00  0.00000000000E+00  0.98183067190E+03  0.19006566651E+04  0.16274225911E+04 0.  0.
        4    1    3    3  502    0 -0.48856121313E+03  0.52949518639E+02  0.12483633108E+04  0.13416066038E+04  0.12699999809E+01 0.  1.
       -4    1    3    3    0  502  0.48856121313E+03 -0.52949518639E+02 -0.26653263895E+03  0.55905006129E+03  0.12699999809E+01 0. -1.
</event>
<event>
 5   0  0.4005462E-05  0.2346193E+04  0.7818609E-02  0.8459927E-01
       -1   -1    0    0    0  501  0.00000000000E+00  0.00000000000E+00  0.80284901223E+03  0.80284901224E+03  0.50400001928E-02 0.  1.
        1   -1    0    0  501    0  0.00000000000E+00  0.00000000000E+00 -0.17140896597E+04  0.17140896597E+04  0.50400001928E-02 0. -1.
    10030    2    1    2    0    0  0.00000000000E+00  0.00000000000E+00 -0.91124064747E+03  0.25169386719E+04  0.23461928226E+04 0.  0.
        4    1    3    3  502    0 -0.99000837357E+03 -0.44028483867E+03  0.26754629424E+02  0.10838287420E+04  0.12699999809E+01 0. -1.
       -4    1    3    3    0  502  0.99000837357E+03  0.44028483867E+03 -0.93799527689E+03  0.14331099299E+04  0.12699999809E+01 0.  1.
</event>
<event>
 5   0  0.9535394E-05  0.2317153E+04  0.7818609E-02  0.8471189E-01
       -2   -1    0    0    0  501  0.00000000000E+00  0.00000000000E+00  0.11242044988E+04  0.11242044988E+04  0.25500000920E-02 0. -1.
        2   -1    0    0  501    0  0.00000000000E+00  0.00000000000E+00 -0.11939992538E+04  0.11939992538E+04  0.25500000920E-02 0.  1.
    10030    2    1    2    0    0  0.00000000000E+00  0.00000000000E+00 -0.69794754934E+02  0.23182037526E+04  0.23171528501E+04 0.  0.
        2    1    3    3  502    0  0.98996169030E+03 -0.85950915706E+02  0.56109725600E+03  0.11411581130E+04  0.25500000920E-02 0. -1.
       -2    1    3    3    0  502 -0.98996169030E+03  0.85950915706E+02 -0.63089201093E+03  0.11770456396E+04  0.25500000920E-02 0.  1.
</event>
<event>
 5   0  0.9312074E-05  0.2258570E+04  0.7818609E-02  0.8494438E-01
       -2   -1    0    0    0  501  0.00000000000E+00  0.00000000000E+00  0.80368777846E+03  0.80368777846E+03  0.25500000920E-02 0. -1.
        2   -1    0    0  501    0  0.00000000000E+00  0.00000000000E+00 -0.15867914128E+04  0.15867914128E+04  0.25500000920E-02 0.  1.
    10030    2    1    2    0    0  0.00000000000E+00  0.00000000000E+00 -0.78310363435E+03  0.23904791913E+04  0.22585702251E+04 0.  0.
        4    1    3    3  502    0  0.21879192686E+03  0.52657189965E+03 -0.14232296855E+04  0.15332097780E+04  0.12699999809E+01 0.  1.
       -4    1    3    3    0  502 -0.21879192686E+03 -0.52657189965E+03  0.64012605112E+03  0.85726941330E+03  0.12699999809E+01 0. -1.
</event>
<event>
 5   0  0.9483073E-05  0.2298569E+04  0.7818609E-02  0.8478486E-01
       -2   -1    0    0    0  501  0.00000000000E+00  0.00000000000E+00  0.94958046348E+03  0.94958046348E+03  0.25500000920E-02 0.  1.
        2   -1    0    0  501    0  0.00000000000E+00  0.00000000000E+00 -0.13909876178E+04  0.13909876178E+04  0.25500000920E-02 0. -1.
    10030    2    1    2    0    0  0.00000000000E+00  0.00000000000E+00 -0.44140715431E+03  0.23405680813E+04  0.22985688302E+04 0.  0.
        5    1    3    3  502    0  0.97029329532E+03 -0.11494208858E+02 -0.84777339650E+03  0.12885429824E+04  0.46999998093E+01 0. -1.
       -5    1    3    3    0  502 -0.97029329532E+03  0.11494208858E+02  0.40636624219E+03  0.10520250988E+04  0.46999998093E+01 0.  1.
</event>
<event>
 5   0  0.3885219E-05  0.2367121E+04  0.7818609E-02  0.8451916E-01
       -1   -1    0    0    0  501  0.00000000000E+00  0.00000000000E+00  0.14198161798E+04  0.14198161798E+04  0.50400001928E-02 0.  1.
        1   -1    0    0  501    0  0.00000000000E+00  0.00000000000E+00 -0.98661764734E+03  0.98661764736E+03  0.50400001928E-02 0. -1.
    10030    2    1    2    0    0  0.00000000000E+00  0.00000000000E+00  0.43319853245E+03  0.24064338272E+04  0.23671212043E+04 0.  0.
        2    1    3    3  502    0  0.11049614203E+03  0.17430013947E+01 -0.98136129006E+03  0.98756388001E+03  0.25500000920E-02 0. -1.
       -2    1    3    3    0  502 -0.11049614203E+03 -0.17430013947E+01  0.14145598225E+04  0.14188699472E+04  0.25500000920E-02 0.  1.
</event>
<event>
 5   0  0.9483073E-05  0.2264486E+04  0.7818609E-02  0.8492057E-01
       -2   -1    0    0    0  501  0.00000000000E+00  0.00000000000E+00  0.97279390256E+03  0.97279390257E+03  0.25500000920E-02 0.  1.
        2   -1    0    0  501    0  0.00000000000E+00  0.00000000000E+00 -0.13178275160E+04  0.13178275160E+04  0.25500000920E-02 0. -1.
    10030    2    1    2    0    0  0.00000000000E+00  0.00000000000E+00 -0.34503361344E+03  0.22906214186E+04  0.22644863190E+04 0.  0.
        5    1    3    3  502    0  0.50919076235E+03 -0.83134221649E+03 -0.75496380167E+03  0.12330440159E+04  0.46999998093E+01 0. -1.
       -5    1    3    3    0  502 -0.50919076235E+03  0.83134221649E+03  0.40993018823E+03  0.10575774026E+04  0.46999998093E+01 0.  1.
</event>
<event>
 5   0  0.4295775E-05  0.2429845E+04  0.7818609E-02  0.8428414E-01
       -1   -1    0    0    0  501  0.00000000000E+00  0.00000000000E+00  0.83988415177E+03  0.83988415179E+03  0.50400001928E-02 0. -1.
        1   -1    0    0  501    0  0.00000000000E+00  0.00000000000E+00 -0.17574288239E+04  0.17574288239E+04  0.50400001928E-02 0.  1.
    10030    2    1    2    0    0  0.00000000000E+00  0.00000000000E+00 -0.91754467217E+03  0.25973129757E+04  0.24298449474E+04 0.  0.
        5    1    3    3  502    0 -0.90358016578E+03  0.62779165500E+03  0.91940067193E+02  0.11041080310E+04  0.46999998093E+01 0. -1.
       -5    1    3    3    0  502  0.90358016578E+03 -0.62779165500E+03 -0.10094847394E+04  0.14932049448E+04  0.46999998093E+01 0.  1.
</event>
<event>
 5   0  0.3885219E-05  0.2305176E+04  0.7818609E-02  0.8475883E-01
        1   -1    0    0  501    0  0.00000000000E+00  0.00000000000E+00  0.14255383675E+04  0.14255383675E+04  0.50400001928E-02 0.  1.
       -1   -1    0    0    0  501  0.00000000000E+00  0.00000000000E+00 -0.93189984947E+03  0.93189984948E+03  0.50400001928E-02 0. -1.
    10030    2    1    2    0    0  0.00000000000E+00  0.00000000000E+00  0.49363851806E+03  0.23574382170E+04  0.23051759066E+04 0.  0.
        2    1    3    3  502    0  0.59735396247E+03 -0.49916481582E+03 -0.62242867751E+03  0.99670192557E+03  0.25500000920E-02 0. -1.
       -2    1    3    3    0  502 -0.59735396247E+03  0.49916481582E+03  0.11160671956E+04  0.13607362914E+04  0.25500000920E-02 0.  1.
</event>
<event>
 5   0  0.9313463E-05  0.2303374E+04  0.7818609E-02  0.8476592E-01
        2   -1    0    0  501    0  0.00000000000E+00  0.00000000000E+00  0.12825945920E+04  0.12825945920E+04  0.25500000920E-02 0. -1.
       -2   -1    0    0    0  501  0.00000000000E+00  0.00000000000E+00 -0.10341408252E+04  0.10341408252E+04  0.25500000920E-02 0.  1.
    10030    2    1    2    0    0  0.00000000000E+00  0.00000000000E+00  0.24845376683E+03  0.23167354172E+04  0.23033744200E+04 0.  0.
        1    1    3    3  502    0  0.48010183781E+03  0.79833074992E+03 -0.55686700726E+03  0.10853251240E+04  0.50400001928E-02 0.  1.
       -1    1    3    3    0  502 -0.48010183781E+03 -0.79833074992E+03  0.80532077409E+03  0.12314102932E+04  0.50400001928E-02 0. -1.
</event>
<event>
 5   0  0.4005462E-05  0.1452896E+04  0.7818609E-02  0.8916395E-01
       -1   -1    0    0    0  501  0.00000000000E+00  0.00000000000E+00  0.86531175310E+03  0.86531175312E+03  0.50400001928E-02 0. -1.
        1   -1    0    0  501    0  0.00000000000E+00  0.00000000000E+00 -0.60986905932E+03  0.60986905934E+03  0.50400001928E-02 0.  1.
    10030    2    1    2    0    0  0.00000000000E+00  0.00000000000E+00  0.25544269378E+03  0.14751808125E+04  0.14528962315E+04 0.  0.
        4    1    3    3  502    0  0.55459323778E+03 -0.98460232230E+02 -0.33807119035E+03  0.65693364914E+03  0.12699999809E+01 0.  1.
       -4    1    3    3    0  502 -0.55459323778E+03  0.98460232230E+02  0.59351388413E+03  0.81824716332E+03  0.12699999809E+01 0. -1.
</event>
<event>
 5   0  0.9641157E-05  0.2345299E+04  0.7818609E-02  0.8460271E-01
        2   -1    0    0  501    0  0.00000000000E+00  0.00000000000E+00  0.15375113255E+04  0.15375113255E+04  0.25500000920E-02 0. -1.
       -2   -1    0    0    0  501  0.00000000000E+00  0.00000000000E+00 -0.89437207402E+03  0.89437207402E+03  0.25500000920E-02 0.  1.
    10030    2    1    2    0    0  0.00000000000E+00  0.00000000000E+00  0.64313925148E+03  0.24318833995E+04  0.23452992926E+04 0.  0.
        3    1    3    3  502    0 -0.74368087927E+03 -0.80871482312E+03 -0.10347356750E+03  0.11035341883E+04  0.10100000352E+00 0.  1.
       -3    1    3    3    0  502  0.74368087927E+03  0.80871482312E+03  0.74661281898E+03  0.13283492112E+04  0.10100000352E+00 0. -1.
</event>
<event>
 5   0  0.4295775E-05  0.2679396E+04  0.7818609E-02  0.8341721E-01
        1   -1    0    0  501    0  0.00000000000E+00  0.00000000000E+00  0.16930085295E+04  0.16930085295E+04  0.50400001928E-02 0.  1.
       -1   -1    0    0    0  501  0.00000000000E+00  0.00000000000E+00 -0.10601188572E+04  0.10601188573E+04  0.50400001928E-02 0. -1.
    10030    2    1    2    0    0  0.00000000000E+00  0.00000000000E+00  0.63288967228E+03  0.27531273868E+04  0.26793956540E+04 0.  0.
        5    1    3    3  502    0  0.65047138733E+03 -0.59577933964E+03 -0.71961854645E+03  0.11383931613E+04  0.46999998093E+01 0. -1.
       -5    1    3    3    0  502 -0.65047138733E+03  0.59577933964E+03  0.13525082187E+04  0.16147342255E+04  0.46999998093E+01 0.  1.
</event>
<event>
 5   0  0.4095451E-05  0.2305631E+04  0.7818609E-02  0.8475704E-01
        1   -1    0    0  501    0  0.00000000000E+00  0.00000000000E+00  0.18511806675E+04  0.18511806675E+04  0.50400001928E-02 0. -1.
       -1   -1    0    0    0  501  0.00000000000E+00  0.00000000000E+00 -0.71791139565E+03  0.71791139567E+03  0.50400001928E-02 0.  1.
    10030    2    1    2    0    0  0.00000000000E+00  0.00000000000E+00  0.11332692718E+04  0.25690920632E+04  0.23056311037E+04 0.  0.
        3    1    3    3  502    0  0.72291716803E+03 -0.34056914312E+03 -0.35920588254E+03  0.87614236819E+03  0.10100000352E+00 0.  1.
       -3    1    3    3    0  502 -0.72291716803E+03  0.34056914312E+03  0.14924751544E+04  0.16929496950E+04  0.10100000352E+00 0. -1.
</event>
<event>
 5   0  0.3261500E-05  0.2309532E+04  0.7818609E-02  0.8474172E-01
        3   -1    0    0  501    0  0.00000000000E+00  0.00000000000E+00  0.11283863402E+04  0.11283863447E+04  0.10100000352E+00 0.  1.
       -3   -1    0    0    0  501  0.00000000000E+00  0.00000000000E+00 -0.11817626403E+04  0.11817626446E+04  0.10100000352E+00 0. -1.
    10030    2    1    2    0    0  0.00000000000E+00  0.00000000000E+00 -0.53376300095E+02  0.23101489894E+04  0.23095322738E+04 0.  0.
        4    1    3    3  502    0  0.79317274514E+02  0.73364264968E+03  0.86178349263E+03  0.11345462391E+04  0.12699999809E+01 0.  1.
       -4    1    3    3    0  502 -0.79317274514E+02 -0.73364264968E+03 -0.91515979273E+03  0.11756027503E+04  0.12699999809E+01 0. -1.
</event>
<event>
 5   0  0.9535394E-05  0.2250214E+04  0.7818609E-02  0.8497814E-01
        2   -1    0    0  501    0  0.00000000000E+00  0.00000000000E+00  0.71083907156E+03  0.71083907156E+03  0.25500000920E-02 0.  1.
       -2   -1    0    0    0  501  0.00000000000E+00  0.00000000000E+00 -0.17808045213E+04  0.17808045213E+04  0.25500000920E-02 0. -1.
    10030    2    1    2    0    0  0.00000000000E+00  0.00000000000E+00 -0.10699654498E+04  0.24916435929E+04  0.22502137077E+04 0.  0.
        2    1    3    3  502    0  0.46045428402E+03 -0.16901770622E+03  0.58621823511E+03  0.76435394411E+03  0.25500000920E-02 0.  1.
       -2    1    3    3    0  502 -0.46045428402E+03  0.16901770622E+03 -0.16561836849E+04  0.17272896488E+04  0.25500000920E-02 0. -1.
</event>
<event>
 5   0  0.9483073E-05  0.1911059E+04  0.7818609E-02  0.8649371E-01
       -2   -1    0    0    0  501  0.00000000000E+00  0.00000000000E+00  0.92936895459E+03  0.92936895460E+03  0.25500000920E-02 0. -1.
        2   -1    0    0  501    0  0.00000000000E+00  0.00000000000E+00 -0.98242617422E+03  0.98242617422E+03  0.25500000920E-02 0.  1.
    10030    2    1    2    0    0  0.00000000000E+00  0.00000000000E+00 -0.53057219629E+02  0.19117951288E+04  0.19110587500E+04 0.  0.
        5    1    3    3  502    0 -0.46252979217E+02  0.84222512532E+02  0.92451195731E+03  0.92950374873E+03  0.46999998093E+01 0. -1.
       -5    1    3    3    0  502  0.46252979217E+02 -0.84222512532E+02 -0.97756917694E+03  0.98229138009E+03  0.46999998093E+01 0.  1.
</event>
<event>
 5   0  0.4005462E-05  0.2315937E+04  0.7818609E-02  0.8471664E-01
        1   -1    0    0  501    0  0.00000000000E+00  0.00000000000E+00  0.22414827062E+04  0.22414827062E+04  0.50400001928E-02 0.  1.
       -1   -1    0    0    0  501  0.00000000000E+00  0.00000000000E+00 -0.59821606377E+03  0.59821606379E+03  0.50400001928E-02 0. -1.
    10030    2    1    2    0    0  0.00000000000E+00  0.00000000000E+00  0.16432666424E+04  0.28396987700E+04  0.23159369262E+04 0.  0.
        4    1    3    3  502    0 -0.14358841963E+03 -0.10056537592E+04  0.14011559484E+03  0.10254711651E+04  0.12699999809E+01 0.  1.
       -4    1    3    3    0  502  0.14358841963E+03  0.10056537592E+04  0.15031510476E+04  0.18142276049E+04  0.12699999809E+01 0. -1.
</event>
<event>
 5   0  0.9312074E-05  0.2304058E+04  0.7818609E-02  0.8476323E-01
       -2   -1    0    0    0  501  0.00000000000E+00  0.00000000000E+00  0.70713428533E+03  0.70713428533E+03  0.25500000920E-02 0.  1.
        2   -1    0    0  501    0  0.00000000000E+00  0.00000000000E+00 -0.18768303081E+04  0.18768303081E+04  0.25500000920E-02 0. -1.
    10030    2    1    2    0    0  0.00000000000E+00  0.00000000000E+00 -0.11696960227E+04  0.25839645934E+04  0.23040582098E+04 0.  0.
        4    1    3    3  502    0 -0.93480516731E+03 -0.32037951199E+03 -0.12489576197E+04  0.15926080752E+04  0.12699999809E+01 0. -1.
       -4    1    3    3    0  502  0.93480516731E+03  0.32037951199E+03  0.79261596935E+02  0.99135651820E+03  0.12699999809E+01 0.  1.
</event>
<event>
 5   0  0.4295775E-05  0.2322216E+04  0.7818609E-02  0.8469213E-01
        1   -1    0    0  501    0  0.00000000000E+00  0.00000000000E+00  0.21451199926E+04  0.21451199927E+04  0.50400001928E-02 0.  1.
       -1   -1    0    0    0  501  0.00000000000E+00  0.00000000000E+00 -0.62848292083E+03  0.62848292085E+03  0.50400001928E-02 0. -1.
    10030    2    1    2    0    0  0.00000000000E+00  0.00000000000E+00  0.15166370718E+04  0.27736029135E+04  0.23222155615E+04 0.  0.
        5    1    3    3  502    0  0.47946859698E+03 -0.56629364106E+03  0.18249792812E+04  0.19700634736E+04  0.46999998093E+01 0.  1.
       -5    1    3    3    0  502 -0.47946859698E+03  0.56629364106E+03 -0.30834220934E+03  0.80353943989E+03  0.46999998093E+01 0. -1.
</event>
<event>
 5   0  0.9535394E-05  0.2238923E+04  0.7818609E-02  0.8502400E-01
       -2   -1    0    0    0  501  0.00000000000E+00  0.00000000000E+00  0.11577517700E+04  0.11577517700E+04  0.25500000920E-02 0. -1.
        2   -1    0    0  501    0  0.00000000000E+00  0.00000000000E+00 -0.10824375366E+04  0.10824375366E+04  0.25500000920E-02 0.  1.
    10030    2    1    2    0    0  0.00000000000E+00  0.00000000000E+00  0.75314233394E+02  0.22401893065E+04  0.22389229320E+04 0.  0.
        2    1    3    3  502    0 -0.28684450829E+03 -0.64053701302E+03  0.91028947224E+03  0.11494321904E+04  0.25500000920E-02 0. -1.
       -2    1    3    3    0  502  0.28684450829E+03  0.64053701302E+03 -0.83497523885E+03  0.10907571162E+04  0.25500000920E-02 0.  1.
</event>
<event>
 5   0  0.9641157E-05  0.2109026E+04  0.7818609E-02  0.8557278E-01
        2   -1    0    0  501    0  0.00000000000E+00  0.00000000000E+00  0.11255663023E+04  0.11255663023E+04  0.25500000920E-02 0. -1.
       -2   -1    0    0    0  501  0.00000000000E+00  0.00000000000E+00 -0.98794505323E+03  0.98794505323E+03  0.25500000920E-02 0.  1.
    10030    2    1    2    0    0  0.00000000000E+00  0.00000000000E+00  0.13762124904E+03  0.21135113555E+04  0.21090259936E+04 0.  0.
        3    1    3    3  502    0  0.46541054273E+03 -0.48398233455E+03  0.88365230887E+03  0.11098140775E+04  0.10100000352E+00 0. -1.
       -3    1    3    3    0  502 -0.46541054273E+03  0.48398233455E+03 -0.74603105983E+03  0.10036972780E+04  0.10100000352E+00 0.  1.
</event>
<event>
 5   0  0.3885219E-05  0.2274524E+04  0.7818609E-02  0.8488034E-01
       -1   -1    0    0    0  501  0.00000000000E+00  0.00000000000E+00  0.98773469341E+03  0.98773469342E+03  0.50400001928E-02 0. -1.
        1   -1    0    0  501    0  0.00000000000E+00  0.00000000000E+00 -0.13094256974E+04  0.13094256974E+04  0.50400001928E-02 0.  1.
    10030    2    1    2    0    0  0.00000000000E+00  0.00000000000E+00 -0.32169100398E+03  0.22971603908E+04  0.22745242929E+04 0.  0.
        2    1    3    3  502    0  0.20897497986E+03 -0.77873723891E+03  0.64917313660E+03  0.10351463620E+04  0.25500000920E-02 0. -1.
       -2    1    3    3    0  502 -0.20897497986E+03  0.77873723891E+03 -0.97086414058E+03  0.12620140288E+04  0.25500000920E-02 0.  1.
</event>
<event>
 5   0  0.4295775E-05  0.2295700E+04  0.7818609E-02  0.8479618E-01
       -1   -1    0    0    0  501  0.00000000000E+00  0.00000000000E+00  0.48661087489E+03  0.48661087492E+03  0.50400001928E-02 0.  1.
        1   -1    0    0  501    0  0.00000000000E+00  0.00000000000E+00 -0.27076244911E+04  0.27076244911E+04  0.50400001928E-02 0. -1.
    10030    2    1    2    0    0  0.00000000000E+00  0.00000000000E+00 -0.22210136162E+04  0.31942353660E+04  0.22956999129E+04 0.  0.
        5    1    3    3  502    0 -0.92937428429E+03 -0.48755892749E+03 -0.46371236302E+03  0.11473889984E+04  0.46999998093E+01 0. -1.
       -5    1    3    3    0  502  0.92937428429E+03  0.48755892749E+03 -0.17573012532E+04  0.20468463676E+04  0.46999998093E+01 0.  1.
</event>
<event>
 5   0  0.9641157E-05  0.2199767E+04  0.7818609E-02  0.8518525E-01
       -2   -1    0    0    0  501  0.00000000000E+00  0.00000000000E+00  0.12837517573E+04  0.12837517573E+04  0.25500000920E-02 0.  1.
        2   -1    0    0  501    0  0.00000000000E+00  0.00000000000E+00 -0.94235045542E+03  0.94235045543E+03  0.25500000920E-02 0. -1.
    10030    2    1    2    0    0  0.00000000000E+00  0.00000000000E+00  0.34140130191E+03  0.22261022128E+04  0.21997673088E+04 0.  0.
        3    1    3    3  502    0 -0.45817349845E+03 -0.81600310150E+03 -0.41411044109E+03  0.10233628310E+04  0.10100000352E+00 0. -1.
       -3    1    3    3    0  502  0.45817349845E+03  0.81600310150E+03  0.75551174300E+03  0.12027393817E+04  0.10100000352E+00 0.  1.
</event>
<event>
 5   0  0.9641157E-05  0.1553928E+04  0.7818609E-02  0.8849363E-01
       -2   -1    0    0    0  501  0.00000000000E+00  0.00000000000E+00  0.73637558238E+03  0.73637558238E+03  0.25500000920E-02 0. -1.
        2   -1    0    0  501    0  0.00000000000E+00  0.00000000000E+00 -0.81978914789E+03  0.81978914789E+03  0.25500000920E-02 0.  1.
    10030    2    1    2    0    0  0.00000000000E+00  0.00000000000E+00 -0.83413565509E+02  0.15561647303E+04  0.15539275546E+04 0.  0.
        3    1    3    3  502    0 -0.72020408006E+03  0.29151006732E+03 -0.42523265636E+02  0.77812613026E+03  0.10100000352E+00 0.  1.
       -3    1    3    3    0  502  0.72020408006E+03 -0.29151006732E+03 -0.40890299873E+02  0.77803860001E+03  0.10100000352E+00 0. -1.
</event>
<event>
 5   0  0.9535394E-05  0.2423030E+04  0.7818609E-02  0.8430932E-01
       -2   -1    0    0    0  501  0.00000000000E+00  0.00000000000E+00  0.13676769308E+04  0.13676769308E+04  0.25500000920E-02 0. -1.
        2   -1    0    0  501    0  0.00000000000E+00  0.00000000000E+00 -0.10731835865E+04  0.10731835865E+04  0.25500000920E-02 0.  1.
    10030    2    1    2    0    0  0.00000000000E+00  0.00000000000E+00  0.29449334434E+03  0.24408605173E+04  0.24230298667E+04 0.  0.
        2    1    3    3  502    0 -0.10920453378E+04 -0.20437618841E+03 -0.33946068790E+03  0.11617083132E+04  0.25500000920E-02 0. -1.
       -2    1    3    3    0  502  0.10920453378E+04  0.20437618841E+03  0.63395403224E+03  0.12791522041E+04  0.25500000920E-02 0.  1.
</event>
<event>
 5   0  0.4139830E-05  0.2298247E+04  0.7818609E-02  0.8478613E-01
        1   -1    0    0  501    0  0.00000000000E+00  0.00000000000E+00  0.11609680062E+04  0.11609680062E+04  0.50400001928E-02 0. -1.
       -1   -1    0    0    0  501  0.00000000000E+00  0.00000000000E+00 -0.11373993659E+04  0.11373993659E+04  0.50400001928E-02 0.  1.
    10030    2    1    2    0    0  0.00000000000E+00  0.00000000000E+00  0.23568640295E+02  0.22983673720E+04  0.22982465264E+04 0.  0.
        1    1    3    3  502    0 -0.22102826053E+03  0.11170140695E+04 -0.14285353116E+03  0.11475979500E+04  0.50400001928E-02 0.  1.
       -1    1    3    3    0  502  0.22102826053E+03 -0.11170140695E+04  0.16642217146E+03  0.11507694220E+04  0.50400001928E-02 0. -1.
</event>
<event>
 5   0  0.9312074E-05  0.2104512E+04  0.7818609E-02  0.8559258E-01
        2   -1    0    0  501    0  0.00000000000E+00  0.00000000000E+00  0.10034894627E+04  0.10034894627E+04  0.25500000920E-02 0. -1.
       -2   -1    0    0    0  501  0.00000000000E+00  0.00000000000E+00 -0.11033925236E+04  0.11033925236E+04  0.25500000920E-02 0.  1.
    10030    2    1    2    0    0  0.00000000000E+00  0.00000000000E+00 -0.99903060885E+02  0.21068819863E+04  0.21045120770E+04 0.  0.
        4    1    3    3  502    0 -0.84587806110E+03  0.43451833062E+03  0.40102804001E+03  0.10320566727E+04  0.12699999809E+01 0. -1.
       -4    1    3    3    0  502  0.84587806110E+03 -0.43451833062E+03 -0.50093110089E+03  0.10748253135E+04  0.12699999809E+01 0.  1.
</event>
<event>
 5   0  0.9641157E-05  0.2262190E+04  0.7818609E-02  0.8492980E-01
       -2   -1    0    0    0  501  0.00000000000E+00  0.00000000000E+00  0.77627697431E+03  0.77627697432E+03  0.25500000920E-02 0. -1.
        2   -1    0    0  501    0  0.00000000000E+00  0.00000000000E+00 -0.16480918504E+04  0.16480918504E+04  0.25500000920E-02 0.  1.
    10030    2    1    2    0    0  0.00000000000E+00  0.00000000000E+00 -0.87181487606E+03  0.24243688247E+04  0.22621898727E+04 0.  0.
        3    1    3    3  502    0 -0.36374792117E+03 -0.99251265479E+03 -0.86723060009E+03  0.13672903291E+04  0.10100000352E+00 0.  1.
       -3    1    3    3    0  502  0.36374792117E+03  0.99251265479E+03 -0.45842759698E+01  0.10570784956E+04  0.10100000352E+00 0. -1.
</event>
<event>
 5   0  0.3885219E-05  0.2383445E+04  0.7818609E-02  0.8445728E-01
        1   -1    0    0  501    0  0.00000000000E+00  0.00000000000E+00  0.90051935000E+03  0.90051935002E+03  0.50400001928E-02 0.  1.
       -1   -1    0    0    0  501  0.00000000000E+00  0.00000000000E+00 -0.15770922626E+04  0.15770922626E+04  0.50400001928E-02 0. -1.
    10030    2    1    2    0    0  0.00000000000E+00  0.00000000000E+00 -0.67657291262E+03  0.24776116127E+04  0.23834446495E+04 0.  0.
        2    1    3    3  502    0 -0.90420176672E+03 -0.58452925269E+02  0.46637962927E+03  0.10190719003E+04  0.25500000920E-02 0.  1.
       -2    1    3    3    0  502  0.90420176672E+03  0.58452925269E+02 -0.11429525419E+04  0.14585397123E+04  0.25500000920E-02 0. -1.
</event>
<event>
 5   0  0.4139830E-05  0.2336669E+04  0.7818609E-02  0.8463602E-01
       -1   -1    0    0    0  501  0.00000000000E+00  0.00000000000E+00  0.73276828755E+03  0.73276828756E+03  0.50400001928E-02 0.  1.
        1   -1    0    0  501    0  0.00000000000E+00  0.00000000000E+00 -0.18628071564E+04  0.18628071564E+04  0.50400001928E-02 0. -1.
    10030    2    1    2    0    0  0.00000000000E+00  0.00000000000E+00 -0.11300388689E+04  0.25955754440E+04  0.23366694332E+04 0.  0.
        1    1    3    3  502    0  0.98798959413E+03  0.14947841917E+03  0.10748684034E+03  0.10049978392E+04  0.50400001928E-02 0.  1.
       -1    1    3    3    0  502 -0.98798959413E+03 -0.14947841917E+03 -0.12375257092E+04  0.15905776048E+04  0.50400001928E-02 0. -1.
</event>
<event>
 5   0  0.9313463E-05  0.2160168E+04  0.7818609E-02  0.8535192E-01
       -2   -1    0    0    0  501  0.00000000000E+00  0.00000000000E+00  0.51935205384E+03  0.51935205384E+03  0.25500000920E-02 0.  1.
        2   -1    0    0  501    0  0.00000000000E+00  0.00000000000E+00 -0.22462243302E+04  0.22462243302E+04  0.25500000920E-02 0. -1.
    10030    2    1    2    0    0  0.00000000000E+00  0.00000000000E+00 -0.17268722764E+04  0.27655763841E+04  0.21601677891E+04 0.  0.
        1    1    3    3  502    0 -0.42288557460E+02  0.42178738805E+03 -0.21352752356E+04  0.21769458548E+04  0.50400001928E-02 0. -1.
       -1    1    3    3    0  502  0.42288557460E+02 -0.42178738805E+03  0.40840295926E+03  0.58863052925E+03  0.50400001928E-02 0.  1.
</event>
<event>
 5   0  0.4295775E-05  0.2317939E+04  0.7818609E-02  0.8470882E-01
        1   -1    0    0  501    0  0.00000000000E+00  0.00000000000E+00  0.17339498807E+04  0.17339498807E+04  0.50400001928E-02 0. -1.
       -1   -1    0    0    0  501  0.00000000000E+00  0.00000000000E+00 -0.77465330656E+03  0.77465330658E+03  0.50400001928E-02 0.  1.
    10030    2    1    2    0    0  0.00000000000E+00  0.00000000000E+00  0.95929657415E+03  0.25086031873E+04  0.23179387468E+04 0.  0.
        5    1    3    3  502    0  0.88043500991E+03 -0.70607670505E+03  0.19438029928E+03  0.11452143515E+04  0.46999998093E+01 0.  1.
       -5    1    3    3    0  502 -0.88043500991E+03  0.70607670505E+03  0.76491627487E+03  0.13633888358E+04  0.46999998093E+01 0. -1.
</event>
<event>
 5   0  0.4139830E-05  0.2353326E+04  0.7818609E-02  0.8457187E-01
       -1   -1    0    0    0  501  0.00000000000E+00  0.00000000000E+00  0.12673146753E+04  0.12673146753E+04  0.50400001928E-02 0. -1.
        1   -1    0    0  501    0  0.00000000000E+00  0.00000000000E+00 -0.10924954601E+04  0.10924954601E+04  0.50400001928E-02 0.  1.
    10030    2    1    2    0    0  0.00000000000E+00  0.00000000000E+00  0.17481921521E+03  0.23598101354E+04  0.23533257567E+04 0.  0.
        1    1    3    3  502    0  0.11547651105E+04  0.10876613642E+03  0.28600327619E+03  0.11946172637E+04  0.50400001928E-02 0. -1.
       -1    1    3    3    0  502 -0.11547651105E+04 -0.10876613642E+03 -0.11118406098E+03  0.11651928717E+04  0.50400001928E-02 0.  1.
</event>
<event>
 5   0  0.9641157E-05  0.2280431E+04  0.7818609E-02  0.8485677E-01
       -2   -1    0    0    0  501  0.00000000000E+00  0.00000000000E+00  0.71059292134E+03  0.71059292135E+03  0.25500000920E-02 0.  1.
        2   -1    0    0  501    0  0.00000000000E+00  0.00000000000E+00 -0.18295859880E+04  0.18295859880E+04  0.25500000920E-02 0. -1.
    10030    2    1    2    0    0  0.00000000000E+00  0.00000000000E+00 -0.11189930666E+04  0.25401789093E+04  0.22804305313E+04 0.  0.
        3    1    3    3  502    0 -0.53571948460E+03 -0.92166969548E+02  0.55696612655E+03  0.77826820106E+03  0.10100000352E+00 0.  1.
       -3    1    3    3    0  502  0.53571948460E+03  0.92166969548E+02 -0.16759591932E+04  0.17619107083E+04  0.10100000352E+00 0. -1.
</event>
<event>
 5   0  0.4139830E-05  0.2253151E+04  0.7818609E-02  0.8496626E-01
       -1   -1    0    0    0  501  0.00000000000E+00  0.00000000000E+00  0.71503190115E+03  0.71503190117E+03  0.50400001928E-02 0.  1.
        1   -1    0    0  501    0  0.00000000000E+00  0.00000000000E+00 -0.17749866050E+04  0.17749866050E+04  0.50400001928E-02 0. -1.
    10030    2    1    2    0    0  0.00000000000E+00  0.00000000000E+00 -0.10599547038E+04  0.24900185061E+04  0.22531507244E+04 0.  0.
        1    1    3    3  502    0  0.57112179943E+02  0.98331059374E+03  0.74326782422E+02  0.98776818914E+03  0.50400001928E-02 0.  1.
       -1    1    3    3    0  502 -0.57112179943E+02 -0.98331059374E+03 -0.11342814862E+04  0.15022503170E+04  0.50400001928E-02 0. -1.
</event>
<event>
 5   0  0.4139830E-05  0.1877026E+04  0.7818609E-02  0.8666377E-01
       -1   -1    0    0    0  501  0.00000000000E+00  0.00000000000E+00  0.48404945186E+03  0.48404945189E+03  0.50400001928E-02 0. -1.
        1   -1    0    0  501    0  0.00000000000E+00  0.00000000000E+00 -0.18196620864E+04  0.18196620864E+04  0.50400001928E-02 0.  1.
    10030    2    1    2    0    0  0.00000000000E+00  0.00000000000E+00 -0.13356126346E+04  0.23037115383E+04  0.18770257702E+04 0.  0.
        1    1    3    3  502    0 -0.70905114336E+03  0.46373506443E+03 -0.17229307691E+03  0.86457425261E+03  0.50400001928E-02 0. -1.
       -1    1    3    3    0  502  0.70905114336E+03 -0.46373506443E+03 -0.11633195576E+04  0.14391372857E+04  0.50400001928E-02 0.  1.
</event>
<event>
 5   0  0.3885219E-05  0.2351083E+04  0.7818609E-02  0.8458048E-01
        1   -1    0    0  501    0  0.00000000000E+00  0.00000000000E+00  0.13654611576E+04  0.13654611576E+04  0.50400001928E-02 0. -1.
       -1   -1    0    0    0  501  0.00000000000E+00  0.00000000000E+00 -0.10120376482E+04  0.10120376482E+04  0.50400001928E-02 0.  1.
    10030    2    1    2    0    0  0.00000000000E+00  0.00000000000E+00  0.35342350940E+03  0.23774988058E+04  0.23510832386E+04 0.  0.
        2    1    3    3  502    0  0.48009413882E+03  0.95260946588E+03  0.67616680969E+03  0.12629951430E+04  0.25500000920E-02 0. -1.
       -2    1    3    3    0  502 -0.48009413882E+03 -0.95260946588E+03 -0.32274330029E+03  0.11145036629E+04  0.25500000920E-02 0.  1.
</event>
<event>
 5   0  0.9313463E-05  0.2325492E+04  0.7818609E-02  0.8467937E-01
        2   -1    0    0  501    0  0.00000000000E+00  0.00000000000E+00  0.23130837419E+04  0.23130837419E+04  0.25500000920E-02 0.  1.
       -2   -1    0    0    0  501  0.00000000000E+00  0.00000000000E+00 -0.58449146333E+03  0.58449146334E+03  0.25500000920E-02 0. -1.
    10030    2    1    2    0    0  0.00000000000E+00  0.00000000000E+00  0.17285922786E+04  0.28975752052E+04  0.23254915189E+04 0.  0.
        1    1    3    3  502    0  0.11067337319E+04 -0.19630751911E+03  0.49345194376E+03  0.12275548934E+04  0.50400001928E-02 0. -1.
       -1    1    3    3    0  502 -0.11067337319E+04  0.19630751911E+03  0.12351403348E+04  0.16700203119E+04  0.50400001928E-02 0.  1.
</event>
<event>
 5   0  0.3261500E-05  0.2237794E+04  0.7818609E-02  0.8502860E-01
        3   -1    0    0  501    0  0.00000000000E+00  0.00000000000E+00  0.13422435932E+04  0.13422435970E+04  0.10100000352E+00 0.  1.
       -3   -1    0    0    0  501  0.00000000000E+00  0.00000000000E+00 -0.93271470394E+03  0.93271470940E+03  0.10100000352E+00 0. -1.
    10030    2    1    2    0    0  0.00000000000E+00  0.00000000000E+00  0.40952888927E+03  0.22749583064E+04  0.22377938656E+04 0.  0.
        4    1    3    3  502    0  0.42391952907E+02 -0.11160239799E+04  0.13564909188E+03  0.11250372840E+04  0.12699999809E+01 0. -1.
       -4    1    3    3    0  502 -0.42391952907E+02  0.11160239799E+04  0.27387979739E+03  0.11499210224E+04  0.12699999809E+01 0.  1.
</event>
<event>
 5   0  0.9641157E-05  0.2254098E+04  0.7818609E-02  0.8496243E-01
       -2   -1    0    0    0  501  0.00000000000E+00  0.00000000000E+00  0.79759196914E+03  0.79759196914E+03  0.25500000920E-02 0. -1.
        2   -1    0    0  501    0  0.00000000000E+00  0.00000000000E+00 -0.15925929076E+04  0.15925929076E+04  0.25500000920E-02 0.  1.
    10030    2    1    2    0    0  0.00000000000E+00  0.00000000000E+00 -0.79500093844E+03  0.23901848767E+04  0.22540978800E+04 0.  0.
        3    1    3    3  502    0 -0.11171118181E+04 -0.97224074829E+02 -0.27730836209E+03  0.11551152638E+04  0.10100000352E+00 0. -1.
       -3    1    3    3    0  502  0.11171118181E+04  0.97224074829E+02 -0.51769257635E+03  0.12350696129E+04  0.10100000352E+00 0.  1.
</event>
<event>
 5   0  0.9535394E-05  0.2321413E+04  0.7818609E-02  0.8469526E-01
        2   -1    0    0  501    0  0.00000000000E+00  0.00000000000E+00  0.15401153216E+04  0.15401153216E+04  0.25500000920E-02 0.  1.
       -2   -1    0    0    0  501  0.00000000000E+00  0.00000000000E+00 -0.87476520368E+03  0.87476520368E+03  0.25500000920E-02 0. -1.
    10030    2    1    2    0    0  0.00000000000E+00  0.00000000000E+00  0.66535011794E+03  0.24148805253E+04  0.23214127535E+04 0.  0.
        2    1    3    3  502    0  0.54452555555E+03  0.17669003477E+03  0.13830380733E+04  0.14968372527E+04  0.25500000920E-02 0.  1.
       -2    1    3    3    0  502 -0.54452555555E+03 -0.17669003477E+03 -0.71768795534E+03  0.91804327256E+03  0.25500000920E-02 0. -1.
</event>
<event>
 5   0  0.9313463E-05  0.2299268E+04  0.7818609E-02  0.8478210E-01
       -2   -1    0    0    0  501  0.00000000000E+00  0.00000000000E+00  0.13105642347E+04  0.13105642347E+04  0.25500000920E-02 0. -1.
        2   -1    0    0  501    0  0.00000000000E+00  0.00000000000E+00 -0.10084652686E+04  0.10084652686E+04  0.25500000920E-02 0.  1.
    10030    2    1    2    0    0  0.00000000000E+00  0.00000000000E+00  0.30209896609E+03  0.23190295033E+04  0.22992681558E+04 0.  0.
        1    1    3    3  502    0 -0.64497348683E+03  0.84700872765E+03 -0.28655034174E+03  0.11025088126E+04  0.50400001928E-02 0.  1.
       -1    1    3    3    0  502  0.64497348683E+03 -0.84700872765E+03  0.58864930782E+03  0.12165206908E+04  0.50400001928E-02 0. -1.
</event>
<event>
 5   0  0.9641157E-05  0.2267552E+04  0.7818609E-02  0.8490826E-01
       -2   -1    0    0    0  501  0.00000000000E+00  0.00000000000E+00  0.58949346410E+03  0.58949346411E+03  0.25500000920E-02 0. -1.
        2   -1    0    0  501    0  0.00000000000E+00  0.00000000000E+00 -0.21805975185E+04  0.21805975185E+04  0.25500000920E-02 0.  1.
    10030    2    1    2    0    0  0.00000000000E+00  0.00000000000E+00 -0.15911040544E+04  0.27700909826E+04  0.22675519708E+04 0.  0.
        3    1    3    3  502    0 -0.19797495059E+03  0.27395914826E+03  0.52651163193E+03  0.62566940531E+03  0.10100000352E+00 0. -1.
       -3    1    3    3    0  502  0.19797495059E+03 -0.27395914826E+03 -0.21176156864E+04  0.21444215773E+04  0.10100000352E+00 0.  1.
</event>
<event>
 5   0  0.4139830E-05  0.2236946E+04  0.7818609E-02  0.8503206E-01
       -1   -1    0    0    0  501  0.00000000000E+00  0.00000000000E+00  0.49345151388E+03  0.49345151391E+03  0.50400001928E-02 0.  1.
        1   -1    0    0  501    0  0.00000000000E+00  0.00000000000E+00 -0.25351674968E+04  0.25351674968E+04  0.50400001928E-02 0. -1.
    10030    2    1    2    0    0  0.00000000000E+00  0.00000000000E+00 -0.20417159829E+04  0.30286190107E+04  0.22369463465E+04 0.  0.
        1    1    3    3  502    0  0.94191765148E+03 -0.71592466702E+02 -0.21004029263E+03  0.96770412215E+03  0.50400001928E-02 0.  1.
       -1    1    3    3    0  502 -0.94191765148E+03  0.71592466702E+02 -0.18316756903E+04  0.20609148885E+04  0.50400001928E-02 0. -1.
</event>
<event>
 5   0  0.3261500E-05  0.1801976E+04  0.7818609E-02  0.8705249E-01
        3   -1    0    0  501    0  0.00000000000E+00  0.00000000000E+00  0.12407055978E+04  0.12407056019E+04  0.10100000352E+00 0.  1.
       -3   -1    0    0    0  501  0.00000000000E+00  0.00000000000E+00 -0.65428856486E+03  0.65428857266E+03  0.10100000352E+00 0. -1.
    10030    2    1    2    0    0  0.00000000000E+00  0.00000000000E+00  0.58641703291E+03  0.18949941745E+04  0.18019761333E+04 0.  0.
        2    1    3    3  502    0 -0.41806825375E+03  0.71846644023E+03  0.65871933109E+03  0.10606065471E+04  0.25500000920E-02 0.  1.
       -2    1    3    3    0  502  0.41806825375E+03 -0.71846644023E+03 -0.72302298182E+02  0.83438762746E+03  0.25500000920E-02 0. -1.
</event>
<event>
 5   0  0.3261500E-05  0.2315768E+04  0.7818609E-02  0.8471730E-01
        3   -1    0    0  501    0  0.00000000000E+00  0.00000000000E+00  0.18750568287E+04  0.18750568314E+04  0.10100000352E+00 0.  1.
       -3   -1    0    0    0  501  0.00000000000E+00  0.00000000000E+00 -0.71501568552E+03  0.71501569265E+03  0.10100000352E+00 0. -1.
    10030    2    1    2    0    0  0.00000000000E+00  0.00000000000E+00  0.11600411431E+04  0.25900725240E+04  0.23157677401E+04 0.  0.
        5    1    3    3  502    0 -0.86308705326E+03  0.44384077070E+03 -0.12625179623E+03  0.97871114088E+03  0.46999998093E+01 0. -1.
       -5    1    3    3    0  502  0.86308705326E+03 -0.44384077070E+03  0.12862929394E+04  0.16113613831E+04  0.46999998093E+01 0.  1.
</event>
<event>
 5   0  0.9312074E-05  0.2335144E+04  0.7818609E-02  0.8464192E-01
       -2   -1    0    0    0  501  0.00000000000E+00  0.00000000000E+00  0.54884897360E+03  0.54884897360E+03  0.25500000920E-02 0.  1.
        2   -1    0    0  501    0  0.00000000000E+00  0.00000000000E+00 -0.24837872168E+04  0.24837872168E+04  0.25500000920E-02 0. -1.
    10030    2    1    2    0    0  0.00000000000E+00  0.00000000000E+00 -0.19349382432E+04  0.30326361904E+04  0.23351437340E+04 0.  0.
        4    1    3    3  502    0  0.30785079427E+02 -0.47018968916E+03  0.41988359757E+03  0.63113383154E+03  0.12699999809E+01 0.  1.
       -4    1    3    3    0  502 -0.30785079427E+02  0.47018968916E+03 -0.23548218408E+04  0.24015023589E+04  0.12699999809E+01 0. -1.
</event>
<event>
 5   0  0.9535394E-05  0.2277882E+04  0.7818609E-02  0.8486693E-01
        2   -1    0    0  501    0  0.00000000000E+00  0.00000000000E+00  0.17650880183E+04  0.17650880183E+04  0.25500000920E-02 0.  1.
       -2   -1    0    0    0  501  0.00000000000E+00  0.00000000000E+00 -0.73491341365E+03  0.73491341366E+03  0.25500000920E-02 0. -1.
    10030    2    1    2    0    0  0.00000000000E+00  0.00000000000E+00  0.10301746047E+04  0.25000014320E+04  0.22778822278E+04 0.  0.
        2    1    3    3  502    0  0.10776749198E+04 -0.20955499477E+03  0.18239411907E+03  0.11129079671E+04  0.25500000920E-02 0. -1.
       -2    1    3    3    0  502 -0.10776749198E+04  0.20955499477E+03  0.84778048563E+03  0.13870934649E+04  0.25500000920E-02 0.  1.
</event>
<event>
 5   0  0.3885219E-05  0.2325782E+04  0.7818609E-02  0.8467824E-01
        1   -1    0    0  501    0  0.00000000000E+00  0.00000000000E+00  0.10721979176E+04  0.10721979176E+04  0.50400001928E-02 0.  1.
       -1   -1    0    0    0  501  0.00000000000E+00  0.00000000000E+00 -0.12612556934E+04  0.12612556934E+04  0.50400001928E-02 0. -1.
    10030    2    1    2    0    0  0.00000000000E+00  0.00000000000E+00 -0.18905777580E+03  0.23334536110E+04  0.23257822151E+04 0.  0.
        2    1    3    3  502    0  0.55066375559E+03  0.99940505879E+03 -0.31948862946E+03  0.11849531753E+04  0.25500000920E-02 0.  1.
       -2    1    3    3    0  502 -0.55066375559E+03 -0.99940505879E+03  0.13043085366E+03  0.11485004357E+04  0.25500000920E-02 0. -1.
</event>
<event>
 5   0  0.3885219E-05  0.2283271E+04  0.7818609E-02  0.8484546E-01
       -1   -1    0    0    0  501  0.00000000000E+00  0.00000000000E+00  0.68598046251E+03  0.68598046253E+03  0.50400001928E-02 0. -1.
        1   -1    0    0  501    0  0.00000000000E+00  0.00000000000E+00 -0.18999544049E+04  0.18999544049E+04  0.50400001928E-02 0.  1.
    10030    2    1    2    0    0  0.00000000000E+00  0.00000000000E+00 -0.12139739424E+04  0.25859348675E+04  0.22832709883E+04 0.  0.
        2    1    3    3  502    0  0.92219731891E+03  0.37703985606E+03  0.24330749220E+02  0.99659366515E+03  0.25500000920E-02 0.  1.
       -2    1    3    3    0  502 -0.92219731891E+03 -0.37703985606E+03 -0.12383046916E+04  0.15893412023E+04  0.25500000920E-02 0. -1.
</event>
<event>
 5   0  0.9313463E-05  0.2295779E+04  0.7818609E-02  0.8479587E-01
        2   -1    0    0  501    0  0.00000000000E+00  0.00000000000E+00  0.10690467703E+04  0.10690467703E+04  0.25500000920E-02 0. -1.
       -2   -1    0    0    0  501  0.00000000000E+00  0.00000000000E+00 -0.12325474452E+04  0.12325474452E+04  0.25500000920E-02 0.  1.
    10030    2    1    2    0    0  0.00000000000E+00  0.00000000000E+00 -0.16350067494E+03  0.23015942155E+04  0.22957794890E+04 0.  0.
        1    1    3    3  502    0 -0.27645874880E+03 -0.10447416372E+04 -0.46968821772E+03  0.11783554431E+04  0.50400001928E-02 0.  1.
       -1    1    3    3    0  502  0.27645874880E+03  0.10447416372E+04  0.30618754277E+03  0.11232387724E+04  0.50400001928E-02 0. -1.
</event>
<event>
 5   0  0.4139830E-05  0.2321933E+04  0.7818609E-02  0.8469323E-01
       -1   -1    0    0    0  501  0.00000000000E+00  0.00000000000E+00  0.76624581062E+03  0.76624581063E+03  0.50400001928E-02 0.  1.
        1   -1    0    0  501    0  0.00000000000E+00  0.00000000000E+00 -0.17590217648E+04  0.17590217648E+04  0.50400001928E-02 0. -1.
    10030    2    1    2    0    0  0.00000000000E+00  0.00000000000E+00 -0.99277595416E+03  0.25252675754E+04  0.23219328656E+04 0.  0.
        1    1    3    3  502    0 -0.13838874730E+03 -0.10495243087E+04 -0.10147732710E+04  0.14664301932E+04  0.50400001928E-02 0. -1.
       -1    1    3    3    0  502  0.13838874730E+03  0.10495243087E+04  0.21997316820E+02  0.10588373822E+04  0.50400001928E-02 0.  1.
</event>
<event>
 5   0  0.4295775E-05  0.2158281E+04  0.7818609E-02  0.8535996E-01
       -1   -1    0    0    0  501  0.00000000000E+00  0.00000000000E+00  0.86863117854E+03  0.86863117855E+03  0.50400001928E-02 0.  1.
        1   -1    0    0  501    0  0.00000000000E+00  0.00000000000E+00 -0.13406661822E+04  0.13406661823E+04  0.50400001928E-02 0. -1.
    10030    2    1    2    0    0  0.00000000000E+00  0.00000000000E+00 -0.47203500371E+03  0.22092973608E+04  0.21582812105E+04 0.  0.
        5    1    3    3  502    0  0.51638127279E+03  0.84093460781E+03  0.21099889300E+03  0.10091398597E+04  0.46999998093E+01 0. -1.
       -5    1    3    3    0  502 -0.51638127279E+03 -0.84093460781E+03 -0.68303389671E+03  0.12001575011E+04  0.46999998093E+01 0.  1.
</event>
<event>
 5   0  0.4139830E-05  0.2264740E+04  0.7818609E-02  0.8491955E-01
        1   -1    0    0  501    0  0.00000000000E+00  0.00000000000E+00  0.29728355804E+04  0.29728355804E+04  0.50400001928E-02 0. -1.
       -1   -1    0    0    0  501  0.00000000000E+00  0.00000000000E+00 -0.43132600903E+03  0.43132600906E+03  0.50400001928E-02 0.  1.
    10030    2    1    2    0    0  0.00000000000E+00  0.00000000000E+00  0.25415095714E+04  0.34041615895E+04  0.22647395492E+04 0.  0.
        1    1    3    3  502    0  0.33690881252E+02  0.26557139606E+03  0.29245886883E+04  0.29368149818E+04  0.50400001928E-02 0. -1.
       -1    1    3    3    0  502 -0.33690881252E+02 -0.26557139606E+03 -0.38307911688E+03  0.46734660767E+03  0.50400001928E-02 0.  1.
</event>
<event>
 5   0  0.4095451E-05  0.2356916E+04  0.7818609E-02  0.8455812E-01
       -1   -1    0    0    0  501  0.00000000000E+00  0.00000000000E+00  0.14209041877E+04  0.14209041877E+04  0.50400001928E-02 0. -1.
        1   -1    0    0  501    0  0.00000000000E+00  0.00000000000E+00 -0.97737972061E+03  0.97737972063E+03  0.50400001928E-02 0.  1.
    10030    2    1    2    0    0  0.00000000000E+00  0.00000000000E+00  0.44352446712E+03  0.23982839084E+04  0.23569157287E+04 0.  0.
        3    1    3    3  502    0 -0.79094112026E+03  0.39131187218E+03  0.10165282466E+04  0.13461212885E+04  0.10100000352E+00 0. -1.
       -3    1    3    3    0  502  0.79094112026E+03 -0.39131187218E+03 -0.57300377953E+03  0.10521626198E+04  0.10100000352E+00 0.  1.
</event>
<event>
 5   0  0.9641157E-05  0.2388161E+04  0.7818609E-02  0.8443949E-01
        2   -1    0    0  501    0  0.00000000000E+00  0.00000000000E+00  0.16572243604E+04  0.16572243604E+04  0.25500000920E-02 0. -1.
       -2   -1    0    0    0  501  0.00000000000E+00  0.00000000000E+00 -0.86037098349E+03  0.86037098349E+03  0.25500000920E-02 0.  1.
    10030    2    1    2    0    0  0.00000000000E+00  0.00000000000E+00  0.79685337690E+03  0.25175953439E+04  0.23881605916E+04 0.  0.
        3    1    3    3  502    0  0.39897947116E+03 -0.10173493580E+04  0.90580555288E+03  0.14193900255E+04  0.10100000352E+00 0. -1.
       -3    1    3    3    0  502 -0.39897947116E+03  0.10173493580E+04 -0.10895217599E+03  0.10982053184E+04  0.10100000352E+00 0.  1.
</event>
<event>
 5   0  0.9313463E-05  0.2284403E+04  0.7818609E-02  0.8484096E-01
        2   -1    0    0  501    0  0.00000000000E+00  0.00000000000E+00  0.52922243645E+03  0.52922243646E+03  0.25500000920E-02 0. -1.
       -2   -1    0    0    0  501  0.00000000000E+00  0.00000000000E+00 -0.24651708854E+04  0.24651708854E+04  0.25500000920E-02 0.  1.
    10030    2    1    2    0    0  0.00000000000E+00  0.00000000000E+00 -0.19359484490E+04  0.29943933219E+04  0.22844025409E+04 0.  0.
        1    1    3    3  502    0 -0.14267939289E+03  0.67222576778E+02  0.51487962454E+03  0.53849541482E+03  0.50400001928E-02 0. -1.
       -1    1    3    3    0  502  0.14267939289E+03 -0.67222576778E+02 -0.24508280735E+04  0.24558979071E+04  0.50400001928E-02 0.  1.
</event>
<event>
 5   0  0.3261500E-05  0.2223819E+04  0.7818609E-02  0.8508579E-01
        3   -1    0    0  501    0  0.00000000000E+00  0.00000000000E+00  0.24243998421E+04  0.24243998442E+04  0.10100000352E+00 0.  1.
       -3   -1    0    0    0  501  0.00000000000E+00  0.00000000000E+00 -0.50995804342E+03  0.50995805342E+03  0.10100000352E+00 0. -1.
    10030    2    1    2    0    0  0.00000000000E+00  0.00000000000E+00  0.19144417987E+04  0.29343578976E+04  0.22238185337E+04 0.  0.
        1    1    3    3  502    0 -0.83030351547E+02 -0.52934091735E+03  0.22428130444E+04  0.23059284894E+04  0.50400001928E-02 0.  1.
       -1    1    3    3    0  502  0.83030351547E+02  0.52934091735E+03 -0.32837124573E+03  0.62842940821E+03  0.50400001928E-02 0. -1.
</event>
<event>
 5   0  0.9312074E-05  0.2175855E+04  0.7818609E-02  0.8528545E-01
        2   -1    0    0  501    0  0.00000000000E+00  0.00000000000E+00  0.11326342834E+04  0.11326342834E+04  0.25500000920E-02 0. -1.
       -2   -1    0    0    0  501  0.00000000000E+00  0.00000000000E+00 -0.10449855115E+04  0.10449855115E+04  0.25500000920E-02 0.  1.
    10030    2    1    2    0    0  0.00000000000E+00  0.00000000000E+00  0.87648771896E+02  0.21776197948E+04  0.21758551569E+04 0.  0.
        4    1    3    3  502    0  0.24322635472E+03  0.68092753082E+03 -0.76970843199E+03  0.10560653602E+04  0.12699999809E+01 0.  1.
       -4    1    3    3    0  502 -0.24322635472E+03 -0.68092753082E+03  0.85735720388E+03  0.11215544346E+04  0.12699999809E+01 0. -1.
</event>
<event>
 5   0  0.3885219E-05  0.2225321E+04  0.7818609E-02  0.8507962E-01
        1   -1    0    0  501    0  0.00000000000E+00  0.00000000000E+00  0.19835593520E+04  0.19835593520E+04  0.50400001928E-02 0. -1.
       -1   -1    0    0    0  501  0.00000000000E+00  0.00000000000E+00 -0.62413722902E+03  0.62413722904E+03  0.50400001928E-02 0.  1.
    10030    2    1    2    0    0  0.00000000000E+00  0.00000000000E+00  0.13594221230E+04  0.26076965811E+04  0.22253208646E+04 0.  0.
        2    1    3    3  502    0 -0.94023272385E+03 -0.16660344911E+03  0.10413854477E+02  0.95493598352E+03  0.25500000920E-02 0.  1.
       -2    1    3    3    0  502  0.94023272385E+03  0.16660344911E+03  0.13490082685E+04  0.16527605975E+04  0.25500000920E-02 0. -1.
</event>
<event>
 5   0  0.9483073E-05  0.2293108E+04  0.7818609E-02  0.8480644E-01
       -2   -1    0    0    0  501  0.00000000000E+00  0.00000000000E+00  0.94073591711E+03  0.94073591712E+03  0.25500000920E-02 0. -1.
        2   -1    0    0  501    0  0.00000000000E+00  0.00000000000E+00 -0.13974012265E+04  0.13974012265E+04  0.25500000920E-02 0.  1.
    10030    2    1    2    0    0  0.00000000000E+00  0.00000000000E+00 -0.45666530939E+03  0.23381371436E+04  0.22931075198E+04 0.  0.
        5    1    3    3  502    0  0.11007196525E+04  0.66976007907E+02 -0.54833283258E+03  0.12315683189E+04  0.46999998093E+01 0.  1.
       -5    1    3    3    0  502 -0.11007196525E+04 -0.66976007907E+02  0.91667523185E+02  0.11065688247E+04  0.46999998093E+01 0. -1.
</event>
<event>
 5   0  0.9483073E-05  0.2283899E+04  0.7818609E-02  0.8484297E-01
        2   -1    0    0  501    0  0.00000000000E+00  0.00000000000E+00  0.12819984988E+04  0.12819984988E+04  0.25500000920E-02 0. -1.
       -2   -1    0    0    0  501  0.00000000000E+00  0.00000000000E+00 -0.10171997782E+04  0.10171997782E+04  0.25500000920E-02 0.  1.
    10030    2    1    2    0    0  0.00000000000E+00  0.00000000000E+00  0.26479872059E+03  0.22991982770E+04  0.22838989371E+04 0.  0.
        5    1    3    3  502    0  0.43967339527E+03  0.17313921403E+02  0.11932201287E+04  0.12717738918E+04  0.46999998093E+01 0. -1.
       -5    1    3    3    0  502 -0.43967339527E+03 -0.17313921403E+02 -0.92842140810E+03  0.10274243852E+04  0.46999998093E+01 0.  1.
</event>
<event>
 5   0  0.9641157E-05  0.2368480E+04  0.7818609E-02  0.8451399E-01
        2   -1    0    0  501    0  0.00000000000E+00  0.00000000000E+00  0.21649415528E+04  0.21649415528E+04  0.25500000920E-02 0.  1.
       -2   -1    0    0    0  501  0.00000000000E+00  0.00000000000E+00 -0.64778832473E+03  0.64778832474E+03  0.25500000920E-02 0. -1.
    10030    2    1    2    0    0  0.00000000000E+00  0.00000000000E+00  0.15171532281E+04  0.28127298776E+04  0.23684795643E+04 0.  0.
        3    1    3    3  502    0 -0.44113327137E+03  0.13989777056E+03  0.20531092659E+04  0.21046205400E+04  0.10100000352E+00 0.  1.
       -3    1    3    3    0  502  0.44113327137E+03 -0.13989777056E+03 -0.53595603781E+03  0.70810933759E+03  0.10100000352E+00 0. -1.
</event>
<event>
 5   0  0.9483073E-05  0.2282277E+04  0.7818609E-02  0.8484942E-01
        2   -1    0    0  501    0  0.00000000000E+00  0.00000000000E+00  0.17013595664E+04  0.17013595664E+04  0.25500000920E-02 0. -1.
       -2   -1    0    0    0  501  0.00000000000E+00  0.00000000000E+00 -0.76538635864E+03  0.76538635865E+03  0.25500000920E-02 0.  1.
    10030    2    1    2    0    0  0.00000000000E+00  0.00000000000E+00  0.93597320773E+03  0.24667459250E+04  0.22822772866E+04 0.  0.
        5    1    3    3  502    0 -0.69258946522E+03  0.41553713392E+02  0.14471751714E+04  0.16049127532E+04  0.46999998093E+01 0. -1.
       -5    1    3    3    0  502  0.69258946522E+03 -0.41553713392E+02 -0.51120196371E+03  0.86183317187E+03  0.46999998093E+01 0.  1.
</event>
<event>
 5   0  0.9535394E-05  0.2290210E+04  0.7818609E-02  0.8481791E-01
       -2   -1    0    0    0  501  0.00000000000E+00  0.00000000000E+00  0.72508783731E+03  0.72508783731E+03  0.25500000920E-02 0. -1.
        2   -1    0    0  501    0  0.00000000000E+00  0.00000000000E+00 -0.18084221722E+04  0.18084221722E+04  0.25500000920E-02 0.  1.
    10030    2    1    2    0    0  0.00000000000E+00  0.00000000000E+00 -0.10833343349E+04  0.25335100095E+04  0.22902095291E+04 0.  0.
        2    1    3    3  502    0  0.83709426953E+03 -0.13534128133E+03 -0.13929801399E+04  0.16307782647E+04  0.25500000920E-02 0.  1.
       -2    1    3    3    0  502 -0.83709426953E+03  0.13534128133E+03  0.30964580500E+03  0.90273174480E+03  0.25500000920E-02 0. -1.
</event>
<event>
 5   0  0.9483073E-05  0.2319849E+04  0.7818609E-02  0.8470136E-01
        2   -1    0    0  501    0  0.00000000000E+00  0.00000000000E+00  0.81889507884E+03  0.81889507884E+03  0.25500000920E-02 0.  1.
       -2   -1    0    0    0  501  0.00000000000E+00  0.00000000000E+00 -0.16429753919E+04  0.16429753919E+04  0.25500000920E-02 0. -1.
    10030    2    1    2    0    0  0.00000000000E+00  0.00000000000E+00 -0.82408031304E+03  0.24618704707E+04  0.23198486701E+04 0.  0.
        5    1    3    3  502    0 -0.37417850512E+03 -0.13164879479E+03  0.74467117229E+03  0.84374060214E+03  0.46999998093E+01 0.  1.
       -5    1    3    3    0  502  0.37417850512E+03  0.13164879479E+03 -0.15687514853E+04  0.16181298686E+04  0.46999998093E+01 0. -1.
</event>
<event>
 5   0  0.9535394E-05  0.2378502E+04  0.7818609E-02  0.8447596E-01
        2   -1    0    0  501    0  0.00000000000E+00  0.00000000000E+00  0.15796473314E+04  0.15796473314E+04  0.25500000920E-02 0. -1.
       -2   -1    0    0    0  501  0.00000000000E+00  0.00000000000E+00 -0.89533757631E+03  0.89533757631E+03  0.25500000920E-02 0.  1.
    10030    2    1    2    0    0  0.00000000000E+00  0.00000000000E+00  0.68430975514E+03  0.24749849078E+04  0.23785017243E+04 0.  0.
        2    1    3    3  502    0 -0.90372938519E+03  0.31208947759E+02  0.11458971831E+04  0.14597195465E+04  0.25500000920E-02 0. -1.
       -2    1    3    3    0  502  0.90372938519E+03 -0.31208947759E+02 -0.46158742801E+03  0.10152653613E+04  0.25500000920E-02 0.  1.
</event>
<event>
 5   0  0.9312074E-05  0.2449233E+04  0.7818609E-02  0.8421298E-01
       -2   -1    0    0    0  501  0.00000000000E+00  0.00000000000E+00  0.12511024569E+04  0.12511024569E+04  0.25500000920E-02 0. -1.
        2   -1    0    0  501    0  0.00000000000E+00  0.00000000000E+00 -0.11986909678E+04  0.11986909678E+04  0.25500000920E-02 0.  1.
    10030    2    1    2    0    0  0.00000000000E+00  0.00000000000E+00  0.52411489082E+02  0.24497934248E+04  0.24492327084E+04 0.  0.
        4    1    3    3  502    0 -0.23269131912E+03 -0.68199538485E+03 -0.96418286844E+03  0.12037080924E+04  0.12699999809E+01 0.  1.
       -4    1    3    3    0  502  0.23269131912E+03  0.68199538485E+03  0.10165943575E+04  0.12460853324E+04  0.12699999809E+01 0. -1.
</event>
<event>
 5   0  0.9313463E-05  0.2294933E+04  0.7818609E-02  0.8479922E-01
        2   -1    0    0  501    0  0.00000000000E+00  0.00000000000E+00  0.16593552093E+04  0.16593552093E+04  0.25500000920E-02 0. -1.
       -2   -1    0    0    0  501  0.00000000000E+00  0.00000000000E+00 -0.79348866197E+03  0.79348866197E+03  0.25500000920E-02 0.  1.
    10030    2    1    2    0    0  0.00000000000E+00  0.00000000000E+00  0.86586654738E+03  0.24528438713E+04  0.22949331535E+04 0.  0.
        1    1    3    3  502    0  0.92440083707E+03  0.51081079664E+03  0.91239239927E+03  0.13956734818E+04  0.50400001928E-02 0. -1.
       -1    1    3    3    0  502 -0.92440083707E+03 -0.51081079664E+03 -0.46525851890E+02  0.10571703895E+04  0.50400001928E-02 0.  1.
</event>
<event>
 5   0  0.4139830E-05  0.2334561E+04  0.7818609E-02  0.8464418E-01
        1   -1    0    0  501    0  0.00000000000E+00  0.00000000000E+00  0.11965851478E+04  0.11965851478E+04  0.50400001928E-02 0.  1.
       -1   -1    0    0    0  501  0.00000000000E+00  0.00000000000E+00 -0.11386931878E+04  0.11386931878E+04  0.50400001928E-02 0. -1.
    10030    2    1    2    0    0  0.00000000000E+00  0.00000000000E+00  0.57891960058E+02  0.23352783356E+04  0.23345606494E+04 0.  0.
        1    1    3    3  502    0 -0.16155538406E+03  0.39346597442E+03  0.11163071714E+04  0.11945950427E+04  0.50400001928E-02 0.  1.
       -1    1    3    3    0  502  0.16155538406E+03 -0.39346597442E+03 -0.10584152113E+04  0.11406832929E+04  0.50400001928E-02 0. -1.
</event>
<event>
 5   0  0.4295775E-05  0.2246937E+04  0.7818609E-02  0.8499142E-01
        1   -1    0    0  501    0  0.00000000000E+00  0.00000000000E+00  0.14247980528E+04  0.14247980528E+04  0.50400001928E-02 0.  1.
       -1   -1    0    0    0  501  0.00000000000E+00  0.00000000000E+00 -0.88586705604E+03  0.88586705605E+03  0.50400001928E-02 0. -1.
    10030    2    1    2    0    0  0.00000000000E+00  0.00000000000E+00  0.53893099675E+03  0.23106651088E+04  0.22469371656E+04 0.  0.
        5    1    3    3  502    0  0.60539790554E+03 -0.13955595436E+03 -0.69312600164E+03  0.93082126779E+03  0.46999998093E+01 0. -1.
       -5    1    3    3    0  502 -0.60539790554E+03  0.13955595436E+03  0.12320569984E+04  0.13798438411E+04  0.46999998093E+01 0.  1.
</event>
<event>
 5   0  0.3885219E-05  0.2267012E+04  0.7818609E-02  0.8491042E-01
        1   -1    0    0  501    0  0.00000000000E+00  0.00000000000E+00  0.32607542869E+04  0.32607542869E+04  0.50400001928E-02 0.  1.
       -1   -1    0    0    0  501  0.00000000000E+00  0.00000000000E+00 -0.39403038748E+03  0.39403038751E+03  0.50400001928E-02 0. -1.
    10030    2    1    2    0    0  0.00000000000E+00  0.00000000000E+00  0.28667238994E+04  0.36547846744E+04  0.22670123733E+04 0.  0.
        2    1    3    3  502    0  0.67107536892E+02  0.54561673664E+03  0.30314623858E+04  0.30809033158E+04  0.25500000920E-02 0.  1.
       -2    1    3    3    0  502 -0.67107536892E+02 -0.54561673664E+03 -0.16473848641E+03  0.57388135858E+03  0.25500000920E-02 0. -1.
</event>
<event>
 5   0  0.4295775E-05  0.2292695E+04  0.7818609E-02  0.8480807E-01
        1   -1    0    0  501    0  0.00000000000E+00  0.00000000000E+00  0.91583250564E+03  0.91583250565E+03  0.50400001928E-02 0.  1.
       -1   -1    0    0    0  501  0.00000000000E+00  0.00000000000E+00 -0.14348831231E+04  0.14348831231E+04  0.50400001928E-02 0. -1.
    10030    2    1    2    0    0  0.00000000000E+00  0.00000000000E+00 -0.51905061746E+03  0.23507156288E+04  0.22926950132E+04 0.  0.
        5    1    3    3  502    0 -0.66968743550E+03  0.48917540916E+03 -0.10709548134E+04  0.13545258006E+04  0.46999998093E+01 0. -1.
       -5    1    3    3    0  502  0.66968743550E+03 -0.48917540916E+03  0.55190419594E+03  0.99618982814E+03  0.46999998093E+01 0.  1.
</event>
<event>
 5   0  0.9313463E-05  0.2282895E+04  0.7818609E-02  0.8484696E-01
       -2   -1    0    0    0  501  0.00000000000E+00  0.00000000000E+00  0.70589800379E+03  0.70589800379E+03  0.25500000920E-02 0.  1.
        2   -1    0    0  501    0  0.00000000000E+00  0.00000000000E+00 -0.18457380953E+04  0.18457380953E+04  0.25500000920E-02 0. -1.
    10030    2    1    2    0    0  0.00000000000E+00  0.00000000000E+00 -0.11398400915E+04  0.25516360991E+04  0.22828953870E+04 0.  0.
        1    1    3    3  502    0  0.20933818464E+03  0.77857792968E+03 -0.14730598570E+04  0.16792591850E+04  0.50400001928E-02 0. -1.
       -1    1    3    3    0  502 -0.20933818464E+03 -0.77857792968E+03  0.33321976546E+03  0.87237691410E+03  0.50400001928E-02 0.  1.
</event>
<event>
 5   0  0.9312074E-05  0.2243318E+04  0.7818609E-02  0.8500611E-01
        2   -1    0    0  501    0  0.00000000000E+00  0.00000000000E+00  0.16782976936E+04  0.16782976936E+04  0.25500000920E-02 0. -1.
       -2   -1    0    0    0  501  0.00000000000E+00  0.00000000000E+00 -0.74963998656E+03  0.74963998656E+03  0.25500000920E-02 0.  1.
    10030    2    1    2    0    0  0.00000000000E+00  0.00000000000E+00  0.92865770708E+03  0.24279376802E+04  0.22433181321E+04 0.  0.
        4    1    3    3  502    0 -0.10150933104E+04 -0.46028439232E+03  0.32810848988E+03  0.11618661475E+04  0.12699999809E+01 0.  1.
       -4    1    3    3    0  502  0.10150933104E+04  0.46028439232E+03  0.60054921719E+03  0.12660715327E+04  0.12699999809E+01 0. -1.
</event>
<event>
 5   0  0.4005462E-05  0.2266520E+04  0.7818609E-02  0.8491240E-01
        1   -1    0    0  501    0  0.00000000000E+00  0.00000000000E+00  0.12353824887E+04  0.12353824887E+04  0.50400001928E-02 0. -1.
       -1   -1    0    0    0  501  0.00000000000E+00  0.00000000000E+00 -0.10395791532E+04  0.10395791532E+04  0.50400001928E-02 0.  1.
    10030    2    1    2    0    0  0.00000000000E+00  0.00000000000E+00  0.19580333549E+03  0.22749616419E+04  0.22665196946E+04 0.  0.
        4    1    3    3  502    0 -0.15619466003E+03 -0.49526697253E+03  0.11089220155E+04  0.12244981810E+04  0.12699999809E+01 0. -1.
       -4    1    3    3    0  502  0.15619466003E+03  0.49526697253E+03 -0.91311868003E+03  0.10504634609E+04  0.12699999809E+01 0.  1.
</event>
<event>
 5   0  0.3885219E-05  0.2275705E+04  0.7818609E-02  0.8487563E-01
       -1   -1    0    0    0  501  0.00000000000E+00  0.00000000000E+00  0.92699281085E+03  0.92699281087E+03  0.50400001928E-02 0. -1.
        1   -1    0    0  501    0  0.00000000000E+00  0.00000000000E+00 -0.13966750994E+04  0.13966750995E+04  0.50400001928E-02 0.  1.
    10030    2    1    2    0    0  0.00000000000E+00  0.00000000000E+00 -0.46968228859E+03  0.23236679103E+04  0.22757045294E+04 0.  0.
        2    1    3    3  502    0 -0.77523560844E+03 -0.67874682241E+02 -0.10824639588E+04  0.13331636971E+04  0.25500000920E-02 0.  1.
       -2    1    3    3    0  502  0.77523560844E+03  0.67874682241E+02  0.61278167022E+03  0.99050421324E+03  0.25500000920E-02 0. -1.
</event>
<event>
 5   0  0.3885219E-05  0.2502683E+04  0.7818609E-02  0.8402030E-01
        1   -1    0    0  501    0  0.00000000000E+00  0.00000000000E+00  0.63580530196E+03  0.63580530198E+03  0.50400001928E-02 0. -1.
       -1   -1    0    0    0  501  0.00000000000E+00  0.00000000000E+00 -0.24627903862E+04  0.24627903862E+04  0.50400001928E-02 0.  1.
    10030    2    1    2    0    0  0.00000000000E+00  0.00000000000E+00 -0.18269850843E+04  0.30985956882E+04  0.25026827088E+04 0.  0.
        2    1    3    3  502    0  0.16760676000E+03 -0.11955434817E+04 -0.13212029107E+04  0.17896908599E+04  0.25500000920E-02 0. -1.
       -2    1    3    3    0  502 -0.16760676000E+03  0.11955434817E+04 -0.50578217354E+03  0.13089048283E+04  0.25500000920E-02 0.  1.
</event>
<event>
 5   0  0.9535394E-05  0.1443658E+04  0.7818609E-02  0.8922809E-01
        2   -1    0    0  501    0  0.00000000000E+00  0.00000000000E+00  0.69540606412E+03  0.69540606413E+03  0.25500000920E-02 0. -1.
       -2   -1    0    0    0  501  0.00000000000E+00  0.00000000000E+00 -0.74925573915E+03  0.74925573915E+03  0.25500000920E-02 0.  1.
    10030    2    1    2    0    0  0.00000000000E+00  0.00000000000E+00 -0.53849675026E+02  0.14446618033E+04  0.14436578328E+04 0.  0.
        2    1    3    3  502    0 -0.44841779348E+03  0.42951476023E+03  0.34140114886E+03  0.70860157438E+03  0.25500000920E-02 0. -1.
       -2    1    3    3    0  502  0.44841779348E+03 -0.42951476023E+03 -0.39525082389E+03  0.73606022889E+03  0.25500000920E-02 0.  1.
</event>
<event>
 5   0  0.4139830E-05  0.2342014E+04  0.7818609E-02  0.8461537E-01
       -1   -1    0    0    0  501  0.00000000000E+00  0.00000000000E+00  0.79205741435E+03  0.79205741436E+03  0.50400001928E-02 0. -1.
        1   -1    0    0  501    0  0.00000000000E+00  0.00000000000E+00 -0.17312600943E+04  0.17312600943E+04  0.50400001928E-02 0.  1.
    10030    2    1    2    0    0  0.00000000000E+00  0.00000000000E+00 -0.93920267992E+03  0.25233175086E+04  0.23420139998E+04 0.  0.
        1    1    3    3  502    0  0.13936374110E+03  0.34390230111E+03  0.72703908768E+03  0.81625785146E+03  0.50400001928E-02 0. -1.
       -1    1    3    3    0  502 -0.13936374110E+03 -0.34390230111E+03 -0.16662417676E+04  0.17070596572E+04  0.50400001928E-02 0.  1.
</event>
<event>
 5   0  0.4005462E-05  0.2243333E+04  0.7818609E-02  0.8500605E-01
        1   -1    0    0  501    0  0.00000000000E+00  0.00000000000E+00  0.99192672039E+03  0.99192672040E+03  0.50400001928E-02 0.  1.
       -1   -1    0    0    0  501  0.00000000000E+00  0.00000000000E+00 -0.12683756293E+04  0.12683756293E+04  0.50400001928E-02 0. -1.
    10030    2    1    2    0    0  0.00000000000E+00  0.00000000000E+00 -0.27644890890E+03  0.22603023497E+04  0.22433329474E+04 0.  0.
        4    1    3    3  502    0 -0.23147384507E+03 -0.99031637048E+03  0.33845829659E+03  0.10718499363E+04  0.12699999809E+01 0.  1.
       -4    1    3    3    0  502  0.23147384507E+03  0.99031637048E+03 -0.61490720549E+03  0.11884524134E+04  0.12699999809E+01 0. -1.
</event>
<event>
 5   0  0.4095451E-05  0.2311390E+04  0.7818609E-02  0.8473444E-01
        1   -1    0    0  501    0  0.00000000000E+00  0.00000000000E+00  0.76672982222E+03  0.76672982223E+03  0.50400001928E-02 0. -1.
       -1   -1    0    0    0  501  0.00000000000E+00  0.00000000000E+00 -0.17419840111E+04  0.17419840111E+04  0.50400001928E-02 0.  1.
    10030    2    1    2    0    0  0.00000000000E+00  0.00000000000E+00 -0.97525418885E+03  0.25087138333E+04  0.23113901368E+04 0.  0.
        3    1    3    3  502    0  0.61977204681E+03  0.75054934418E+03  0.18861108975E+03  0.99147156360E+03  0.10100000352E+00 0. -1.
       -3    1    3    3    0  502 -0.61977204681E+03 -0.75054934418E+03 -0.11638652786E+04  0.15172422697E+04  0.10100000352E+00 0.  1.
</event>
<event>
 5   0  0.4005462E-05  0.2098903E+04  0.7818609E-02  0.8561727E-01
       -1   -1    0    0    0  501  0.00000000000E+00  0.00000000000E+00  0.61245375696E+03  0.61245375699E+03  0.50400001928E-02 0. -1.
        1   -1    0    0  501    0  0.00000000000E+00  0.00000000000E+00 -0.17982560390E+04  0.17982560390E+04  0.50400001928E-02 0.  1.
    10030    2    1    2    0    0  0.00000000000E+00  0.00000000000E+00 -0.11858022820E+04  0.24107097960E+04  0.20989032061E+04 0.  0.
        4    1    3    3  502    0 -0.97256535530E+03 -0.38735185255E+03 -0.50832627132E+03  0.11637534271E+04  0.12699999809E+01 0.  1.
       -4    1    3    3    0  502  0.97256535530E+03  0.38735185255E+03 -0.67747601073E+03  0.12469563689E+04  0.12699999809E+01 0. -1.
</event>
<event>
 5   0  0.9312074E-05  0.2289075E+04  0.7818609E-02  0.8482241E-01
       -2   -1    0    0    0  501  0.00000000000E+00  0.00000000000E+00  0.11928726425E+04  0.11928726425E+04  0.25500000920E-02 0. -1.
        2   -1    0    0  501    0  0.00000000000E+00  0.00000000000E+00 -0.10981604975E+04  0.10981604975E+04  0.25500000920E-02 0.  1.
    10030    2    1    2    0    0  0.00000000000E+00  0.00000000000E+00  0.94712144997E+02  0.22910331399E+04  0.22890745855E+04 0.  0.
        4    1    3    3  502    0 -0.38110329371E+03 -0.87545029251E+03  0.67901496436E+03  0.11716295788E+04  0.12699999809E+01 0. -1.
       -4    1    3    3    0  502  0.38110329371E+03  0.87545029251E+03 -0.58430281936E+03  0.11194035612E+04  0.12699999809E+01 0.  1.
</event>
<event>
 5   0  0.9535394E-05  0.2282449E+04  0.7818609E-02  0.8484874E-01
       -2   -1    0    0    0  501  0.00000000000E+00  0.00000000000E+00  0.74176033862E+03  0.74176033863E+03  0.25500000920E-02 0. -1.
        2   -1    0    0  501    0  0.00000000000E+00  0.00000000000E+00 -0.17558136831E+04  0.17558136831E+04  0.25500000920E-02 0.  1.
    10030    2    1    2    0    0  0.00000000000E+00  0.00000000000E+00 -0.10140533445E+04  0.24975740217E+04  0.22824486431E+04 0.  0.
        2    1    3    3  502    0  0.10077359201E+04 -0.50498675243E+03 -0.70231202413E+03  0.13280758578E+04  0.25500000920E-02 0.  1.
       -2    1    3    3    0  502 -0.10077359201E+04  0.50498675243E+03 -0.31174132033E+03  0.11694981640E+04  0.25500000920E-02 0. -1.
</event>
<event>
 5   0  0.9483073E-05  0.2278659E+04  0.7818609E-02  0.8486383E-01
        2   -1    0    0  501    0  0.00000000000E+00  0.00000000000E+00  0.11002257907E+04  0.11002257907E+04  0.25500000920E-02 0.  1.
       -2   -1    0    0    0  501  0.00000000000E+00  0.00000000000E+00 -0.11798233364E+04  0.11798233364E+04  0.25500000920E-02 0. -1.
    10030    2    1    2    0    0  0.00000000000E+00  0.00000000000E+00 -0.79597545704E+02  0.22800491272E+04  0.22786593104E+04 0.  0.
        5    1    3    3  502    0 -0.34794230223E+03 -0.98089442634E+02 -0.11209042434E+04  0.11777664443E+04  0.46999998093E+01 0. -1.
       -5    1    3    3    0  502  0.34794230223E+03  0.98089442634E+02  0.10413066977E+04  0.11022826829E+04  0.46999998093E+01 0.  1.
</event>
<event>
 5   0  0.9641157E-05  0.2130290E+04  0.7818609E-02  0.8548017E-01
        2   -1    0    0  501    0  0.00000000000E+00  0.00000000000E+00  0.75258487053E+03  0.75258487054E+03  0.25500000920E-02 0. -1.
       -2   -1    0    0    0  501  0.00000000000E+00  0.00000000000E+00 -0.15075158762E+04  0.15075158762E+04  0.25500000920E-02 0.  1.
    10030    2    1    2    0    0  0.00000000000E+00  0.00000000000E+00 -0.75493100562E+03  0.22601007467E+04  0.21302897836E+04 0.  0.
        3    1    3    3  502    0 -0.39837835666E+03 -0.52586541088E+03 -0.12646602860E+04  0.14263959459E+04  0.10100000352E+00 0. -1.
       -3    1    3    3    0  502  0.39837835666E+03  0.52586541088E+03  0.50972928034E+03  0.83370480079E+03  0.10100000352E+00 0.  1.
</event>
<event>
 5   0  0.9313463E-05  0.2319547E+04  0.7818609E-02  0.8470254E-01
       -2   -1    0    0    0  501  0.00000000000E+00  0.00000000000E+00  0.57905881795E+03  0.57905881795E+03  0.25500000920E-02 0. -1.
        2   -1    0    0  501    0  0.00000000000E+00  0.00000000000E+00 -0.23228636370E+04  0.23228636370E+04  0.25500000920E-02 0.  1.
    10030    2    1    2    0    0  0.00000000000E+00  0.00000000000E+00 -0.17438048190E+04  0.29019224549E+04  0.23195470867E+04 0.  0.
        1    1    3    3  502    0  0.72710219599E+03  0.61417608633E+03 -0.42803656174E+02  0.95274446806E+03  0.50400001928E-02 0. -1.
       -1    1    3    3    0  502 -0.72710219599E+03 -0.61417608633E+03 -0.17010011629E+04  0.19491779869E+04  0.50400001928E-02 0.  1.
</event>
<event>
 5   0  0.4095451E-05  0.2260578E+04  0.7818609E-02  0.8493629E-01
        1   -1    0    0  501    0  0.00000000000E+00  0.00000000000E+00  0.13178205119E+04  0.13178205119E+04  0.50400001928E-02 0.  1.
       -1   -1    0    0    0  501  0.00000000000E+00  0.00000000000E+00 -0.96944442286E+03  0.96944442287E+03  0.50400001928E-02 0. -1.
    10030    2    1    2    0    0  0.00000000000E+00  0.00000000000E+00  0.34837608902E+03  0.22872649348E+04  0.22605784619E+04 0.  0.
        3    1    3    3  502    0  0.10126140211E+04  0.44015818959E+03 -0.70382963187E+02  0.11063815614E+04  0.10100000352E+00 0. -1.
       -3    1    3    3    0  502 -0.10126140211E+04 -0.44015818959E+03  0.41875905221E+03  0.11808833734E+04  0.10100000352E+00 0.  1.
</event>
<event>
 5   0  0.4095451E-05  0.2342944E+04  0.7818609E-02  0.8461179E-01
        1   -1    0    0  501    0  0.00000000000E+00  0.00000000000E+00  0.69344154611E+03  0.69344154613E+03  0.50400001928E-02 0.  1.
       -1   -1    0    0    0  501  0.00000000000E+00  0.00000000000E+00 -0.19790372583E+04  0.19790372583E+04  0.50400001928E-02 0. -1.
    10030    2    1    2    0    0  0.00000000000E+00  0.00000000000E+00 -0.12855957122E+04  0.26724788044E+04  0.23429440081E+04 0.  0.
        3    1    3    3  502    0 -0.44817415642E+03 -0.35975433045E+03  0.52159472448E+03  0.77610844575E+03  0.10100000352E+00 0.  1.
       -3    1    3    3    0  502  0.44817415642E+03  0.35975433045E+03 -0.18071904367E+04  0.18963703587E+04  0.10100000352E+00 0. -1.
</event>
<event>
 5   0  0.9483073E-05  0.2295853E+04  0.7818609E-02  0.8479558E-01
        2   -1    0    0  501    0  0.00000000000E+00  0.00000000000E+00  0.17472510435E+04  0.17472510435E+04  0.25500000920E-02 0. -1.
       -2   -1    0    0    0  501  0.00000000000E+00  0.00000000000E+00 -0.75417612070E+03  0.75417612071E+03  0.25500000920E-02 0.  1.
    10030    2    1    2    0    0  0.00000000000E+00  0.00000000000E+00  0.99307492277E+03  0.25014271642E+04  0.22958527948E+04 0.  0.
        5    1    3    3  502    0  0.23557090606E+03  0.88793013785E+03 -0.25342763208E+03  0.95297493995E+03  0.46999998093E+01 0.  1.
       -5    1    3    3    0  502 -0.23557090606E+03 -0.88793013785E+03  0.12465025548E+04  0.15484522242E+04  0.46999998093E+01 0. -1.
</event>
<event>
 5   0  0.4005462E-05  0.2274292E+04  0.7818609E-02  0.8488127E-01
        1   -1    0    0  501    0  0.00000000000E+00  0.00000000000E+00  0.17115179161E+04  0.17115179161E+04  0.50400001928E-02 0. -1.
       -1   -1    0    0    0  501  0.00000000000E+00  0.00000000000E+00 -0.75552883010E+03  0.75552883012E+03  0.50400001928E-02 0.  1.
    10030    2    1    2    0    0  0.00000000000E+00  0.00000000000E+00  0.95598908600E+03  0.24670467462E+04  0.22742920911E+04 0.  0.
        4    1    3    3  502    0 -0.47689322773E+03 -0.15039657982E+03  0.15858532482E+04  0.16628224258E+04  0.12699999809E+01 0. -1.
       -4    1    3    3    0  502  0.47689322773E+03  0.15039657982E+03 -0.62986416221E+03  0.80422432046E+03  0.12699999809E+01 0.  1.
</event>
<event>
 5   0  0.9313463E-05  0.2289620E+04  0.7818609E-02  0.8482025E-01
        2   -1    0    0  501    0  0.00000000000E+00  0.00000000000E+00  0.28839070324E+04  0.28839070324E+04  0.25500000920E-02 0.  1.
       -2   -1    0    0    0  501  0.00000000000E+00  0.00000000000E+00 -0.45444962548E+03  0.45444962549E+03  0.25500000920E-02 0. -1.
    10030    2    1    2    0    0  0.00000000000E+00  0.00000000000E+00  0.24294574069E+04  0.33383566579E+04  0.22896204671E+04 0.  0.
        1    1    3    3  502    0  0.29488782678E+03  0.36336447931E+03  0.27380817994E+04  0.27777841016E+04  0.50400001928E-02 0.  1.
       -1    1    3    3    0  502 -0.29488782678E+03 -0.36336447931E+03 -0.30862439245E+03  0.56057255627E+03  0.50400001928E-02 0. -1.
</event>
<event>
 5   0  0.9641157E-05  0.2274736E+04  0.7818609E-02  0.8487949E-01
        2   -1    0    0  501    0  0.00000000000E+00  0.00000000000E+00  0.13361913821E+04  0.13361913821E+04  0.25500000920E-02 0.  1.
       -2   -1    0    0    0  501  0.00000000000E+00  0.00000000000E+00 -0.96812961490E+03  0.96812961490E+03  0.25500000920E-02 0. -1.
    10030    2    1    2    0    0  0.00000000000E+00  0.00000000000E+00  0.36806176720E+03  0.23043209970E+04  0.22747364227E+04 0.  0.
        3    1    3    3  502    0 -0.96574559233E+03 -0.43368890016E+03  0.60519746872E+03  0.12194320799E+04  0.10100000352E+00 0.  1.
       -3    1    3    3    0  502  0.96574559233E+03  0.43368890016E+03 -0.23713570152E+03  0.10848889171E+04  0.10100000352E+00 0. -1.
</event>
<event>
 5   0  0.4139830E-05  0.2297575E+04  0.7818609E-02  0.8478878E-01
       -1   -1    0    0    0  501  0.00000000000E+00  0.00000000000E+00  0.13259048398E+04  0.13259048398E+04  0.50400001928E-02 0.  1.
        1   -1    0    0  501    0  0.00000000000E+00  0.00000000000E+00 -0.99532949361E+03  0.99532949362E+03  0.50400001928E-02 0. -1.
    10030    2    1    2    0    0  0.00000000000E+00  0.00000000000E+00  0.33057534620E+03  0.23212343334E+04  0.22975745410E+04 0.  0.
        1    1    3    3  502    0 -0.64979384122E+03  0.63828008581E+03  0.87255286389E+03  0.12613413512E+04  0.50400001928E-02 0.  1.
       -1    1    3    3    0  502  0.64979384122E+03 -0.63828008581E+03 -0.54197751769E+03  0.10598929822E+04  0.50400001928E-02 0. -1.
</event>
<event>
 5   0  0.9641157E-05  0.2364251E+04  0.7818609E-02  0.8453010E-01
       -2   -1    0    0    0  501  0.00000000000E+00  0.00000000000E+00  0.43183363671E+03  0.43183363672E+03  0.25500000920E-02 0.  1.
        2   -1    0    0  501    0  0.00000000000E+00  0.00000000000E+00 -0.32360164546E+04  0.32360164546E+04  0.25500000920E-02 0. -1.
    10030    2    1    2    0    0  0.00000000000E+00  0.00000000000E+00 -0.28041828179E+04  0.36678500913E+04  0.23642510476E+04 0.  0.
        3    1    3    3  502    0 -0.95226353650E+03 -0.23164662435E+03 -0.24275927101E+04  0.26179519434E+04  0.10100000352E+00 0. -1.
       -3    1    3    3    0  502  0.95226353650E+03  0.23164662435E+03 -0.37659010775E+03  0.10498981479E+04  0.10100000352E+00 0.  1.
</event>
<event>
 5   0  0.9313463E-05  0.2315099E+04  0.7818609E-02  0.8471992E-01
       -2   -1    0    0    0  501  0.00000000000E+00  0.00000000000E+00  0.99555685400E+03  0.99555685401E+03  0.25500000920E-02 0. -1.
        2   -1    0    0  501    0  0.00000000000E+00  0.00000000000E+00 -0.13459007053E+04  0.13459007053E+04  0.25500000920E-02 0.  1.
    10030    2    1    2    0    0  0.00000000000E+00  0.00000000000E+00 -0.35034385128E+03  0.23414575593E+04  0.23150988506E+04 0.  0.
        1    1    3    3  502    0  0.30386819043E+03  0.20953382571E+03  0.93444312814E+03  0.10047010804E+04  0.50400001928E-02 0. -1.
       -1    1    3    3    0  502 -0.30386819043E+03 -0.20953382571E+03 -0.12847869794E+04  0.13367564789E+04  0.50400001928E-02 0.  1.
</event>
<event>
 5   0  0.3885219E-05  0.2265608E+04  0.7818609E-02  0.8491606E-01
       -1   -1    0    0    0  501  0.00000000000E+00  0.00000000000E+00  0.11065873568E+04  0.11065873568E+04  0.50400001928E-02 0. -1.
        1   -1    0    0  501    0  0.00000000000E+00  0.00000000000E+00 -0.11596415507E+04  0.11596415507E+04  0.50400001928E-02 0.  1.
    10030    2    1    2    0    0  0.00000000000E+00  0.00000000000E+00 -0.53054193905E+02  0.22662289076E+04  0.22656078024E+04 0.  0.
        2    1    3    3  502    0 -0.31010446501E+03 -0.75820848499E+03  0.75611937606E+03  0.11147920868E+04  0.25500000920E-02 0. -1.
       -2    1    3    3    0  502  0.31010446501E+03  0.75820848499E+03 -0.80917356997E+03  0.11514368208E+04  0.25500000920E-02 0.  1.
</event>
<event>
 5   0  0.9312074E-05  0.1709781E+04  0.7818609E-02  0.8755806E-01
        2   -1    0    0  501    0  0.00000000000E+00  0.00000000000E+00  0.11078159457E+04  0.11078159457E+04  0.25500000920E-02 0.  1.
       -2   -1    0    0    0  501  0.00000000000E+00  0.00000000000E+00 -0.65971043001E+03  0.65971043001E+03  0.25500000920E-02 0. -1.
    10030    2    1    2    0    0  0.00000000000E+00  0.00000000000E+00  0.44810551571E+03  0.17675263757E+04  0.17097809613E+04 0.  0.
        4    1    3    3  502    0 -0.16577093888E+03 -0.63824173545E+03 -0.33838429749E+03  0.74117343634E+03  0.12699999809E+01 0. -1.
       -4    1    3    3    0  502  0.16577093888E+03  0.63824173545E+03  0.78648981320E+03  0.10263529394E+04  0.12699999809E+01 0.  1.
</event>
<event>
 5   0  0.9535394E-05  0.2224916E+04  0.7818609E-02  0.8508129E-01
       -2   -1    0    0    0  501  0.00000000000E+00  0.00000000000E+00  0.78552685448E+03  0.78552685449E+03  0.25500000920E-02 0.  1.
        2   -1    0    0  501    0  0.00000000000E+00  0.00000000000E+00 -0.15754552191E+04  0.15754552191E+04  0.25500000920E-02 0. -1.
    10030    2    1    2    0    0  0.00000000000E+00  0.00000000000E+00 -0.78992836458E+03  0.23609820736E+04  0.22249156232E+04 0.  0.
        2    1    3    3  502    0  0.87980483087E+03  0.66227461003E+03 -0.56240563071E+03  0.12365129571E+04  0.25500000920E-02 0. -1.
       -2    1    3    3    0  502 -0.87980483087E+03 -0.66227461003E+03 -0.22752273387E+03  0.11244691165E+04  0.25500000920E-02 0.  1.
</event>
<event>
 5   0  0.4095451E-05  0.2259623E+04  0.7818609E-02  0.8494013E-01
       -1   -1    0    0    0  501  0.00000000000E+00  0.00000000000E+00  0.11573029150E+04  0.11573029150E+04  0.50400001928E-02 0. -1.
        1   -1    0    0  501    0  0.00000000000E+00  0.00000000000E+00 -0.11029734635E+04  0.11029734635E+04  0.50400001928E-02 0.  1.
    10030    2    1    2    0    0  0.00000000000E+00  0.00000000000E+00  0.54329451438E+02  0.22602763785E+04  0.22596233354E+04 0.  0.
        3    1    3    3  502    0 -0.10613765913E+04 -0.37490361799E+03  0.12415358047E+03  0.11324694755E+04  0.10100000352E+00 0.  1.
       -3    1    3    3    0  502  0.10613765913E+04  0.37490361799E+03 -0.69824129033E+02  0.11278069030E+04  0.10100000352E+00 0. -1.
</event>
<event>
 5   0  0.4005462E-05  0.2408066E+04  0.7818609E-02  0.8436490E-01
       -1   -1    0    0    0  501  0.00000000000E+00  0.00000000000E+00  0.17904983167E+04  0.17904983167E+04  0.50400001928E-02 0. -1.
        1   -1    0    0  501    0  0.00000000000E+00  0.00000000000E+00 -0.80966048372E+03  0.80966048373E+03  0.50400001928E-02 0.  1.
    10030    2    1    2    0    0  0.00000000000E+00  0.00000000000E+00  0.98083783294E+03  0.26001588004E+04  0.24080662227E+04 0.  0.
        4    1    3    3  502    0 -0.72271405619E+03 -0.62400023867E+03  0.12824158108E+04  0.15988382750E+04  0.12699999809E+01 0. -1.
       -4    1    3    3    0  502  0.72271405619E+03  0.62400023867E+03 -0.30157797791E+03  0.10013205254E+04  0.12699999809E+01 0.  1.
</event>
<event>
 5   0  0.4295775E-05  0.2293911E+04  0.7818609E-02  0.8480326E-01
        1   -1    0    0  501    0  0.00000000000E+00  0.00000000000E+00  0.19790265563E+04  0.19790265563E+04  0.50400001928E-02 0. -1.
       -1   -1    0    0    0  501  0.00000000000E+00  0.00000000000E+00 -0.66472442108E+03  0.66472442110E+03  0.50400001928E-02 0.  1.
    10030    2    1    2    0    0  0.00000000000E+00  0.00000000000E+00  0.13143021352E+04  0.26437509774E+04  0.22939113165E+04 0.  0.
        5    1    3    3  502    0  0.32973528348E+03  0.14117437621E+03 -0.59841078321E+03  0.69769127637E+03  0.46999998093E+01 0.  1.
       -5    1    3    3    0  502 -0.32973528348E+03 -0.14117437621E+03  0.19127129184E+04  0.19460597010E+04  0.46999998093E+01 0. -1.
</event>
<event>
 5   0  0.4005462E-05  0.2244649E+04  0.7818609E-02  0.8500071E-01
       -1   -1    0    0    0  501  0.00000000000E+00  0.00000000000E+00  0.86945953737E+03  0.86945953738E+03  0.50400001928E-02 0. -1.
        1   -1    0    0  501    0  0.00000000000E+00  0.00000000000E+00 -0.14487301483E+04  0.14487301483E+04  0.50400001928E-02 0.  1.
    10030    2    1    2    0    0  0.00000000000E+00  0.00000000000E+00 -0.57927061091E+03  0.23181896857E+04  0.22446489655E+04 0.  0.
        4    1    3    3  502    0  0.27474043263E+03 -0.97794072159E+03  0.20324279550E+03  0.10359341712E+04  0.12699999809E+01 0. -1.
       -4    1    3    3    0  502 -0.27474043263E+03  0.97794072159E+03 -0.78251340641E+03  0.12822555145E+04  0.12699999809E+01 0.  1.
</event>
<event>
 5   0  0.4139830E-05  0.2330052E+04  0.7818609E-02  0.8466165E-01
       -1   -1    0    0    0  501  0.00000000000E+00  0.00000000000E+00  0.78584149512E+03  0.78584149513E+03  0.50400001928E-02 0. -1.
        1   -1    0    0  501    0  0.00000000000E+00  0.00000000000E+00 -0.17271744789E+04  0.17271744789E+04  0.50400001928E-02 0.  1.
    10030    2    1    2    0    0  0.00000000000E+00  0.00000000000E+00 -0.94133298375E+03  0.25130159740E+04  0.23300518233E+04 0.  0.
        1    1    3    3  502    0  0.48141204336E+03  0.51141142875E+03 -0.14731634514E+04  0.16320262741E+04  0.50400001928E-02 0.  1.
       -1    1    3    3    0  502 -0.48141204336E+03 -0.51141142875E+03  0.53183046763E+03  0.88098969987E+03  0.50400001928E-02 0. -1.
</event>
<event>
 5   0  0.9483073E-05  0.2377505E+04  0.7818609E-02  0.8447974E-01
        2   -1    0    0  501    0  0.00000000000E+00  0.00000000000E+00  0.10156657650E+04  0.10156657651E+04  0.25500000920E-02 0.  1.
       -2   -1    0    0    0  501  0.00000000000E+00  0.00000000000E+00 -0.13913365447E+04  0.13913365447E+04  0.25500000920E-02 0. -1.
    10030    2    1    2    0    0  0.00000000000E+00  0.00000000000E+00 -0.37567077966E+03  0.24070023098E+04  0.23775053280E+04 0.  0.
        5    1    3    3  502    0  0.77146646285E+03  0.88057006614E+03 -0.39666291998E+03  0.12360937290E+04  0.46999998093E+01 0. -1.
       -5    1    3    3    0  502 -0.77146646285E+03 -0.88057006614E+03  0.20992140317E+02  0.11709085808E+04  0.46999998093E+01 0.  1.
</event>
<event>
 5   0  0.4005462E-05  0.2306971E+04  0.7818609E-02  0.8475177E-01
        1   -1    0    0  501    0  0.00000000000E+00  0.00000000000E+00  0.61217016270E+03  0.61217016272E+03  0.50400001928E-02 0. -1.
       -1   -1    0    0    0  501  0.00000000000E+00  0.00000000000E+00 -0.21734630377E+04  0.21734630377E+04  0.50400001928E-02 0.  1.
    10030    2    1    2    0    0  0.00000000000E+00  0.00000000000E+00 -0.15612928750E+04  0.27856332004E+04  0.23069713665E+04 0.  0.
        4    1    3    3  502    0  0.31681122271E+03  0.10783199331E+04 -0.46720144034E+03  0.12171368156E+04  0.12699999809E+01 0.  1.
       -4    1    3    3    0  502 -0.31681122271E+03 -0.10783199331E+04 -0.10940914347E+04  0.15684963849E+04  0.12699999809E+01 0. -1.
</event>
<event>
 5   0  0.3261500E-05  0.2236049E+04  0.7818609E-02  0.8503572E-01
       -4   -1    0    0    0  501  0.00000000000E+00  0.00000000000E+00  0.11341884108E+04  0.11341891219E+04  0.12699999809E+01 0.  1.
        4   -1    0    0  501    0  0.00000000000E+00  0.00000000000E+00 -0.11020898666E+04  0.11020905984E+04  0.12699999809E+01 0. -1.
    10030    2    1    2    0    0  0.00000000000E+00  0.00000000000E+00  0.32098544227E+02  0.22362797202E+04  0.22360493444E+04 0.  0.
        5    1    3    3  502    0  0.34342542314E+03  0.97501267403E+03  0.44196442265E+03  0.11242532529E+04  0.46999998093E+01 0.  1.
       -5    1    3    3    0  502 -0.34342542314E+03 -0.97501267403E+03 -0.40986587842E+03  0.11120264673E+04  0.46999998093E+01 0. -1.
</event>
<event>
 5   0  0.9641157E-05  0.2289350E+04  0.7818609E-02  0.8482132E-01
        2   -1    0    0  501    0  0.00000000000E+00  0.00000000000E+00  0.95519120637E+03  0.95519120638E+03  0.25500000920E-02 0. -1.
       -2   -1    0    0    0  501  0.00000000000E+00  0.00000000000E+00 -0.13717475306E+04  0.13717475306E+04  0.25500000920E-02 0.  1.
    10030    2    1    2    0    0  0.00000000000E+00  0.00000000000E+00 -0.41655632426E+03  0.23269387370E+04  0.22893502822E+04 0.  0.
        3    1    3    3  502    0 -0.73898816361E+03  0.85305792889E+03 -0.40238444206E+03  0.11982172530E+04  0.10100000352E+00 0. -1.
       -3    1    3    3    0  502  0.73898816361E+03 -0.85305792889E+03 -0.14171882200E+02  0.11287214840E+04  0.10100000352E+00 0.  1.
</event>
<event>
 5   0  0.9641157E-05  0.2278426E+04  0.7818609E-02  0.8486476E-01
       -2   -1    0    0    0  501  0.00000000000E+00  0.00000000000E+00  0.97392123263E+03  0.97392123264E+03  0.25500000920E-02 0.  1.
        2   -1    0    0  501    0  0.00000000000E+00  0.00000000000E+00 -0.13325576779E+04  0.13325576779E+04  0.25500000920E-02 0. -1.
    10030    2    1    2    0    0  0.00000000000E+00  0.00000000000E+00 -0.35863644530E+03  0.23064789106E+04  0.22784259622E+04 0.  0.
        3    1    3    3  502    0 -0.32610950727E+03 -0.84985060352E+03 -0.87274317970E+03  0.12610607150E+04  0.10100000352E+00 0. -1.
       -3    1    3    3    0  502  0.32610950727E+03  0.84985060352E+03  0.51410673440E+03  0.10454181956E+04  0.10100000352E+00 0.  1.
</event>
<event>
 5   0  0.4295775E-05  0.2316915E+04  0.7818609E-02  0.8471281E-01
       -1   -1    0    0    0  501  0.00000000000E+00  0.00000000000E+00  0.88055809701E+03  0.88055809702E+03  0.50400001928E-02 0.  1.
        1   -1    0    0  501    0  0.00000000000E+00  0.00000000000E+00 -0.15240606787E+04  0.15240606787E+04  0.50400001928E-02 0. -1.
    10030    2    1    2    0    0  0.00000000000E+00  0.00000000000E+00 -0.64350258169E+03  0.24046187757E+04  0.23169151655E+04 0.  0.
        5    1    3    3  502    0  0.65801714582E+03 -0.11392092130E+03  0.66067314414E+03  0.93940174254E+03  0.46999998093E+01 0.  1.
       -5    1    3    3    0  502 -0.65801714582E+03  0.11392092130E+03 -0.13041757258E+04  0.14652170332E+04  0.46999998093E+01 0. -1.
</event>
<event>
 5   0  0.9483073E-05  0.2438228E+04  0.7818609E-02  0.8425329E-01
        2   -1    0    0  501    0  0.00000000000E+00  0.00000000000E+00  0.23519654079E+04  0.23519654079E+04  0.25500000920E-02 0.  1.
       -2   -1    0    0    0  501  0.00000000000E+00  0.00000000000E+00 -0.63191367606E+03  0.63191367606E+03  0.25500000920E-02 0. -1.
    10030    2    1    2    0    0  0.00000000000E+00  0.00000000000E+00  0.17200517319E+04  0.29838790840E+04  0.24382281328E+04 0.  0.
        5    1    3    3  502    0 -0.90752347635E+03  0.25755980314E+03  0.18050271658E+04  0.20366838419E+04  0.46999998093E+01 0.  1.
       -5    1    3    3    0  502  0.90752347635E+03 -0.25755980314E+03 -0.84975433970E+02  0.94719524212E+03  0.46999998093E+01 0. -1.
</event>
<event>
 5   0  0.9641157E-05  0.2274541E+04  0.7818609E-02  0.8488027E-01
       -2   -1    0    0    0  501  0.00000000000E+00  0.00000000000E+00  0.12387805317E+04  0.12387805317E+04  0.25500000920E-02 0. -1.
        2   -1    0    0  501    0  0.00000000000E+00  0.00000000000E+00 -0.10440789131E+04  0.10440789131E+04  0.25500000920E-02 0.  1.
    10030    2    1    2    0    0  0.00000000000E+00  0.00000000000E+00  0.19470161862E+03  0.22828594449E+04  0.22745413878E+04 0.  0.
        3    1    3    3  502    0  0.32685172593E+03  0.70330339076E+02  0.11883431767E+04  0.12344788063E+04  0.10100000352E+00 0. -1.
       -3    1    3    3    0  502 -0.32685172593E+03 -0.70330339076E+02 -0.99364155806E+03  0.10483806386E+04  0.10100000352E+00 0.  1.
</event>
<event>
 5   0  0.4095451E-05  0.2055889E+04  0.7818609E-02  0.8580927E-01
       -1   -1    0    0    0  501  0.00000000000E+00  0.00000000000E+00  0.98956312847E+03  0.98956312848E+03  0.50400001928E-02 0. -1.
        1   -1    0    0  501    0  0.00000000000E+00  0.00000000000E+00 -0.10678147244E+04  0.10678147245E+04  0.50400001928E-02 0.  1.
    10030    2    1    2    0    0  0.00000000000E+00  0.00000000000E+00 -0.78251595977E+02  0.20573778529E+04  0.20558891793E+04 0.  0.
        3    1    3    3  502    0 -0.41253130518E+03 -0.13081590857E+03  0.89395226847E+03  0.99319965172E+03  0.10100000352E+00 0. -1.
       -3    1    3    3    0  502  0.41253130518E+03  0.13081590857E+03 -0.97220386444E+03  0.10641782012E+04  0.10100000352E+00 0.  1.
</event>
<event>
 5   0  0.4095451E-05  0.2299753E+04  0.7818609E-02  0.8478019E-01
       -1   -1    0    0    0  501  0.00000000000E+00  0.00000000000E+00  0.75920952153E+03  0.75920952155E+03  0.50400001928E-02 0.  1.
        1   -1    0    0  501    0  0.00000000000E+00  0.00000000000E+00 -0.17415688875E+04  0.17415688875E+04  0.50400001928E-02 0. -1.
    10030    2    1    2    0    0  0.00000000000E+00  0.00000000000E+00 -0.98235936594E+03  0.25007784090E+04  0.22997527535E+04 0.  0.
        3    1    3    3  502    0 -0.26936830652E+03 -0.84086902582E+03 -0.12921791458E+04  0.15650389638E+04  0.10100000352E+00 0. -1.
       -3    1    3    3    0  502  0.26936830652E+03  0.84086902582E+03  0.30981977988E+03  0.93573944522E+03  0.10100000352E+00 0.  1.
</event>
<event>
 5   0  0.4005462E-05  0.2406015E+04  0.7818609E-02  0.8437255E-01
        1   -1    0    0  501    0  0.00000000000E+00  0.00000000000E+00  0.22121713884E+04  0.22121713884E+04  0.50400001928E-02 0. -1.
       -1   -1    0    0    0  501  0.00000000000E+00  0.00000000000E+00 -0.65421116227E+03  0.65421116229E+03  0.50400001928E-02 0.  1.
    10030    2    1    2    0    0  0.00000000000E+00  0.00000000000E+00  0.15579602261E+04  0.28663825507E+04  0.24060151414E+04 0.  0.
        4    1    3    3  502    0 -0.79922777828E+03  0.55178394063E+03 -0.66783366164E+02  0.97349483286E+03  0.12699999809E+01 0. -1.
       -4    1    3    3    0  502  0.79922777828E+03 -0.55178394063E+03  0.16247435923E+04  0.18928877178E+04  0.12699999809E+01 0.  1.
</event>
<event>
 5   0  0.9313463E-05  0.1432931E+04  0.7818609E-02  0.8930320E-01
        2   -1    0    0  501    0  0.00000000000E+00  0.00000000000E+00  0.14541049176E+04  0.14541049176E+04  0.25500000920E-02 0.  1.
       -2   -1    0    0    0  501  0.00000000000E+00  0.00000000000E+00 -0.35301649810E+03  0.35301649811E+03  0.25500000920E-02 0. -1.
    10030    2    1    2    0    0  0.00000000000E+00  0.00000000000E+00  0.11010884195E+04  0.18071214157E+04  0.14329312976E+04 0.  0.
        1    1    3    3  502    0  0.68697343699E+03 -0.16012768887E+03  0.70881375786E+03  0.99999516161E+03  0.50400001928E-02 0. -1.
       -1    1    3    3    0  502 -0.68697343699E+03  0.16012768887E+03  0.39227466165E+03  0.80712625411E+03  0.50400001928E-02 0.  1.
</event>
<event>
 5   0  0.3261500E-05  0.1992881E+04  0.7818609E-02  0.8609956E-01
       -4   -1    0    0    0  501  0.00000000000E+00  0.00000000000E+00  0.12307264488E+04  0.12307271041E+04  0.12699999809E+01 0. -1.
        4   -1    0    0  501    0  0.00000000000E+00  0.00000000000E+00 -0.80675316701E+03  0.80675416664E+03  0.12699999809E+01 0.  1.
    10030    2    1    2    0    0  0.00000000000E+00  0.00000000000E+00  0.42397328180E+03  0.20374812707E+04  0.19928814779E+04 0.  0.
        3    1    3    3  502    0 -0.83834014509E+03  0.42864705227E+03 -0.12141200747E+03  0.94936472446E+03  0.10100000352E+00 0.  1.
       -3    1    3    3    0  502  0.83834014509E+03 -0.42864705227E+03  0.54538528928E+03  0.10881165463E+04  0.10100000352E+00 0. -1.
</event>
<event>
 5   0  0.9535394E-05  0.2376245E+04  0.7818609E-02  0.8448451E-01
       -2   -1    0    0    0  501  0.00000000000E+00  0.00000000000E+00  0.67924007751E+03  0.67924007752E+03  0.25500000920E-02 0. -1.
        2   -1    0    0  501    0  0.00000000000E+00  0.00000000000E+00 -0.20782566084E+04  0.20782566084E+04  0.25500000920E-02 0.  1.
    10030    2    1    2    0    0  0.00000000000E+00  0.00000000000E+00 -0.13990165308E+04  0.27574966859E+04  0.23762450882E+04 0.  0.
        2    1    3    3  502    0 -0.83056882780E+03  0.84111635963E+03 -0.83834433986E+03  0.14491868549E+04  0.25500000920E-02 0.  1.
       -2    1    3    3    0  502  0.83056882780E+03 -0.84111635963E+03 -0.56067219099E+03  0.13083098310E+04  0.25500000920E-02 0. -1.
</event>
<event>
 5   0  0.9641157E-05  0.2316117E+04  0.7818609E-02  0.8471593E-01
       -2   -1    0    0    0  501  0.00000000000E+00  0.00000000000E+00  0.11890576129E+04  0.11890576129E+04  0.25500000920E-02 0. -1.
        2   -1    0    0  501    0  0.00000000000E+00  0.00000000000E+00 -0.11278675125E+04  0.11278675125E+04  0.25500000920E-02 0.  1.
    10030    2    1    2    0    0  0.00000000000E+00  0.00000000000E+00  0.61190100388E+02  0.23169251254E+04  0.23161169678E+04 0.  0.
        3    1    3    3  502    0  0.71302653769E+03 -0.82152336638E+03  0.42796401244E+03  0.11689570955E+04  0.10100000352E+00 0. -1.
       -3    1    3    3    0  502 -0.71302653769E+03  0.82152336638E+03 -0.36677391205E+03  0.11479680299E+04  0.10100000352E+00 0.  1.
</event>
<event>
 5   0  0.3885219E-05  0.2295620E+04  0.7818609E-02  0.8479650E-01
        1   -1    0    0  501    0  0.00000000000E+00  0.00000000000E+00  0.25212923076E+04  0.25212923076E+04  0.50400001928E-02 0.  1.
       -1   -1    0    0    0  501  0.00000000000E+00  0.00000000000E+00 -0.52253664182E+03  0.52253664184E+03  0.50400001928E-02 0. -1.
    10030    2    1    2    0    0  0.00000000000E+00  0.00000000000E+00  0.19987556657E+04  0.30438289494E+04  0.22956198426E+04 0.  0.
        2    1    3    3  502    0 -0.38304971978E+03 -0.51225717353E+03 -0.26431885489E+03  0.69209750521E+03  0.25500000920E-02 0. -1.
       -2    1    3    3    0  502  0.38304971978E+03  0.51225717353E+03  0.22630745206E+04  0.23517314442E+04  0.25500000920E-02 0.  1.
</event>
<event>
 5   0  0.4139830E-05  0.2357356E+04  0.7818609E-02  0.8455644E-01
       -1   -1    0    0    0  501  0.00000000000E+00  0.00000000000E+00  0.72426715528E+03  0.72426715530E+03  0.50400001928E-02 0. -1.
        1   -1    0    0  501    0  0.00000000000E+00  0.00000000000E+00 -0.19181901357E+04  0.19181901357E+04  0.50400001928E-02 0.  1.
    10030    2    1    2    0    0  0.00000000000E+00  0.00000000000E+00 -0.11939229805E+04  0.26424572910E+04  0.23573562420E+04 0.  0.
        1    1    3    3  502    0  0.90238698660E+02  0.10857377367E+04 -0.92771422503E+02  0.10934239766E+04  0.50400001928E-02 0.  1.
       -1    1    3    3    0  502 -0.90238698660E+02 -0.10857377367E+04 -0.11011515580E+04  0.15490333145E+04  0.50400001928E-02 0. -1.
</event>
<event>
 5   0  0.9641157E-05  0.2284791E+04  0.7818609E-02  0.8483942E-01
       -2   -1    0    0    0  501  0.00000000000E+00  0.00000000000E+00  0.12829756940E+04  0.12829756940E+04  0.25500000920E-02 0.  1.
        2   -1    0    0  501    0  0.00000000000E+00  0.00000000000E+00 -0.10172189827E+04  0.10172189827E+04  0.25500000920E-02 0. -1.
    10030    2    1    2    0    0  0.00000000000E+00  0.00000000000E+00  0.26575671133E+03  0.23001946768E+04  0.22847907829E+04 0.  0.
        3    1    3    3  502    0 -0.96372784323E+03  0.55795472668E+02 -0.48212703774E+03  0.10790416958E+04  0.10100000352E+00 0. -1.
       -3    1    3    3    0  502  0.96372784323E+03 -0.55795472668E+02  0.74788374907E+03  0.12211529810E+04  0.10100000352E+00 0.  1.
</event>
<event>
 5   0  0.9483073E-05  0.2251941E+04  0.7818609E-02  0.8497115E-01
        2   -1    0    0  501    0  0.00000000000E+00  0.00000000000E+00  0.13317226484E+04  0.13317226484E+04  0.25500000920E-02 0. -1.
       -2   -1    0    0    0  501  0.00000000000E+00  0.00000000000E+00 -0.95200756096E+03  0.95200756097E+03  0.25500000920E-02 0.  1.
    10030    2    1    2    0    0  0.00000000000E+00  0.00000000000E+00  0.37971508746E+03  0.22837302094E+04  0.22519414117E+04 0.  0.
        5    1    3    3  502    0  0.85945435283E+03 -0.45273721930E+03  0.76724079689E+03  0.12378664325E+04  0.46999998093E+01 0. -1.
       -5    1    3    3    0  502 -0.85945435283E+03  0.45273721930E+03 -0.38752570942E+03  0.10458637769E+04  0.46999998093E+01 0.  1.
</event>
<event>
 5   0  0.4095451E-05  0.1763046E+04  0.7818609E-02  0.8726202E-01
        1   -1    0    0  501    0  0.00000000000E+00  0.00000000000E+00  0.15132954366E+04  0.15132954366E+04  0.50400001928E-02 0. -1.
       -1   -1    0    0    0  501  0.00000000000E+00  0.00000000000E+00 -0.51350390586E+03  0.51350390588E+03  0.50400001928E-02 0.  1.
    10030    2    1    2    0    0  0.00000000000E+00  0.00000000000E+00  0.99979153073E+03  0.20267993425E+04  0.17630463606E+04 0.  0.
        3    1    3    3  502    0 -0.45328618591E+03 -0.50258106959E+03  0.11492187086E+04  0.13337015214E+04  0.10100000352E+00 0. -1.
       -3    1    3    3    0  502  0.45328618591E+03  0.50258106959E+03 -0.14942717788E+03  0.69309782105E+03  0.10100000352E+00 0.  1.
</event>
<event>
 5   0  0.4005462E-05  0.2299470E+04  0.7818609E-02  0.8478130E-01
        1   -1    0    0  501    0  0.00000000000E+00  0.00000000000E+00  0.23553862670E+04  0.23553862670E+04  0.50400001928E-02 0. -1.
       -1   -1    0    0    0  501  0.00000000000E+00  0.00000000000E+00 -0.56122014272E+03  0.56122014274E+03  0.50400001928E-02 0.  1.
    10030    2    1    2    0    0  0.00000000000E+00  0.00000000000E+00  0.17941661242E+04  0.29166064097E+04  0.22994696927E+04 0.  0.
        4    1    3    3  502    0 -0.10149495246E+03 -0.69216541817E+03  0.20543693294E+04  0.21702140783E+04  0.12699999809E+01 0. -1.
       -4    1    3    3    0  502  0.10149495246E+03  0.69216541817E+03 -0.26020320511E+03  0.74639233138E+03  0.12699999809E+01 0.  1.
</event>
<event>
 5   0  0.3885219E-05  0.2412146E+04  0.7818609E-02  0.8434970E-01
        1   -1    0    0  501    0  0.00000000000E+00  0.00000000000E+00  0.16469583125E+04  0.16469583125E+04  0.50400001928E-02 0. -1.
       -1   -1    0    0    0  501  0.00000000000E+00  0.00000000000E+00 -0.88321144531E+03  0.88321144533E+03  0.50400001928E-02 0.  1.
    10030    2    1    2    0    0  0.00000000000E+00  0.00000000000E+00  0.76374686717E+03  0.25301697578E+04  0.24121462904E+04 0.  0.
        2    1    3    3  502    0  0.59208857869E+03 -0.34338088410E+03 -0.65975730828E+03  0.95066241243E+03  0.25500000920E-02 0.  1.
       -2    1    3    3    0  502 -0.59208857869E+03  0.34338088410E+03  0.14235041755E+04  0.15795073454E+04  0.25500000920E-02 0. -1.
</event>
<event>
 5   0  0.9312074E-05  0.2299786E+04  0.7818609E-02  0.8478006E-01
       -2   -1    0    0    0  501  0.00000000000E+00  0.00000000000E+00  0.59996416235E+03  0.59996416235E+03  0.25500000920E-02 0. -1.
        2   -1    0    0  501    0  0.00000000000E+00  0.00000000000E+00 -0.22038880120E+04  0.22038880120E+04  0.25500000920E-02 0.  1.
    10030    2    1    2    0    0  0.00000000000E+00  0.00000000000E+00 -0.16039238497E+04  0.28038521744E+04  0.22997859249E+04 0.  0.
        4    1    3    3  502    0 -0.72042667590E+03  0.27138656593E+03 -0.18433347235E+04  0.19976360477E+04  0.12699999809E+01 0.  1.
       -4    1    3    3    0  502  0.72042667590E+03 -0.27138656593E+03  0.23941087378E+03  0.80621612667E+03  0.12699999809E+01 0. -1.
</event>
<event>
 5   0  0.4295775E-05  0.2326456E+04  0.7818609E-02  0.8467563E-01
        1   -1    0    0  501    0  0.00000000000E+00  0.00000000000E+00  0.60483028799E+03  0.60483028801E+03  0.50400001928E-02 0. -1.
       -1   -1    0    0    0  501  0.00000000000E+00  0.00000000000E+00 -0.22371546355E+04  0.22371546355E+04  0.50400001928E-02 0.  1.
    10030    2    1    2    0    0  0.00000000000E+00  0.00000000000E+00 -0.16323243475E+04  0.28419849236E+04  0.23264555724E+04 0.  0.
        5    1    3    3  502    0  0.21897113656E+03  0.11400849080E+04 -0.72693696833E+03  0.13697450135E+04  0.46999998093E+01 0.  1.
       -5    1    3    3    0  502 -0.21897113656E+03 -0.11400849080E+04 -0.90538737922E+03  0.14722399100E+04  0.46999998093E+01 0. -1.
</event>
<event>
 5   0  0.9483073E-05  0.2308504E+04  0.7818609E-02  0.8474576E-01
        2   -1    0    0  501    0  0.00000000000E+00  0.00000000000E+00  0.15465633000E+04  0.15465633000E+04  0.25500000920E-02 0.  1.
       -2   -1    0    0    0  501  0.00000000000E+00  0.00000000000E+00 -0.86145717236E+03  0.86145717237E+03  0.25500000920E-02 0. -1.
    10030    2    1    2    0    0  0.00000000000E+00  0.00000000000E+00  0.68510612765E+03  0.24080204724E+04  0.23085043187E+04 0.  0.
        5    1    3    3  502    0  0.78269570961E+03  0.64575058868E+03  0.91642350629E+03  0.13672821689E+04  0.46999998093E+01 0.  1.
       -5    1    3    3    0  502 -0.78269570961E+03 -0.64575058868E+03 -0.23131737863E+03  0.10407383035E+04  0.46999998093E+01 0. -1.
</event>
<event>
 5   0  0.3885219E-05  0.2256529E+04  0.7818609E-02  0.8495261E-01
       -1   -1    0    0    0  501  0.00000000000E+00  0.00000000000E+00  0.56029975979E+03  0.56029975981E+03  0.50400001928E-02 0.  1.
        1   -1    0    0  501    0  0.00000000000E+00  0.00000000000E+00 -0.22719635868E+04  0.22719635868E+04  0.50400001928E-02 0. -1.
    10030    2    1    2    0    0  0.00000000000E+00  0.00000000000E+00 -0.17116638270E+04  0.28322633466E+04  0.22565288848E+04 0.  0.
        2    1    3    3  502    0  0.15187907885E+03 -0.54742722446E+03  0.36768130238E+03  0.67670773662E+03  0.25500000920E-02 0.  1.
       -2    1    3    3    0  502 -0.15187907885E+03  0.54742722446E+03 -0.20793451293E+04  0.21555556100E+04  0.25500000920E-02 0. -1.
</event>
<event>
 5   0  0.9313463E-05  0.2185846E+04  0.7818609E-02  0.8524343E-01
        2   -1    0    0  501    0  0.00000000000E+00  0.00000000000E+00  0.79619750455E+03  0.79619750455E+03  0.25500000920E-02 0.  1.
       -2   -1    0    0    0  501  0.00000000000E+00  0.00000000000E+00 -0.15002309930E+04  0.15002309930E+04  0.25500000920E-02 0. -1.
    10030    2    1    2    0    0  0.00000000000E+00  0.00000000000E+00 -0.70403348850E+03  0.22964284976E+04  0.21858455324E+04 0.  0.
        1    1    3    3  502    0  0.11728974442E+03  0.92415321773E+03  0.24844338607E+03  0.96412663593E+03  0.50400001928E-02 0. -1.
       -1    1    3    3    0  502 -0.11728974442E+03 -0.92415321773E+03 -0.95247687457E+03  0.13323018617E+04  0.50400001928E-02 0.  1.
</event>
<event>
 5   0  0.4295775E-05  0.2378247E+04  0.7818609E-02  0.8447693E-01
       -1   -1    0    0    0  501  0.00000000000E+00  0.00000000000E+00  0.11184496152E+04  0.11184496152E+04  0.50400001928E-02 0. -1.
        1   -1    0    0  501    0  0.00000000000E+00  0.00000000000E+00 -0.12642628160E+04  0.12642628160E+04  0.50400001928E-02 0.  1.
    10030    2    1    2    0    0  0.00000000000E+00  0.00000000000E+00 -0.14581320082E+03  0.23827124311E+04  0.23782466314E+04 0.  0.
        5    1    3    3  502    0 -0.23354833154E+03  0.11193467678E+04 -0.39987837119E+03  0.12113656804E+04  0.46999998093E+01 0. -1.
       -5    1    3    3    0  502  0.23354833154E+03 -0.11193467678E+04  0.25406517037E+03  0.11713467508E+04  0.46999998093E+01 0.  1.
</event>
<event>
 5   0  0.3885219E-05  0.2293334E+04  0.7818609E-02  0.8480554E-01
       -1   -1    0    0    0  501  0.00000000000E+00  0.00000000000E+00  0.77600153356E+03  0.77600153357E+03  0.50400001928E-02 0.  1.
        1   -1    0    0  501    0  0.00000000000E+00  0.00000000000E+00 -0.16943846400E+04  0.16943846400E+04  0.50400001928E-02 0. -1.
    10030    2    1    2    0    0  0.00000000000E+00  0.00000000000E+00 -0.91838310645E+03  0.24703861736E+04  0.22933338868E+04 0.  0.
        2    1    3    3  502    0  0.33877845102E+03 -0.58507536350E+03 -0.14568473326E+04  0.16060785069E+04  0.25500000920E-02 0. -1.
       -2    1    3    3    0  502 -0.33877845102E+03  0.58507536350E+03  0.53846422614E+03  0.86430766669E+03  0.25500000920E-02 0.  1.
</event>
<event>
 5   0  0.9535394E-05  0.2313561E+04  0.7818609E-02  0.8472593E-01
       -2   -1    0    0    0  501  0.00000000000E+00  0.00000000000E+00  0.86838088884E+03  0.86838088885E+03  0.25500000920E-02 0.  1.
        2   -1    0    0  501    0  0.00000000000E+00  0.00000000000E+00 -0.15409614227E+04  0.15409614227E+04  0.25500000920E-02 0. -1.
    10030    2    1    2    0    0  0.00000000000E+00  0.00000000000E+00 -0.67258053384E+03  0.24093423115E+04  0.23135612807E+04 0.  0.
        2    1    3    3  502    0 -0.58015954350E+03 -0.28044522943E+03  0.66416213098E+03  0.92538962543E+03  0.25500000920E-02 0.  1.
       -2    1    3    3    0  502  0.58015954350E+03  0.28044522943E+03 -0.13367426648E+04  0.14839526861E+04  0.25500000920E-02 0. -1.
</event>
<event>
 5   0  0.9535394E-05  0.2023890E+04  0.7818609E-02  0.8595532E-01
       -2   -1    0    0    0  501  0.00000000000E+00  0.00000000000E+00  0.68804521393E+03  0.68804521394E+03  0.25500000920E-02 0.  1.
        2   -1    0    0  501    0  0.00000000000E+00  0.00000000000E+00 -0.14883217201E+04  0.14883217201E+04  0.25500000920E-02 0. -1.
    10030    2    1    2    0    0  0.00000000000E+00  0.00000000000E+00 -0.80027650615E+03  0.21763669340E+04  0.20238899538E+04 0.  0.
        2    1    3    3  502    0  0.84415074549E+03  0.20956676413E+03  0.15605605404E+03  0.88366407743E+03  0.25500000920E-02 0.  1.
       -2    1    3    3    0  502 -0.84415074549E+03 -0.20956676413E+03 -0.95633256019E+03  0.12927028566E+04  0.25500000920E-02 0. -1.
</event>
<event>
 5   0  0.9312074E-05  0.2282899E+04  0.7818609E-02  0.8484695E-01
       -2   -1    0    0    0  501  0.00000000000E+00  0.00000000000E+00  0.14735929565E+04  0.14735929565E+04  0.25500000920E-02 0. -1.
        2   -1    0    0  501    0  0.00000000000E+00  0.00000000000E+00 -0.88417001285E+03  0.88417001285E+03  0.25500000920E-02 0.  1.
    10030    2    1    2    0    0  0.00000000000E+00  0.00000000000E+00  0.58942294369E+03  0.23577629694E+04  0.22828987742E+04 0.  0.
        4    1    3    3  502    0  0.17972913755E+03 -0.24645335314E+03 -0.84129716723E+03  0.89488790061E+03  0.12699999809E+01 0.  1.
       -4    1    3    3    0  502 -0.17972913755E+03  0.24645335314E+03  0.14307201109E+04  0.14628750688E+04  0.12699999809E+01 0. -1.
</event>
<event>
 5   0  0.9535394E-05  0.2342508E+04  0.7818609E-02  0.8461347E-01
        2   -1    0    0  501    0  0.00000000000E+00  0.00000000000E+00  0.97439916450E+03  0.97439916451E+03  0.25500000920E-02 0. -1.
       -2   -1    0    0    0  501  0.00000000000E+00  0.00000000000E+00 -0.14078793449E+04  0.14078793449E+04  0.25500000920E-02 0.  1.
    10030    2    1    2    0    0  0.00000000000E+00  0.00000000000E+00 -0.43348018043E+03  0.23822785094E+04  0.23425084482E+04 0.  0.
        2    1    3    3  502    0 -0.11342804828E+04  0.40774328090E+02  0.77273199688E+02  0.11376404999E+04  0.25500000920E-02 0. -1.
       -2    1    3    3    0  502  0.11342804828E+04 -0.40774328090E+02 -0.51075338012E+03  0.12446380096E+04  0.25500000920E-02 0.  1.
</event>
<event>
 5   0  0.9535394E-05  0.2341228E+04  0.7818609E-02  0.8461840E-01
       -2   -1    0    0    0  501  0.00000000000E+00  0.00000000000E+00  0.11259415344E+04  0.11259415344E+04  0.25500000920E-02 0.  1.
        2   -1    0    0  501    0  0.00000000000E+00  0.00000000000E+00 -0.12170593116E+04  0.12170593116E+04  0.25500000920E-02 0. -1.
    10030    2    1    2    0    0  0.00000000000E+00  0.00000000000E+00 -0.91117777174E+02  0.23430008460E+04  0.23412284201E+04 0.  0.
        2    1    3    3  502    0 -0.51305708312E+03  0.93106890396E+03 -0.53605313930E+03  0.11905754250E+04  0.25500000920E-02 0. -1.
       -2    1    3    3    0  502  0.51305708312E+03 -0.93106890396E+03  0.44493536213E+03  0.11524254210E+04  0.25500000920E-02 0.  1.
</event>
<event>
 5   0  0.9641157E-05  0.2272775E+04  0.7818609E-02  0.8488733E-01
       -2   -1    0    0    0  501  0.00000000000E+00  0.00000000000E+00  0.67852844356E+03  0.67852844357E+03  0.25500000920E-02 0. -1.
        2   -1    0    0  501    0  0.00000000000E+00  0.00000000000E+00 -0.19032023135E+04  0.19032023135E+04  0.25500000920E-02 0.  1.
    10030    2    1    2    0    0  0.00000000000E+00  0.00000000000E+00 -0.12246738700E+04  0.25817307571E+04  0.22727753110E+04 0.  0.
        3    1    3    3  502    0 -0.64708464480E+03 -0.93388430258E+03 -0.63820204111E+03  0.13031347910E+04  0.10100000352E+00 0.  1.
       -3    1    3    3    0  502  0.64708464480E+03  0.93388430258E+03 -0.58647182884E+03  0.12785959660E+04  0.10100000352E+00 0. -1.
</event>
<event>
 5   0  0.4005462E-05  0.2277444E+04  0.7818609E-02  0.8486868E-01
       -1   -1    0    0    0  501  0.00000000000E+00  0.00000000000E+00  0.84078498842E+03  0.84078498843E+03  0.50400001928E-02 0.  1.
        1   -1    0    0  501    0  0.00000000000E+00  0.00000000000E+00 -0.15422348156E+04  0.15422348156E+04  0.50400001928E-02 0. -1.
    10030    2    1    2    0    0  0.00000000000E+00  0.00000000000E+00 -0.70144982714E+03  0.23830198040E+04  0.22774440775E+04 0.  0.
        4    1    3    3  502    0  0.27732156966E+03  0.22784408006E+03 -0.14815005802E+04  0.15243574908E+04  0.12699999809E+01 0. -1.
       -4    1    3    3    0  502 -0.27732156966E+03 -0.22784408006E+03  0.78005075305E+03  0.85866231317E+03  0.12699999809E+01 0.  1.
</event>
<event>
 5   0  0.4139830E-05  0.2288043E+04  0.7818609E-02  0.8482651E-01
        1   -1    0    0  501    0  0.00000000000E+00  0.00000000000E+00  0.15606439520E+04  0.15606439520E+04  0.50400001928E-02 0. -1.
       -1   -1    0    0    0  501  0.00000000000E+00  0.00000000000E+00 -0.83861851938E+03  0.83861851940E+03  0.50400001928E-02 0.  1.
    10030    2    1    2    0    0  0.00000000000E+00  0.00000000000E+00  0.72202543264E+03  0.23992624714E+04  0.22880427622E+04 0.  0.
        1    1    3    3  502    0 -0.57690182320E+03 -0.85882166499E+03 -0.15097765017E+03  0.10455546933E+04  0.50400001928E-02 0.  1.
       -1    1    3    3    0  502  0.57690182320E+03  0.85882166499E+03  0.87300308281E+03  0.13537077781E+04  0.50400001928E-02 0. -1.
</event>
<event>
 5   0  0.4095451E-05  0.2325965E+04  0.7818609E-02  0.8467753E-01
       -1   -1    0    0    0  501  0.00000000000E+00  0.00000000000E+00  0.10770372190E+04  0.10770372190E+04  0.50400001928E-02 0.  1.
        1   -1    0    0  501    0  0.00000000000E+00  0.00000000000E+00 -0.12557857053E+04  0.12557857053E+04  0.50400001928E-02 0. -1.
    10030    2    1    2    0    0  0.00000000000E+00  0.00000000000E+00 -0.17874848630E+03  0.23328229243E+04  0.23259646976E+04 0.  0.
        3    1    3    3  502    0  0.54251408595E+03  0.22293443752E+03 -0.10965796204E+04  0.12435868168E+04  0.10100000352E+00 0. -1.
       -3    1    3    3    0  502 -0.54251408595E+03 -0.22293443752E+03  0.91783113408E+03  0.10892361075E+04  0.10100000352E+00 0.  1.
</event>
<event>
 5   0  0.3885219E-05  0.2486266E+04  0.7818609E-02  0.8407895E-01
       -1   -1    0    0    0  501  0.00000000000E+00  0.00000000000E+00  0.79629388593E+03  0.79629388595E+03  0.50400001928E-02 0. -1.
        1   -1    0    0  501    0  0.00000000000E+00  0.00000000000E+00 -0.19407154016E+04  0.19407154016E+04  0.50400001928E-02 0.  1.
    10030    2    1    2    0    0  0.00000000000E+00  0.00000000000E+00 -0.11444215157E+04  0.27370092876E+04  0.24862661231E+04 0.  0.
        2    1    3    3  502    0  0.11843125679E+04  0.21067982195E+03 -0.22689147589E+03  0.12241168195E+04  0.25500000920E-02 0. -1.
       -2    1    3    3    0  502 -0.11843125679E+04 -0.21067982195E+03 -0.91753003980E+03  0.15128924681E+04  0.25500000920E-02 0.  1.
</event>
<event>
 5   0  0.4139830E-05  0.2317870E+04  0.7818609E-02  0.8470908E-01
       -1   -1    0    0    0  501  0.00000000000E+00  0.00000000000E+00  0.50137519275E+03  0.50137519277E+03  0.50400001928E-02 0. -1.
        1   -1    0    0  501    0  0.00000000000E+00  0.00000000000E+00 -0.26788936428E+04  0.26788936428E+04  0.50400001928E-02 0.  1.
    10030    2    1    2    0    0  0.00000000000E+00  0.00000000000E+00 -0.21775184501E+04  0.31802688356E+04  0.23178704162E+04 0.  0.
        1    1    3    3  502    0 -0.52181437925E+03  0.48115206577E+03 -0.23457783852E+04  0.24508108433E+04  0.50400001928E-02 0.  1.
       -1    1    3    3    0  502  0.52181437925E+03 -0.48115206577E+03  0.16825993516E+03  0.72945799234E+03  0.50400001928E-02 0. -1.
</event>
<event>
 5   0  0.9312074E-05  0.2241186E+04  0.7818609E-02  0.8501478E-01
       -2   -1    0    0    0  501  0.00000000000E+00  0.00000000000E+00  0.21409680096E+04  0.21409680096E+04  0.25500000920E-02 0. -1.
        2   -1    0    0  501    0  0.00000000000E+00  0.00000000000E+00 -0.58652387883E+03  0.58652387884E+03  0.25500000920E-02 0.  1.
    10030    2    1    2    0    0  0.00000000000E+00  0.00000000000E+00  0.15544441308E+04  0.27274918885E+04  0.22411861694E+04 0.  0.
        4    1    3    3  502    0 -0.66757933007E+03  0.48987641614E+03  0.16960957029E+04  0.18874276970E+04  0.12699999809E+01 0. -1.
       -4    1    3    3    0  502  0.66757933007E+03 -0.48987641614E+03 -0.14165157212E+03  0.84006419148E+03  0.12699999809E+01 0.  1.
</event>
<event>
 5   0  0.9312074E-05  0.2209286E+04  0.7818609E-02  0.8514573E-01
        2   -1    0    0  501    0  0.00000000000E+00  0.00000000000E+00  0.13866642921E+04  0.13866642921E+04  0.25500000920E-02 0.  1.
       -2   -1    0    0    0  501  0.00000000000E+00  0.00000000000E+00 -0.87997979572E+03  0.87997979573E+03  0.25500000920E-02 0. -1.
    10030    2    1    2    0    0  0.00000000000E+00  0.00000000000E+00  0.50668449640E+03  0.22666440879E+04  0.22092863649E+04 0.  0.
        4    1    3    3  502    0  0.88652561925E+02 -0.88747521649E+03  0.92200151762E+03  0.12827938057E+04  0.12699999809E+01 0. -1.
       -4    1    3    3    0  502 -0.88652561925E+02  0.88747521649E+03 -0.41531702121E+03  0.98385028212E+03  0.12699999809E+01 0.  1.
</event>
<event>
 5   0  0.9535394E-05  0.2053138E+04  0.7818609E-02  0.8582172E-01
        2   -1    0    0  501    0  0.00000000000E+00  0.00000000000E+00  0.21408354271E+04  0.21408354271E+04  0.25500000920E-02 0. -1.
       -2   -1    0    0    0  501  0.00000000000E+00  0.00000000000E+00 -0.49225809193E+03  0.49225809194E+03  0.25500000920E-02 0.  1.
    10030    2    1    2    0    0  0.00000000000E+00  0.00000000000E+00  0.16485773352E+04  0.26330935191E+04  0.20531376598E+04 0.  0.
        2    1    3    3  502    0 -0.71889381337E+03  0.67806382250E+02  0.17600876099E+04  0.19024495827E+04  0.25500000920E-02 0. -1.
       -2    1    3    3    0  502  0.71889381337E+03 -0.67806382250E+02 -0.11151027466E+03  0.73064393636E+03  0.25500000920E-02 0.  1.
</event>
<event>
 5   0  0.3261500E-05  0.2213332E+04  0.7818609E-02  0.8512900E-01
        3   -1    0    0  501    0  0.00000000000E+00  0.00000000000E+00  0.12877650174E+04  0.12877650214E+04  0.10100000352E+00 0.  1.
       -3   -1    0    0    0  501  0.00000000000E+00  0.00000000000E+00 -0.95103481936E+03  0.95103482472E+03  0.10100000352E+00 0. -1.
    10030    2    1    2    0    0  0.00000000000E+00  0.00000000000E+00  0.33673019808E+03  0.22387998461E+04  0.22133317701E+04 0.  0.
        2    1    3    3  502    0  0.73283829396E+03  0.67055351520E+03 -0.32511685827E+03  0.10451769962E+04  0.25500000920E-02 0. -1.
       -2    1    3    3    0  502 -0.73283829396E+03 -0.67055351520E+03  0.66184705636E+03  0.11936228499E+04  0.25500000920E-02 0.  1.
</event>
<event>
 5   0  0.4005462E-05  0.2220518E+04  0.7818609E-02  0.8509936E-01
       -1   -1    0    0    0  501  0.00000000000E+00  0.00000000000E+00  0.11600865030E+04  0.11600865030E+04  0.50400001928E-02 0.  1.
        1   -1    0    0  501    0  0.00000000000E+00  0.00000000000E+00 -0.10625715945E+04  0.10625715945E+04  0.50400001928E-02 0. -1.
    10030    2    1    2    0    0  0.00000000000E+00  0.00000000000E+00  0.97514908440E+02  0.22226580975E+04  0.22205179263E+04 0.  0.
        4    1    3    3  502    0  0.69269211156E+03  0.58593635395E+03  0.68931922562E+03  0.11394324815E+04  0.12699999809E+01 0.  1.
       -4    1    3    3    0  502 -0.69269211156E+03 -0.58593635395E+03 -0.59180431718E+03  0.10832256159E+04  0.12699999809E+01 0. -1.
</event>
<event>
 5   0  0.4095451E-05  0.2298420E+04  0.7818609E-02  0.8478544E-01
       -1   -1    0    0    0  501  0.00000000000E+00  0.00000000000E+00  0.13275734712E+04  0.13275734713E+04  0.50400001928E-02 0.  1.
        1   -1    0    0  501    0  0.00000000000E+00  0.00000000000E+00 -0.99481037387E+03  0.99481037388E+03  0.50400001928E-02 0. -1.
    10030    2    1    2    0    0  0.00000000000E+00  0.00000000000E+00  0.33276309737E+03  0.23223838451E+04  0.22984202064E+04 0.  0.
        3    1    3    3  502    0  0.84196119508E+03 -0.25835592446E+03 -0.57958220933E+03  0.10543064001E+04  0.10100000352E+00 0. -1.
       -3    1    3    3    0  502 -0.84196119508E+03  0.25835592446E+03  0.91234530671E+03  0.12680774450E+04  0.10100000352E+00 0.  1.
</event>
<event>
 5   0  0.4005462E-05  0.2285953E+04  0.7818609E-02  0.8483480E-01
        1   -1    0    0  501    0  0.00000000000E+00  0.00000000000E+00  0.16274654098E+04  0.16274654098E+04  0.50400001928E-02 0. -1.
       -1   -1    0    0    0  501  0.00000000000E+00  0.00000000000E+00 -0.80271802981E+03  0.80271802982E+03  0.50400001928E-02 0.  1.
    10030    2    1    2    0    0  0.00000000000E+00  0.00000000000E+00  0.82474737997E+03  0.24301834396E+04  0.22859534793E+04 0.  0.
        4    1    3    3  502    0  0.15804348913E+03  0.10492253437E+03 -0.78586470969E+03  0.80843765221E+03  0.12699999809E+01 0.  1.
       -4    1    3    3    0  502 -0.15804348913E+03 -0.10492253437E+03  0.16106120897E+04  0.16217457874E+04  0.12699999809E+01 0. -1.
</event>
<event>
 5   0  0.4005462E-05  0.2273151E+04  0.7818609E-02  0.8488583E-01
        1   -1    0    0  501    0  0.00000000000E+00  0.00000000000E+00  0.14054902973E+04  0.14054902973E+04  0.50400001928E-02 0. -1.
       -1   -1    0    0    0  501  0.00000000000E+00  0.00000000000E+00 -0.91911274095E+03  0.91911274096E+03  0.50400001928E-02 0.  1.
    10030    2    1    2    0    0  0.00000000000E+00  0.00000000000E+00  0.48637755634E+03  0.23246030383E+04  0.22731511516E+04 0.  0.
        4    1    3    3  502    0 -0.64250764014E+03 -0.92614060640E+03  0.39226188452E+03  0.11934921405E+04  0.12699999809E+01 0. -1.
       -4    1    3    3    0  502  0.64250764014E+03  0.92614060640E+03  0.94115671811E+02  0.11311108978E+04  0.12699999809E+01 0.  1.
</event>
<event>
 5   0  0.9313463E-05  0.2637635E+04  0.7818609E-02  0.8355529E-01
        2   -1    0    0  501    0  0.00000000000E+00  0.00000000000E+00  0.23581979984E+04  0.23581979984E+04  0.25500000920E-02 0. -1.
       -2   -1    0    0    0  501  0.00000000000E+00  0.00000000000E+00 -0.73754625964E+03  0.73754625965E+03  0.25500000920E-02 0.  1.
    10030    2    1    2    0    0  0.00000000000E+00  0.00000000000E+00  0.16206517388E+04  0.30957442581E+04  0.26376353905E+04 0.  0.
        1    1    3    3  502    0 -0.11465120824E+04 -0.65058501321E+03  0.85622415672E+03  0.15719003216E+04  0.50400001928E-02 0.  1.
       -1    1    3    3    0  502  0.11465120824E+04  0.65058501321E+03  0.76442758205E+03  0.15238439365E+04  0.50400001928E-02 0. -1.
</event>
<event>
 5   0  0.9535394E-05  0.1908177E+04  0.7818609E-02  0.8650797E-01
       -2   -1    0    0    0  501  0.00000000000E+00  0.00000000000E+00  0.58157434054E+03  0.58157434054E+03  0.25500000920E-02 0. -1.
        2   -1    0    0  501    0  0.00000000000E+00  0.00000000000E+00 -0.15652082170E+04  0.15652082170E+04  0.25500000920E-02 0.  1.
    10030    2    1    2    0    0  0.00000000000E+00  0.00000000000E+00 -0.98363387648E+03  0.21467825576E+04  0.19081770742E+04 0.  0.
        2    1    3    3  502    0 -0.69038696758E+03  0.56861329510E+03 -0.86551047598E+03  0.12446138471E+04  0.25500000920E-02 0.  1.
       -2    1    3    3    0  502  0.69038696758E+03 -0.56861329510E+03 -0.11812340049E+03  0.90216871045E+03  0.25500000920E-02 0. -1.
</event>
<event>
 5   0  0.9641157E-05  0.2275740E+04  0.7818609E-02  0.8487548E-01
        2   -1    0    0  501    0  0.00000000000E+00  0.00000000000E+00  0.20923601296E+04  0.20923601296E+04  0.25500000920E-02 0.  1.
       -2   -1    0    0    0  501  0.00000000000E+00  0.00000000000E+00 -0.61879775077E+03  0.61879775078E+03  0.25500000920E-02 0. -1.
    10030    2    1    2    0    0  0.00000000000E+00  0.00000000000E+00  0.14735623788E+04  0.27111578804E+04  0.22757396529E+04 0.  0.
        3    1    3    3  502    0  0.18605251599E+02  0.80393656486E+03 -0.22228610252E+03  0.83430886204E+03  0.10100000352E+00 0. -1.
       -3    1    3    3    0  502 -0.18605251599E+02 -0.80393656486E+03  0.16958484813E+04  0.18768490183E+04  0.10100000352E+00 0.  1.
</event>
<event>
 5   0  0.9483073E-05  0.2265233E+04  0.7818609E-02  0.8491757E-01
        2   -1    0    0  501    0  0.00000000000E+00  0.00000000000E+00  0.12388634797E+04  0.12388634797E+04  0.25500000920E-02 0. -1.
       -2   -1    0    0    0  501  0.00000000000E+00  0.00000000000E+00 -0.10354812696E+04  0.10354812696E+04  0.25500000920E-02 0.  1.
    10030    2    1    2    0    0  0.00000000000E+00  0.00000000000E+00  0.20338221009E+03  0.22743447493E+04  0.22652328170E+04 0.  0.
        5    1    3    3  502    0  0.44529821604E+03  0.33810247415E+03  0.10906375104E+04  0.12256084421E+04  0.46999998093E+01 0. -1.
       -5    1    3    3    0  502 -0.44529821604E+03 -0.33810247415E+03 -0.88725530030E+03  0.10487363072E+04  0.46999998093E+01 0.  1.
</event>
<event>
 5   0  0.4295775E-05  0.1714634E+04  0.7818609E-02  0.8753062E-01
       -1   -1    0    0    0  501  0.00000000000E+00  0.00000000000E+00  0.77477712368E+03  0.77477712370E+03  0.50400001928E-02 0.  1.
        1   -1    0    0  501    0  0.00000000000E+00  0.00000000000E+00 -0.94864984873E+03  0.94864984875E+03  0.50400001928E-02 0. -1.
    10030    2    1    2    0    0  0.00000000000E+00  0.00000000000E+00 -0.17387272505E+03  0.17234269724E+04  0.17146337232E+04 0.  0.
        5    1    3    3  502    0 -0.67818481425E+03 -0.28227413469E+03  0.35732216275E+03  0.81689322888E+03  0.46999998093E+01 0.  1.
       -5    1    3    3    0  502  0.67818481425E+03  0.28227413469E+03 -0.53119488780E+03  0.90653374357E+03  0.46999998093E+01 0. -1.
</event>
<event>
 5   0  0.3885219E-05  0.2284879E+04  0.7818609E-02  0.8483907E-01
       -1   -1    0    0    0  501  0.00000000000E+00  0.00000000000E+00  0.13586551653E+04  0.13586551653E+04  0.50400001928E-02 0. -1.
        1   -1    0    0  501    0  0.00000000000E+00  0.00000000000E+00 -0.96063216413E+03  0.96063216415E+03  0.50400001928E-02 0.  1.
    10030    2    1    2    0    0  0.00000000000E+00  0.00000000000E+00  0.39802300120E+03  0.23192873295E+04  0.22848788605E+04 0.  0.
        2    1    3    3  502    0 -0.35433736891E+03 -0.10455058734E+04 -0.99578737154E+02  0.11084012934E+04  0.25500000920E-02 0.  1.
       -2    1    3    3    0  502  0.35433736891E+03  0.10455058734E+04  0.49760173835E+03  0.12108860361E+04  0.25500000920E-02 0. -1.
</event>
<event>
 5   0  0.4295775E-05  0.2315883E+04  0.7818609E-02  0.8471685E-01
       -1   -1    0    0    0  501  0.00000000000E+00  0.00000000000E+00  0.59843136716E+03  0.59843136718E+03  0.50400001928E-02 0.  1.
        1   -1    0    0  501    0  0.00000000000E+00  0.00000000000E+00 -0.22405715488E+04  0.22405715488E+04  0.50400001928E-02 0. -1.
    10030    2    1    2    0    0  0.00000000000E+00  0.00000000000E+00 -0.16421401816E+04  0.28390029160E+04  0.23158828081E+04 0.  0.
        5    1    3    3  502    0  0.31899285982E+03 -0.36249564398E+03 -0.21112488352E+04  0.21657685174E+04  0.46999998093E+01 0. -1.
       -5    1    3    3    0  502 -0.31899285982E+03  0.36249564398E+03  0.46910865363E+03  0.67323439858E+03  0.46999998093E+01 0.  1.
</event>
<event>
 5   0  0.9535394E-05  0.2297976E+04  0.7818609E-02  0.8478720E-01
        2   -1    0    0  501    0  0.00000000000E+00  0.00000000000E+00  0.12668605134E+04  0.12668605134E+04  0.25500000920E-02 0.  1.
       -2   -1    0    0    0  501  0.00000000000E+00  0.00000000000E+00 -0.10420826800E+04  0.10420826800E+04  0.25500000920E-02 0. -1.
    10030    2    1    2    0    0  0.00000000000E+00  0.00000000000E+00  0.22477783336E+03  0.23089431934E+04  0.22979759781E+04 0.  0.
        2    1    3    3  502    0 -0.72133726794E+03  0.76786358804E+03 -0.34830938544E+03  0.11096221753E+04  0.25500000920E-02 0. -1.
       -2    1    3    3    0  502  0.72133726794E+03 -0.76786358804E+03  0.57308721880E+03  0.11993210180E+04  0.25500000920E-02 0.  1.
</event>
<event>
 5   0  0.9313463E-05  0.2203378E+04  0.7818609E-02  0.8517023E-01
        2   -1    0    0  501    0  0.00000000000E+00  0.00000000000E+00  0.10791449107E+04  0.10791449107E+04  0.25500000920E-02 0. -1.
       -2   -1    0    0    0  501  0.00000000000E+00  0.00000000000E+00 -0.11247040081E+04  0.11247040081E+04  0.25500000920E-02 0.  1.
    10030    2    1    2    0    0  0.00000000000E+00  0.00000000000E+00 -0.45559097430E+02  0.22038489188E+04  0.22033779579E+04 0.  0.
        1    1    3    3  502    0 -0.10324973358E+04  0.32944176900E+03  0.17509089048E+03  0.10978339800E+04  0.50400001928E-02 0. -1.
       -1    1    3    3    0  502  0.10324973358E+04 -0.32944176900E+03 -0.22064998791E+03  0.11060149388E+04  0.50400001928E-02 0.  1.
</event>
<event>
 5   0  0.9313463E-05  0.2304516E+04  0.7818609E-02  0.8476143E-01
        2   -1    0    0  501    0  0.00000000000E+00  0.00000000000E+00  0.20777512716E+04  0.20777512716E+04  0.25500000920E-02 0. -1.
       -2   -1    0    0    0  501  0.00000000000E+00  0.00000000000E+00 -0.63900750684E+03  0.63900750684E+03  0.25500000920E-02 0.  1.
    10030    2    1    2    0    0  0.00000000000E+00  0.00000000000E+00  0.14387437648E+04  0.27167587785E+04  0.23045161400E+04 0.  0.
        1    1    3    3  502    0 -0.81874926423E+03  0.78743181453E+03  0.94705062221E+03  0.14789537184E+04  0.50400001928E-02 0.  1.
       -1    1    3    3    0  502  0.81874926423E+03 -0.78743181453E+03  0.49169314260E+03  0.12378050601E+04  0.50400001928E-02 0. -1.
</event>
<event>
 5   0  0.9641157E-05  0.2340696E+04  0.7818609E-02  0.8462046E-01
       -2   -1    0    0    0  501  0.00000000000E+00  0.00000000000E+00  0.13089964460E+04  0.13089964460E+04  0.25500000920E-02 0.  1.
        2   -1    0    0  501    0  0.00000000000E+00  0.00000000000E+00 -0.10463847078E+04  0.10463847078E+04  0.25500000920E-02 0. -1.
    10030    2    1    2    0    0  0.00000000000E+00  0.00000000000E+00  0.26261173827E+03  0.23553811538E+04  0.23406955066E+04 0.  0.
        3    1    3    3  502    0 -0.12016024279E+02 -0.91116595009E+03 -0.60770365872E+03  0.10952951750E+04  0.10100000352E+00 0.  1.
       -3    1    3    3    0  502  0.12016024279E+02  0.91116595009E+03  0.87031539699E+03  0.12600859788E+04  0.10100000352E+00 0. -1.
</event>
<event>
 5   0  0.4005462E-05  0.2085440E+04  0.7818609E-02  0.8567684E-01
       -1   -1    0    0    0  501  0.00000000000E+00  0.00000000000E+00  0.16220324969E+04  0.16220324969E+04  0.50400001928E-02 0.  1.
        1   -1    0    0  501    0  0.00000000000E+00  0.00000000000E+00 -0.67031016330E+03  0.67031016332E+03  0.50400001928E-02 0. -1.
    10030    2    1    2    0    0  0.00000000000E+00  0.00000000000E+00  0.95172233363E+03  0.22923426603E+04  0.20854398749E+04 0.  0.
        4    1    3    3  502    0 -0.63492979146E+03 -0.85861712515E+02  0.13801301989E+04  0.15216008191E+04  0.12699999809E+01 0.  1.
       -4    1    3    3    0  502  0.63492979146E+03  0.85861712515E+02 -0.42840786531E+03  0.77074184116E+03  0.12699999809E+01 0. -1.
</event>
<event>
 5   0  0.9641157E-05  0.2297364E+04  0.7818609E-02  0.8478961E-01
        2   -1    0    0  501    0  0.00000000000E+00  0.00000000000E+00  0.82727988551E+03  0.82727988551E+03  0.25500000920E-02 0. -1.
       -2   -1    0    0    0  501  0.00000000000E+00  0.00000000000E+00 -0.15949503014E+04  0.15949503014E+04  0.25500000920E-02 0.  1.
    10030    2    1    2    0    0  0.00000000000E+00  0.00000000000E+00 -0.76767041589E+03  0.24222301869E+04  0.22973639701E+04 0.  0.
        3    1    3    3  502    0 -0.62413537783E+03 -0.32658787059E+03 -0.13404907978E+04  0.15143051860E+04  0.10100000352E+00 0.  1.
       -3    1    3    3    0  502  0.62413537783E+03  0.32658787059E+03  0.57282038195E+03  0.90792500090E+03  0.10100000352E+00 0. -1.
</event>
<event>
 5   0  0.3885219E-05  0.1667654E+04  0.7818609E-02  0.8780031E-01
        1   -1    0    0  501    0  0.00000000000E+00  0.00000000000E+00  0.68883867920E+03  0.68883867922E+03  0.50400001928E-02 0.  1.
       -1   -1    0    0    0  501  0.00000000000E+00  0.00000000000E+00 -0.10093328186E+04  0.10093328187E+04  0.50400001928E-02 0. -1.
    10030    2    1    2    0    0  0.00000000000E+00  0.00000000000E+00 -0.32049413945E+03  0.16981714979E+04  0.16676540237E+04 0.  0.
        2    1    3    3  502    0 -0.77291827621E+02 -0.50789464400E+03  0.50853356869E+03  0.72286747507E+03  0.25500000920E-02 0.  1.
       -2    1    3    3    0  502  0.77291827621E+02  0.50789464400E+03 -0.82902770814E+03  0.97530402280E+03  0.25500000920E-02 0. -1.
</event>
<event>
 5   0  0.3261500E-05  0.2290495E+04  0.7818609E-02  0.8481678E-01
        4   -1    0    0  501    0  0.00000000000E+00  0.00000000000E+00  0.92970395469E+03  0.92970482211E+03  0.12699999809E+01 0.  1.
       -4   -1    0    0    0  501  0.00000000000E+00  0.00000000000E+00 -0.14107616054E+04  0.14107621770E+04  0.12699999809E+01 0. -1.
    10030    2    1    2    0    0  0.00000000000E+00  0.00000000000E+00 -0.48105765070E+03  0.23404669991E+04  0.22904954291E+04 0.  0.
        4    1    3    3  502    0  0.84576235924E+03  0.65421689090E+03  0.17863662699E+03  0.10840785793E+04  0.12699999809E+01 0.  1.
       -4    1    3    3    0  502 -0.84576235924E+03 -0.65421689090E+03 -0.65969427769E+03  0.12563884199E+04  0.12699999809E+01 0. -1.
</event>
<event>
 5   0  0.9641157E-05  0.2420272E+04  0.7818609E-02  0.8431953E-01
       -2   -1    0    0    0  501  0.00000000000E+00  0.00000000000E+00  0.14220817721E+04  0.14220817721E+04  0.25500000920E-02 0. -1.
        2   -1    0    0  501    0  0.00000000000E+00  0.00000000000E+00 -0.10297783008E+04  0.10297783008E+04  0.25500000920E-02 0.  1.
    10030    2    1    2    0    0  0.00000000000E+00  0.00000000000E+00  0.39230347130E+03  0.24518600730E+04  0.24202718450E+04 0.  0.
        3    1    3    3  502    0  0.86206186882E+03 -0.62510456758E+03  0.77856610748E+03  0.13191177279E+04  0.10100000352E+00 0. -1.
       -3    1    3    3    0  502 -0.86206186882E+03  0.62510456758E+03 -0.38626263618E+03  0.11327423451E+04  0.10100000352E+00 0.  1.
</event>
<event>
 5   0  0.3885219E-05  0.2302240E+04  0.7818609E-02  0.8477038E-01
       -1   -1    0    0    0  501  0.00000000000E+00  0.00000000000E+00  0.10214113651E+04  0.10214113651E+04  0.50400001928E-02 0. -1.
        1   -1    0    0  501    0  0.00000000000E+00  0.00000000000E+00 -0.12973001378E+04  0.12973001378E+04  0.50400001928E-02 0.  1.
    10030    2    1    2    0    0  0.00000000000E+00  0.00000000000E+00 -0.27588877268E+03  0.23187115030E+04  0.23022398700E+04 0.  0.
        2    1    3    3  502    0 -0.86097916323E+02 -0.10900682917E+03 -0.12888281031E+04  0.12962921042E+04  0.25500000920E-02 0.  1.
       -2    1    3    3    0  502  0.86097916323E+02  0.10900682917E+03  0.10129393304E+04  0.10224193988E+04  0.25500000920E-02 0. -1.
</event>
<event>
 5   0  0.3885219E-05  0.2328869E+04  0.7818609E-02  0.8466625E-01
        1   -1    0    0  501    0  0.00000000000E+00  0.00000000000E+00  0.98430707999E+03  0.98430708001E+03  0.50400001928E-02 0. -1.
       -1   -1    0    0    0  501  0.00000000000E+00  0.00000000000E+00 -0.13775255436E+04  0.13775255437E+04  0.50400001928E-02 0.  1.
    10030    2    1    2    0    0  0.00000000000E+00  0.00000000000E+00 -0.39321846365E+03  0.23618326237E+04  0.23288693785E+04 0.  0.
        2    1    3    3  502    0  0.44609052640E+02 -0.11565843192E+04 -0.67405469235E+02  0.11594053442E+04  0.25500000920E-02 0.  1.
       -2    1    3    3    0  502 -0.44609052640E+02  0.11565843192E+04 -0.32581299442E+03  0.12024272794E+04  0.25500000920E-02 0. -1.
</event>
<event>
 5   0  0.4295775E-05  0.2313567E+04  0.7818609E-02  0.8472591E-01
       -1   -1    0    0    0  501  0.00000000000E+00  0.00000000000E+00  0.61676384927E+03  0.61676384929E+03  0.50400001928E-02 0.  1.
        1   -1    0    0  501    0  0.00000000000E+00  0.00000000000E+00 -0.21696284457E+04  0.21696284457E+04  0.50400001928E-02 0. -1.
    10030    2    1    2    0    0  0.00000000000E+00  0.00000000000E+00 -0.15528645964E+04  0.27863922950E+04  0.23135672816E+04 0.  0.
        5    1    3    3  502    0  0.35027555039E+03  0.60495790751E+02  0.54934589064E+03  0.65433607532E+03  0.46999998093E+01 0.  1.
       -5    1    3    3    0  502 -0.35027555039E+03 -0.60495790751E+02 -0.21022104870E+04  0.21320562197E+04  0.46999998093E+01 0. -1.
</event>
<event>
 5   0  0.9535394E-05  0.2298473E+04  0.7818609E-02  0.8478523E-01
        2   -1    0    0  501    0  0.00000000000E+00  0.00000000000E+00  0.13225786947E+04  0.13225786947E+04  0.25500000920E-02 0.  1.
       -2   -1    0    0    0  501  0.00000000000E+00  0.00000000000E+00 -0.99861306453E+03  0.99861306454E+03  0.25500000920E-02 0. -1.
    10030    2    1    2    0    0  0.00000000000E+00  0.00000000000E+00  0.32396563015E+03  0.23211917592E+04  0.22984728525E+04 0.  0.
        2    1    3    3  502    0 -0.50719215692E+03 -0.10009817345E+04 -0.88533743284E+02  0.11256316185E+04  0.25500000920E-02 0. -1.
       -2    1    3    3    0  502  0.50719215692E+03  0.10009817345E+04  0.41249937343E+03  0.11955601407E+04  0.25500000920E-02 0.  1.
</event>
<event>
 5   0  0.9535394E-05  0.2321536E+04  0.7818609E-02  0.8469478E-01
        2   -1    0    0  501    0  0.00000000000E+00  0.00000000000E+00  0.17198283738E+04  0.17198283738E+04  0.25500000920E-02 0. -1.
       -2   -1    0    0    0  501  0.00000000000E+00  0.00000000000E+00 -0.78344020911E+03  0.78344020911E+03  0.25500000920E-02 0.  1.
    10030    2    1    2    0    0  0.00000000000E+00  0.00000000000E+00  0.93638816472E+03  0.25032685829E+04  0.23215363024E+04 0.  0.
        2    1    3    3  502    0  0.42665535855E+03  0.10147566106E+04  0.71104110621E+02  0.11030963550E+04  0.25500000920E-02 0. -1.
       -2    1    3    3    0  502 -0.42665535855E+03 -0.10147566106E+04  0.86528405410E+03  0.14001722280E+04  0.25500000920E-02 0.  1.
</event>
<event>
 5   0  0.4095451E-05  0.2230545E+04  0.7818609E-02  0.8505821E-01
        1   -1    0    0  501    0  0.00000000000E+00  0.00000000000E+00  0.12902221951E+04  0.12902221951E+04  0.50400001928E-02 0. -1.
       -1   -1    0    0    0  501  0.00000000000E+00  0.00000000000E+00 -0.96404572493E+03  0.96404572495E+03  0.50400001928E-02 0.  1.
    10030    2    1    2    0    0  0.00000000000E+00  0.00000000000E+00  0.32617647017E+03  0.22542679201E+04  0.22305453965E+04 0.  0.
        3    1    3    3  502    0 -0.48561388153E+03  0.12513950960E+03  0.11698516743E+04  0.12728054403E+04  0.10100000352E+00 0. -1.
       -3    1    3    3    0  502  0.48561388153E+03 -0.12513950960E+03 -0.84367520416E+03  0.98146247973E+03  0.10100000352E+00 0.  1.
</event>
<event>
 5   0  0.9312074E-05  0.2387117E+04  0.7818609E-02  0.8444343E-01
        2   -1    0    0  501    0  0.00000000000E+00  0.00000000000E+00  0.14068594216E+04  0.14068594216E+04  0.25500000920E-02 0. -1.
       -2   -1    0    0    0  501  0.00000000000E+00  0.00000000000E+00 -0.10125969823E+04  0.10125969823E+04  0.25500000920E-02 0.  1.
    10030    2    1    2    0    0  0.00000000000E+00  0.00000000000E+00  0.39426243928E+03  0.24194564039E+04  0.23871167586E+04 0.  0.
        4    1    3    3  502    0  0.15093590351E+01  0.12241345784E+03  0.14004784256E+04  0.14058196066E+04  0.12699999809E+01 0. -1.
       -4    1    3    3    0  502 -0.15093590351E+01 -0.12241345784E+03 -0.10062159863E+04  0.10136367973E+04  0.12699999809E+01 0.  1.
</event>
<event>
 5   0  0.4139830E-05  0.2234926E+04  0.7818609E-02  0.8504030E-01
       -1   -1    0    0    0  501  0.00000000000E+00  0.00000000000E+00  0.15298104607E+04  0.15298104608E+04  0.50400001928E-02 0. -1.
        1   -1    0    0  501    0  0.00000000000E+00  0.00000000000E+00 -0.81626010411E+03  0.81626010413E+03  0.50400001928E-02 0.  1.
    10030    2    1    2    0    0  0.00000000000E+00  0.00000000000E+00  0.71355035663E+03  0.23460705649E+04  0.22349257222E+04 0.  0.
        1    1    3    3  502    0 -0.31321257568E+03  0.66697084268E+03  0.12386559807E+04  0.14412566951E+04  0.50400001928E-02 0. -1.
       -1    1    3    3    0  502  0.31321257568E+03 -0.66697084268E+03 -0.52510562406E+03  0.90481386981E+03  0.50400001928E-02 0.  1.
</event>
<event>
 5   0  0.9535394E-05  0.2432863E+04  0.7818609E-02  0.8427302E-01
        2   -1    0    0  501    0  0.00000000000E+00  0.00000000000E+00  0.12011757685E+04  0.12011757685E+04  0.25500000920E-02 0.  1.
       -2   -1    0    0    0  501  0.00000000000E+00  0.00000000000E+00 -0.12318810846E+04  0.12318810846E+04  0.25500000920E-02 0. -1.
    10030    2    1    2    0    0  0.00000000000E+00  0.00000000000E+00 -0.30705316099E+02  0.24330568530E+04  0.24328630939E+04 0.  0.
        2    1    3    3  502    0  0.63358104697E+03  0.67828646092E+03 -0.80167747476E+03  0.12264518905E+04  0.25500000920E-02 0. -1.
       -2    1    3    3    0  502 -0.63358104697E+03 -0.67828646092E+03  0.77097215866E+03  0.12066049625E+04  0.25500000920E-02 0.  1.
</event>
<event>
 5   0  0.4095451E-05  0.2392514E+04  0.7818609E-02  0.8442312E-01
        1   -1    0    0  501    0  0.00000000000E+00  0.00000000000E+00  0.18687675024E+04  0.18687675024E+04  0.50400001928E-02 0.  1.
       -1   -1    0    0    0  501  0.00000000000E+00  0.00000000000E+00 -0.76576184628E+03  0.76576184629E+03  0.50400001928E-02 0. -1.
    10030    2    1    2    0    0  0.00000000000E+00  0.00000000000E+00  0.11030056561E+04  0.26345293487E+04  0.23925140358E+04 0.  0.
        3    1    3    3  502    0  0.48131060156E+03 -0.10187602748E+04  0.10898300920E+03  0.11319936834E+04  0.10100000352E+00 0. -1.
       -3    1    3    3    0  502 -0.48131060156E+03  0.10187602748E+04  0.99402264689E+03  0.15025356653E+04  0.10100000352E+00 0.  1.
</event>
<event>
 5   0  0.9313463E-05  0.2232177E+04  0.7818609E-02  0.8505154E-01
        2   -1    0    0  501    0  0.00000000000E+00  0.00000000000E+00  0.10491678694E+04  0.10491678694E+04  0.25500000920E-02 0.  1.
       -2   -1    0    0    0  501  0.00000000000E+00  0.00000000000E+00 -0.11872774168E+04  0.11872774168E+04  0.25500000920E-02 0. -1.
    10030    2    1    2    0    0  0.00000000000E+00  0.00000000000E+00 -0.13810954747E+03  0.22364452862E+04  0.22321768010E+04 0.  0.
        1    1    3    3  502    0 -0.71111829822E+03  0.71834346341E+03 -0.54318983523E+03  0.11475024020E+04  0.50400001928E-02 0. -1.
       -1    1    3    3    0  502  0.71111829822E+03 -0.71834346341E+03  0.40508028777E+03  0.10889428842E+04  0.50400001928E-02 0.  1.
</event>
<event>
 5   0  0.3261500E-05  0.2202163E+04  0.7818609E-02  0.8517528E-01
        4   -1    0    0  501    0  0.00000000000E+00  0.00000000000E+00  0.13270601434E+04  0.13270607511E+04  0.12699999809E+01 0. -1.
       -4   -1    0    0    0  501  0.00000000000E+00  0.00000000000E+00 -0.91358236265E+03  0.91358324538E+03  0.12699999809E+01 0.  1.
    10030    2    1    2    0    0  0.00000000000E+00  0.00000000000E+00  0.41347778075E+03  0.22406439965E+04  0.22021629467E+04 0.  0.
        1    1    3    3  502    0 -0.18537783574E+02 -0.98248003946E+03 -0.29870081393E+03  0.10270505604E+04  0.50400001928E-02 0.  1.
       -1    1    3    3    0  502  0.18537783574E+02  0.98248003946E+03  0.71217859469E+03  0.12135934361E+04  0.50400001928E-02 0. -1.
</event>
<event>
 5   0  0.4139830E-05  0.2306453E+04  0.7818609E-02  0.8475381E-01
        1   -1    0    0  501    0  0.00000000000E+00  0.00000000000E+00  0.16445772686E+04  0.16445772686E+04  0.50400001928E-02 0. -1.
       -1   -1    0    0    0  501  0.00000000000E+00  0.00000000000E+00 -0.80867674886E+03  0.80867674887E+03  0.50400001928E-02 0.  1.
    10030    2    1    2    0    0  0.00000000000E+00  0.00000000000E+00  0.83590051973E+03  0.24532540175E+04  0.23064530334E+04 0.  0.
        1    1    3    3  502    0 -0.16866859623E+03 -0.11398196846E+04  0.36701284942E+03  0.12092710368E+04  0.50400001928E-02 0.  1.
       -1    1    3    3    0  502  0.16866859623E+03  0.11398196846E+04  0.46888767031E+03  0.12439829807E+04  0.50400001928E-02 0. -1.
</event>
<event>
 5   0  0.4005462E-05  0.2305250E+04  0.7818609E-02  0.8475854E-01
        1   -1    0    0  501    0  0.00000000000E+00  0.00000000000E+00  0.22094574843E+04  0.22094574843E+04  0.50400001928E-02 0. -1.
       -1   -1    0    0    0  501  0.00000000000E+00  0.00000000000E+00 -0.60129883789E+03  0.60129883791E+03  0.50400001928E-02 0.  1.
    10030    2    1    2    0    0  0.00000000000E+00  0.00000000000E+00  0.16081586464E+04  0.28107563222E+04  0.23052498500E+04 0.  0.
        4    1    3    3  502    0 -0.37482116161E+03 -0.37020361541E+03 -0.44591130020E+03  0.69020295610E+03  0.12699999809E+01 0.  1.
       -4    1    3    3    0  502  0.37482116161E+03  0.37020361541E+03  0.20540699466E+04  0.21205533661E+04  0.12699999809E+01 0. -1.
</event>
<event>
 5   0  0.4005462E-05  0.1707687E+04  0.7818609E-02  0.8756993E-01
        1   -1    0    0  501    0  0.00000000000E+00  0.00000000000E+00  0.16861030702E+04  0.16861030702E+04  0.50400001928E-02 0.  1.
       -1   -1    0    0    0  501  0.00000000000E+00  0.00000000000E+00 -0.43238660274E+03  0.43238660277E+03  0.50400001928E-02 0. -1.
    10030    2    1    2    0    0  0.00000000000E+00  0.00000000000E+00  0.12537164674E+04  0.21184896730E+04  0.17076865970E+04 0.  0.
        4    1    3    3  502    0  0.49550049241E+03 -0.61876214323E+03  0.10204494805E+04  0.12921710734E+04  0.12699999809E+01 0.  1.
       -4    1    3    3    0  502 -0.49550049241E+03  0.61876214323E+03  0.23326698698E+03  0.82631859956E+03  0.12699999809E+01 0. -1.
</event>
<event>
 5   0  0.9535394E-05  0.2109150E+04  0.7818609E-02  0.8557223E-01
       -2   -1    0    0    0  501  0.00000000000E+00  0.00000000000E+00  0.59148181907E+03  0.59148181908E+03  0.25500000920E-02 0.  1.
        2   -1    0    0  501    0  0.00000000000E+00  0.00000000000E+00 -0.18802416949E+04  0.18802416949E+04  0.25500000920E-02 0. -1.
    10030    2    1    2    0    0  0.00000000000E+00  0.00000000000E+00 -0.12887598758E+04  0.24717235140E+04  0.21091503294E+04 0.  0.
        2    1    3    3  502    0 -0.95951632527E+03  0.29753891795E+03 -0.26840518563E+03  0.10398280290E+04  0.25500000920E-02 0. -1.
       -2    1    3    3    0  502  0.95951632527E+03 -0.29753891795E+03 -0.10203546902E+04  0.14318954850E+04  0.25500000920E-02 0.  1.
</event>
<event>
 5   0  0.9535394E-05  0.2515927E+04  0.7818609E-02  0.8397333E-01
        2   -1    0    0  501    0  0.00000000000E+00  0.00000000000E+00  0.13236378482E+04  0.13236378482E+04  0.25500000920E-02 0. -1.
       -2   -1    0    0    0  501  0.00000000000E+00  0.00000000000E+00 -0.11955473317E+04  0.11955473317E+04  0.25500000920E-02 0.  1.
    10030    2    1    2    0    0  0.00000000000E+00  0.00000000000E+00  0.12809051644E+03  0.25191851799E+04  0.25159266266E+04 0.  0.
        2    1    3    3  502    0 -0.11297803895E+04 -0.27156887206E+03 -0.41857311083E+03  0.12350533712E+04  0.25500000920E-02 0.  1.
       -2    1    3    3    0  502  0.11297803895E+04  0.27156887206E+03  0.54666362727E+03  0.12841318087E+04  0.25500000920E-02 0. -1.
</event>
<event>
 5   0  0.9312074E-05  0.2267832E+04  0.7818609E-02  0.8490714E-01
        2   -1    0    0  501    0  0.00000000000E+00  0.00000000000E+00  0.17375626907E+04  0.17375626907E+04  0.25500000920E-02 0.  1.
       -2   -1    0    0    0  501  0.00000000000E+00  0.00000000000E+00 -0.73998231003E+03  0.73998231004E+03  0.25500000920E-02 0. -1.
    10030    2    1    2    0    0  0.00000000000E+00  0.00000000000E+00  0.99758038064E+03  0.24775450007E+04  0.22678321399E+04 0.  0.
        4    1    3    3  502    0  0.10670217158E+04 -0.38085671765E+03  0.54976150484E+03  0.12592960361E+04  0.12699999809E+01 0. -1.
       -4    1    3    3    0  502 -0.10670217158E+04  0.38085671765E+03  0.44781887580E+03  0.12182489646E+04  0.12699999809E+01 0.  1.
</event>
<event>
 5   0  0.9483073E-05  0.1764468E+04  0.7818609E-02  0.8725427E-01
       -2   -1    0    0    0  501  0.00000000000E+00  0.00000000000E+00  0.85788155930E+03  0.85788155931E+03  0.25500000920E-02 0.  1.
        2   -1    0    0  501    0  0.00000000000E+00  0.00000000000E+00 -0.90727771321E+03  0.90727771322E+03  0.25500000920E-02 0. -1.
    10030    2    1    2    0    0  0.00000000000E+00  0.00000000000E+00 -0.49396153909E+02  0.17651592725E+04  0.17644679871E+04 0.  0.
        5    1    3    3  502    0 -0.18514848792E+03  0.85897774947E+03  0.54021967752E+02  0.88037673735E+03  0.46999998093E+01 0. -1.
       -5    1    3    3    0  502  0.18514848792E+03 -0.85897774947E+03 -0.10341812166E+03  0.88478253518E+03  0.46999998093E+01 0.  1.
</event>
<event>
 5   0  0.9535394E-05  0.2256205E+04  0.7818609E-02  0.8495392E-01
        2   -1    0    0  501    0  0.00000000000E+00  0.00000000000E+00  0.55975974247E+03  0.55975974247E+03  0.25500000920E-02 0. -1.
       -2   -1    0    0    0  501  0.00000000000E+00  0.00000000000E+00 -0.22735030087E+04  0.22735030087E+04  0.25500000920E-02 0.  1.
    10030    2    1    2    0    0  0.00000000000E+00  0.00000000000E+00 -0.17137432662E+04  0.28332627511E+04  0.22562051845E+04 0.  0.
        2    1    3    3  502    0  0.36297207170E+03 -0.79402643619E+03 -0.17540087124E+04  0.19592787625E+04  0.25500000920E-02 0.  1.
       -2    1    3    3    0  502 -0.36297207170E+03  0.79402643619E+03  0.40265446171E+02  0.87398398862E+03  0.25500000920E-02 0. -1.
</event>
<event>
 5   0  0.9313463E-05  0.2275355E+04  0.7818609E-02  0.8487702E-01
        2   -1    0    0  501    0  0.00000000000E+00  0.00000000000E+00  0.94014952579E+03  0.94014952579E+03  0.25500000920E-02 0.  1.
       -2   -1    0    0    0  501  0.00000000000E+00  0.00000000000E+00 -0.13767064400E+04  0.13767064400E+04  0.25500000920E-02 0. -1.
    10030    2    1    2    0    0  0.00000000000E+00  0.00000000000E+00 -0.43655691419E+03  0.23168559658E+04  0.22753548354E+04 0.  0.
        1    1    3    3  502    0 -0.26248746588E+03 -0.25888686255E+03  0.87763660305E+03  0.95192861307E+03  0.50400001928E-02 0.  1.
       -1    1    3    3    0  502  0.26248746588E+03  0.25888686255E+03 -0.13141935172E+04  0.13649273527E+04  0.50400001928E-02 0. -1.
</event>
<event>
 5   0  0.9312074E-05  0.2038506E+04  0.7818609E-02  0.8588827E-01
       -2   -1    0    0    0  501  0.00000000000E+00  0.00000000000E+00  0.86682776446E+03  0.86682776446E+03  0.25500000920E-02 0.  1.
        2   -1    0    0  501    0  0.00000000000E+00  0.00000000000E+00 -0.11984810288E+04  0.11984810288E+04  0.25500000920E-02 0. -1.
    10030    2    1    2    0    0  0.00000000000E+00  0.00000000000E+00 -0.33165326430E+03  0.20653087932E+04  0.20385059538E+04 0.  0.
        4    1    3    3  502    0  0.34913889560E+02 -0.65903095514E+03  0.62113216708E+03  0.90628227468E+03  0.12699999809E+01 0.  1.
       -4    1    3    3    0  502 -0.34913889560E+02  0.65903095514E+03 -0.95278543138E+03  0.11590265185E+04  0.12699999809E+01 0. -1.
</event>
<event>
 5   0  0.9312074E-05  0.2272626E+04  0.7818609E-02  0.8488793E-01
       -2   -1    0    0    0  501  0.00000000000E+00  0.00000000000E+00  0.51316803968E+03  0.51316803969E+03  0.25500000920E-02 0.  1.
        2   -1    0    0  501    0  0.00000000000E+00  0.00000000000E+00 -0.25161491498E+04  0.25161491498E+04  0.25500000920E-02 0. -1.
    10030    2    1    2    0    0  0.00000000000E+00  0.00000000000E+00 -0.20029811101E+04  0.30293171895E+04  0.22726260817E+04 0.  0.
        4    1    3    3  502    0 -0.47028987083E+02  0.72082901511E+03  0.16771997489E+03  0.74157791063E+03  0.12699999809E+01 0.  1.
       -4    1    3    3    0  502  0.47028987083E+02 -0.72082901511E+03 -0.21707010850E+04  0.22877392789E+04  0.12699999809E+01 0. -1.
</event>
<event>
 5   0  0.9483073E-05  0.2317728E+04  0.7818609E-02  0.8470964E-01
       -2   -1    0    0    0  501  0.00000000000E+00  0.00000000000E+00  0.98535851496E+03  0.98535851496E+03  0.25500000920E-02 0.  1.
        2   -1    0    0  501    0  0.00000000000E+00  0.00000000000E+00 -0.13629208186E+04  0.13629208186E+04  0.25500000920E-02 0. -1.
    10030    2    1    2    0    0  0.00000000000E+00  0.00000000000E+00 -0.37756230359E+03  0.23482793335E+04  0.23177278820E+04 0.  0.
        5    1    3    3  502    0  0.21360602348E+03 -0.74267754894E+03  0.68616796490E+03  0.10334631300E+04  0.46999998093E+01 0.  1.
       -5    1    3    3    0  502 -0.21360602348E+03  0.74267754894E+03 -0.10637302685E+04  0.13148162035E+04  0.46999998093E+01 0. -1.
</event>
<event>
 5   0  0.4005462E-05  0.2700848E+04  0.7818609E-02  0.8334730E-01
       -1   -1    0    0    0  501  0.00000000000E+00  0.00000000000E+00  0.12132599946E+04  0.12132599946E+04  0.50400001928E-02 0. -1.
        1   -1    0    0  501    0  0.00000000000E+00  0.00000000000E+00 -0.15030954647E+04  0.15030954647E+04  0.50400001928E-02 0.  1.
    10030    2    1    2    0    0  0.00000000000E+00  0.00000000000E+00 -0.28983547009E+03  0.27163554593E+04  0.27008484558E+04 0.  0.
        4    1    3    3  502    0 -0.12303939997E+03 -0.53119570583E+03  0.10976255198E+04  0.12255982076E+04  0.12699999809E+01 0. -1.
       -4    1    3    3    0  502  0.12303939997E+03  0.53119570583E+03 -0.13874609899E+04  0.14907572516E+04  0.12699999809E+01 0.  1.
</event>
<event>
 5   0  0.9483073E-05  0.2248151E+04  0.7818609E-02  0.8498650E-01
        2   -1    0    0  501    0  0.00000000000E+00  0.00000000000E+00  0.10569533580E+04  0.10569533580E+04  0.25500000920E-02 0. -1.
       -2   -1    0    0    0  501  0.00000000000E+00  0.00000000000E+00 -0.11954606303E+04  0.11954606303E+04  0.25500000920E-02 0.  1.
    10030    2    1    2    0    0  0.00000000000E+00  0.00000000000E+00 -0.13850727228E+03  0.22524139883E+04  0.22481513539E+04 0.  0.
        5    1    3    3  502    0 -0.81598674287E+03 -0.35174437075E+03  0.62050328537E+03  0.10837919007E+04  0.46999998093E+01 0. -1.
       -5    1    3    3    0  502  0.81598674287E+03  0.35174437075E+03 -0.75901055766E+03  0.11686220876E+04  0.46999998093E+01 0.  1.
</event>
<event>
 5   0  0.9641157E-05  0.2312158E+04  0.7818609E-02  0.8473143E-01
        2   -1    0    0  501    0  0.00000000000E+00  0.00000000000E+00  0.10168153733E+04  0.10168153733E+04  0.25500000920E-02 0.  1.
       -2   -1    0    0    0  501  0.00000000000E+00  0.00000000000E+00 -0.13144162689E+04  0.13144162689E+04  0.25500000920E-02 0. -1.
    10030    2    1    2    0    0  0.00000000000E+00  0.00000000000E+00 -0.29760089568E+03  0.23312316422E+04  0.23121580129E+04 0.  0.
        3    1    3    3  502    0 -0.52352361236E+03 -0.97833568456E+03 -0.47597846347E+03  0.12073827861E+04  0.10100000352E+00 0. -1.
       -3    1    3    3    0  502  0.52352361236E+03  0.97833568456E+03  0.17837756779E+03  0.11238488561E+04  0.10100000352E+00 0.  1.
</event>
<event>
 5   0  0.3885219E-05  0.2296465E+04  0.7818609E-02  0.8479316E-01
       -1   -1    0    0    0  501  0.00000000000E+00  0.00000000000E+00  0.10955728423E+04  0.10955728423E+04  0.50400001928E-02 0.  1.
        1   -1    0    0  501    0  0.00000000000E+00  0.00000000000E+00 -0.12034234112E+04  0.12034234112E+04  0.50400001928E-02 0. -1.
    10030    2    1    2    0    0  0.00000000000E+00  0.00000000000E+00 -0.10785056895E+03  0.22989962535E+04  0.22964651159E+04 0.  0.
        2    1    3    3  502    0 -0.52791961472E+03  0.52334406194E+03 -0.93001833474E+03  0.11905974256E+04  0.25500000920E-02 0. -1.
       -2    1    3    3    0  502  0.52791961472E+03 -0.52334406194E+03  0.82216776579E+03  0.11083988280E+04  0.25500000920E-02 0.  1.
</event>
<event>
 5   0  0.4139830E-05  0.2335219E+04  0.7818609E-02  0.8464163E-01
       -1   -1    0    0    0  501  0.00000000000E+00  0.00000000000E+00  0.96522054084E+03  0.96522054085E+03  0.50400001928E-02 0.  1.
        1   -1    0    0  501    0  0.00000000000E+00  0.00000000000E+00 -0.14124357283E+04  0.14124357283E+04  0.50400001928E-02 0. -1.
    10030    2    1    2    0    0  0.00000000000E+00  0.00000000000E+00 -0.44721518749E+03  0.23776562692E+04  0.23352190284E+04 0.  0.
        1    1    3    3  502    0 -0.11364799748E+02  0.78971328528E+03 -0.10991980812E+04  0.13535186196E+04  0.50400001928E-02 0. -1.
       -1    1    3    3    0  502  0.11364799748E+02 -0.78971328528E+03  0.65198289376E+03  0.10241376496E+04  0.50400001928E-02 0.  1.
</event>
<event>
 5   0  0.4295775E-05  0.2301549E+04  0.7818609E-02  0.8477311E-01
       -1   -1    0    0    0  501  0.00000000000E+00  0.00000000000E+00  0.96979254026E+03  0.96979254027E+03  0.50400001928E-02 0.  1.
        1   -1    0    0  501    0  0.00000000000E+00  0.00000000000E+00 -0.13655306272E+04  0.13655306272E+04  0.50400001928E-02 0. -1.
    10030    2    1    2    0    0  0.00000000000E+00  0.00000000000E+00 -0.39573808695E+03  0.23353231675E+04  0.23015485359E+04 0.  0.
        5    1    3    3  502    0  0.88996652908E+03  0.38467808112E+03 -0.82683781668E+03  0.12742450761E+04  0.46999998093E+01 0. -1.
       -5    1    3    3    0  502 -0.88996652908E+03 -0.38467808112E+03  0.43109972973E+03  0.10610780914E+04  0.46999998093E+01 0.  1.
</event>
<event>
 5   0  0.4295775E-05  0.1493131E+04  0.7818609E-02  0.8889034E-01
        1   -1    0    0  501    0  0.00000000000E+00  0.00000000000E+00  0.10906757573E+04  0.10906757573E+04  0.50400001928E-02 0.  1.
       -1   -1    0    0    0  501  0.00000000000E+00  0.00000000000E+00 -0.51102258296E+03  0.51102258298E+03  0.50400001928E-02 0. -1.
    10030    2    1    2    0    0  0.00000000000E+00  0.00000000000E+00  0.57965317435E+03  0.16016983403E+04  0.14931308619E+04 0.  0.
        5    1    3    3  502    0 -0.36387824353E+03  0.21708181161E+03 -0.36952530666E+03  0.56223031873E+03  0.46999998093E+01 0. -1.
       -5    1    3    3    0  502  0.36387824353E+03 -0.21708181161E+03  0.94917848101E+03  0.10394680216E+04  0.46999998093E+01 0.  1.
</event>
<event>
 5   0  0.9313463E-05  0.2186128E+04  0.7818609E-02  0.8524224E-01
        2   -1    0    0  501    0  0.00000000000E+00  0.00000000000E+00  0.86253627637E+03  0.86253627637E+03  0.25500000920E-02 0. -1.
       -2   -1    0    0    0  501  0.00000000000E+00  0.00000000000E+00 -0.13852037386E+04  0.13852037386E+04  0.25500000920E-02 0.  1.
    10030    2    1    2    0    0  0.00000000000E+00  0.00000000000E+00 -0.52266746224E+03  0.22477400150E+04  0.21861276035E+04 0.  0.
        1    1    3    3  502    0 -0.31643750649E+03 -0.97675179691E+03 -0.64688426467E+03  0.12135221548E+04  0.50400001928E-02 0.  1.
       -1    1    3    3    0  502  0.31643750649E+03  0.97675179691E+03  0.12421680243E+03  0.10342178602E+04  0.50400001928E-02 0. -1.
</event>
<event>
 5   0  0.9313463E-05  0.2334622E+04  0.7818609E-02  0.8464394E-01
        2   -1    0    0  501    0  0.00000000000E+00  0.00000000000E+00  0.11306598906E+04  0.11306598906E+04  0.25500000920E-02 0.  1.
       -2   -1    0    0    0  501  0.00000000000E+00  0.00000000000E+00 -0.12051505165E+04  0.12051505165E+04  0.25500000920E-02 0. -1.
    10030    2    1    2    0    0  0.00000000000E+00  0.00000000000E+00 -0.74490625925E+02  0.23358104070E+04  0.23346223258E+04 0.  0.
        1    1    3    3  502    0 -0.37013954682E+03 -0.58534774338E+03  0.90290308273E+03  0.11379232143E+04  0.50400001928E-02 0.  1.
       -1    1    3    3    0  502  0.37013954682E+03  0.58534774338E+03 -0.97739370865E+03  0.11978871927E+04  0.50400001928E-02 0. -1.
</event>
<event>
 5   0  0.4005462E-05  0.2286749E+04  0.7818609E-02  0.8483164E-01
        1   -1    0    0  501    0  0.00000000000E+00  0.00000000000E+00  0.14598246032E+04  0.14598246032E+04  0.50400001928E-02 0. -1.
       -1   -1    0    0    0  501  0.00000000000E+00  0.00000000000E+00 -0.89552247244E+03  0.89552247246E+03  0.50400001928E-02 0.  1.
    10030    2    1    2    0    0  0.00000000000E+00  0.00000000000E+00  0.56430213074E+03  0.23553470757E+04  0.22867494292E+04 0.  0.
        4    1    3    3  502    0  0.78374288698E+03 -0.52534035058E+03 -0.38303041115E+03  0.10183070782E+04  0.12699999809E+01 0.  1.
       -4    1    3    3    0  502 -0.78374288698E+03  0.52534035058E+03  0.94733254189E+03  0.13370399974E+04  0.12699999809E+01 0. -1.
</event>
<event>
 5   0  0.9535394E-05  0.2310219E+04  0.7818609E-02  0.8473903E-01
        2   -1    0    0  501    0  0.00000000000E+00  0.00000000000E+00  0.68656521011E+03  0.68656521011E+03  0.25500000920E-02 0.  1.
       -2   -1    0    0    0  501  0.00000000000E+00  0.00000000000E+00 -0.19434101642E+04  0.19434101642E+04  0.25500000920E-02 0. -1.
    10030    2    1    2    0    0  0.00000000000E+00  0.00000000000E+00 -0.12568449541E+04  0.26299753743E+04  0.23102188708E+04 0.  0.
        2    1    3    3  502    0  0.70265557715E+03  0.88426379726E+03 -0.35277101744E+03  0.11832559799E+04  0.25500000920E-02 0.  1.
       -2    1    3    3    0  502 -0.70265557715E+03 -0.88426379726E+03 -0.90407393668E+03  0.14467193944E+04  0.25500000920E-02 0. -1.
</event>
<event>
 5   0  0.3261500E-05  0.2380687E+04  0.7818609E-02  0.8446770E-01
        3   -1    0    0  501    0  0.00000000000E+00  0.00000000000E+00  0.10595104114E+04  0.10595104163E+04  0.10100000352E+00 0. -1.
       -3   -1    0    0    0  501  0.00000000000E+00  0.00000000000E+00 -0.13373325320E+04  0.13373325358E+04  0.10100000352E+00 0.  1.
    10030    2    1    2    0    0  0.00000000000E+00  0.00000000000E+00 -0.27782212056E+03  0.23968429521E+04  0.23806870870E+04 0.  0.
        3    1    3    3  502    0 -0.59457821750E+02  0.33113680566E+03  0.10106478871E+04  0.10651741541E+04  0.10100000352E+00 0. -1.
       -3    1    3    3    0  502  0.59457821750E+02 -0.33113680566E+03 -0.12884700077E+04  0.13316687980E+04  0.10100000352E+00 0.  1.
</event>
<event>
 5   0  0.9483073E-05  0.2291265E+04  0.7818609E-02  0.8481373E-01
       -2   -1    0    0    0  501  0.00000000000E+00  0.00000000000E+00  0.10442117189E+04  0.10442117189E+04  0.25500000920E-02 0. -1.
        2   -1    0    0  501    0  0.00000000000E+00  0.00000000000E+00 -0.12569040047E+04  0.12569040047E+04  0.25500000920E-02 0.  1.
    10030    2    1    2    0    0  0.00000000000E+00  0.00000000000E+00 -0.21269228579E+03  0.23011157237E+04  0.22912650579E+04 0.  0.
        5    1    3    3  502    0  0.57336828921E+03  0.55481722913E+03  0.71930659835E+03  0.10742427218E+04  0.46999998093E+01 0. -1.
       -5    1    3    3    0  502 -0.57336828921E+03 -0.55481722913E+03 -0.93199888414E+03  0.12268730019E+04  0.46999998093E+01 0.  1.
</event>
<event>
 5   0  0.9483073E-05  0.2042766E+04  0.7818609E-02  0.8586883E-01
       -2   -1    0    0    0  501  0.00000000000E+00  0.00000000000E+00  0.10184721669E+04  0.10184721669E+04  0.25500000920E-02 0. -1.
        2   -1    0    0  501    0  0.00000000000E+00  0.00000000000E+00 -0.10243025482E+04  0.10243025482E+04  0.25500000920E-02 0.  1.
    10030    2    1    2    0    0  0.00000000000E+00  0.00000000000E+00 -0.58303812574E+01  0.20427747151E+04  0.20427663947E+04 0.  0.
        5    1    3    3  502    0 -0.77999203386E+03 -0.42310731100E+02 -0.66096329104E+03  0.10232655242E+04  0.46999998093E+01 0.  1.
       -5    1    3    3    0  502  0.77999203386E+03  0.42310731100E+02  0.65513290979E+03  0.10195091909E+04  0.46999998093E+01 0. -1.
</event>
<event>
 5   0  0.4139830E-05  0.2502814E+04  0.7818609E-02  0.8401984E-01
       -1   -1    0    0    0  501  0.00000000000E+00  0.00000000000E+00  0.10609358346E+04  0.10609358346E+04  0.50400001928E-02 0.  1.
        1   -1    0    0  501    0  0.00000000000E+00  0.00000000000E+00 -0.14760732343E+04  0.14760732343E+04  0.50400001928E-02 0. -1.
    10030    2    1    2    0    0  0.00000000000E+00  0.00000000000E+00 -0.41513739965E+03  0.25370090689E+04  0.25028136078E+04 0.  0.
        1    1    3    3  502    0  0.55390248775E+03 -0.51930895696E+03  0.80077322783E+03  0.11035069194E+04  0.50400001928E-02 0.  1.
       -1    1    3    3    0  502 -0.55390248775E+03  0.51930895696E+03 -0.12159106275E+04  0.14335021495E+04  0.50400001928E-02 0. -1.
</event>
<event>
 5   0  0.4005462E-05  0.2265747E+04  0.7818609E-02  0.8491550E-01
       -1   -1    0    0    0  501  0.00000000000E+00  0.00000000000E+00  0.13526720078E+04  0.13526720078E+04  0.50400001928E-02 0.  1.
        1   -1    0    0  501    0  0.00000000000E+00  0.00000000000E+00 -0.94879090699E+03  0.94879090701E+03  0.50400001928E-02 0. -1.
    10030    2    1    2    0    0  0.00000000000E+00  0.00000000000E+00  0.40388110082E+03  0.23014629148E+04  0.22657474715E+04 0.  0.
        4    1    3    3  502    0 -0.76967460983E+03 -0.34421856828E+03  0.97051552331E+03  0.12856078024E+04  0.12699999809E+01 0.  1.
       -4    1    3    3    0  502  0.76967460983E+03  0.34421856828E+03 -0.56663442248E+03  0.10158551124E+04  0.12699999809E+01 0. -1.
</event>
<event>
 5   0  0.9641157E-05  0.2374202E+04  0.7818609E-02  0.8449226E-01
       -2   -1    0    0    0  501  0.00000000000E+00  0.00000000000E+00  0.11453878139E+04  0.11453878139E+04  0.25500000920E-02 0.  1.
        2   -1    0    0  501    0  0.00000000000E+00  0.00000000000E+00 -0.12303331553E+04  0.12303331553E+04  0.25500000920E-02 0. -1.
    10030    2    1    2    0    0  0.00000000000E+00  0.00000000000E+00 -0.84945341383E+02  0.23757209692E+04  0.23742018475E+04 0.  0.
        3    1    3    3  502    0  0.28884277616E+03  0.79596218602E+03  0.79005886394E+03  0.11580928156E+04  0.10100000352E+00 0.  1.
       -3    1    3    3    0  502 -0.28884277616E+03 -0.79596218602E+03 -0.87500420532E+03  0.12176281536E+04  0.10100000352E+00 0. -1.
</event>
<event>
 5   0  0.9313463E-05  0.2170044E+04  0.7818609E-02  0.8531001E-01
        2   -1    0    0  501    0  0.00000000000E+00  0.00000000000E+00  0.17318383077E+04  0.17318383077E+04  0.25500000920E-02 0.  1.
       -2   -1    0    0    0  501  0.00000000000E+00  0.00000000000E+00 -0.67978197815E+03  0.67978197815E+03  0.25500000920E-02 0. -1.
    10030    2    1    2    0    0  0.00000000000E+00  0.00000000000E+00  0.10520563296E+04  0.24116202859E+04  0.21700437513E+04 0.  0.
        1    1    3    3  502    0  0.43072482044E+03  0.28021226608E+03 -0.53598634066E+03  0.74251204866E+03  0.50400001928E-02 0. -1.
       -1    1    3    3    0  502 -0.43072482044E+03 -0.28021226608E+03  0.15880426703E+04  0.16691082372E+04  0.50400001928E-02 0.  1.
</event>
<event>
 5   0  0.9483073E-05  0.2270031E+04  0.7818609E-02  0.8489832E-01
        2   -1    0    0  501    0  0.00000000000E+00  0.00000000000E+00  0.10395581979E+04  0.10395581979E+04  0.25500000920E-02 0.  1.
       -2   -1    0    0    0  501  0.00000000000E+00  0.00000000000E+00 -0.12392378191E+04  0.12392378191E+04  0.25500000920E-02 0. -1.
    10030    2    1    2    0    0  0.00000000000E+00  0.00000000000E+00 -0.19967962116E+03  0.22787960170E+04  0.22700306906E+04 0.  0.
        5    1    3    3  502    0 -0.62532106008E+03 -0.72703738241E+03 -0.70933160001E+03  0.11928047587E+04  0.46999998093E+01 0. -1.
       -5    1    3    3    0  502  0.62532106008E+03  0.72703738241E+03  0.50965197886E+03  0.10859912583E+04  0.46999998093E+01 0.  1.
</event>
<event>
 5   0  0.3885219E-05  0.1799677E+04  0.7818609E-02  0.8706471E-01
       -1   -1    0    0    0  501  0.00000000000E+00  0.00000000000E+00  0.58557101400E+03  0.58557101402E+03  0.50400001928E-02 0. -1.
        1   -1    0    0  501    0  0.00000000000E+00  0.00000000000E+00 -0.13827684644E+04  0.13827684644E+04  0.50400001928E-02 0.  1.
    10030    2    1    2    0    0  0.00000000000E+00  0.00000000000E+00 -0.79719745038E+03  0.19683394784E+04  0.17996767841E+04 0.  0.
        2    1    3    3  502    0  0.53477175863E+03  0.55616713481E+03  0.10783705052E+03  0.77905811410E+03  0.25500000920E-02 0. -1.
       -2    1    3    3    0  502 -0.53477175863E+03 -0.55616713481E+03 -0.90503450090E+03  0.11892813643E+04  0.25500000920E-02 0.  1.
</event>
<event>
 5   0  0.9641157E-05  0.2278702E+04  0.7818609E-02  0.8486366E-01
        2   -1    0    0  501    0  0.00000000000E+00  0.00000000000E+00  0.16581365999E+04  0.16581365999E+04  0.25500000920E-02 0.  1.
       -2   -1    0    0    0  501  0.00000000000E+00  0.00000000000E+00 -0.78287927545E+03  0.78287927546E+03  0.25500000920E-02 0. -1.
    10030    2    1    2    0    0  0.00000000000E+00  0.00000000000E+00  0.87525732440E+03  0.24410158753E+04  0.22787020691E+04 0.  0.
        3    1    3    3  502    0  0.28744955266E+03  0.76199901635E+03 -0.41590168936E+03  0.91446376181E+03  0.10100000352E+00 0. -1.
       -3    1    3    3    0  502 -0.28744955266E+03 -0.76199901635E+03  0.12911590138E+04  0.15265521135E+04  0.10100000352E+00 0.  1.
</event>
<event>
 5   0  0.9312074E-05  0.2294520E+04  0.7818609E-02  0.8480085E-01
       -2   -1    0    0    0  501  0.00000000000E+00  0.00000000000E+00  0.15041022000E+04  0.15041022000E+04  0.25500000920E-02 0. -1.
        2   -1    0    0  501    0  0.00000000000E+00  0.00000000000E+00 -0.87507736032E+03  0.87507736032E+03  0.25500000920E-02 0.  1.
    10030    2    1    2    0    0  0.00000000000E+00  0.00000000000E+00  0.62902483968E+03  0.23791795603E+04  0.22945202399E+04 0.  0.
        4    1    3    3  502    0  0.30332621183E+03 -0.91432946721E+03 -0.33153223242E+03  0.10187837844E+04  0.12699999809E+01 0.  1.
       -4    1    3    3    0  502 -0.30332621183E+03  0.91432946721E+03  0.96055707210E+03  0.13603957759E+04  0.12699999809E+01 0. -1.
</event>
<event>
 5   0  0.3261500E-05  0.1658295E+04  0.7818609E-02  0.8785514E-01
        3   -1    0    0  501    0  0.00000000000E+00  0.00000000000E+00  0.80638521653E+03  0.80638522286E+03  0.10100000352E+00 0.  1.
       -3   -1    0    0    0  501  0.00000000000E+00  0.00000000000E+00 -0.85255223099E+03  0.85255223697E+03  0.10100000352E+00 0. -1.
    10030    2    1    2    0    0  0.00000000000E+00  0.00000000000E+00 -0.46167014456E+02  0.16589374598E+04  0.16582949383E+04 0.  0.
        2    1    3    3  502    0  0.22667666095E+03  0.10094646464E+03  0.76836968385E+03  0.80744316729E+03  0.25500000920E-02 0.  1.
       -2    1    3    3    0  502 -0.22667666095E+03 -0.10094646464E+03 -0.81453669830E+03  0.85149429254E+03  0.25500000920E-02 0. -1.
</event>
<event>
 5   0  0.9641157E-05  0.1988247E+04  0.7818609E-02  0.8612136E-01
       -2   -1    0    0    0  501  0.00000000000E+00  0.00000000000E+00  0.90109380290E+03  0.90109380290E+03  0.25500000920E-02 0.  1.
        2   -1    0    0  501    0  0.00000000000E+00  0.00000000000E+00 -0.10967571485E+04  0.10967571485E+04  0.25500000920E-02 0. -1.
    10030    2    1    2    0    0  0.00000000000E+00  0.00000000000E+00 -0.19566334556E+03  0.19978509514E+04  0.19882465338E+04 0.  0.
        3    1    3    3  502    0 -0.13431868426E+00  0.37578970422E+03  0.82697454847E+03  0.90835281353E+03  0.10100000352E+00 0.  1.
       -3    1    3    3    0  502  0.13431868426E+00 -0.37578970422E+03 -0.10226378940E+04  0.10894981378E+04  0.10100000352E+00 0. -1.
</event>
<event>
 5   0  0.9312074E-05  0.2120297E+04  0.7818609E-02  0.8552355E-01
       -2   -1    0    0    0  501  0.00000000000E+00  0.00000000000E+00  0.76543776615E+03  0.76543776616E+03  0.25500000920E-02 0.  1.
        2   -1    0    0  501    0  0.00000000000E+00  0.00000000000E+00 -0.14683298494E+04  0.14683298494E+04  0.25500000920E-02 0. -1.
    10030    2    1    2    0    0  0.00000000000E+00  0.00000000000E+00 -0.70289208324E+03  0.22337676156E+04  0.21202972621E+04 0.  0.
        4    1    3    3  502    0  0.49926820992E+03 -0.86610261242E+03 -0.72319104879E+03  0.12338595490E+04  0.12699999809E+01 0. -1.
       -4    1    3    3    0  502 -0.49926820992E+03  0.86610261242E+03  0.20298965552E+02  0.99990806656E+03  0.12699999809E+01 0.  1.
</event>
<event>
 5   0  0.9313463E-05  0.2308235E+04  0.7818609E-02  0.8474681E-01
       -2   -1    0    0    0  501  0.00000000000E+00  0.00000000000E+00  0.74331879068E+03  0.74331879069E+03  0.25500000920E-02 0.  1.
        2   -1    0    0  501    0  0.00000000000E+00  0.00000000000E+00 -0.17919456171E+04  0.17919456171E+04  0.25500000920E-02 0. -1.
    10030    2    1    2    0    0  0.00000000000E+00  0.00000000000E+00 -0.10486268265E+04  0.25352644078E+04  0.23082346927E+04 0.  0.
        1    1    3    3  502    0 -0.41668564162E+02 -0.10835407622E+04 -0.90233286904E+02  0.10880895638E+04  0.50400001928E-02 0.  1.
       -1    1    3    3    0  502  0.41668564162E+02  0.10835407622E+04 -0.95839353955E+03  0.14471748441E+04  0.50400001928E-02 0. -1.
</event>
<event>
 5   0  0.4005462E-05  0.2188896E+04  0.7818609E-02  0.8523064E-01
       -1   -1    0    0    0  501  0.00000000000E+00  0.00000000000E+00  0.65756115764E+03  0.65756115766E+03  0.50400001928E-02 0. -1.
        1   -1    0    0  501    0  0.00000000000E+00  0.00000000000E+00 -0.18216045253E+04  0.18216045253E+04  0.50400001928E-02 0.  1.
    10030    2    1    2    0    0  0.00000000000E+00  0.00000000000E+00 -0.11640433676E+04  0.24791656829E+04  0.21888959595E+04 0.  0.
        4    1    3    3  502    0 -0.47984012827E+01  0.40804663201E+03 -0.17322148155E+04  0.17796333494E+04  0.12699999809E+01 0.  1.
       -4    1    3    3    0  502  0.47984012827E+01 -0.40804663201E+03  0.56817144786E+03  0.69953233349E+03  0.12699999809E+01 0. -1.
</event>
<event>
 5   0  0.9641157E-05  0.2459216E+04  0.7818609E-02  0.8417661E-01
        2   -1    0    0  501    0  0.00000000000E+00  0.00000000000E+00  0.26206410144E+04  0.26206410144E+04  0.25500000920E-02 0.  1.
       -2   -1    0    0    0  501  0.00000000000E+00  0.00000000000E+00 -0.57693365987E+03  0.57693365987E+03  0.25500000920E-02 0. -1.
    10030    2    1    2    0    0  0.00000000000E+00  0.00000000000E+00  0.20437073545E+04  0.31975746743E+04  0.24592161448E+04 0.  0.
        3    1    3    3  502    0 -0.73035602391E+03 -0.90476107475E+03  0.15418258552E+04  0.19311238961E+04  0.10100000352E+00 0.  1.
       -3    1    3    3    0  502  0.73035602391E+03  0.90476107475E+03  0.50188149935E+03  0.12664507782E+04  0.10100000352E+00 0. -1.
</event>
<event>
 5   0  0.9483073E-05  0.2334413E+04  0.7818609E-02  0.8464475E-01
        2   -1    0    0  501    0  0.00000000000E+00  0.00000000000E+00  0.87400765531E+03  0.87400765531E+03  0.25500000920E-02 0. -1.
       -2   -1    0    0    0  501  0.00000000000E+00  0.00000000000E+00 -0.15587630094E+04  0.15587630094E+04  0.25500000920E-02 0.  1.
    10030    2    1    2    0    0  0.00000000000E+00  0.00000000000E+00 -0.68475535406E+03  0.24327706647E+04  0.23344128195E+04 0.  0.
        5    1    3    3  502    0 -0.85143059086E+02 -0.11088518256E+04 -0.71163293043E+03  0.13203201238E+04  0.46999998093E+01 0.  1.
       -5    1    3    3    0  502  0.85143059086E+02  0.11088518256E+04  0.26877576375E+02  0.11124505408E+04  0.46999998093E+01 0. -1.
</event>
<event>
 5   0  0.4095451E-05  0.2303931E+04  0.7818609E-02  0.8476373E-01
       -1   -1    0    0    0  501  0.00000000000E+00  0.00000000000E+00  0.89501867993E+03  0.89501867994E+03  0.50400001928E-02 0.  1.
        1   -1    0    0  501    0  0.00000000000E+00  0.00000000000E+00 -0.14826782299E+04  0.14826782300E+04  0.50400001928E-02 0. -1.
    10030    2    1    2    0    0  0.00000000000E+00  0.00000000000E+00 -0.58765955002E+03  0.23776969099E+04  0.23039311727E+04 0.  0.
        3    1    3    3  502    0 -0.22200385561E+03  0.19469125801E+03 -0.14429588591E+04  0.14728613910E+04  0.10100000352E+00 0. -1.
       -3    1    3    3    0  502  0.22200385561E+03 -0.19469125801E+03  0.85529930910E+03  0.90483551887E+03  0.10100000352E+00 0.  1.
</event>
<event>
 5   0  0.4005462E-05  0.2301158E+04  0.7818609E-02  0.8477465E-01
        1   -1    0    0  501    0  0.00000000000E+00  0.00000000000E+00  0.18772028329E+04  0.18772028329E+04  0.50400001928E-02 0. -1.
       -1   -1    0    0    0  501  0.00000000000E+00  0.00000000000E+00 -0.70521525131E+03  0.70521525133E+03  0.50400001928E-02 0.  1.
    10030    2    1    2    0    0  0.00000000000E+00  0.00000000000E+00  0.11719875815E+04  0.25824180842E+04  0.23011580281E+04 0.  0.
        4    1    3    3  502    0  0.78551768417E+03  0.16010187789E+03  0.15121934533E+04  0.17115493848E+04  0.12699999809E+01 0. -1.
       -4    1    3    3    0  502 -0.78551768417E+03 -0.16010187789E+03 -0.34020587179E+03  0.87086869937E+03  0.12699999809E+01 0.  1.
</event>
<event>
 5   0  0.9312074E-05  0.2302893E+04  0.7818609E-02  0.8476781E-01
       -2   -1    0    0    0  501  0.00000000000E+00  0.00000000000E+00  0.75890162869E+03  0.75890162869E+03  0.25500000920E-02 0.  1.
        2   -1    0    0  501    0  0.00000000000E+00  0.00000000000E+00 -0.17470363380E+04  0.17470363380E+04  0.25500000920E-02 0. -1.
    10030    2    1    2    0    0  0.00000000000E+00  0.00000000000E+00 -0.98813470935E+03  0.25059379667E+04  0.23028927220E+04 0.  0.
        4    1    3    3  502    0  0.69947424996E+03  0.14876611185E+03 -0.14760954147E+04  0.16401996429E+04  0.12699999809E+01 0. -1.
       -4    1    3    3    0  502 -0.69947424996E+03 -0.14876611185E+03  0.48796070538E+03  0.86573832379E+03  0.12699999809E+01 0.  1.
</event>
<event>
 5   0  0.4095451E-05  0.2287666E+04  0.7818609E-02  0.8482800E-01
        1   -1    0    0  501    0  0.00000000000E+00  0.00000000000E+00  0.22798020562E+04  0.22798020562E+04  0.50400001928E-02 0.  1.
       -1   -1    0    0    0  501  0.00000000000E+00  0.00000000000E+00 -0.57388910637E+03  0.57388910640E+03  0.50400001928E-02 0. -1.
    10030    2    1    2    0    0  0.00000000000E+00  0.00000000000E+00  0.17059129498E+04  0.28536911626E+04  0.22876656790E+04 0.  0.
        3    1    3    3  502    0 -0.53306133867E+03  0.47701674935E+03 -0.26043869899E+03  0.76126716471E+03  0.10100000352E+00 0. -1.
       -3    1    3    3    0  502  0.53306133867E+03 -0.47701674935E+03  0.19663516488E+04  0.20924239979E+04  0.10100000352E+00 0.  1.
</event>
<event>
 5   0  0.9483073E-05  0.2341995E+04  0.7818609E-02  0.8461545E-01
       -2   -1    0    0    0  501  0.00000000000E+00  0.00000000000E+00  0.12728551835E+04  0.12728551835E+04  0.25500000920E-02 0.  1.
        2   -1    0    0  501    0  0.00000000000E+00  0.00000000000E+00 -0.10772910342E+04  0.10772910343E+04  0.25500000920E-02 0. -1.
    10030    2    1    2    0    0  0.00000000000E+00  0.00000000000E+00  0.19556414924E+03  0.23501462177E+04  0.23419952836E+04 0.  0.
        5    1    3    3  502    0 -0.10399938772E+04 -0.80613048062E+01 -0.44219957900E+03  0.11301392865E+04  0.46999998093E+01 0. -1.
       -5    1    3    3    0  502  0.10399938772E+04  0.80613048062E+01  0.63776372824E+03  0.12200069312E+04  0.46999998093E+01 0.  1.
</event>
<event>
 5   0  0.9535394E-05  0.2377190E+04  0.7818609E-02  0.8448093E-01
        2   -1    0    0  501    0  0.00000000000E+00  0.00000000000E+00  0.13420482732E+04  0.13420482732E+04  0.25500000920E-02 0. -1.
       -2   -1    0    0    0  501  0.00000000000E+00  0.00000000000E+00 -0.10526877714E+04  0.10526877714E+04  0.25500000920E-02 0.  1.
    10030    2    1    2    0    0  0.00000000000E+00  0.00000000000E+00  0.28936050185E+03  0.23947360446E+04  0.23771897743E+04 0.  0.
        2    1    3    3  502    0  0.29237755076E+03 -0.75965342535E+03  0.10172140985E+04  0.13027979433E+04  0.25500000920E-02 0. -1.
       -2    1    3    3    0  502 -0.29237755076E+03  0.75965342535E+03 -0.72785359666E+03  0.10919381013E+04  0.25500000920E-02 0.  1.
</event>
<event>
 5   0  0.9483073E-05  0.2362343E+04  0.7818609E-02  0.8453738E-01
        2   -1    0    0  501    0  0.00000000000E+00  0.00000000000E+00  0.85928901853E+03  0.85928901854E+03  0.25500000920E-02 0. -1.
       -2   -1    0    0    0  501  0.00000000000E+00  0.00000000000E+00 -0.16236289817E+04  0.16236289817E+04  0.25500000920E-02 0.  1.
    10030    2    1    2    0    0  0.00000000000E+00  0.00000000000E+00 -0.76433996320E+03  0.24829180003E+04  0.23623433740E+04 0.  0.
        5    1    3    3  502    0 -0.12559272140E+03 -0.90682096136E+03 -0.11666197639E+04  0.14829435428E+04  0.46999998093E+01 0.  1.
       -5    1    3    3    0  502  0.12559272140E+03  0.90682096136E+03  0.40227980066E+03  0.99997445750E+03  0.46999998093E+01 0. -1.
</event>
<event>
 5   0  0.4295775E-05  0.2171301E+04  0.7818609E-02  0.8530469E-01
        1   -1    0    0  501    0  0.00000000000E+00  0.00000000000E+00  0.20158297251E+04  0.20158297251E+04  0.50400001928E-02 0. -1.
       -1   -1    0    0    0  501  0.00000000000E+00  0.00000000000E+00 -0.58469062309E+03  0.58469062311E+03  0.50400001928E-02 0.  1.
    10030    2    1    2    0    0  0.00000000000E+00  0.00000000000E+00  0.14311391020E+04  0.26005203482E+04  0.21713007512E+04 0.  0.
        5    1    3    3  502    0 -0.95120361799E+03 -0.45709701964E+03  0.10206571878E+04  0.14681584360E+04  0.46999998093E+01 0.  1.
       -5    1    3    3    0  502  0.95120361799E+03  0.45709701964E+03  0.41048191416E+03  0.11323619122E+04  0.46999998093E+01 0. -1.
</event>
<event>
 5   0  0.4005462E-05  0.2300876E+04  0.7818609E-02  0.8477576E-01
        1   -1    0    0  501    0  0.00000000000E+00  0.00000000000E+00  0.26894304326E+04  0.26894304326E+04  0.50400001928E-02 0.  1.
       -1   -1    0    0    0  501  0.00000000000E+00  0.00000000000E+00 -0.49211432698E+03  0.49211432701E+03  0.50400001928E-02 0. -1.
    10030    2    1    2    0    0  0.00000000000E+00  0.00000000000E+00  0.21973161056E+04  0.31815447596E+04  0.23008757005E+04 0.  0.
        4    1    3    3  502    0  0.58682061692E+03 -0.27082313658E+03 -0.21735902156E+03  0.68187254301E+03  0.12699999809E+01 0. -1.
       -4    1    3    3    0  502 -0.58682061692E+03  0.27082313658E+03  0.24146751271E+04  0.24996722166E+04  0.12699999809E+01 0.  1.
</event>
<event>
 5   0  0.9641157E-05  0.2297979E+04  0.7818609E-02  0.8478718E-01
       -2   -1    0    0    0  501  0.00000000000E+00  0.00000000000E+00  0.13611427981E+04  0.13611427981E+04  0.25500000920E-02 0. -1.
        2   -1    0    0  501    0  0.00000000000E+00  0.00000000000E+00 -0.96990336979E+03  0.96990336980E+03  0.25500000920E-02 0.  1.
    10030    2    1    2    0    0  0.00000000000E+00  0.00000000000E+00  0.39123942826E+03  0.23310461679E+04  0.22979791005E+04 0.  0.
        3    1    3    3  502    0 -0.61276755088E+03 -0.27144739859E+03  0.11423279937E+04  0.13244172367E+04  0.10100000352E+00 0. -1.
       -3    1    3    3    0  502  0.61276755088E+03  0.27144739859E+03 -0.75108856543E+03  0.10066289311E+04  0.10100000352E+00 0.  1.
</event>
<event>
 5   0  0.3885219E-05  0.2290574E+04  0.7818609E-02  0.8481647E-01
       -1   -1    0    0    0  501  0.00000000000E+00  0.00000000000E+00  0.93839650931E+03  0.93839650932E+03  0.50400001928E-02 0.  1.
        1   -1    0    0  501    0  0.00000000000E+00  0.00000000000E+00 -0.13977916063E+04  0.13977916063E+04  0.50400001928E-02 0. -1.
    10030    2    1    2    0    0  0.00000000000E+00  0.00000000000E+00 -0.45939509699E+03  0.23361881156E+04  0.22905743944E+04 0.  0.
        2    1    3    3  502    0 -0.20990904523E+03  0.10019037654E+04  0.29415477248E+03  0.10650821530E+04  0.25500000920E-02 0.  1.
       -2    1    3    3    0  502  0.20990904523E+03 -0.10019037654E+04 -0.75354986947E+03  0.12711059626E+04  0.25500000920E-02 0. -1.
</event>
<event>
 5   0  0.9312074E-05  0.2295758E+04  0.7818609E-02  0.8479595E-01
        2   -1    0    0  501    0  0.00000000000E+00  0.00000000000E+00  0.13320336611E+04  0.13320336611E+04  0.25500000920E-02 0.  1.
       -2   -1    0    0    0  501  0.00000000000E+00  0.00000000000E+00 -0.98918414027E+03  0.98918414027E+03  0.25500000920E-02 0. -1.
    10030    2    1    2    0    0  0.00000000000E+00  0.00000000000E+00  0.34284952086E+03  0.23212178014E+04  0.22957583252E+04 0.  0.
        4    1    3    3  502    0 -0.12101311919E+03  0.55226300054E+03 -0.83864653164E+03  0.10114189116E+04  0.12699999809E+01 0. -1.
       -4    1    3    3    0  502  0.12101311919E+03 -0.55226300054E+03  0.11814960525E+04  0.13097988898E+04  0.12699999809E+01 0.  1.
</event>
<event>
 5   0  0.4005462E-05  0.2337252E+04  0.7818609E-02  0.8463376E-01
        1   -1    0    0  501    0  0.00000000000E+00  0.00000000000E+00  0.16065399609E+04  0.16065399609E+04  0.50400001928E-02 0.  1.
       -1   -1    0    0    0  501  0.00000000000E+00  0.00000000000E+00 -0.85007957043E+03  0.85007957044E+03  0.50400001928E-02 0. -1.
    10030    2    1    2    0    0  0.00000000000E+00  0.00000000000E+00  0.75646039044E+03  0.24566195313E+04  0.23372520616E+04 0.  0.
        4    1    3    3  502    0 -0.68292650644E+03 -0.70696417605E+03 -0.28610884885E+03  0.10237415913E+04  0.12699999809E+01 0. -1.
       -4    1    3    3    0  502  0.68292650644E+03  0.70696417605E+03  0.10425692393E+04  0.14328779400E+04  0.12699999809E+01 0.  1.
</event>
<event>
 5   0  0.4139830E-05  0.2836816E+04  0.7818609E-02  0.8291929E-01
        1   -1    0    0  501    0  0.00000000000E+00  0.00000000000E+00  0.10891285522E+04  0.10891285522E+04  0.50400001928E-02 0.  1.
       -1   -1    0    0    0  501  0.00000000000E+00  0.00000000000E+00 -0.18472392399E+04  0.18472392399E+04  0.50400001928E-02 0. -1.
    10030    2    1    2    0    0  0.00000000000E+00  0.00000000000E+00 -0.75811068772E+03  0.29363677921E+04  0.28368158198E+04 0.  0.
        1    1    3    3  502    0  0.11789116336E+04 -0.74512595771E+03 -0.64665370689E+03  0.15372723732E+04  0.50400001928E-02 0. -1.
       -1    1    3    3    0  502 -0.11789116336E+04  0.74512595771E+03 -0.11145698084E+03  0.13990954189E+04  0.50400001928E-02 0.  1.
</event>
<event>
 5   0  0.4295775E-05  0.2487672E+04  0.7818609E-02  0.8407391E-01
       -1   -1    0    0    0  501  0.00000000000E+00  0.00000000000E+00  0.14665875225E+04  0.14665875225E+04  0.50400001928E-02 0.  1.
        1   -1    0    0  501    0  0.00000000000E+00  0.00000000000E+00 -0.10549166119E+04  0.10549166119E+04  0.50400001928E-02 0. -1.
    10030    2    1    2    0    0  0.00000000000E+00  0.00000000000E+00  0.41167091054E+03  0.25215041344E+04  0.24876716345E+04 0.  0.
        5    1    3    3  502    0  0.11347170039E+04  0.59032716085E+02  0.71871900173E+03  0.13444874986E+04  0.46999998093E+01 0.  1.
       -5    1    3    3    0  502 -0.11347170039E+04 -0.59032716085E+02 -0.30704809119E+03  0.11770166358E+04  0.46999998093E+01 0. -1.
</event>
<event>
 5   0  0.4095451E-05  0.2269121E+04  0.7818609E-02  0.8490197E-01
        1   -1    0    0  501    0  0.00000000000E+00  0.00000000000E+00  0.17039563585E+04  0.17039563585E+04  0.50400001928E-02 0. -1.
       -1   -1    0    0    0  501  0.00000000000E+00  0.00000000000E+00 -0.75543450258E+03  0.75543450260E+03  0.50400001928E-02 0.  1.
    10030    2    1    2    0    0  0.00000000000E+00  0.00000000000E+00  0.94852185589E+03  0.24593908611E+04  0.22691209083E+04 0.  0.
        3    1    3    3  502    0 -0.41542887573E+03  0.70270181209E+03 -0.37975408979E+03  0.90032447841E+03  0.10100000352E+00 0.  1.
       -3    1    3    3    0  502  0.41542887573E+03 -0.70270181209E+03  0.13282759457E+04  0.15590663827E+04  0.10100000352E+00 0. -1.
</event>
<event>
 5   0  0.9535394E-05  0.2330253E+04  0.7818609E-02  0.8466087E-01
       -2   -1    0    0    0  501  0.00000000000E+00  0.00000000000E+00  0.11525111508E+04  0.11525111508E+04  0.25500000920E-02 0.  1.
        2   -1    0    0  501    0  0.00000000000E+00  0.00000000000E+00 -0.11778798842E+04  0.11778798842E+04  0.25500000920E-02 0. -1.
    10030    2    1    2    0    0  0.00000000000E+00  0.00000000000E+00 -0.25368733400E+02  0.23303910350E+04  0.23302529484E+04 0.  0.
        2    1    3    3  502    0 -0.30392314994E+03  0.49714169565E+03  0.99633555759E+03  0.11542112848E+04  0.25500000920E-02 0.  1.
       -2    1    3    3    0  502  0.30392314994E+03 -0.49714169565E+03 -0.10217042910E+04  0.11761797502E+04  0.25500000920E-02 0. -1.
</event>
<event>
 5   0  0.4005462E-05  0.2130328E+04  0.7818609E-02  0.8548000E-01
       -1   -1    0    0    0  501  0.00000000000E+00  0.00000000000E+00  0.88698308060E+03  0.88698308062E+03  0.50400001928E-02 0. -1.
        1   -1    0    0  501    0  0.00000000000E+00  0.00000000000E+00 -0.12791382966E+04  0.12791382966E+04  0.50400001928E-02 0.  1.
    10030    2    1    2    0    0  0.00000000000E+00  0.00000000000E+00 -0.39215521598E+03  0.21661213772E+04  0.21303276995E+04 0.  0.
        4    1    3    3  502    0  0.83141816752E+03 -0.27099914740E+03  0.42231498366E+03  0.97110672200E+03  0.12699999809E+01 0. -1.
       -4    1    3    3    0  502 -0.83141816752E+03  0.27099914740E+03 -0.81447019965E+03  0.11950146552E+04  0.12699999809E+01 0.  1.
</event>
<event>
 5   0  0.9483073E-05  0.2299271E+04  0.7818609E-02  0.8478209E-01
       -2   -1    0    0    0  501  0.00000000000E+00  0.00000000000E+00  0.83712544496E+03  0.83712544496E+03  0.25500000920E-02 0. -1.
        2   -1    0    0  501    0  0.00000000000E+00  0.00000000000E+00 -0.15788094371E+04  0.15788094371E+04  0.25500000920E-02 0.  1.
    10030    2    1    2    0    0  0.00000000000E+00  0.00000000000E+00 -0.74168399214E+03  0.24159348821E+04  0.22992707997E+04 0.  0.
        5    1    3    3  502    0 -0.62063369434E+03 -0.88923761313E+03 -0.77192975076E+03  0.13311000508E+04  0.46999998093E+01 0.  1.
       -5    1    3    3    0  502  0.62063369434E+03  0.88923761313E+03  0.30245758621E+02  0.10848348312E+04  0.46999998093E+01 0. -1.
</event>
<event>
 5   0  0.9312074E-05  0.2286550E+04  0.7818609E-02  0.8483243E-01
        2   -1    0    0  501    0  0.00000000000E+00  0.00000000000E+00  0.20664972050E+04  0.20664972050E+04  0.25500000920E-02 0. -1.
       -2   -1    0    0    0  501  0.00000000000E+00  0.00000000000E+00 -0.63250887545E+03  0.63250887545E+03  0.25500000920E-02 0.  1.
    10030    2    1    2    0    0  0.00000000000E+00  0.00000000000E+00  0.14339883295E+04  0.26990060804E+04  0.22865500854E+04 0.  0.
        4    1    3    3  502    0  0.95200057317E+02  0.86690629894E+03  0.15895895545E+04  0.18131150396E+04  0.12699999809E+01 0. -1.
       -4    1    3    3    0  502 -0.95200057317E+02 -0.86690629894E+03 -0.15560122503E+03  0.88589104081E+03  0.12699999809E+01 0.  1.
</event>
<event>
 5   0  0.4139830E-05  0.2200713E+04  0.7818609E-02  0.8518132E-01
       -1   -1    0    0    0  501  0.00000000000E+00  0.00000000000E+00  0.99052743600E+03  0.99052743601E+03  0.50400001928E-02 0. -1.
        1   -1    0    0  501    0  0.00000000000E+00  0.00000000000E+00 -0.12223628267E+04  0.12223628267E+04  0.50400001928E-02 0.  1.
    10030    2    1    2    0    0  0.00000000000E+00  0.00000000000E+00 -0.23183539072E+03  0.22128902627E+04  0.22007125361E+04 0.  0.
        1    1    3    3  502    0 -0.14501153411E+02  0.58150706416E+03  0.82328678439E+03  0.10080485497E+04  0.50400001928E-02 0. -1.
       -1    1    3    3    0  502  0.14501153411E+02 -0.58150706416E+03 -0.10551221751E+04  0.12048417131E+04  0.50400001928E-02 0.  1.
</event>
<event>
 5   0  0.9483073E-05  0.2390773E+04  0.7818609E-02  0.8442966E-01
        2   -1    0    0  501    0  0.00000000000E+00  0.00000000000E+00  0.12993345271E+04  0.12993345271E+04  0.25500000920E-02 0. -1.
       -2   -1    0    0    0  501  0.00000000000E+00  0.00000000000E+00 -0.10997540163E+04  0.10997540163E+04  0.25500000920E-02 0.  1.
    10030    2    1    2    0    0  0.00000000000E+00  0.00000000000E+00  0.19958051076E+03  0.23990885434E+04  0.23907725653E+04 0.  0.
        5    1    3    3  502    0  0.27354165843E+03 -0.58261723690E+03 -0.91101604193E+03  0.11154551548E+04  0.46999998093E+01 0.  1.
       -5    1    3    3    0  502 -0.27354165843E+03  0.58261723690E+03  0.11105965527E+04  0.12836333887E+04  0.46999998093E+01 0. -1.
</event>
<event>
 5   0  0.9313463E-05  0.2317781E+04  0.7818609E-02  0.8470943E-01
       -2   -1    0    0    0  501  0.00000000000E+00  0.00000000000E+00  0.47545608375E+03  0.47545608376E+03  0.25500000920E-02 0.  1.
        2   -1    0    0  501    0  0.00000000000E+00  0.00000000000E+00 -0.28247133344E+04  0.28247133344E+04  0.25500000920E-02 0. -1.
    10030    2    1    2    0    0  0.00000000000E+00  0.00000000000E+00 -0.23492572507E+04  0.33001694182E+04  0.23177809558E+04 0.  0.
        1    1    3    3  502    0  0.28879117510E+03  0.38520864182E+03 -0.26755847352E+04  0.27185547109E+04  0.50400001928E-02 0. -1.
       -1    1    3    3    0  502 -0.28879117510E+03 -0.38520864182E+03  0.32632748456E+03  0.58161470731E+03  0.50400001928E-02 0.  1.
</event>
<event>
 5   0  0.9641157E-05  0.2349853E+04  0.7818609E-02  0.8458520E-01
       -2   -1    0    0    0  501  0.00000000000E+00  0.00000000000E+00  0.88662109205E+03  0.88662109205E+03  0.25500000920E-02 0.  1.
        2   -1    0    0  501    0  0.00000000000E+00  0.00000000000E+00 -0.15569810077E+04  0.15569810077E+04  0.25500000920E-02 0. -1.
    10030    2    1    2    0    0  0.00000000000E+00  0.00000000000E+00 -0.67035991566E+03  0.24436020998E+04  0.23498529327E+04 0.  0.
        3    1    3    3  502    0 -0.96931618180E+03 -0.64970226483E+03 -0.47763162597E+03  0.12608801979E+04  0.10100000352E+00 0. -1.
       -3    1    3    3    0  502  0.96931618180E+03  0.64970226483E+03 -0.19272828969E+03  0.11827219018E+04  0.10100000352E+00 0.  1.
</event>
<event>
 5   0  0.4139830E-05  0.2213422E+04  0.7818609E-02  0.8512862E-01
        1   -1    0    0  501    0  0.00000000000E+00  0.00000000000E+00  0.19272651710E+04  0.19272651710E+04  0.50400001928E-02 0.  1.
       -1   -1    0    0    0  501  0.00000000000E+00  0.00000000000E+00 -0.63551650151E+03  0.63551650153E+03  0.50400001928E-02 0. -1.
    10030    2    1    2    0    0  0.00000000000E+00  0.00000000000E+00  0.12917486695E+04  0.25627816725E+04  0.22134216218E+04 0.  0.
        1    1    3    3  502    0  0.92119965762E+03 -0.91821533813E+02 -0.56283768354E+02  0.92747391655E+03  0.50400001928E-02 0. -1.
       -1    1    3    3    0  502 -0.92119965762E+03  0.91821533813E+02  0.13480324379E+04  0.16353077560E+04  0.50400001928E-02 0.  1.
</event>
<event>
 5   0  0.3885219E-05  0.2357561E+04  0.7818609E-02  0.8455565E-01
        1   -1    0    0  501    0  0.00000000000E+00  0.00000000000E+00  0.12226684348E+04  0.12226684348E+04  0.50400001928E-02 0. -1.
       -1   -1    0    0    0  501  0.00000000000E+00  0.00000000000E+00 -0.11364679351E+04  0.11364679351E+04  0.50400001928E-02 0.  1.
    10030    2    1    2    0    0  0.00000000000E+00  0.00000000000E+00  0.86200499698E+02  0.23591363698E+04  0.23575610035E+04 0.  0.
        2    1    3    3  502    0 -0.94853956365E+03  0.59083903302E+03 -0.33225759455E+03  0.11658529821E+04  0.25500000920E-02 0. -1.
       -2    1    3    3    0  502  0.94853956365E+03 -0.59083903302E+03  0.41845809425E+03  0.11932833877E+04  0.25500000920E-02 0.  1.
</event>
<event>
 5   0  0.9313463E-05  0.2278211E+04  0.7818609E-02  0.8486562E-01
        2   -1    0    0  501    0  0.00000000000E+00  0.00000000000E+00  0.15928546622E+04  0.15928546622E+04  0.25500000920E-02 0.  1.
       -2   -1    0    0    0  501  0.00000000000E+00  0.00000000000E+00 -0.81461364280E+03  0.81461364280E+03  0.25500000920E-02 0. -1.
    10030    2    1    2    0    0  0.00000000000E+00  0.00000000000E+00  0.77824101942E+03  0.24074683050E+04  0.22782108233E+04 0.  0.
        1    1    3    3  502    0 -0.72361685420E+03  0.73297460680E+03 -0.12498800799E+03  0.10375428319E+04  0.50400001928E-02 0. -1.
       -1    1    3    3    0  502  0.72361685420E+03 -0.73297460680E+03  0.90322902742E+03  0.13699254731E+04  0.50400001928E-02 0.  1.
</event>
<event>
 5   0  0.9641157E-05  0.2256636E+04  0.7818609E-02  0.8495218E-01
       -2   -1    0    0    0  501  0.00000000000E+00  0.00000000000E+00  0.12426989643E+04  0.12426989643E+04  0.25500000920E-02 0. -1.
        2   -1    0    0  501    0  0.00000000000E+00  0.00000000000E+00 -0.10244648234E+04  0.10244648234E+04  0.25500000920E-02 0.  1.
    10030    2    1    2    0    0  0.00000000000E+00  0.00000000000E+00  0.21823414093E+03  0.22671637877E+04  0.22566358811E+04 0.  0.
        3    1    3    3  502    0  0.85908367792E+03  0.18061419394E+03  0.82126471393E+03  0.12021322695E+04  0.10100000352E+00 0. -1.
       -3    1    3    3    0  502 -0.85908367792E+03 -0.18061419394E+03 -0.60303057300E+03  0.10650315183E+04  0.10100000352E+00 0.  1.
</event>
<event>
 5   0  0.4295775E-05  0.2278616E+04  0.7818609E-02  0.8486400E-01
        1   -1    0    0  501    0  0.00000000000E+00  0.00000000000E+00  0.13150073206E+04  0.13150073206E+04  0.50400001928E-02 0.  1.
       -1   -1    0    0    0  501  0.00000000000E+00  0.00000000000E+00 -0.98708436256E+03  0.98708436258E+03  0.50400001928E-02 0. -1.
    10030    2    1    2    0    0  0.00000000000E+00  0.00000000000E+00  0.32792295807E+03  0.23020916832E+04  0.22786163897E+04 0.  0.
        5    1    3    3  502    0  0.17089200774E+03 -0.28533092753E+03 -0.93693595448E+03  0.99422778542E+03  0.46999998093E+01 0. -1.
       -5    1    3    3    0  502 -0.17089200774E+03  0.28533092753E+03  0.12648589126E+04  0.13078638978E+04  0.46999998093E+01 0.  1.
</event>
<event>
 5   0  0.9641157E-05  0.2280133E+04  0.7818609E-02  0.8485796E-01
        2   -1    0    0  501    0  0.00000000000E+00  0.00000000000E+00  0.15717287916E+04  0.15717287916E+04  0.25500000920E-02 0.  1.
       -2   -1    0    0    0  501  0.00000000000E+00  0.00000000000E+00 -0.82695702496E+03  0.82695702496E+03  0.25500000920E-02 0. -1.
    10030    2    1    2    0    0  0.00000000000E+00  0.00000000000E+00  0.74477176663E+03  0.23986858166E+04  0.22801334746E+04 0.  0.
        3    1    3    3  502    0 -0.10720826352E+04 -0.17450803353E+03  0.80588796467E+01  0.10862224386E+04  0.10100000352E+00 0. -1.
       -3    1    3    3    0  502  0.10720826352E+04  0.17450803353E+03  0.73671288698E+03  0.13124633779E+04  0.10100000352E+00 0.  1.
</event>
<event>
 5   0  0.4005462E-05  0.2336327E+04  0.7818609E-02  0.8463734E-01
       -1   -1    0    0    0  501  0.00000000000E+00  0.00000000000E+00  0.14795070056E+04  0.14795070056E+04  0.50400001928E-02 0.  1.
        1   -1    0    0  501    0  0.00000000000E+00  0.00000000000E+00 -0.92233818997E+03  0.92233818998E+03  0.50400001928E-02 0. -1.
    10030    2    1    2    0    0  0.00000000000E+00  0.00000000000E+00  0.55716881565E+03  0.24018451956E+04  0.23363268724E+04 0.  0.
        4    1    3    3  502    0  0.63707836889E+03 -0.57148218781E+03 -0.53878660828E+03  0.10113126921E+04  0.12699999809E+01 0. -1.
       -4    1    3    3    0  502 -0.63707836889E+03  0.57148218781E+03  0.10959554239E+04  0.13905325035E+04  0.12699999809E+01 0.  1.
</event>
<event>
 5   0  0.4005462E-05  0.2294594E+04  0.7818609E-02  0.8480055E-01
        1   -1    0    0  501    0  0.00000000000E+00  0.00000000000E+00  0.23794014088E+04  0.23794014088E+04  0.50400001928E-02 0.  1.
       -1   -1    0    0    0  501  0.00000000000E+00  0.00000000000E+00 -0.55320253441E+03  0.55320253443E+03  0.50400001928E-02 0. -1.
    10030    2    1    2    0    0  0.00000000000E+00  0.00000000000E+00  0.18261988744E+04  0.29326039432E+04  0.22945944215E+04 0.  0.
        4    1    3    3  502    0 -0.59050180218E+02  0.71859062578E+03  0.20536676124E+04  0.21765595987E+04  0.12699999809E+01 0.  1.
       -4    1    3    3    0  502  0.59050180218E+02 -0.71859062578E+03 -0.22746873806E+03  0.75604434456E+03  0.12699999809E+01 0. -1.
</event>
<event>
 5   0  0.9641157E-05  0.2269508E+04  0.7818609E-02  0.8490042E-01
       -2   -1    0    0    0  501  0.00000000000E+00  0.00000000000E+00  0.92134864870E+03  0.92134864870E+03  0.25500000920E-02 0.  1.
        2   -1    0    0  501    0  0.00000000000E+00  0.00000000000E+00 -0.13975890490E+04  0.13975890490E+04  0.25500000920E-02 0. -1.
    10030    2    1    2    0    0  0.00000000000E+00  0.00000000000E+00 -0.47624040030E+03  0.23189376977E+04  0.22695081244E+04 0.  0.
        3    1    3    3  502    0  0.45943411104E+03  0.74445013399E+02  0.81933310714E+03  0.94229958774E+03  0.10100000352E+00 0.  1.
       -3    1    3    3    0  502 -0.45943411104E+03 -0.74445013399E+02 -0.12955735074E+04  0.13766381100E+04  0.10100000352E+00 0. -1.
</event>
<event>
 5   0  0.4095451E-05  0.2299990E+04  0.7818609E-02  0.8477925E-01
       -1   -1    0    0    0  501  0.00000000000E+00  0.00000000000E+00  0.89176845985E+03  0.89176845987E+03  0.50400001928E-02 0.  1.
        1   -1    0    0  501    0  0.00000000000E+00  0.00000000000E+00 -0.14829951634E+04  0.14829951634E+04  0.50400001928E-02 0. -1.
    10030    2    1    2    0    0  0.00000000000E+00  0.00000000000E+00 -0.59122670358E+03  0.23747636233E+04  0.22999898373E+04 0.  0.
        3    1    3    3  502    0  0.78086245135E+03  0.80105804679E+01  0.57603464508E+03  0.97037428854E+03  0.10100000352E+00 0.  1.
       -3    1    3    3    0  502 -0.78086245135E+03 -0.80105804679E+01 -0.11672613487E+04  0.14043893348E+04  0.10100000352E+00 0. -1.
</event>
<event>
 5   0  0.4139830E-05  0.2458149E+04  0.7818609E-02  0.8418049E-01
        1   -1    0    0  501    0  0.00000000000E+00  0.00000000000E+00  0.12672582528E+04  0.12672582528E+04  0.50400001928E-02 0.  1.
       -1   -1    0    0    0  501  0.00000000000E+00  0.00000000000E+00 -0.11920417301E+04  0.11920417301E+04  0.50400001928E-02 0. -1.
    10030    2    1    2    0    0  0.00000000000E+00  0.00000000000E+00  0.75216522698E+02  0.24592999828E+04  0.24581494829E+04 0.  0.
        1    1    3    3  502    0  0.11843916125E+04  0.30682144081E+03 -0.79501348332E+02  0.12260682496E+04  0.50400001928E-02 0. -1.
       -1    1    3    3    0  502 -0.11843916125E+04 -0.30682144081E+03  0.15471787103E+03  0.12332317332E+04  0.50400001928E-02 0.  1.
</event>
<event>
 5   0  0.4005462E-05  0.2287799E+04  0.7818609E-02  0.8482747E-01
       -1   -1    0    0    0  501  0.00000000000E+00  0.00000000000E+00  0.14279725759E+04  0.14279725759E+04  0.50400001928E-02 0.  1.
        1   -1    0    0  501    0  0.00000000000E+00  0.00000000000E+00 -0.91633862052E+03  0.91633862054E+03  0.50400001928E-02 0. -1.
    10030    2    1    2    0    0  0.00000000000E+00  0.00000000000E+00  0.51163395539E+03  0.23443111965E+04  0.22877993097E+04 0.  0.
        4    1    3    3  502    0 -0.22262259083E+03  0.11165631081E+04  0.36914179819E+03  0.11968881620E+04  0.12699999809E+01 0. -1.
       -4    1    3    3    0  502  0.22262259083E+03 -0.11165631081E+04  0.14249215720E+03  0.11474230345E+04  0.12699999809E+01 0.  1.
</event>
<event>
 5   0  0.9535394E-05  0.2292463E+04  0.7818609E-02  0.8480899E-01
       -2   -1    0    0    0  501  0.00000000000E+00  0.00000000000E+00  0.16160130391E+04  0.16160130391E+04  0.25500000920E-02 0. -1.
        2   -1    0    0  501    0  0.00000000000E+00  0.00000000000E+00 -0.81301745308E+03  0.81301745309E+03  0.25500000920E-02 0.  1.
    10030    2    1    2    0    0  0.00000000000E+00  0.00000000000E+00  0.80299558602E+03  0.24290304922E+04  0.22924631340E+04 0.  0.
        2    1    3    3  502    0 -0.22008877942E+03 -0.10709206230E+04  0.36695868481E+02  0.10939180218E+04  0.25500000920E-02 0.  1.
       -2    1    3    3    0  502  0.22008877942E+03  0.10709206230E+04  0.76629971754E+03  0.13351124704E+04  0.25500000920E-02 0. -1.
</event>
<event>
 5   0  0.9535394E-05  0.2308100E+04  0.7818609E-02  0.8474734E-01
       -2   -1    0    0    0  501  0.00000000000E+00  0.00000000000E+00  0.10604149279E+04  0.10604149279E+04  0.25500000920E-02 0.  1.
        2   -1    0    0  501    0  0.00000000000E+00  0.00000000000E+00 -0.12559526841E+04  0.12559526841E+04  0.25500000920E-02 0. -1.
    10030    2    1    2    0    0  0.00000000000E+00  0.00000000000E+00 -0.19553775620E+03  0.23163676120E+04  0.23080996295E+04 0.  0.
        2    1    3    3  502    0 -0.38346269135E+03  0.78167076676E+03  0.66242599476E+03  0.10940114359E+04  0.25500000920E-02 0.  1.
       -2    1    3    3    0  502  0.38346269135E+03 -0.78167076676E+03 -0.85796375096E+03  0.12223561761E+04  0.25500000920E-02 0. -1.
</event>
<event>
 5   0  0.9535394E-05  0.2319199E+04  0.7818609E-02  0.8470390E-01
       -2   -1    0    0    0  501  0.00000000000E+00  0.00000000000E+00  0.66953644584E+03  0.66953644585E+03  0.25500000920E-02 0.  1.
        2   -1    0    0  501    0  0.00000000000E+00  0.00000000000E+00 -0.20083609335E+04  0.20083609335E+04  0.25500000920E-02 0. -1.
    10030    2    1    2    0    0  0.00000000000E+00  0.00000000000E+00 -0.13388244876E+04  0.26778973793E+04  0.23191988629E+04 0.  0.
        2    1    3    3  502    0  0.99919492884E+03  0.16993761465E+03 -0.18892537195E+02  0.10137190077E+04  0.25500000920E-02 0.  1.
       -2    1    3    3    0  502 -0.99919492884E+03 -0.16993761465E+03 -0.13199319505E+04  0.16641783716E+04  0.25500000920E-02 0. -1.
</event>
<event>
 5   0  0.3885219E-05  0.2244382E+04  0.7818609E-02  0.8500179E-01
        1   -1    0    0  501    0  0.00000000000E+00  0.00000000000E+00  0.16038101841E+04  0.16038101841E+04  0.50400001928E-02 0. -1.
       -1   -1    0    0    0  501  0.00000000000E+00  0.00000000000E+00 -0.78520031844E+03  0.78520031846E+03  0.50400001928E-02 0.  1.
    10030    2    1    2    0    0  0.00000000000E+00  0.00000000000E+00  0.81860986569E+03  0.23890105026E+04  0.22443816675E+04 0.  0.
        2    1    3    3  502    0  0.36912649579E+03  0.27079272060E+03 -0.68128123553E+03  0.82080886284E+03  0.25500000920E-02 0.  1.
       -2    1    3    3    0  502 -0.36912649579E+03 -0.27079272060E+03  0.14998911012E+04  0.15682016398E+04  0.25500000920E-02 0. -1.
</event>
<event>
 5   0  0.4005462E-05  0.2262430E+04  0.7818609E-02  0.8492883E-01
       -1   -1    0    0    0  501  0.00000000000E+00  0.00000000000E+00  0.68117040892E+03  0.68117040894E+03  0.50400001928E-02 0.  1.
        1   -1    0    0  501    0  0.00000000000E+00  0.00000000000E+00 -0.18786016136E+04  0.18786016136E+04  0.50400001928E-02 0. -1.
    10030    2    1    2    0    0  0.00000000000E+00  0.00000000000E+00 -0.11974312047E+04  0.25597720226E+04  0.22624304006E+04 0.  0.
        4    1    3    3  502    0  0.37328328508E+02  0.27017453610E+03  0.64341187091E+03  0.69883340832E+03  0.12699999809E+01 0.  1.
       -4    1    3    3    0  502 -0.37328328508E+02 -0.27017453610E+03 -0.18408430756E+04  0.18609386143E+04  0.12699999809E+01 0. -1.
</event>
<event>
 5   0  0.4095451E-05  0.2236993E+04  0.7818609E-02  0.8503187E-01
       -1   -1    0    0    0  501  0.00000000000E+00  0.00000000000E+00  0.53250918935E+03  0.53250918938E+03  0.50400001928E-02 0.  1.
        1   -1    0    0  501    0  0.00000000000E+00  0.00000000000E+00 -0.23493199273E+04  0.23493199273E+04  0.50400001928E-02 0. -1.
    10030    2    1    2    0    0  0.00000000000E+00  0.00000000000E+00 -0.18168107380E+04  0.28818291167E+04  0.22369930264E+04 0.  0.
        3    1    3    3  502    0 -0.18083022617E+03 -0.10870870361E+04 -0.66202532490E+03  0.12855875450E+04  0.10100000352E+00 0. -1.
       -3    1    3    3    0  502  0.18083022617E+03  0.10870870361E+04 -0.11547854131E+04  0.15962415717E+04  0.10100000352E+00 0.  1.
</event>
<event>
 5   0  0.9483073E-05  0.2284597E+04  0.7818609E-02  0.8484019E-01
        2   -1    0    0  501    0  0.00000000000E+00  0.00000000000E+00  0.17970238622E+04  0.17970238622E+04  0.25500000920E-02 0. -1.
       -2   -1    0    0    0  501  0.00000000000E+00  0.00000000000E+00 -0.72611502133E+03  0.72611502133E+03  0.25500000920E-02 0.  1.
    10030    2    1    2    0    0  0.00000000000E+00  0.00000000000E+00  0.10709088409E+04  0.25231388835E+04  0.22845971374E+04 0.  0.
        5    1    3    3  502    0 -0.67128357387E+03 -0.79115311936E+03  0.10631270191E+04  0.14855322425E+04  0.46999998093E+01 0. -1.
       -5    1    3    3    0  502  0.67128357387E+03  0.79115311936E+03  0.77818218264E+01  0.10376066411E+04  0.46999998093E+01 0.  1.
</event>
<event>
 5   0  0.4005462E-05  0.2338388E+04  0.7818609E-02  0.8462937E-01
        1   -1    0    0  501    0  0.00000000000E+00  0.00000000000E+00  0.15982899033E+04  0.15982899033E+04  0.50400001928E-02 0.  1.
       -1   -1    0    0    0  501  0.00000000000E+00  0.00000000000E+00 -0.85529801897E+03  0.85529801898E+03  0.50400001928E-02 0. -1.
    10030    2    1    2    0    0  0.00000000000E+00  0.00000000000E+00  0.74299188432E+03  0.24535879223E+04  0.23383876394E+04 0.  0.
        4    1    3    3  502    0 -0.30496827931E+03 -0.10524618383E+04  0.79942494441E+03  0.13563787919E+04  0.12699999809E+01 0.  1.
       -4    1    3    3    0  502  0.30496827931E+03  0.10524618383E+04 -0.56433060093E+02  0.10972091303E+04  0.12699999809E+01 0. -1.
</event>
<event>
 5   0  0.9483073E-05  0.2216267E+04  0.7818609E-02  0.8511688E-01
       -2   -1    0    0    0  501  0.00000000000E+00  0.00000000000E+00  0.86529244651E+03  0.86529244651E+03  0.25500000920E-02 0. -1.
        2   -1    0    0  501    0  0.00000000000E+00  0.00000000000E+00 -0.14191270887E+04  0.14191270887E+04  0.25500000920E-02 0.  1.
    10030    2    1    2    0    0  0.00000000000E+00  0.00000000000E+00 -0.55383464217E+03  0.22844195352E+04  0.22162670872E+04 0.  0.
        5    1    3    3  502    0 -0.53122424820E+03 -0.41617745409E+03  0.62905065467E+03  0.92256690343E+03  0.46999998093E+01 0. -1.
       -5    1    3    3    0  502  0.53122424820E+03  0.41617745409E+03 -0.11828852968E+04  0.13618526318E+04  0.46999998093E+01 0.  1.
</event>
<event>
 5   0  0.4005462E-05  0.2420195E+04  0.7818609E-02  0.8431981E-01
        1   -1    0    0  501    0  0.00000000000E+00  0.00000000000E+00  0.16257477975E+04  0.16257477975E+04  0.50400001928E-02 0. -1.
       -1   -1    0    0    0  501  0.00000000000E+00  0.00000000000E+00 -0.90071554078E+03  0.90071554079E+03  0.50400001928E-02 0.  1.
    10030    2    1    2    0    0  0.00000000000E+00  0.00000000000E+00  0.72503225671E+03  0.25264633383E+04  0.24201952868E+04 0.  0.
        4    1    3    3  502    0 -0.36709964763E+03  0.97625225246E+03  0.10030578669E+04  0.14470512462E+04  0.12699999809E+01 0. -1.
       -4    1    3    3    0  502  0.36709964763E+03 -0.97625225246E+03 -0.27802561024E+03  0.10794120921E+04  0.12699999809E+01 0.  1.
</event>
<event>
 5   0  0.4295775E-05  0.2592309E+04  0.7818609E-02  0.8370818E-01
       -1   -1    0    0    0  501  0.00000000000E+00  0.00000000000E+00  0.13223094707E+04  0.13223094707E+04  0.50400001928E-02 0.  1.
        1   -1    0    0  501    0  0.00000000000E+00  0.00000000000E+00 -0.12705167047E+04  0.12705167047E+04  0.50400001928E-02 0. -1.
    10030    2    1    2    0    0  0.00000000000E+00  0.00000000000E+00  0.51792766030E+02  0.25928261755E+04  0.25923088330E+04 0.  0.
        5    1    3    3  502    0 -0.31498359474E+03 -0.11328923590E+04 -0.51949623536E+03  0.12855186465E+04  0.46999998093E+01 0. -1.
       -5    1    3    3    0  502  0.31498359474E+03  0.11328923590E+04  0.57128900139E+03  0.13073075289E+04  0.46999998093E+01 0.  1.
</event>
<event>
 5   0  0.4095451E-05  0.2174568E+04  0.7818609E-02  0.8529089E-01
        1   -1    0    0  501    0  0.00000000000E+00  0.00000000000E+00  0.17109586518E+04  0.17109586518E+04  0.50400001928E-02 0. -1.
       -1   -1    0    0    0  501  0.00000000000E+00  0.00000000000E+00 -0.69094990512E+03  0.69094990514E+03  0.50400001928E-02 0.  1.
    10030    2    1    2    0    0  0.00000000000E+00  0.00000000000E+00  0.10200087467E+04  0.24019085569E+04  0.21745682037E+04 0.  0.
        3    1    3    3  502    0 -0.53769470099E+02 -0.43026260903E+03 -0.59131602688E+03  0.73326101935E+03  0.10100000352E+00 0.  1.
       -3    1    3    3    0  502  0.53769470099E+02  0.43026260903E+03  0.16113247736E+04  0.16686475376E+04  0.10100000352E+00 0. -1.
</event>
<event>
 5   0  0.4139830E-05  0.2134926E+04  0.7818609E-02  0.8546012E-01
        1   -1    0    0  501    0  0.00000000000E+00  0.00000000000E+00  0.45153266872E+03  0.45153266874E+03  0.50400001928E-02 0.  1.
       -1   -1    0    0    0  501  0.00000000000E+00  0.00000000000E+00 -0.25235764919E+04  0.25235764919E+04  0.50400001928E-02 0. -1.
    10030    2    1    2    0    0  0.00000000000E+00  0.00000000000E+00 -0.20720438232E+04  0.29751091606E+04  0.21349259736E+04 0.  0.
        1    1    3    3  502    0 -0.63880240230E+03 -0.62862443420E+03 -0.22795969887E+03  0.92477176254E+03  0.50400001928E-02 0.  1.
       -1    1    3    3    0  502  0.63880240230E+03  0.62862443420E+03 -0.18440841243E+04  0.20503373981E+04  0.50400001928E-02 0. -1.
</event>
<event>
 5   0  0.9312074E-05  0.2288619E+04  0.7818609E-02  0.8482422E-01
       -2   -1    0    0    0  501  0.00000000000E+00  0.00000000000E+00  0.76413011676E+03  0.76413011676E+03  0.25500000920E-02 0. -1.
        2   -1    0    0  501    0  0.00000000000E+00  0.00000000000E+00 -0.17136397213E+04  0.17136397213E+04  0.25500000920E-02 0.  1.
    10030    2    1    2    0    0  0.00000000000E+00  0.00000000000E+00 -0.94950960453E+03  0.24777698381E+04  0.22886185530E+04 0.  0.
        4    1    3    3  502    0 -0.44394373369E+03 -0.10490766389E+04 -0.59233201557E+03  0.12839418455E+04  0.12699999809E+01 0. -1.
       -4    1    3    3    0  502  0.44394373369E+03  0.10490766389E+04 -0.35717758896E+03  0.11938279926E+04  0.12699999809E+01 0.  1.
</event>
<event>
 5   0  0.9535394E-05  0.2384381E+04  0.7818609E-02  0.8445374E-01
       -2   -1    0    0    0  501  0.00000000000E+00  0.00000000000E+00  0.87379493085E+03  0.87379493085E+03  0.25500000920E-02 0. -1.
        2   -1    0    0  501    0  0.00000000000E+00  0.00000000000E+00 -0.16266045054E+04  0.16266045054E+04  0.25500000920E-02 0.  1.
    10030    2    1    2    0    0  0.00000000000E+00  0.00000000000E+00 -0.75280957452E+03  0.25003994362E+04  0.23843814890E+04 0.  0.
        2    1    3    3  502    0  0.11791831398E+04  0.17503354369E+03 -0.39157058911E+03  0.12547657729E+04  0.25500000920E-02 0. -1.
       -2    1    3    3    0  502 -0.11791831398E+04 -0.17503354369E+03 -0.36123898541E+03  0.12456336633E+04  0.25500000920E-02 0.  1.
</event>
<event>
 5   0  0.4095451E-05  0.2307754E+04  0.7818609E-02  0.8474870E-01
        1   -1    0    0  501    0  0.00000000000E+00  0.00000000000E+00  0.13875590440E+04  0.13875590440E+04  0.50400001928E-02 0. -1.
       -1   -1    0    0    0  501  0.00000000000E+00  0.00000000000E+00 -0.95954990494E+03  0.95954990495E+03  0.50400001928E-02 0.  1.
    10030    2    1    2    0    0  0.00000000000E+00  0.00000000000E+00  0.42800913904E+03  0.23471089489E+04  0.23077540153E+04 0.  0.
        3    1    3    3  502    0  0.34858814250E+03  0.74252208063E+03 -0.61136377218E+03  0.10230436967E+04  0.10100000352E+00 0.  1.
       -3    1    3    3    0  502 -0.34858814250E+03 -0.74252208063E+03  0.10393729112E+04  0.13240652522E+04  0.10100000352E+00 0. -1.
</event>
<event>
 5   0  0.9641157E-05  0.2179241E+04  0.7818609E-02  0.8527118E-01
       -2   -1    0    0    0  501  0.00000000000E+00  0.00000000000E+00  0.53378291350E+03  0.53378291351E+03  0.25500000920E-02 0.  1.
        2   -1    0    0  501    0  0.00000000000E+00  0.00000000000E+00 -0.22242619701E+04  0.22242619701E+04  0.25500000920E-02 0. -1.
    10030    2    1    2    0    0  0.00000000000E+00  0.00000000000E+00 -0.16904790566E+04  0.27580448836E+04  0.21792411843E+04 0.  0.
        3    1    3    3  502    0  0.59242090802E+03  0.59685042067E+03  0.31666123464E+02  0.84154364741E+03  0.10100000352E+00 0.  1.
       -3    1    3    3    0  502 -0.59242090802E+03 -0.59685042067E+03 -0.17221451800E+04  0.19165012362E+04  0.10100000352E+00 0. -1.
</event>
<event>
 5   0  0.4139830E-05  0.2347597E+04  0.7818609E-02  0.8459387E-01
        1   -1    0    0  501    0  0.00000000000E+00  0.00000000000E+00  0.12303112284E+04  0.12303112284E+04  0.50400001928E-02 0.  1.
       -1   -1    0    0    0  501  0.00000000000E+00  0.00000000000E+00 -0.11198820506E+04  0.11198820507E+04  0.50400001928E-02 0. -1.
    10030    2    1    2    0    0  0.00000000000E+00  0.00000000000E+00  0.11042917775E+03  0.23501932791E+04  0.23475974624E+04 0.  0.
        1    1    3    3  502    0 -0.36747940825E+03  0.43544560080E+03  0.10825800385E+04  0.12233697424E+04  0.50400001928E-02 0.  1.
       -1    1    3    3    0  502  0.36747940825E+03 -0.43544560080E+03 -0.97215086076E+03  0.11268235367E+04  0.50400001928E-02 0. -1.
</event>
<event>
 5   0  0.4005462E-05  0.2318232E+04  0.7818609E-02  0.8470767E-01
       -1   -1    0    0    0  501  0.00000000000E+00  0.00000000000E+00  0.94444440671E+03  0.94444440672E+03  0.50400001928E-02 0.  1.
        1   -1    0    0  501    0  0.00000000000E+00  0.00000000000E+00 -0.14225817793E+04  0.14225817793E+04  0.50400001928E-02 0. -1.
    10030    2    1    2    0    0  0.00000000000E+00  0.00000000000E+00 -0.47813737259E+03  0.23670261860E+04  0.23182315713E+04 0.  0.
        4    1    3    3  502    0  0.49126890371E+03  0.71412688221E+03  0.54669106706E+03  0.10247902592E+04  0.12699999809E+01 0.  1.
       -4    1    3    3    0  502 -0.49126890371E+03 -0.71412688221E+03 -0.10248284396E+04  0.13422359268E+04  0.12699999809E+01 0. -1.
</event>
<event>
 5   0  0.4295775E-05  0.1713814E+04  0.7818609E-02  0.8753525E-01
       -1   -1    0    0    0  501  0.00000000000E+00  0.00000000000E+00  0.11546588666E+04  0.11546588666E+04  0.50400001928E-02 0.  1.
        1   -1    0    0  501    0  0.00000000000E+00  0.00000000000E+00 -0.63593638754E+03  0.63593638756E+03  0.50400001928E-02 0. -1.
    10030    2    1    2    0    0  0.00000000000E+00  0.00000000000E+00  0.51872247904E+03  0.17905952541E+04  0.17138139788E+04 0.  0.
        5    1    3    3  502    0  0.19163735161E+03 -0.68196311661E+03 -0.24439009306E+03  0.74936451380E+03  0.46999998093E+01 0. -1.
       -5    1    3    3    0  502 -0.19163735161E+03  0.68196311661E+03  0.76311257210E+03  0.10412307403E+04  0.46999998093E+01 0.  1.
</event>
<event>
 5   0  0.9641157E-05  0.2314945E+04  0.7818609E-02  0.8472052E-01
        2   -1    0    0  501    0  0.00000000000E+00  0.00000000000E+00  0.10781434988E+04  0.10781434988E+04  0.25500000920E-02 0.  1.
       -2   -1    0    0    0  501  0.00000000000E+00  0.00000000000E+00 -0.12426386947E+04  0.12426386947E+04  0.25500000920E-02 0. -1.
    10030    2    1    2    0    0  0.00000000000E+00  0.00000000000E+00 -0.16449519587E+03  0.23207821936E+04  0.23149452089E+04 0.  0.
        3    1    3    3  502    0  0.60740016149E+03 -0.53543547252E+03 -0.91144659695E+03  0.12191640623E+04  0.10100000352E+00 0. -1.
       -3    1    3    3    0  502 -0.60740016149E+03  0.53543547252E+03  0.74695140108E+03  0.11016181313E+04  0.10100000352E+00 0.  1.
</event>
<event>
 5   0  0.4139830E-05  0.2319833E+04  0.7818609E-02  0.8470142E-01
        1   -1    0    0  501    0  0.00000000000E+00  0.00000000000E+00  0.76900625116E+03  0.76900625118E+03  0.50400001928E-02 0. -1.
       -1   -1    0    0    0  501  0.00000000000E+00  0.00000000000E+00 -0.17495390888E+04  0.17495390888E+04  0.50400001928E-02 0.  1.
    10030    2    1    2    0    0  0.00000000000E+00  0.00000000000E+00 -0.98053283762E+03  0.25185453400E+04  0.23198331802E+04 0.  0.
        1    1    3    3  502    0 -0.98923141634E+03  0.31364653394E+03 -0.10527729841E+04  0.14782705772E+04  0.50400001928E-02 0.  1.
       -1    1    3    3    0  502  0.98923141634E+03 -0.31364653394E+03  0.72240146439E+02  0.10402747628E+04  0.50400001928E-02 0. -1.
</event>
<event>
 5   0  0.9313463E-05  0.2124561E+04  0.7818609E-02  0.8550500E-01
        2   -1    0    0  501    0  0.00000000000E+00  0.00000000000E+00  0.23278596154E+04  0.23278596154E+04  0.25500000920E-02 0. -1.
       -2   -1    0    0    0  501  0.00000000000E+00  0.00000000000E+00 -0.48475444289E+03  0.48475444290E+03  0.25500000920E-02 0.  1.
    10030    2    1    2    0    0  0.00000000000E+00  0.00000000000E+00  0.18431051725E+04  0.28126140583E+04  0.21245614051E+04 0.  0.
        1    1    3    3  502    0 -0.44594837643E+02 -0.28867543094E+02  0.23261000489E+04  0.23267065720E+04  0.50400001928E-02 0. -1.
       -1    1    3    3    0  502  0.44594837643E+02  0.28867543094E+02 -0.48299487640E+03  0.48590748630E+03  0.50400001928E-02 0.  1.
</event>
<event>
 5   0  0.4005462E-05  0.2318523E+04  0.7818609E-02  0.8470653E-01
       -1   -1    0    0    0  501  0.00000000000E+00  0.00000000000E+00  0.62906665944E+03  0.62906665946E+03  0.50400001928E-02 0.  1.
        1   -1    0    0  501    0  0.00000000000E+00  0.00000000000E+00 -0.21363191196E+04  0.21363191197E+04  0.50400001928E-02 0. -1.
    10030    2    1    2    0    0  0.00000000000E+00  0.00000000000E+00 -0.15072524602E+04  0.27653857791E+04  0.23185229196E+04 0.  0.
        4    1    3    3  502    0 -0.12702012962E+02  0.54225461075E+03  0.46838063094E+03  0.71664735565E+03  0.12699999809E+01 0.  1.
       -4    1    3    3    0  502  0.12702012962E+02 -0.54225461075E+03 -0.19756330912E+04  0.20487384235E+04  0.12699999809E+01 0. -1.
</event>
<event>
 5   0  0.4295775E-05  0.2251335E+04  0.7818609E-02  0.8497360E-01
        1   -1    0    0  501    0  0.00000000000E+00  0.00000000000E+00  0.14238215172E+04  0.14238215173E+04  0.50400001928E-02 0. -1.
       -1   -1    0    0    0  501  0.00000000000E+00  0.00000000000E+00 -0.88994780640E+03  0.88994780642E+03  0.50400001928E-02 0.  1.
    10030    2    1    2    0    0  0.00000000000E+00  0.00000000000E+00  0.53387371084E+03  0.23137693237E+04  0.22513345695E+04 0.  0.
        5    1    3    3  502    0  0.14859710984E+02 -0.51749463379E+02  0.14224873559E+04  0.14235136760E+04  0.46999998093E+01 0. -1.
       -5    1    3    3    0  502 -0.14859710984E+02  0.51749463379E+02 -0.88861364509E+03  0.89025564767E+03  0.46999998093E+01 0.  1.
</event>
<event>
 5   0  0.3885219E-05  0.2257574E+04  0.7818609E-02  0.8494839E-01
       -1   -1    0    0    0  501  0.00000000000E+00  0.00000000000E+00  0.86961903200E+03  0.86961903201E+03  0.50400001928E-02 0. -1.
        1   -1    0    0  501    0  0.00000000000E+00  0.00000000000E+00 -0.14651938038E+04  0.14651938038E+04  0.50400001928E-02 0.  1.
    10030    2    1    2    0    0  0.00000000000E+00  0.00000000000E+00 -0.59557477178E+03  0.23348128358E+04  0.22575742888E+04 0.  0.
        2    1    3    3  502    0 -0.37340016988E+03 -0.38730867890E+03  0.72849633848E+03  0.90561725624E+03  0.25500000920E-02 0. -1.
       -2    1    3    3    0  502  0.37340016988E+03  0.38730867890E+03 -0.13240711103E+04  0.14291955796E+04  0.25500000920E-02 0.  1.
</event>
<event>
 5   0  0.4005462E-05  0.2227489E+04  0.7818609E-02  0.8507073E-01
        1   -1    0    0  501    0  0.00000000000E+00  0.00000000000E+00  0.31696961459E+04  0.31696961459E+04  0.50400001928E-02 0.  1.
       -1   -1    0    0    0  501  0.00000000000E+00  0.00000000000E+00 -0.39133949723E+03  0.39133949726E+03  0.50400001928E-02 0. -1.
    10030    2    1    2    0    0  0.00000000000E+00  0.00000000000E+00  0.27783566487E+04  0.35610356432E+04  0.22274894354E+04 0.  0.
        4    1    3    3  502    0  0.11132855141E+04 -0.29785976117E+02  0.14076734992E+04  0.17949479473E+04  0.12699999809E+01 0.  1.
       -4    1    3    3    0  502 -0.11132855141E+04  0.29785976117E+02  0.13706831495E+04  0.17660876959E+04  0.12699999809E+01 0. -1.
</event>
<event>
 5   0  0.4295775E-05  0.2214495E+04  0.7818609E-02  0.8512419E-01
        1   -1    0    0  501    0  0.00000000000E+00  0.00000000000E+00  0.16194123543E+04  0.16194123543E+04  0.50400001928E-02 0.  1.
       -1   -1    0    0    0  501  0.00000000000E+00  0.00000000000E+00 -0.75706318299E+03  0.75706318301E+03  0.50400001928E-02 0. -1.
    10030    2    1    2    0    0  0.00000000000E+00  0.00000000000E+00  0.86234917129E+03  0.23764755373E+04  0.22144954022E+04 0.  0.
        5    1    3    3  502    0 -0.49305508845E+03 -0.91107607358E+03  0.85068035100E+03  0.13404633832E+04  0.46999998093E+01 0. -1.
       -5    1    3    3    0  502  0.49305508845E+03  0.91107607358E+03  0.11668820292E+02  0.10360121541E+04  0.46999998093E+01 0.  1.
</event>
<event>
 5   0  0.9535394E-05  0.2283620E+04  0.7818609E-02  0.8484407E-01
        2   -1    0    0  501    0  0.00000000000E+00  0.00000000000E+00  0.19336754760E+04  0.19336754760E+04  0.25500000920E-02 0. -1.
       -2   -1    0    0    0  501  0.00000000000E+00  0.00000000000E+00 -0.67422406249E+03  0.67422406249E+03  0.25500000920E-02 0.  1.
    10030    2    1    2    0    0  0.00000000000E+00  0.00000000000E+00  0.12594514135E+04  0.26078995385E+04  0.22836204019E+04 0.  0.
        2    1    3    3  502    0 -0.17812759198E+03 -0.10295480914E+04  0.11555824740E+04  0.15579055060E+04  0.25500000920E-02 0.  1.
       -2    1    3    3    0  502  0.17812759198E+03  0.10295480914E+04  0.10386893952E+03  0.10499940324E+04  0.25500000920E-02 0. -1.
</event>
<event>
 5   0  0.4139830E-05  0.2404017E+04  0.7818609E-02  0.8438001E-01
       -1   -1    0    0    0  501  0.00000000000E+00  0.00000000000E+00  0.81042004416E+03  0.81042004417E+03  0.50400001928E-02 0.  1.
        1   -1    0    0  501    0  0.00000000000E+00  0.00000000000E+00 -0.17828096275E+04  0.17828096275E+04  0.50400001928E-02 0. -1.
    10030    2    1    2    0    0  0.00000000000E+00  0.00000000000E+00 -0.97238958336E+03  0.25932296717E+04  0.24040171855E+04 0.  0.
        1    1    3    3  502    0  0.58608036629E+03  0.28428508045E+02 -0.16178226316E+04  0.17209440558E+04  0.50400001928E-02 0. -1.
       -1    1    3    3    0  502 -0.58608036629E+03 -0.28428508045E+02  0.64543304828E+03  0.87228561587E+03  0.50400001928E-02 0.  1.
</event>
<event>
 5   0  0.4139830E-05  0.2301458E+04  0.7818609E-02  0.8477346E-01
        1   -1    0    0  501    0  0.00000000000E+00  0.00000000000E+00  0.11789092751E+04  0.11789092751E+04  0.50400001928E-02 0. -1.
       -1   -1    0    0    0  501  0.00000000000E+00  0.00000000000E+00 -0.11232225000E+04  0.11232225000E+04  0.50400001928E-02 0.  1.
    10030    2    1    2    0    0  0.00000000000E+00  0.00000000000E+00  0.55686775109E+02  0.23021317751E+04  0.23014581667E+04 0.  0.
        1    1    3    3  502    0  0.34725717261E+03  0.99166729202E+03 -0.44153361605E+03  0.11397120233E+04  0.50400001928E-02 0.  1.
       -1    1    3    3    0  502 -0.34725717261E+03 -0.99166729202E+03  0.49722039115E+03  0.11624197518E+04  0.50400001928E-02 0. -1.
</event>
<event>
 5   0  0.4139830E-05  0.1479491E+04  0.7818609E-02  0.8898207E-01
        1   -1    0    0  501    0  0.00000000000E+00  0.00000000000E+00  0.52672610164E+03  0.52672610166E+03  0.50400001928E-02 0.  1.
       -1   -1    0    0    0  501  0.00000000000E+00  0.00000000000E+00 -0.10389151165E+04  0.10389151165E+04  0.50400001928E-02 0. -1.
    10030    2    1    2    0    0  0.00000000000E+00  0.00000000000E+00 -0.51218901483E+03  0.15656412181E+04  0.14794914116E+04 0.  0.
        1    1    3    3  502    0 -0.19621544962E+03  0.67158954665E+03 -0.51026940353E+03  0.86597222013E+03  0.50400001928E-02 0. -1.
       -1    1    3    3    0  502  0.19621544962E+03 -0.67158954665E+03 -0.19196113084E+01  0.69966899801E+03  0.50400001928E-02 0.  1.
</event>
<event>
 5   0  0.9312074E-05  0.2284453E+04  0.7818609E-02  0.8484076E-01
       -2   -1    0    0    0  501  0.00000000000E+00  0.00000000000E+00  0.67280343808E+03  0.67280343808E+03  0.25500000920E-02 0. -1.
        2   -1    0    0  501    0  0.00000000000E+00  0.00000000000E+00 -0.19391717314E+04  0.19391717314E+04  0.25500000920E-02 0.  1.
    10030    2    1    2    0    0  0.00000000000E+00  0.00000000000E+00 -0.12663682934E+04  0.26119751695E+04  0.22844530268E+04 0.  0.
        4    1    3    3  502    0 -0.17265607696E+03 -0.33382149194E+02  0.65723207737E+03  0.68035292696E+03  0.12699999809E+01 0. -1.
       -4    1    3    3    0  502  0.17265607696E+03  0.33382149194E+02 -0.19236003707E+04  0.19316222426E+04  0.12699999809E+01 0.  1.
</event>
<event>
 5   0  0.4095451E-05  0.2219605E+04  0.7818609E-02  0.8510312E-01
       -1   -1    0    0    0  501  0.00000000000E+00  0.00000000000E+00  0.10853539182E+04  0.10853539182E+04  0.50400001928E-02 0. -1.
        1   -1    0    0  501    0  0.00000000000E+00  0.00000000000E+00 -0.11348020883E+04  0.11348020883E+04  0.50400001928E-02 0.  1.
    10030    2    1    2    0    0  0.00000000000E+00  0.00000000000E+00 -0.49448170029E+02  0.22201560065E+04  0.22196052739E+04 0.  0.
        3    1    3    3  502    0 -0.79600466305E+03  0.93750191032E+02 -0.79254034457E+03  0.11271791028E+04  0.10100000352E+00 0.  1.
       -3    1    3    3    0  502  0.79600466305E+03 -0.93750191032E+02  0.74309217454E+03  0.10929769037E+04  0.10100000352E+00 0. -1.
</event>
<event>
 5   0  0.9312074E-05  0.2280251E+04  0.7818609E-02  0.8485749E-01
       -2   -1    0    0    0  501  0.00000000000E+00  0.00000000000E+00  0.14412580377E+04  0.14412580377E+04  0.25500000920E-02 0.  1.
        2   -1    0    0  501    0  0.00000000000E+00  0.00000000000E+00 -0.90191068917E+03  0.90191068917E+03  0.25500000920E-02 0. -1.
    10030    2    1    2    0    0  0.00000000000E+00  0.00000000000E+00  0.53934734850E+03  0.23431687268E+04  0.22802508897E+04 0.  0.
        4    1    3    3  502    0 -0.51031613207E+03 -0.93267458400E+03 -0.15348984669E+03  0.10741811673E+04  0.12699999809E+01 0. -1.
       -4    1    3    3    0  502  0.51031613207E+03  0.93267458400E+03  0.69283719519E+03  0.12689875595E+04  0.12699999809E+01 0.  1.
</event>
<event>
 5   0  0.9641157E-05  0.2424680E+04  0.7818609E-02  0.8430321E-01
        2   -1    0    0  501    0  0.00000000000E+00  0.00000000000E+00  0.17331318688E+04  0.17331318688E+04  0.25500000920E-02 0.  1.
       -2   -1    0    0    0  501  0.00000000000E+00  0.00000000000E+00 -0.84804200303E+03  0.84804200304E+03  0.25500000920E-02 0. -1.
    10030    2    1    2    0    0  0.00000000000E+00  0.00000000000E+00  0.88508986573E+03  0.25811738718E+04  0.24246802853E+04 0.  0.
        3    1    3    3  502    0  0.60082128593E+03 -0.97201153694E+03  0.11469892401E+02  0.11427704119E+04  0.10100000352E+00 0. -1.
       -3    1    3    3    0  502 -0.60082128593E+03  0.97201153694E+03  0.87361997333E+03  0.14384034599E+04  0.10100000352E+00 0.  1.
</event>
<event>
 5   0  0.9313463E-05  0.2317624E+04  0.7818609E-02  0.8471005E-01
        2   -1    0    0  501    0  0.00000000000E+00  0.00000000000E+00  0.21926426253E+04  0.21926426253E+04  0.25500000920E-02 0. -1.
       -2   -1    0    0    0  501  0.00000000000E+00  0.00000000000E+00 -0.61243224614E+03  0.61243224615E+03  0.25500000920E-02 0.  1.
    10030    2    1    2    0    0  0.00000000000E+00  0.00000000000E+00  0.15802103791E+04  0.28050748714E+04  0.23176238245E+04 0.  0.
        1    1    3    3  502    0  0.13996993666E+03 -0.12668527466E+03  0.21739049336E+04  0.21820869374E+04  0.50400001928E-02 0. -1.
       -1    1    3    3    0  502 -0.13996993666E+03  0.12668527466E+03 -0.59369455444E+03  0.62298793406E+03  0.50400001928E-02 0.  1.
</event>
<event>
 5   0  0.9312074E-05  0.2314081E+04  0.7818609E-02  0.8472390E-01
        2   -1    0    0  501    0  0.00000000000E+00  0.00000000000E+00  0.98314356432E+03  0.98314356432E+03  0.25500000920E-02 0.  1.
       -2   -1    0    0    0  501  0.00000000000E+00  0.00000000000E+00 -0.13616954955E+04  0.13616954955E+04  0.25500000920E-02 0. -1.
    10030    2    1    2    0    0  0.00000000000E+00  0.00000000000E+00 -0.37855193117E+03  0.23448390598E+04  0.23140805197E+04 0.  0.
        4    1    3    3  502    0  0.80991508502E+02 -0.10436799723E+04  0.31013720212E+03  0.10917940310E+04  0.12699999809E+01 0.  1.
       -4    1    3    3    0  502 -0.80991508502E+02  0.10436799723E+04 -0.68868913328E+03  0.12530450288E+04  0.12699999809E+01 0. -1.
</event>
<event>
 5   0  0.4095451E-05  0.2373371E+04  0.7818609E-02  0.8449541E-01
       -1   -1    0    0    0  501  0.00000000000E+00  0.00000000000E+00  0.95693910018E+03  0.95693910019E+03  0.50400001928E-02 0. -1.
        1   -1    0    0  501    0  0.00000000000E+00  0.00000000000E+00 -0.14715910094E+04  0.14715910094E+04  0.50400001928E-02 0.  1.
    10030    2    1    2    0    0  0.00000000000E+00  0.00000000000E+00 -0.51465190922E+03  0.24285301096E+04  0.23733714217E+04 0.  0.
        3    1    3    3  502    0  0.42571785916E+02 -0.70764767548E+03  0.71644512224E+03  0.10079043670E+04  0.10100000352E+00 0. -1.
       -3    1    3    3    0  502 -0.42571785916E+02  0.70764767548E+03 -0.12310970315E+04  0.14206257426E+04  0.10100000352E+00 0.  1.
</event>
<event>
 5   0  0.9641157E-05  0.2286772E+04  0.7818609E-02  0.8483155E-01
       -2   -1    0    0    0  501  0.00000000000E+00  0.00000000000E+00  0.13346239503E+04  0.13346239503E+04  0.25500000920E-02 0.  1.
        2   -1    0    0  501    0  0.00000000000E+00  0.00000000000E+00 -0.97955075203E+03  0.97955075203E+03  0.25500000920E-02 0. -1.
    10030    2    1    2    0    0  0.00000000000E+00  0.00000000000E+00  0.35507319830E+03  0.23141747024E+04  0.22867723054E+04 0.  0.
        3    1    3    3  502    0 -0.76915355784E+03 -0.37885256738E+02 -0.67775333168E+03  0.10258567527E+04  0.10100000352E+00 0. -1.
       -3    1    3    3    0  502  0.76915355784E+03  0.37885256738E+02  0.10328265300E+04  0.12883179497E+04  0.10100000352E+00 0.  1.
</event>
<event>
 5   0  0.4095451E-05  0.2303282E+04  0.7818609E-02  0.8476628E-01
        1   -1    0    0  501    0  0.00000000000E+00  0.00000000000E+00  0.48352480002E+03  0.48352480005E+03  0.50400001928E-02 0. -1.
       -1   -1    0    0    0  501  0.00000000000E+00  0.00000000000E+00 -0.27429337105E+04  0.27429337105E+04  0.50400001928E-02 0.  1.
    10030    2    1    2    0    0  0.00000000000E+00  0.00000000000E+00 -0.22594089105E+04  0.32264585105E+04  0.23032815493E+04 0.  0.
        3    1    3    3  502    0  0.76965918221E+03 -0.42937493443E+03 -0.21681364674E+04  0.23404174504E+04  0.10100000352E+00 0.  1.
       -3    1    3    3    0  502 -0.76965918221E+03  0.42937493443E+03 -0.91272443098E+02  0.88604106008E+03  0.10100000352E+00 0. -1.
</event>
<event>
 5   0  0.9312074E-05  0.2224751E+04  0.7818609E-02  0.8508196E-01
        2   -1    0    0  501    0  0.00000000000E+00  0.00000000000E+00  0.12752399594E+04  0.12752399594E+04  0.25500000920E-02 0. -1.
       -2   -1    0    0    0  501  0.00000000000E+00  0.00000000000E+00 -0.97031064186E+03  0.97031064187E+03  0.25500000920E-02 0.  1.
    10030    2    1    2    0    0  0.00000000000E+00  0.00000000000E+00  0.30492931750E+03  0.22455506012E+04  0.22247506858E+04 0.  0.
        4    1    3    3  502    0  0.61451074004E+03 -0.69180249846E+02 -0.78082490587E+03  0.99604141637E+03  0.12699999809E+01 0.  1.
       -4    1    3    3    0  502 -0.61451074004E+03  0.69180249846E+02  0.10857542234E+04  0.12495091849E+04  0.12699999809E+01 0. -1.
</event>
<event>
 5   0  0.9535394E-05  0.2311517E+04  0.7818609E-02  0.8473394E-01
        2   -1    0    0  501    0  0.00000000000E+00  0.00000000000E+00  0.68663281368E+03  0.68663281368E+03  0.25500000920E-02 0.  1.
       -2   -1    0    0    0  501  0.00000000000E+00  0.00000000000E+00 -0.19454033125E+04  0.19454033125E+04  0.25500000920E-02 0. -1.
    10030    2    1    2    0    0  0.00000000000E+00  0.00000000000E+00 -0.12587704988E+04  0.26320361262E+04  0.23115170345E+04 0.  0.
        2    1    3    3  502    0 -0.84583880615E+03 -0.73912952359E+03 -0.93918080944E+03  0.14641776980E+04  0.25500000920E-02 0. -1.
       -2    1    3    3    0  502  0.84583880615E+03  0.73912952359E+03 -0.31958968940E+03  0.11678584282E+04  0.25500000920E-02 0.  1.
</event>
<event>
 5   0  0.9313463E-05  0.2302305E+04  0.7818609E-02  0.8477013E-01
       -2   -1    0    0    0  501  0.00000000000E+00  0.00000000000E+00  0.69167862194E+03  0.69167862195E+03  0.25500000920E-02 0. -1.
        2   -1    0    0  501    0  0.00000000000E+00  0.00000000000E+00 -0.19158497120E+04  0.19158497120E+04  0.25500000920E-02 0.  1.
    10030    2    1    2    0    0  0.00000000000E+00  0.00000000000E+00 -0.12241710900E+04  0.26075283339E+04  0.23023051828E+04 0.  0.
        1    1    3    3  502    0 -0.10432880151E+04 -0.24526556977E+03 -0.13620651242E+03  0.10803505432E+04  0.50400001928E-02 0. -1.
       -1    1    3    3    0  502  0.10432880151E+04  0.24526556977E+03 -0.10879645776E+04  0.15271777907E+04  0.50400001928E-02 0.  1.
</event>
<event>
 5   0  0.9641157E-05  0.2285390E+04  0.7818609E-02  0.8483704E-01
        2   -1    0    0  501    0  0.00000000000E+00  0.00000000000E+00  0.20709330563E+04  0.20709330563E+04  0.25500000920E-02 0.  1.
       -2   -1    0    0    0  501  0.00000000000E+00  0.00000000000E+00 -0.63051395807E+03  0.63051395807E+03  0.25500000920E-02 0. -1.
    10030    2    1    2    0    0  0.00000000000E+00  0.00000000000E+00  0.14404190982E+04  0.27014470144E+04  0.22853902934E+04 0.  0.
        3    1    3    3  502    0 -0.25288467844E+03 -0.71279188060E+03  0.17327304462E+04  0.18906024794E+04  0.10100000352E+00 0.  1.
       -3    1    3    3    0  502  0.25288467844E+03  0.71279188060E+03 -0.29231134794E+03  0.81084453502E+03  0.10100000352E+00 0. -1.
</event>
<event>
 5   0  0.9535394E-05  0.2266045E+04  0.7818609E-02  0.8491431E-01
        2   -1    0    0  501    0  0.00000000000E+00  0.00000000000E+00  0.16936564966E+04  0.16936564966E+04  0.25500000920E-02 0.  1.
       -2   -1    0    0    0  501  0.00000000000E+00  0.00000000000E+00 -0.75796934769E+03  0.75796934770E+03  0.25500000920E-02 0. -1.
    10030    2    1    2    0    0  0.00000000000E+00  0.00000000000E+00  0.93568714888E+03  0.24516258443E+04  0.22660447568E+04 0.  0.
        2    1    3    3  502    0 -0.54001889909E+03  0.48514028724E+03 -0.47331819022E+03  0.86660926540E+03  0.25500000920E-02 0. -1.
       -2    1    3    3    0  502  0.54001889909E+03 -0.48514028724E+03  0.14090053391E+04  0.15850165789E+04  0.25500000920E-02 0.  1.
</event>
<event>
 5   0  0.3885219E-05  0.2304117E+04  0.7818609E-02  0.8476299E-01
       -1   -1    0    0    0  501  0.00000000000E+00  0.00000000000E+00  0.87210516977E+03  0.87210516979E+03  0.50400001928E-02 0. -1.
        1   -1    0    0  501    0  0.00000000000E+00  0.00000000000E+00 -0.15218796602E+04  0.15218796602E+04  0.50400001928E-02 0.  1.
    10030    2    1    2    0    0  0.00000000000E+00  0.00000000000E+00 -0.64977449047E+03  0.23939848300E+04  0.23041172882E+04 0.  0.
        2    1    3    3  502    0  0.11445326581E+04  0.51267499574E+02 -0.19910453558E+03  0.11628525178E+04  0.25500000920E-02 0. -1.
       -2    1    3    3    0  502 -0.11445326581E+04 -0.51267499574E+02 -0.45066995489E+03  0.12311323123E+04  0.25500000920E-02 0.  1.
</event>
<event>
 5   0  0.3885219E-05  0.1875371E+04  0.7818609E-02  0.8667214E-01
       -1   -1    0    0    0  501  0.00000000000E+00  0.00000000000E+00  0.34071813529E+03  0.34071813533E+03  0.50400001928E-02 0.  1.
        1   -1    0    0  501    0  0.00000000000E+00  0.00000000000E+00 -0.25805921379E+04  0.25805921379E+04  0.50400001928E-02 0. -1.
    10030    2    1    2    0    0  0.00000000000E+00  0.00000000000E+00 -0.22398740026E+04  0.29213102732E+04  0.18753714739E+04 0.  0.
        2    1    3    3  502    0  0.44589115939E+03  0.33205007790E+00 -0.24048800040E+04  0.24458673042E+04  0.25500000920E-02 0. -1.
       -2    1    3    3    0  502 -0.44589115939E+03 -0.33205007790E+00  0.16500600138E+03  0.47544296901E+03  0.25500000920E-02 0.  1.
</event>
<event>
 5   0  0.4005462E-05  0.2150760E+04  0.7818609E-02  0.8539207E-01
        1   -1    0    0  501    0  0.00000000000E+00  0.00000000000E+00  0.22737846637E+04  0.22737846637E+04  0.50400001928E-02 0.  1.
       -1   -1    0    0    0  501  0.00000000000E+00  0.00000000000E+00 -0.50859789201E+03  0.50859789204E+03  0.50400001928E-02 0. -1.
    10030    2    1    2    0    0  0.00000000000E+00  0.00000000000E+00  0.17651867717E+04  0.27823825557E+04  0.21507599465E+04 0.  0.
        4    1    3    3  502    0 -0.12485808904E+03 -0.84949488355E+03  0.44986199588E+02  0.85980025042E+03  0.12699999809E+01 0. -1.
       -4    1    3    3    0  502  0.12485808904E+03  0.84949488355E+03  0.17202005721E+04  0.19225823053E+04  0.12699999809E+01 0.  1.
</event>
<event>
 5   0  0.4295775E-05  0.2316374E+04  0.7818609E-02  0.8471493E-01
       -1   -1    0    0    0  501  0.00000000000E+00  0.00000000000E+00  0.13952855302E+04  0.13952855302E+04  0.50400001928E-02 0. -1.
        1   -1    0    0  501    0  0.00000000000E+00  0.00000000000E+00 -0.96137861811E+03  0.96137861813E+03  0.50400001928E-02 0.  1.
    10030    2    1    2    0    0  0.00000000000E+00  0.00000000000E+00  0.43390691206E+03  0.23566641483E+04  0.23163744731E+04 0.  0.
        5    1    3    3  502    0  0.35786606924E+03 -0.33287119466E+03  0.12852185965E+04  0.13750201040E+04  0.46999998093E+01 0. -1.
       -5    1    3    3    0  502 -0.35786606924E+03  0.33287119466E+03 -0.85131168439E+03  0.98164404431E+03  0.46999998093E+01 0.  1.
</event>
<event>
 5   0  0.4295775E-05  0.2282956E+04  0.7818609E-02  0.8484672E-01
       -1   -1    0    0    0  501  0.00000000000E+00  0.00000000000E+00  0.55417890526E+03  0.55417890529E+03  0.50400001928E-02 0. -1.
        1   -1    0    0  501    0  0.00000000000E+00  0.00000000000E+00 -0.23511749583E+04  0.23511749583E+04  0.50400001928E-02 0.  1.
    10030    2    1    2    0    0  0.00000000000E+00  0.00000000000E+00 -0.17969960530E+04  0.29053538636E+04  0.22829555970E+04 0.  0.
        5    1    3    3  502    0 -0.11194724007E+04 -0.16453288664E+03 -0.10900695815E+04  0.15711662258E+04  0.46999998093E+01 0.  1.
       -5    1    3    3    0  502  0.11194724007E+04  0.16453288664E+03 -0.70692647154E+03  0.13341876378E+04  0.46999998093E+01 0. -1.
</event>
<event>
 5   0  0.9641157E-05  0.2507326E+04  0.7818609E-02  0.8400380E-01
       -2   -1    0    0    0  501  0.00000000000E+00  0.00000000000E+00  0.13371861370E+04  0.13371861370E+04  0.25500000920E-02 0.  1.
        2   -1    0    0  501    0  0.00000000000E+00  0.00000000000E+00 -0.11753572824E+04  0.11753572824E+04  0.25500000920E-02 0. -1.
    10030    2    1    2    0    0  0.00000000000E+00  0.00000000000E+00  0.16182885455E+03  0.25125434194E+04  0.25073264359E+04 0.  0.
        3    1    3    3  502    0  0.12240874014E+03 -0.11796401759E+04  0.48812999981E+03  0.12824998056E+04  0.10100000352E+00 0. -1.
       -3    1    3    3    0  502 -0.12240874014E+03  0.11796401759E+04 -0.32630114526E+03  0.12300436138E+04  0.10100000352E+00 0.  1.
</event>
<event>
 5   0  0.9641157E-05  0.2312067E+04  0.7818609E-02  0.8473178E-01
        2   -1    0    0  501    0  0.00000000000E+00  0.00000000000E+00  0.23574425322E+04  0.23574425322E+04  0.25500000920E-02 0.  1.
       -2   -1    0    0    0  501  0.00000000000E+00  0.00000000000E+00 -0.56689118407E+03  0.56689118408E+03  0.25500000920E-02 0. -1.
    10030    2    1    2    0    0  0.00000000000E+00  0.00000000000E+00  0.17905513481E+04  0.29243337163E+04  0.23120669441E+04 0.  0.
        3    1    3    3  502    0  0.34346975370E+03 -0.65550821773E+03 -0.22802612944E+03  0.77437614964E+03  0.10100000352E+00 0. -1.
       -3    1    3    3    0  502 -0.34346975370E+03  0.65550821773E+03  0.20185774776E+04  0.21499575666E+04  0.10100000352E+00 0.  1.
</event>
<event>
 5   0  0.4295775E-05  0.2018789E+04  0.7818609E-02  0.8597886E-01
       -1   -1    0    0    0  501  0.00000000000E+00  0.00000000000E+00  0.78888767281E+03  0.78888767282E+03  0.50400001928E-02 0. -1.
        1   -1    0    0  501    0  0.00000000000E+00  0.00000000000E+00 -0.12915366084E+04  0.12915366084E+04  0.50400001928E-02 0.  1.
    10030    2    1    2    0    0  0.00000000000E+00  0.00000000000E+00 -0.50264893562E+03  0.20804242813E+04  0.20187890523E+04 0.  0.
        5    1    3    3  502    0 -0.31765246560E+03 -0.58168125996E+03  0.53323307587E+03  0.85065608814E+03  0.46999998093E+01 0. -1.
       -5    1    3    3    0  502  0.31765246560E+03  0.58168125996E+03 -0.10358820115E+04  0.12297681931E+04  0.46999998093E+01 0.  1.
</event>
<event>
 5   0  0.9313463E-05  0.2325989E+04  0.7818609E-02  0.8467744E-01
        2   -1    0    0  501    0  0.00000000000E+00  0.00000000000E+00  0.14984622346E+04  0.14984622346E+04  0.25500000920E-02 0.  1.
       -2   -1    0    0    0  501  0.00000000000E+00  0.00000000000E+00 -0.90262952557E+03  0.90262952557E+03  0.25500000920E-02 0. -1.
    10030    2    1    2    0    0  0.00000000000E+00  0.00000000000E+00  0.59583270903E+03  0.24010917602E+04  0.23259890420E+04 0.  0.
        1    1    3    3  502    0  0.82016432669E+03 -0.65536835279E+03  0.81445175521E+03  0.13287245246E+04  0.50400001928E-02 0.  1.
       -1    1    3    3    0  502 -0.82016432669E+03  0.65536835279E+03 -0.21861904618E+03  0.10723672356E+04  0.50400001928E-02 0. -1.
</event>
<event>
 5   0  0.3885219E-05  0.2282548E+04  0.7818609E-02  0.8484834E-01
        1   -1    0    0  501    0  0.00000000000E+00  0.00000000000E+00  0.16987534451E+04  0.16987534451E+04  0.50400001928E-02 0. -1.
       -1   -1    0    0    0  501  0.00000000000E+00  0.00000000000E+00 -0.76674274359E+03  0.76674274361E+03  0.50400001928E-02 0.  1.
    10030    2    1    2    0    0  0.00000000000E+00  0.00000000000E+00  0.93201070154E+03  0.24654961887E+04  0.22825484680E+04 0.  0.
        2    1    3    3  502    0 -0.44146177027E+03 -0.19399701360E+03 -0.65130256600E+03  0.81038161898E+03  0.25500000920E-02 0.  1.
       -2    1    3    3    0  502  0.44146177027E+03  0.19399701360E+03  0.15833132675E+04  0.16551145698E+04  0.25500000920E-02 0. -1.
</event>
<event>
 5   0  0.9641157E-05  0.2324679E+04  0.7818609E-02  0.8468253E-01
        2   -1    0    0  501    0  0.00000000000E+00  0.00000000000E+00  0.22488754834E+04  0.22488754834E+04  0.25500000920E-02 0. -1.
       -2   -1    0    0    0  501  0.00000000000E+00  0.00000000000E+00 -0.60075963828E+03  0.60075963829E+03  0.25500000920E-02 0.  1.
    10030    2    1    2    0    0  0.00000000000E+00  0.00000000000E+00  0.16481158451E+04  0.28496351217E+04  0.23246794376E+04 0.  0.
        3    1    3    3  502    0 -0.49226608029E+03 -0.40853280363E+03 -0.36556006374E+03  0.73678973653E+03  0.10100000352E+00 0.  1.
       -3    1    3    3    0  502  0.49226608029E+03  0.40853280363E+03  0.20136759088E+04  0.21128453851E+04  0.10100000352E+00 0. -1.
</event>
<event>
 5   0  0.9312074E-05  0.2351458E+04  0.7818609E-02  0.8457904E-01
       -2   -1    0    0    0  501  0.00000000000E+00  0.00000000000E+00  0.11127266424E+04  0.11127266424E+04  0.25500000920E-02 0. -1.
        2   -1    0    0  501    0  0.00000000000E+00  0.00000000000E+00 -0.12422986007E+04  0.12422986007E+04  0.25500000920E-02 0.  1.
    10030    2    1    2    0    0  0.00000000000E+00  0.00000000000E+00 -0.12957195834E+03  0.23550252431E+04  0.23514580590E+04 0.  0.
        4    1    3    3  502    0  0.77896482461E+03 -0.59623515841E+03 -0.71388535211E+03  0.12132256472E+04  0.12699999809E+01 0.  1.
       -4    1    3    3    0  502 -0.77896482461E+03  0.59623515841E+03  0.58431339377E+03  0.11417995959E+04  0.12699999809E+01 0. -1.
</event>
<event>
 5   0  0.9483073E-05  0.2315502E+04  0.7818609E-02  0.8471834E-01
        2   -1    0    0  501    0  0.00000000000E+00  0.00000000000E+00  0.21143270290E+04  0.21143270290E+04  0.25500000920E-02 0. -1.
       -2   -1    0    0    0  501  0.00000000000E+00  0.00000000000E+00 -0.63395463549E+03  0.63395463550E+03  0.25500000920E-02 0.  1.
    10030    2    1    2    0    0  0.00000000000E+00  0.00000000000E+00  0.14803723935E+04  0.27482816645E+04  0.23155020371E+04 0.  0.
        5    1    3    3  502    0  0.99100860909E+03 -0.44664689916E+03  0.26724677797E+03  0.11193902117E+04  0.46999998093E+01 0.  1.
       -5    1    3    3    0  502 -0.99100860909E+03  0.44664689916E+03  0.12131256156E+04  0.16288914528E+04  0.46999998093E+01 0. -1.
</event>
<event>
 5   0  0.4139830E-05  0.2310480E+04  0.7818609E-02  0.8473800E-01
       -1   -1    0    0    0  501  0.00000000000E+00  0.00000000000E+00  0.81358984027E+03  0.81358984029E+03  0.50400001928E-02 0. -1.
        1   -1    0    0  501    0  0.00000000000E+00  0.00000000000E+00 -0.16403590357E+04  0.16403590357E+04  0.50400001928E-02 0.  1.
    10030    2    1    2    0    0  0.00000000000E+00  0.00000000000E+00 -0.82676919546E+03  0.24539488760E+04  0.23104799899E+04 0.  0.
        1    1    3    3  502    0  0.88565092910E+03 -0.33650566653E+02  0.37361944951E+03  0.96182192839E+03  0.50400001928E-02 0. -1.
       -1    1    3    3    0  502 -0.88565092910E+03  0.33650566653E+02 -0.12003886450E+04  0.14921269476E+04  0.50400001928E-02 0.  1.
</event>
<event>
 5   0  0.4095451E-05  0.1674775E+04  0.7818609E-02  0.8775884E-01
        1   -1    0    0  501    0  0.00000000000E+00  0.00000000000E+00  0.20287280587E+04  0.20287280587E+04  0.50400001928E-02 0. -1.
       -1   -1    0    0    0  501  0.00000000000E+00  0.00000000000E+00 -0.34564388665E+03  0.34564388668E+03  0.50400001928E-02 0.  1.
    10030    2    1    2    0    0  0.00000000000E+00  0.00000000000E+00  0.16830841720E+04  0.23743719454E+04  0.16747745534E+04 0.  0.
        3    1    3    3  502    0  0.27572394515E+03 -0.42622117230E+03  0.17857193455E+04  0.18564702456E+04  0.10100000352E+00 0. -1.
       -3    1    3    3    0  502 -0.27572394515E+03  0.42622117230E+03 -0.10263517344E+03  0.51790169982E+03  0.10100000352E+00 0.  1.
</event>
<event>
 5   0  0.4005462E-05  0.2445596E+04  0.7818609E-02  0.8422628E-01
       -1   -1    0    0    0  501  0.00000000000E+00  0.00000000000E+00  0.10157868998E+04  0.10157868998E+04  0.50400001928E-02 0. -1.
        1   -1    0    0  501    0  0.00000000000E+00  0.00000000000E+00 -0.14719966221E+04  0.14719966221E+04  0.50400001928E-02 0.  1.
    10030    2    1    2    0    0  0.00000000000E+00  0.00000000000E+00 -0.45620972234E+03  0.24877835219E+04  0.24455959480E+04 0.  0.
        4    1    3    3  502    0 -0.80557375669E+03  0.83466229748E+02 -0.11600514896E+04  0.14147921262E+04  0.12699999809E+01 0.  1.
       -4    1    3    3    0  502  0.80557375669E+03 -0.83466229748E+02  0.70384176725E+03  0.10729913957E+04  0.12699999809E+01 0. -1.
</event>
<event>
 5   0  0.4295775E-05  0.2304664E+04  0.7818609E-02  0.8476084E-01
       -1   -1    0    0    0  501  0.00000000000E+00  0.00000000000E+00  0.93449048238E+03  0.93449048239E+03  0.50400001928E-02 0. -1.
        1   -1    0    0  501    0  0.00000000000E+00  0.00000000000E+00 -0.14209553509E+04  0.14209553509E+04  0.50400001928E-02 0.  1.
    10030    2    1    2    0    0  0.00000000000E+00  0.00000000000E+00 -0.48646486848E+03  0.23554458333E+04  0.23046641849E+04 0.  0.
        5    1    3    3  502    0 -0.22860226755E+03 -0.51973073541E+03  0.78159235710E+03  0.96606818431E+03  0.46999998093E+01 0. -1.
       -5    1    3    3    0  502  0.22860226755E+03  0.51973073541E+03 -0.12680572256E+04  0.13893776489E+04  0.46999998093E+01 0.  1.
</event>
<event>
 5   0  0.9641157E-05  0.2283229E+04  0.7818609E-02  0.8484563E-01
       -2   -1    0    0    0  501  0.00000000000E+00  0.00000000000E+00  0.14409384714E+04  0.14409384714E+04  0.25500000920E-02 0. -1.
        2   -1    0    0  501    0  0.00000000000E+00  0.00000000000E+00 -0.90446880550E+03  0.90446880550E+03  0.25500000920E-02 0.  1.
    10030    2    1    2    0    0  0.00000000000E+00  0.00000000000E+00  0.53646966585E+03  0.23454072769E+04  0.22832292027E+04 0.  0.
        3    1    3    3  502    0  0.26396023541E+03 -0.20677218586E+03 -0.85274563154E+03  0.91629954984E+03  0.10100000352E+00 0.  1.
       -3    1    3    3    0  502 -0.26396023541E+03  0.20677218586E+03  0.13892152974E+04  0.14291077270E+04  0.10100000352E+00 0. -1.
</event>
<event>
 5   0  0.3885219E-05  0.2401683E+04  0.7818609E-02  0.8438874E-01
       -1   -1    0    0    0  501  0.00000000000E+00  0.00000000000E+00  0.22451267018E+04  0.22451267018E+04  0.50400001928E-02 0.  1.
        1   -1    0    0  501    0  0.00000000000E+00  0.00000000000E+00 -0.64228925751E+03  0.64228925753E+03  0.50400001928E-02 0. -1.
    10030    2    1    2    0    0  0.00000000000E+00  0.00000000000E+00  0.16028374443E+04  0.28874159593E+04  0.24016833782E+04 0.  0.
        2    1    3    3  502    0  0.86292956496E+03 -0.51263770274E+03  0.88691674244E+01  0.10037547063E+04  0.25500000920E-02 0. -1.
       -2    1    3    3    0  502 -0.86292956496E+03  0.51263770274E+03  0.15939682768E+04  0.18836612530E+04  0.25500000920E-02 0.  1.
</event>
<event>
 5   0  0.4005462E-05  0.1653704E+04  0.7818609E-02  0.8788218E-01
        1   -1    0    0  501    0  0.00000000000E+00  0.00000000000E+00  0.10538446635E+04  0.10538446635E+04  0.50400001928E-02 0. -1.
       -1   -1    0    0    0  501  0.00000000000E+00  0.00000000000E+00 -0.64875227665E+03  0.64875227667E+03  0.50400001928E-02 0.  1.
    10030    2    1    2    0    0  0.00000000000E+00  0.00000000000E+00  0.40509238680E+03  0.17025969401E+04  0.16537038727E+04 0.  0.
        4    1    3    3  502    0  0.26207576091E+03 -0.59557295865E+03  0.72781816818E+03  0.97627442472E+03  0.12699999809E+01 0. -1.
       -4    1    3    3    0  502 -0.26207576091E+03  0.59557295865E+03 -0.32272578137E+03  0.72632251541E+03  0.12699999809E+01 0.  1.
</event>
<event>
 5   0  0.4095451E-05  0.2304959E+04  0.7818609E-02  0.8475968E-01
        1   -1    0    0  501    0  0.00000000000E+00  0.00000000000E+00  0.85896600076E+03  0.85896600077E+03  0.50400001928E-02 0.  1.
       -1   -1    0    0    0  501  0.00000000000E+00  0.00000000000E+00 -0.15462882147E+04  0.15462882147E+04  0.50400001928E-02 0. -1.
    10030    2    1    2    0    0  0.00000000000E+00  0.00000000000E+00 -0.68732221391E+03  0.24052542154E+04  0.23049590051E+04 0.  0.
        3    1    3    3  502    0  0.10413782213E+04 -0.46572551098E+03 -0.17270280916E+03  0.11537742942E+04  0.10100000352E+00 0.  1.
       -3    1    3    3    0  502 -0.10413782213E+04  0.46572551098E+03 -0.51461940475E+03  0.12514799213E+04  0.10100000352E+00 0. -1.
</event>
<event>
 5   0  0.4005462E-05  0.2370163E+04  0.7818609E-02  0.8450759E-01
       -1   -1    0    0    0  501  0.00000000000E+00  0.00000000000E+00  0.24188064920E+04  0.24188064920E+04  0.50400001928E-02 0. -1.
        1   -1    0    0  501    0  0.00000000000E+00  0.00000000000E+00 -0.58062462852E+03  0.58062462854E+03  0.50400001928E-02 0.  1.
    10030    2    1    2    0    0  0.00000000000E+00  0.00000000000E+00  0.18381818635E+04  0.29994311205E+04  0.23701633875E+04 0.  0.
        4    1    3    3  502    0 -0.37179920419E+03  0.10784042840E+04  0.13256805969E+04  0.17488913934E+04  0.12699999809E+01 0. -1.
       -4    1    3    3    0  502  0.37179920419E+03 -0.10784042840E+04  0.51250126655E+03  0.12505397271E+04  0.12699999809E+01 0.  1.
</event>
<event>
 5   0  0.9535394E-05  0.2276310E+04  0.7818609E-02  0.8487321E-01
        2   -1    0    0  501    0  0.00000000000E+00  0.00000000000E+00  0.18344447685E+04  0.18344447685E+04  0.25500000920E-02 0. -1.
       -2   -1    0    0    0  501  0.00000000000E+00  0.00000000000E+00 -0.70615206992E+03  0.70615206992E+03  0.25500000920E-02 0.  1.
    10030    2    1    2    0    0  0.00000000000E+00  0.00000000000E+00  0.11282926985E+04  0.25405968384E+04  0.22763101462E+04 0.  0.
        2    1    3    3  502    0  0.32596203703E+03  0.87907162836E+03 -0.15604619340E+03  0.95045704367E+03  0.25500000920E-02 0.  1.
       -2    1    3    3    0  502 -0.32596203703E+03 -0.87907162836E+03  0.12843388919E+04  0.15901397947E+04  0.25500000920E-02 0. -1.
</event>
<event>
 5   0  0.9483073E-05  0.2321479E+04  0.7818609E-02  0.8469500E-01
       -2   -1    0    0    0  501  0.00000000000E+00  0.00000000000E+00  0.99376316037E+03  0.99376316038E+03  0.25500000920E-02 0.  1.
        2   -1    0    0  501    0  0.00000000000E+00  0.00000000000E+00 -0.13557720550E+04  0.13557720550E+04  0.25500000920E-02 0. -1.
    10030    2    1    2    0    0  0.00000000000E+00  0.00000000000E+00 -0.36200889466E+03  0.23495352154E+04  0.23214791166E+04 0.  0.
        5    1    3    3  502    0 -0.35372007402E+03  0.40776409794E+03  0.85898649248E+03  0.10145291196E+04  0.46999998093E+01 0.  1.
       -5    1    3    3    0  502  0.35372007402E+03 -0.40776409794E+03 -0.12209953871E+04  0.13350060958E+04  0.46999998093E+01 0. -1.
</event>
<event>
 5   0  0.9641157E-05  0.2260530E+04  0.7818609E-02  0.8493648E-01
        2   -1    0    0  501    0  0.00000000000E+00  0.00000000000E+00  0.11674115157E+04  0.11674115157E+04  0.25500000920E-02 0. -1.
       -2   -1    0    0    0  501  0.00000000000E+00  0.00000000000E+00 -0.10943004423E+04  0.10943004423E+04  0.25500000920E-02 0.  1.
    10030    2    1    2    0    0  0.00000000000E+00  0.00000000000E+00  0.73111073490E+02  0.22617119580E+04  0.22605299715E+04 0.  0.
        3    1    3    3  502    0 -0.38997285720E+03 -0.55521935315E+03 -0.86788149069E+03  0.11016195584E+04  0.10100000352E+00 0.  1.
       -3    1    3    3    0  502  0.38997285720E+03  0.55521935315E+03  0.94099256418E+03  0.11600923996E+04  0.10100000352E+00 0. -1.
</event>
<event>
 5   0  0.9483073E-05  0.2224616E+04  0.7818609E-02  0.8508252E-01
        2   -1    0    0  501    0  0.00000000000E+00  0.00000000000E+00  0.20834650236E+04  0.20834650236E+04  0.25500000920E-02 0. -1.
       -2   -1    0    0    0  501  0.00000000000E+00  0.00000000000E+00 -0.59383252026E+03  0.59383252027E+03  0.25500000920E-02 0.  1.
    10030    2    1    2    0    0  0.00000000000E+00  0.00000000000E+00  0.14896325033E+04  0.26772975438E+04  0.22246161789E+04 0.  0.
        5    1    3    3  502    0  0.75579535034E+03  0.63742396323E+03  0.13154373343E+03  0.99742757346E+03  0.46999998093E+01 0.  1.
       -5    1    3    3    0  502 -0.75579535034E+03 -0.63742396323E+03  0.13580887699E+04  0.16798699704E+04  0.46999998093E+01 0. -1.
</event>
<event>
 5   0  0.4005462E-05  0.2318432E+04  0.7818609E-02  0.8470689E-01
       -1   -1    0    0    0  501  0.00000000000E+00  0.00000000000E+00  0.63152427242E+03  0.63152427244E+03  0.50400001928E-02 0. -1.
        1   -1    0    0  501    0  0.00000000000E+00  0.00000000000E+00 -0.21278380301E+04  0.21278380301E+04  0.50400001928E-02 0.  1.
    10030    2    1    2    0    0  0.00000000000E+00  0.00000000000E+00 -0.14963137576E+04  0.27593623025E+04  0.23184316801E+04 0.  0.
        4    1    3    3  502    0  0.26535412990E+03  0.41383965354E+03 -0.19976263523E+04  0.20572284096E+04  0.12699999809E+01 0.  1.
       -4    1    3    3    0  502 -0.26535412990E+03 -0.41383965354E+03  0.50131259465E+03  0.70213389289E+03  0.12699999809E+01 0. -1.
</event>
<event>
 5   0  0.4095451E-05  0.2122412E+04  0.7818609E-02  0.8551435E-01
        1   -1    0    0  501    0  0.00000000000E+00  0.00000000000E+00  0.93639862871E+03  0.93639862873E+03  0.50400001928E-02 0.  1.
       -1   -1    0    0    0  501  0.00000000000E+00  0.00000000000E+00 -0.12026477139E+04  0.12026477139E+04  0.50400001928E-02 0. -1.
    10030    2    1    2    0    0  0.00000000000E+00  0.00000000000E+00 -0.26624908518E+03  0.21390463426E+04  0.21224115248E+04 0.  0.
        3    1    3    3  502    0  0.69750016358E+03 -0.79789357915E+03 -0.18848243604E+03  0.10764136197E+04  0.10100000352E+00 0.  1.
       -3    1    3    3    0  502 -0.69750016358E+03  0.79789357915E+03 -0.77766649139E+02  0.10626327229E+04  0.10100000352E+00 0. -1.
</event>
<event>
 5   0  0.4095451E-05  0.2300032E+04  0.7818609E-02  0.8477909E-01
       -1   -1    0    0    0  501  0.00000000000E+00  0.00000000000E+00  0.11692851242E+04  0.11692851242E+04  0.50400001928E-02 0.  1.
        1   -1    0    0  501    0  0.00000000000E+00  0.00000000000E+00 -0.11310641885E+04  0.11310641885E+04  0.50400001928E-02 0. -1.
    10030    2    1    2    0    0  0.00000000000E+00  0.00000000000E+00  0.38220935683E+02  0.23003493128E+04  0.23000317652E+04 0.  0.
        3    1    3    3  502    0  0.10342855923E+04  0.20240461272E+03  0.47941547506E+03  0.11578227505E+04  0.10100000352E+00 0.  1.
       -3    1    3    3    0  502 -0.10342855923E+04 -0.20240461272E+03 -0.44119453938E+03  0.11425265623E+04  0.10100000352E+00 0. -1.
</event>
<event>
 5   0  0.4295775E-05  0.2097531E+04  0.7818609E-02  0.8562332E-01
        1   -1    0    0  501    0  0.00000000000E+00  0.00000000000E+00  0.21121838125E+04  0.21121838125E+04  0.50400001928E-02 0. -1.
       -1   -1    0    0    0  501  0.00000000000E+00  0.00000000000E+00 -0.52074482319E+03  0.52074482322E+03  0.50400001928E-02 0.  1.
    10030    2    1    2    0    0  0.00000000000E+00  0.00000000000E+00  0.15914389893E+04  0.26329286358E+04  0.20975307254E+04 0.  0.
        5    1    3    3  502    0 -0.36960788990E+02 -0.59230383892E+03 -0.28968972339E+03  0.66040303100E+03  0.46999998093E+01 0.  1.
       -5    1    3    3    0  502  0.36960788990E+02  0.59230383892E+03  0.18811287127E+04  0.19725256047E+04  0.46999998093E+01 0. -1.
</event>
<event>
 5   0  0.9535394E-05  0.2338283E+04  0.7818609E-02  0.8462978E-01
       -2   -1    0    0    0  501  0.00000000000E+00  0.00000000000E+00  0.10035852293E+04  0.10035852293E+04  0.25500000920E-02 0. -1.
        2   -1    0    0  501    0  0.00000000000E+00  0.00000000000E+00 -0.13620083521E+04  0.13620083521E+04  0.25500000920E-02 0.  1.
    10030    2    1    2    0    0  0.00000000000E+00  0.00000000000E+00 -0.35842312279E+03  0.23655935813E+04  0.23382826726E+04 0.  0.
        2    1    3    3  502    0 -0.91149938932E+03 -0.37373681100E+03 -0.81615314590E+03  0.12793030517E+04  0.25500000920E-02 0.  1.
       -2    1    3    3    0  502  0.91149938932E+03  0.37373681100E+03  0.45773002311E+03  0.10862905296E+04  0.25500000920E-02 0. -1.
</event>
<event>
 5   0  0.9641157E-05  0.2275712E+04  0.7818609E-02  0.8487560E-01
       -2   -1    0    0    0  501  0.00000000000E+00  0.00000000000E+00  0.11323125147E+04  0.11323125147E+04  0.25500000920E-02 0. -1.
        2   -1    0    0  501    0  0.00000000000E+00  0.00000000000E+00 -0.11434262142E+04  0.11434262142E+04  0.25500000920E-02 0.  1.
    10030    2    1    2    0    0  0.00000000000E+00  0.00000000000E+00 -0.11113699586E+02  0.22757387289E+04  0.22757115915E+04 0.  0.
        3    1    3    3  502    0 -0.56007259265E+03  0.98859763888E+03 -0.66460787240E+02  0.11381667923E+04  0.10100000352E+00 0. -1.
       -3    1    3    3    0  502  0.56007259265E+03 -0.98859763888E+03  0.55347087654E+02  0.11375719366E+04  0.10100000352E+00 0.  1.
</event>
<event>
 5   0  0.9641157E-05  0.2288761E+04  0.7818609E-02  0.8482366E-01
        2   -1    0    0  501    0  0.00000000000E+00  0.00000000000E+00  0.12673640334E+04  0.12673640335E+04  0.25500000920E-02 0. -1.
       -2   -1    0    0    0  501  0.00000000000E+00  0.00000000000E+00 -0.10333313704E+04  0.10333313704E+04  0.25500000920E-02 0.  1.
    10030    2    1    2    0    0  0.00000000000E+00  0.00000000000E+00  0.23403266302E+03  0.23006954039E+04  0.22887612488E+04 0.  0.
        3    1    3    3  502    0  0.87639018825E+03 -0.20166157398E+03 -0.59440259320E+03  0.10779803363E+04  0.10100000352E+00 0.  1.
       -3    1    3    3    0  502 -0.87639018825E+03  0.20166157398E+03  0.82843525622E+03  0.12227150676E+04  0.10100000352E+00 0. -1.
</event>
<event>
 5   0  0.3885219E-05  0.2342898E+04  0.7818609E-02  0.8461197E-01
       -1   -1    0    0    0  501  0.00000000000E+00  0.00000000000E+00  0.64698665615E+03  0.64698665617E+03  0.50400001928E-02 0. -1.
        1   -1    0    0  501    0  0.00000000000E+00  0.00000000000E+00 -0.21210517714E+04  0.21210517714E+04  0.50400001928E-02 0.  1.
    10030    2    1    2    0    0  0.00000000000E+00  0.00000000000E+00 -0.14740651153E+04  0.27680384276E+04  0.23428975164E+04 0.  0.
        2    1    3    3  502    0  0.41765869500E+03 -0.86074373027E+02 -0.20260934099E+04  0.20704835399E+04  0.25500000920E-02 0.  1.
       -2    1    3    3    0  502 -0.41765869500E+03  0.86074373027E+02  0.55202829467E+03  0.69755488768E+03  0.25500000920E-02 0. -1.
</event>
<event>
 5   0  0.9312074E-05  0.1894388E+04  0.7818609E-02  0.8657655E-01
        2   -1    0    0  501    0  0.00000000000E+00  0.00000000000E+00  0.24046012828E+04  0.24046012828E+04  0.25500000920E-02 0. -1.
       -2   -1    0    0    0  501  0.00000000000E+00  0.00000000000E+00 -0.37310837958E+03  0.37310837958E+03  0.25500000920E-02 0.  1.
    10030    2    1    2    0    0  0.00000000000E+00  0.00000000000E+00  0.20314929032E+04  0.27777096624E+04  0.18943884376E+04 0.  0.
        4    1    3    3  502    0 -0.79339940582E+03  0.17741974335E+03  0.30310438813E+03  0.86766022468E+03  0.12699999809E+01 0.  1.
       -4    1    3    3    0  502  0.79339940582E+03 -0.17741974335E+03  0.17283885151E+04  0.19100494377E+04  0.12699999809E+01 0. -1.
</event>
<event>
 5   0  0.9641157E-05  0.2286774E+04  0.7818609E-02  0.8483154E-01
       -2   -1    0    0    0  501  0.00000000000E+00  0.00000000000E+00  0.89818633132E+03  0.89818633132E+03  0.25500000920E-02 0.  1.
        2   -1    0    0  501    0  0.00000000000E+00  0.00000000000E+00 -0.14555259142E+04  0.14555259142E+04  0.25500000920E-02 0. -1.
    10030    2    1    2    0    0  0.00000000000E+00  0.00000000000E+00 -0.55733958287E+03  0.23537122455E+04  0.22867736932E+04 0.  0.
        3    1    3    3  502    0  0.16510008523E+03  0.11265158390E+04 -0.38680459126E+03  0.12024615485E+04  0.10100000352E+00 0. -1.
       -3    1    3    3    0  502 -0.16510008523E+03 -0.11265158390E+04 -0.17053499162E+03  0.11512506970E+04  0.10100000352E+00 0.  1.
</event>
<event>
 5   0  0.9641157E-05  0.2289919E+04  0.7818609E-02  0.8481907E-01
        2   -1    0    0  501    0  0.00000000000E+00  0.00000000000E+00  0.17190454270E+04  0.17190454270E+04  0.25500000920E-02 0. -1.
       -2   -1    0    0    0  501  0.00000000000E+00  0.00000000000E+00 -0.76259310191E+03  0.76259310192E+03  0.25500000920E-02 0.  1.
    10030    2    1    2    0    0  0.00000000000E+00  0.00000000000E+00  0.95645232509E+03  0.24816385289E+04  0.22899189370E+04 0.  0.
        3    1    3    3  502    0  0.22577005215E+03 -0.11165638165E+04  0.60294996408E+03  0.12888892668E+04  0.10100000352E+00 0.  1.
       -3    1    3    3    0  502 -0.22577005215E+03  0.11165638165E+04  0.35350236101E+03  0.11927492621E+04  0.10100000352E+00 0. -1.
</event>
<event>
 5   0  0.9641157E-05  0.2390837E+04  0.7818609E-02  0.8442942E-01
       -2   -1    0    0    0  501  0.00000000000E+00  0.00000000000E+00  0.73290593804E+03  0.73290593804E+03  0.25500000920E-02 0.  1.
        2   -1    0    0  501    0  0.00000000000E+00  0.00000000000E+00 -0.19498070189E+04  0.19498070189E+04  0.25500000920E-02 0. -1.
    10030    2    1    2    0    0  0.00000000000E+00  0.00000000000E+00 -0.12169010809E+04  0.26827129570E+04  0.23908367926E+04 0.  0.
        3    1    3    3  502    0 -0.77535638643E+03 -0.50366821871E+03 -0.14586933858E+04  0.17270337590E+04  0.10100000352E+00 0. -1.
       -3    1    3    3    0  502  0.77535638643E+03  0.50366821871E+03  0.24179230498E+03  0.95567919798E+03  0.10100000352E+00 0.  1.
</event>
<event>
 5   0  0.9483073E-05  0.2286952E+04  0.7818609E-02  0.8483084E-01
        2   -1    0    0  501    0  0.00000000000E+00  0.00000000000E+00  0.21758605242E+04  0.21758605242E+04  0.25500000920E-02 0. -1.
       -2   -1    0    0    0  501  0.00000000000E+00  0.00000000000E+00 -0.60092869743E+03  0.60092869743E+03  0.25500000920E-02 0.  1.
    10030    2    1    2    0    0  0.00000000000E+00  0.00000000000E+00  0.15749318268E+04  0.27767892217E+04  0.22869517097E+04 0.  0.
        5    1    3    3  502    0 -0.45338684991E+03 -0.24299618314E+03 -0.45249773514E+03  0.68511537058E+03  0.46999998093E+01 0.  1.
       -5    1    3    3    0  502  0.45338684991E+03  0.24299618314E+03  0.20274295620E+04  0.20916738511E+04  0.46999998093E+01 0. -1.
</event>
<event>
 5   0  0.4095451E-05  0.2238983E+04  0.7818609E-02  0.8502376E-01
        1   -1    0    0  501    0  0.00000000000E+00  0.00000000000E+00  0.15025699839E+04  0.15025699840E+04  0.50400001928E-02 0. -1.
       -1   -1    0    0    0  501  0.00000000000E+00  0.00000000000E+00 -0.83407833029E+03  0.83407833031E+03  0.50400001928E-02 0.  1.
    10030    2    1    2    0    0  0.00000000000E+00  0.00000000000E+00  0.66849165365E+03  0.23366483143E+04  0.22389828614E+04 0.  0.
        3    1    3    3  502    0 -0.79143764202E+03 -0.35029411346E+03  0.10752762798E+04  0.13803255396E+04  0.10100000352E+00 0. -1.
       -3    1    3    3    0  502  0.79143764202E+03  0.35029411346E+03 -0.40678462613E+03  0.95632277469E+03  0.10100000352E+00 0.  1.
</event>
<event>
 5   0  0.3885219E-05  0.2329551E+04  0.7818609E-02  0.8466360E-01
       -1   -1    0    0    0  501  0.00000000000E+00  0.00000000000E+00  0.11291794970E+04  0.11291794970E+04  0.50400001928E-02 0. -1.
        1   -1    0    0  501    0  0.00000000000E+00  0.00000000000E+00 -0.12014932260E+04  0.12014932260E+04  0.50400001928E-02 0.  1.
    10030    2    1    2    0    0  0.00000000000E+00  0.00000000000E+00 -0.72313728971E+02  0.23306727230E+04  0.23295506147E+04 0.  0.
        2    1    3    3  502    0 -0.59565138729E+03 -0.98908156455E+03 -0.18991433261E+03  0.11701069909E+04  0.25500000920E-02 0.  1.
       -2    1    3    3    0  502  0.59565138729E+03  0.98908156455E+03  0.11760060364E+03  0.11605657321E+04  0.25500000920E-02 0. -1.
</event>
<event>
 5   0  0.4005462E-05  0.2432587E+04  0.7818609E-02  0.8427403E-01
       -1   -1    0    0    0  501  0.00000000000E+00  0.00000000000E+00  0.10929791780E+04  0.10929791780E+04  0.50400001928E-02 0.  1.
        1   -1    0    0  501    0  0.00000000000E+00  0.00000000000E+00 -0.13535203466E+04  0.13535203466E+04  0.50400001928E-02 0. -1.
    10030    2    1    2    0    0  0.00000000000E+00  0.00000000000E+00 -0.26054116860E+03  0.24464995247E+04  0.24325867351E+04 0.  0.
        4    1    3    3  502    0 -0.22513611122E+03 -0.11754775556E+04  0.87611473664E+02  0.12000463055E+04  0.12699999809E+01 0. -1.
       -4    1    3    3    0  502  0.22513611122E+03  0.11754775556E+04 -0.34815264226E+03  0.12464532191E+04  0.12699999809E+01 0.  1.
</event>
<event>
 5   0  0.9641157E-05  0.2326821E+04  0.7818609E-02  0.8467420E-01
        2   -1    0    0  501    0  0.00000000000E+00  0.00000000000E+00  0.13406307230E+04  0.13406307230E+04  0.25500000920E-02 0. -1.
       -2   -1    0    0    0  501  0.00000000000E+00  0.00000000000E+00 -0.10096176119E+04  0.10096176119E+04  0.25500000920E-02 0.  1.
    10030    2    1    2    0    0  0.00000000000E+00  0.00000000000E+00  0.33101311109E+03  0.23502483349E+04  0.23268213416E+04 0.  0.
        3    1    3    3  502    0  0.80672610058E+03 -0.25055914466E+03 -0.64250857407E+03  0.10613218948E+04  0.10100000352E+00 0.  1.
       -3    1    3    3    0  502 -0.80672610058E+03  0.25055914466E+03  0.97352168516E+03  0.12889264401E+04  0.10100000352E+00 0. -1.
</event>
<event>
 5   0  0.9641157E-05  0.2268564E+04  0.7818609E-02  0.8490420E-01
        2   -1    0    0  501    0  0.00000000000E+00  0.00000000000E+00  0.17981555952E+04  0.17981555952E+04  0.25500000920E-02 0.  1.
       -2   -1    0    0    0  501  0.00000000000E+00  0.00000000000E+00 -0.71550866695E+03  0.71550866695E+03  0.25500000920E-02 0. -1.
    10030    2    1    2    0    0  0.00000000000E+00  0.00000000000E+00  0.10826469283E+04  0.25136642622E+04  0.22685642269E+04 0.  0.
        3    1    3    3  502    0 -0.10064622637E+03 -0.51449568620E+03  0.16558618639E+04  0.17368690211E+04  0.10100000352E+00 0.  1.
       -3    1    3    3    0  502  0.10064622637E+03  0.51449568620E+03 -0.57321493559E+03  0.77679524109E+03  0.10100000352E+00 0. -1.
</event>
<event>
 5   0  0.9313463E-05  0.2341339E+04  0.7818609E-02  0.8461798E-01
        2   -1    0    0  501    0  0.00000000000E+00  0.00000000000E+00  0.24811087250E+04  0.24811087250E+04  0.25500000920E-02 0.  1.
       -2   -1    0    0    0  501  0.00000000000E+00  0.00000000000E+00 -0.55236087438E+03  0.55236087438E+03  0.25500000920E-02 0. -1.
    10030    2    1    2    0    0  0.00000000000E+00  0.00000000000E+00  0.19287478507E+04  0.30334695994E+04  0.23413392619E+04 0.  0.
        1    1    3    3  502    0  0.29213527212E+03 -0.11331942522E+04  0.92350242926E+03  0.14907477879E+04  0.50400001928E-02 0. -1.
       -1    1    3    3    0  502 -0.29213527212E+03  0.11331942522E+04  0.10052454214E+04  0.15427218115E+04  0.50400001928E-02 0.  1.
</event>
<event>
 5   0  0.4139830E-05  0.2372534E+04  0.7818609E-02  0.8449858E-01
       -1   -1    0    0    0  501  0.00000000000E+00  0.00000000000E+00  0.10261857239E+04  0.10261857239E+04  0.50400001928E-02 0.  1.
        1   -1    0    0  501    0  0.00000000000E+00  0.00000000000E+00 -0.13713209171E+04  0.13713209171E+04  0.50400001928E-02 0. -1.
    10030    2    1    2    0    0  0.00000000000E+00  0.00000000000E+00 -0.34513519318E+03  0.23975066410E+04  0.23725344660E+04 0.  0.
        1    1    3    3  502    0 -0.53977316272E+03 -0.10131880857E+03 -0.12351145880E+04  0.13517132143E+04  0.50400001928E-02 0. -1.
       -1    1    3    3    0  502  0.53977316272E+03  0.10131880857E+03  0.88997939482E+03  0.10457934267E+04  0.50400001928E-02 0.  1.
</event>
<event>
 5   0  0.9535394E-05  0.2276128E+04  0.7818609E-02  0.8487393E-01
       -2   -1    0    0    0  501  0.00000000000E+00  0.00000000000E+00  0.11356071218E+04  0.11356071218E+04  0.25500000920E-02 0. -1.
        2   -1    0    0  501    0  0.00000000000E+00  0.00000000000E+00 -0.11405262422E+04  0.11405262422E+04  0.25500000920E-02 0.  1.
    10030    2    1    2    0    0  0.00000000000E+00  0.00000000000E+00 -0.49191203339E+01  0.22761333640E+04  0.22761280485E+04 0.  0.
        2    1    3    3  502    0  0.11231741299E+03 -0.79900933680E+03 -0.80505635207E+03  0.11398012334E+04  0.25500000920E-02 0.  1.
       -2    1    3    3    0  502 -0.11231741299E+03  0.79900933680E+03  0.80013723173E+03  0.11363321307E+04  0.25500000920E-02 0. -1.
</event>
<event>
 5   0  0.9641157E-05  0.2271805E+04  0.7818609E-02  0.8489122E-01
        2   -1    0    0  501    0  0.00000000000E+00  0.00000000000E+00  0.23400911541E+04  0.23400911541E+04  0.25500000920E-02 0. -1.
       -2   -1    0    0    0  501  0.00000000000E+00  0.00000000000E+00 -0.55137807544E+03  0.55137807545E+03  0.25500000920E-02 0.  1.
    10030    2    1    2    0    0  0.00000000000E+00  0.00000000000E+00  0.17887130787E+04  0.28914692296E+04  0.22718054115E+04 0.  0.
        3    1    3    3  502    0 -0.22800243943E+02 -0.11330655866E+04  0.99226394758E+03  0.15063018378E+04  0.10100000352E+00 0.  1.
       -3    1    3    3    0  502  0.22800243943E+02  0.11330655866E+04  0.79644913111E+03  0.13851673918E+04  0.10100000352E+00 0. -1.
</event>
<event>
 5   0  0.4139830E-05  0.2308645E+04  0.7818609E-02  0.8474520E-01
       -1   -1    0    0    0  501  0.00000000000E+00  0.00000000000E+00  0.10592616472E+04  0.10592616472E+04  0.50400001928E-02 0.  1.
        1   -1    0    0  501    0  0.00000000000E+00  0.00000000000E+00 -0.12579144261E+04  0.12579144261E+04  0.50400001928E-02 0. -1.
    10030    2    1    2    0    0  0.00000000000E+00  0.00000000000E+00 -0.19865277884E+03  0.23171760733E+04  0.23086450633E+04 0.  0.
        1    1    3    3  502    0  0.67009311589E+02 -0.29375737141E+03 -0.12177495751E+04  0.12544710713E+04  0.50400001928E-02 0. -1.
       -1    1    3    3    0  502 -0.67009311589E+02  0.29375737141E+03  0.10190967963E+04  0.10627050020E+04  0.50400001928E-02 0.  1.
</event>
<event>
 5   0  0.9312074E-05  0.2347036E+04  0.7818609E-02  0.8459603E-01
        2   -1    0    0  501    0  0.00000000000E+00  0.00000000000E+00  0.82361362222E+03  0.82361362222E+03  0.25500000920E-02 0.  1.
       -2   -1    0    0    0  501  0.00000000000E+00  0.00000000000E+00 -0.16720754124E+04  0.16720754124E+04  0.25500000920E-02 0. -1.
    10030    2    1    2    0    0  0.00000000000E+00  0.00000000000E+00 -0.84846179020E+03  0.24956890346E+04  0.23470356512E+04 0.  0.
        4    1    3    3  502    0  0.54060458705E+03  0.99272155155E+03 -0.88996285119E+02  0.11338744861E+04  0.12699999809E+01 0.  1.
       -4    1    3    3    0  502 -0.54060458705E+03 -0.99272155155E+03 -0.75946550508E+03  0.13618145486E+04  0.12699999809E+01 0. -1.
</event>
<event>
 5   0  0.4295775E-05  0.2318212E+04  0.7818609E-02  0.8470775E-01
       -1   -1    0    0    0  501  0.00000000000E+00  0.00000000000E+00  0.10672151947E+04  0.10672151948E+04  0.50400001928E-02 0. -1.
        1   -1    0    0  501    0  0.00000000000E+00  0.00000000000E+00 -0.12589090498E+04  0.12589090498E+04  0.50400001928E-02 0.  1.
    10030    2    1    2    0    0  0.00000000000E+00  0.00000000000E+00 -0.19169385502E+03  0.23261242445E+04  0.23182121273E+04 0.  0.
        5    1    3    3  502    0 -0.22242503727E+03 -0.81790146177E+03 -0.88915841308E+03  0.12284382247E+04  0.46999998093E+01 0.  1.
       -5    1    3    3    0  502  0.22242503727E+03  0.81790146177E+03  0.69746455806E+03  0.10976860198E+04  0.46999998093E+01 0. -1.
</event>
<event>
 5   0  0.9483073E-05  0.2293327E+04  0.7818609E-02  0.8480557E-01
       -2   -1    0    0    0  501  0.00000000000E+00  0.00000000000E+00  0.83031107397E+03  0.83031107397E+03  0.25500000920E-02 0. -1.
        2   -1    0    0  501    0  0.00000000000E+00  0.00000000000E+00 -0.15835477995E+04  0.15835477995E+04  0.25500000920E-02 0.  1.
    10030    2    1    2    0    0  0.00000000000E+00  0.00000000000E+00 -0.75323672551E+03  0.24138588735E+04  0.22933270801E+04 0.  0.
        5    1    3    3  502    0 -0.10754065010E+04  0.39521941445E+03 -0.32818176876E+03  0.11918149568E+04  0.46999998093E+01 0.  1.
       -5    1    3    3    0  502  0.10754065010E+04 -0.39521941445E+03 -0.42505495676E+03  0.12220439166E+04  0.46999998093E+01 0. -1.
</event>
<event>
 5   0  0.9312074E-05  0.2261686E+04  0.7818609E-02  0.8493183E-01
       -2   -1    0    0    0  501  0.00000000000E+00  0.00000000000E+00  0.58297572436E+03  0.58297572437E+03  0.25500000920E-02 0.  1.
        2   -1    0    0  501    0  0.00000000000E+00  0.00000000000E+00 -0.21935839181E+04  0.21935839181E+04  0.25500000920E-02 0. -1.
    10030    2    1    2    0    0  0.00000000000E+00  0.00000000000E+00 -0.16106081937E+04  0.27765596425E+04  0.22616862502E+04 0.  0.
        4    1    3    3  502    0 -0.54977887047E+03  0.98424941296E+03 -0.91373311878E+03  0.14511766049E+04  0.12699999809E+01 0. -1.
       -4    1    3    3    0  502  0.54977887047E+03 -0.98424941296E+03 -0.69687507497E+03  0.13253830376E+04  0.12699999809E+01 0.  1.
</event>
<event>
 5   0  0.9641157E-05  0.2362455E+04  0.7818609E-02  0.8453695E-01
        2   -1    0    0  501    0  0.00000000000E+00  0.00000000000E+00  0.18835955142E+04  0.18835955142E+04  0.25500000920E-02 0. -1.
       -2   -1    0    0    0  501  0.00000000000E+00  0.00000000000E+00 -0.74076346000E+03  0.74076346000E+03  0.25500000920E-02 0.  1.
    10030    2    1    2    0    0  0.00000000000E+00  0.00000000000E+00  0.11428320542E+04  0.26243589742E+04  0.23624552739E+04 0.  0.
        3    1    3    3  502    0 -0.80985668109E+03  0.23329009279E+03  0.14908213748E+04  0.17125537928E+04  0.10100000352E+00 0. -1.
       -3    1    3    3    0  502  0.80985668109E+03 -0.23329009279E+03 -0.34798932068E+03  0.91180518139E+03  0.10100000352E+00 0.  1.
</event>
<event>
 5   0  0.9641157E-05  0.2241133E+04  0.7818609E-02  0.8501500E-01
       -2   -1    0    0    0  501  0.00000000000E+00  0.00000000000E+00  0.38588273702E+03  0.38588273703E+03  0.25500000920E-02 0. -1.
        2   -1    0    0  501    0  0.00000000000E+00  0.00000000000E+00 -0.32540182566E+04  0.32540182566E+04  0.25500000920E-02 0.  1.
    10030    2    1    2    0    0  0.00000000000E+00  0.00000000000E+00 -0.28681355195E+04  0.36399009936E+04  0.22411331698E+04 0.  0.
        3    1    3    3  502    0  0.64096860489E+03 -0.17973087997E+03 -0.28980655205E+04  0.29735379118E+04  0.10100000352E+00 0.  1.
       -3    1    3    3    0  502 -0.64096860489E+03  0.17973087997E+03  0.29930000915E+02  0.66636308183E+03  0.10100000352E+00 0. -1.
</event>
<event>
 5   0  0.9312074E-05  0.2365125E+04  0.7818609E-02  0.8452677E-01
        2   -1    0    0  501    0  0.00000000000E+00  0.00000000000E+00  0.11712958088E+04  0.11712958088E+04  0.25500000920E-02 0.  1.
       -2   -1    0    0    0  501  0.00000000000E+00  0.00000000000E+00 -0.11939372331E+04  0.11939372331E+04  0.25500000920E-02 0. -1.
    10030    2    1    2    0    0  0.00000000000E+00  0.00000000000E+00 -0.22641424322E+02  0.23652330419E+04  0.23651246708E+04 0.  0.
        4    1    3    3  502    0 -0.36350990185E+03 -0.78123613502E+03 -0.82128542312E+03  0.11903699872E+04  0.12699999809E+01 0. -1.
       -4    1    3    3    0  502  0.36350990185E+03  0.78123613502E+03  0.79864399880E+03  0.11748630546E+04  0.12699999809E+01 0.  1.
</event>
<event>
 5   0  0.9641157E-05  0.2327743E+04  0.7818609E-02  0.8467062E-01
        2   -1    0    0  501    0  0.00000000000E+00  0.00000000000E+00  0.17490149877E+04  0.17490149877E+04  0.25500000920E-02 0. -1.
       -2   -1    0    0    0  501  0.00000000000E+00  0.00000000000E+00 -0.77449113846E+03  0.77449113846E+03  0.25500000920E-02 0.  1.
    10030    2    1    2    0    0  0.00000000000E+00  0.00000000000E+00  0.97452384921E+03  0.25235061261E+04  0.23277427770E+04 0.  0.
        3    1    3    3  502    0 -0.17005748229E+03 -0.95690022289E+03 -0.20691692064E+03  0.99367610724E+03  0.10100000352E+00 0.  1.
       -3    1    3    3    0  502  0.17005748229E+03  0.95690022289E+03  0.11814407698E+04  0.15298300189E+04  0.10100000352E+00 0. -1.
</event>
<event>
 5   0  0.4295775E-05  0.2309812E+04  0.7818609E-02  0.8474062E-01
       -1   -1    0    0    0  501  0.00000000000E+00  0.00000000000E+00  0.13469717162E+04  0.13469717162E+04  0.50400001928E-02 0.  1.
        1   -1    0    0  501    0  0.00000000000E+00  0.00000000000E+00 -0.99022735313E+03  0.99022735315E+03  0.50400001928E-02 0. -1.
    10030    2    1    2    0    0  0.00000000000E+00  0.00000000000E+00  0.35674436302E+03  0.23371990693E+04  0.23098123190E+04 0.  0.
        5    1    3    3  502    0  0.75735332464E+03  0.50406728979E+03 -0.54148279769E+03  0.10587226271E+04  0.46999998093E+01 0. -1.
       -5    1    3    3    0  502 -0.75735332464E+03 -0.50406728979E+03  0.89822716072E+03  0.12784764422E+04  0.46999998093E+01 0.  1.
</event>
<event>
 5   0  0.9313463E-05  0.2326862E+04  0.7818609E-02  0.8467404E-01
        2   -1    0    0  501    0  0.00000000000E+00  0.00000000000E+00  0.13036668634E+04  0.13036668634E+04  0.25500000920E-02 0.  1.
       -2   -1    0    0    0  501  0.00000000000E+00  0.00000000000E+00 -0.10382807294E+04  0.10382807294E+04  0.25500000920E-02 0. -1.
    10030    2    1    2    0    0  0.00000000000E+00  0.00000000000E+00  0.26538613401E+03  0.23419475928E+04  0.23268624212E+04 0.  0.
        1    1    3    3  502    0 -0.93114348211E+03 -0.87778377320E+02 -0.56377499105E+03  0.10920510374E+04  0.50400001928E-02 0. -1.
       -1    1    3    3    0  502  0.93114348211E+03  0.87778377320E+02  0.82916112506E+03  0.12498965554E+04  0.50400001928E-02 0.  1.
</event>
<event>
 5   0  0.4095451E-05  0.2278072E+04  0.7818609E-02  0.8486617E-01
        1   -1    0    0  501    0  0.00000000000E+00  0.00000000000E+00  0.10482214534E+04  0.10482214534E+04  0.50400001928E-02 0. -1.
       -1   -1    0    0    0  501  0.00000000000E+00  0.00000000000E+00 -0.12377188465E+04  0.12377188465E+04  0.50400001928E-02 0.  1.
    10030    2    1    2    0    0  0.00000000000E+00  0.00000000000E+00 -0.18949739308E+03  0.22859402999E+04  0.22780723853E+04 0.  0.
        3    1    3    3  502    0  0.48098681006E+03 -0.71486345006E+03 -0.84232199956E+03  0.12049416686E+04  0.10100000352E+00 0.  1.
       -3    1    3    3    0  502 -0.48098681006E+03  0.71486345006E+03  0.65282460648E+03  0.10809986312E+04  0.10100000352E+00 0. -1.
</event>
<event>
 5   0  0.9312074E-05  0.2346091E+04  0.7818609E-02  0.8459967E-01
        2   -1    0    0  501    0  0.00000000000E+00  0.00000000000E+00  0.14091855460E+04  0.14091855460E+04  0.25500000920E-02 0. -1.
       -2   -1    0    0    0  501  0.00000000000E+00  0.00000000000E+00 -0.97647604467E+03  0.97647604468E+03  0.25500000920E-02 0.  1.
    10030    2    1    2    0    0  0.00000000000E+00  0.00000000000E+00  0.43270950130E+03  0.23856615907E+04  0.23460911561E+04 0.  0.
        4    1    3    3  502    0 -0.97333642698E+03  0.41242271800E+03  0.73341715352E+03  0.12866151843E+04  0.12699999809E+01 0. -1.
       -4    1    3    3    0  502  0.97333642698E+03 -0.41242271800E+03 -0.30070765221E+03  0.10990464064E+04  0.12699999809E+01 0.  1.
</event>
<event>
 5   0  0.9312074E-05  0.2304324E+04  0.7818609E-02  0.8476218E-01
       -2   -1    0    0    0  501  0.00000000000E+00  0.00000000000E+00  0.96447953105E+03  0.96447953105E+03  0.25500000920E-02 0.  1.
        2   -1    0    0  501    0  0.00000000000E+00  0.00000000000E+00 -0.13763662918E+04  0.13763662918E+04  0.25500000920E-02 0. -1.
    10030    2    1    2    0    0  0.00000000000E+00  0.00000000000E+00 -0.41188676075E+03  0.23408458228E+04  0.23043238624E+04 0.  0.
        4    1    3    3  502    0  0.72989565345E+03  0.47193911660E+03  0.56235126099E+03  0.10352365664E+04  0.12699999809E+01 0. -1.
       -4    1    3    3    0  502 -0.72989565345E+03 -0.47193911660E+03 -0.97423802174E+03  0.13056092565E+04  0.12699999809E+01 0.  1.
</event>
<event>
 5   0  0.3261500E-05  0.2293309E+04  0.7818609E-02  0.8480564E-01
       -3   -1    0    0    0  501  0.00000000000E+00  0.00000000000E+00  0.10585964505E+04  0.10585964554E+04  0.10100000352E+00 0. -1.
        3   -1    0    0  501    0  0.00000000000E+00  0.00000000000E+00 -0.12420379112E+04  0.12420379153E+04  0.10100000352E+00 0.  1.
    10030    2    1    2    0    0  0.00000000000E+00  0.00000000000E+00 -0.18344146064E+03  0.23006343706E+04  0.22933093420E+04 0.  0.
        3    1    3    3  502    0 -0.71367572165E+02  0.36330452324E+03 -0.11804213310E+04  0.12371249071E+04  0.10100000352E+00 0.  1.
       -3    1    3    3    0  502  0.71367572165E+02 -0.36330452324E+03  0.99697987034E+03  0.10635094635E+04  0.10100000352E+00 0. -1.
</event>
<event>
 5   0  0.9312074E-05  0.2507627E+04  0.7818609E-02  0.8400273E-01
       -2   -1    0    0    0  501  0.00000000000E+00  0.00000000000E+00  0.13270187218E+04  0.13270187218E+04  0.25500000920E-02 0. -1.
        2   -1    0    0  501    0  0.00000000000E+00  0.00000000000E+00 -0.11846464634E+04  0.11846464634E+04  0.25500000920E-02 0.  1.
    10030    2    1    2    0    0  0.00000000000E+00  0.00000000000E+00  0.14237225842E+03  0.25116651852E+04  0.25076267949E+04 0.  0.
        4    1    3    3  502    0 -0.63403711771E+03 -0.98119927625E+03 -0.38483967692E+03  0.12299830390E+04  0.12699999809E+01 0.  1.
       -4    1    3    3    0  502  0.63403711771E+03  0.98119927625E+03  0.52721193534E+03  0.12816821462E+04  0.12699999809E+01 0. -1.
</event>
<event>
 5   0  0.9313463E-05  0.2099417E+04  0.7818609E-02  0.8561500E-01
       -2   -1    0    0    0  501  0.00000000000E+00  0.00000000000E+00  0.52097806758E+03  0.52097806759E+03  0.25500000920E-02 0.  1.
        2   -1    0    0  501    0  0.00000000000E+00  0.00000000000E+00 -0.21150376906E+04  0.21150376906E+04  0.25500000920E-02 0. -1.
    10030    2    1    2    0    0  0.00000000000E+00  0.00000000000E+00 -0.15940596230E+04  0.26360157582E+04  0.20994172991E+04 0.  0.
        1    1    3    3  502    0  0.42110510929E+03 -0.86794120473E+03 -0.27745536508E+03  0.10038092088E+04  0.50400001928E-02 0.  1.
       -1    1    3    3    0  502 -0.42110510929E+03  0.86794120473E+03 -0.13166042579E+04  0.16322065494E+04  0.50400001928E-02 0. -1.
</event>
<event>
 5   0  0.4005462E-05  0.2300985E+04  0.7818609E-02  0.8477533E-01
       -1   -1    0    0    0  501  0.00000000000E+00  0.00000000000E+00  0.20320551454E+04  0.20320551454E+04  0.50400001928E-02 0.  1.
        1   -1    0    0  501    0  0.00000000000E+00  0.00000000000E+00 -0.65137673195E+03  0.65137673197E+03  0.50400001928E-02 0. -1.
    10030    2    1    2    0    0  0.00000000000E+00  0.00000000000E+00  0.13806784134E+04  0.26834318774E+04  0.23009853887E+04 0.  0.
        4    1    3    3  502    0  0.32247337258E+03 -0.90714754580E+03 -0.44212022403E+02  0.96377490199E+03  0.12699999809E+01 0. -1.
       -4    1    3    3    0  502 -0.32247337258E+03  0.90714754580E+03  0.14248904358E+04  0.17196569754E+04  0.12699999809E+01 0.  1.
</event>
<event>
 5   0  0.3261500E-05  0.2462605E+04  0.7818609E-02  0.8416430E-01
       -3   -1    0    0    0  501  0.00000000000E+00  0.00000000000E+00  0.10715930489E+04  0.10715930537E+04  0.10100000352E+00 0. -1.
        3   -1    0    0  501    0  0.00000000000E+00  0.00000000000E+00 -0.14148143724E+04  0.14148143760E+04  0.10100000352E+00 0.  1.
    10030    2    1    2    0    0  0.00000000000E+00  0.00000000000E+00 -0.34322132345E+03  0.24864074297E+04  0.24626045215E+04 0.  0.
        5    1    3    3  502    0 -0.19919499078E+02  0.98621916353E+03 -0.91565837653E+03  0.13459113557E+04  0.46999998093E+01 0.  1.
       -5    1    3    3    0  502  0.19919499078E+02 -0.98621916353E+03  0.57243705308E+03  0.11404960739E+04  0.46999998093E+01 0. -1.
</event>
<event>
 5   0  0.4295775E-05  0.2302701E+04  0.7818609E-02  0.8476857E-01
        1   -1    0    0  501    0  0.00000000000E+00  0.00000000000E+00  0.82683557207E+03  0.82683557209E+03  0.50400001928E-02 0.  1.
       -1   -1    0    0    0  501  0.00000000000E+00  0.00000000000E+00 -0.16032304962E+04  0.16032304962E+04  0.50400001928E-02 0. -1.
    10030    2    1    2    0    0  0.00000000000E+00  0.00000000000E+00 -0.77639492412E+03  0.24300660683E+04  0.23027010266E+04 0.  0.
        5    1    3    3  502    0 -0.11271060438E+04  0.16661929073E+03 -0.21333430729E+03  0.11591650610E+04  0.46999998093E+01 0.  1.
       -5    1    3    3    0  502  0.11271060438E+04 -0.16661929073E+03 -0.56306061683E+03  0.12709010073E+04  0.46999998093E+01 0. -1.
</event>
<event>
 5   0  0.9312074E-05  0.1909390E+04  0.7818609E-02  0.8650196E-01
        2   -1    0    0  501    0  0.00000000000E+00  0.00000000000E+00  0.13097786740E+04  0.13097786740E+04  0.25500000920E-02 0.  1.
       -2   -1    0    0    0  501  0.00000000000E+00  0.00000000000E+00 -0.69587550033E+03  0.69587550033E+03  0.25500000920E-02 0. -1.
    10030    2    1    2    0    0  0.00000000000E+00  0.00000000000E+00  0.61390317370E+03  0.20056541744E+04  0.19093903636E+04 0.  0.
        4    1    3    3  502    0  0.59637364020E+03  0.73132038095E+03  0.15491223046E+03  0.95628993007E+03  0.12699999809E+01 0.  1.
       -4    1    3    3    0  502 -0.59637364020E+03 -0.73132038095E+03  0.45899094323E+03  0.10493642443E+04  0.12699999809E+01 0. -1.
</event>
<event>
 5   0  0.9313463E-05  0.2373579E+04  0.7818609E-02  0.8449462E-01
        2   -1    0    0  501    0  0.00000000000E+00  0.00000000000E+00  0.11578782833E+04  0.11578782833E+04  0.25500000920E-02 0.  1.
       -2   -1    0    0    0  501  0.00000000000E+00  0.00000000000E+00 -0.12164223339E+04  0.12164223339E+04  0.25500000920E-02 0. -1.
    10030    2    1    2    0    0  0.00000000000E+00  0.00000000000E+00 -0.58544050602E+02  0.23743006173E+04  0.23735787359E+04 0.  0.
        1    1    3    3  502    0  0.37731411610E+03 -0.70533596040E+03 -0.90623943065E+03  0.12087740339E+04  0.50400001928E-02 0. -1.
       -1    1    3    3    0  502 -0.37731411610E+03  0.70533596040E+03  0.84769538005E+03  0.11655265834E+04  0.50400001928E-02 0.  1.
</event>
<event>
 5   0  0.9535394E-05  0.2235952E+04  0.7818609E-02  0.8503612E-01
       -2   -1    0    0    0  501  0.00000000000E+00  0.00000000000E+00  0.73013834157E+03  0.73013834157E+03  0.25500000920E-02 0. -1.
        2   -1    0    0  501    0  0.00000000000E+00  0.00000000000E+00 -0.17118259872E+04  0.17118259872E+04  0.25500000920E-02 0.  1.
    10030    2    1    2    0    0  0.00000000000E+00  0.00000000000E+00 -0.98168764564E+03  0.24419643288E+04  0.22359515087E+04 0.  0.
        2    1    3    3  502    0 -0.70088661430E+03 -0.76024942435E+03 -0.26655533472E+02  0.10343750533E+04  0.25500000920E-02 0. -1.
       -2    1    3    3    0  502  0.70088661430E+03  0.76024942435E+03 -0.95503211217E+03  0.14075892755E+04  0.25500000920E-02 0.  1.
</event>
<event>
 5   0  0.9483073E-05  0.1575083E+04  0.7818609E-02  0.8836004E-01
        2   -1    0    0  501    0  0.00000000000E+00  0.00000000000E+00  0.13179309220E+04  0.13179309221E+04  0.25500000920E-02 0. -1.
       -2   -1    0    0    0  501  0.00000000000E+00  0.00000000000E+00 -0.47060225295E+03  0.47060225296E+03  0.25500000920E-02 0.  1.
    10030    2    1    2    0    0  0.00000000000E+00  0.00000000000E+00  0.84732866910E+03  0.17885331750E+04  0.15750825517E+04 0.  0.
        5    1    3    3  502    0  0.82690853441E+02 -0.69826349590E+03  0.20932604458E+02  0.70346993602E+03  0.46999998093E+01 0.  1.
       -5    1    3    3    0  502 -0.82690853441E+02  0.69826349590E+03  0.82639606464E+03  0.10850632390E+04  0.46999998093E+01 0. -1.
</event>
<event>
 5   0  0.9535394E-05  0.2259850E+04  0.7818609E-02  0.8493922E-01
        2   -1    0    0  501    0  0.00000000000E+00  0.00000000000E+00  0.70862438213E+03  0.70862438214E+03  0.25500000920E-02 0. -1.
       -2   -1    0    0    0  501  0.00000000000E+00  0.00000000000E+00 -0.18017032369E+04  0.18017032369E+04  0.25500000920E-02 0.  1.
    10030    2    1    2    0    0  0.00000000000E+00  0.00000000000E+00 -0.10930788548E+04  0.25103276191E+04  0.22598502986E+04 0.  0.
        2    1    3    3  502    0  0.30743533394E+03 -0.10530429671E+04 -0.24576094626E+03  0.11241950088E+04  0.25500000920E-02 0.  1.
       -2    1    3    3    0  502 -0.30743533394E+03  0.10530429671E+04 -0.84731790855E+03  0.13861326103E+04  0.25500000920E-02 0. -1.
</event>
<event>
 5   0  0.4095451E-05  0.2319988E+04  0.7818609E-02  0.8470082E-01
        1   -1    0    0  501    0  0.00000000000E+00  0.00000000000E+00  0.20645169950E+04  0.20645169950E+04  0.50400001928E-02 0.  1.
       -1   -1    0    0    0  501  0.00000000000E+00  0.00000000000E+00 -0.65176791361E+03  0.65176791363E+03  0.50400001928E-02 0. -1.
    10030    2    1    2    0    0  0.00000000000E+00  0.00000000000E+00  0.14127490814E+04  0.27162849086E+04  0.23199878745E+04 0.  0.
        3    1    3    3  502    0  0.75453106566E+03  0.58294548114E+03  0.14798624894E+04  0.17604361848E+04  0.10100000352E+00 0. -1.
       -3    1    3    3    0  502 -0.75453106566E+03 -0.58294548114E+03 -0.67113408053E+02  0.95584872379E+03  0.10100000352E+00 0.  1.
</event>
<event>
 5   0  0.9313463E-05  0.2284569E+04  0.7818609E-02  0.8484030E-01
       -2   -1    0    0    0  501  0.00000000000E+00  0.00000000000E+00  0.66726720116E+03  0.66726720116E+03  0.25500000920E-02 0.  1.
        2   -1    0    0  501    0  0.00000000000E+00  0.00000000000E+00 -0.19554590415E+04  0.19554590415E+04  0.25500000920E-02 0. -1.
    10030    2    1    2    0    0  0.00000000000E+00  0.00000000000E+00 -0.12881918404E+04  0.26227262427E+04  0.22845688273E+04 0.  0.
        1    1    3    3  502    0 -0.69684255227E+03  0.62214095460E+03 -0.13987942627E+04  0.16820446782E+04  0.50400001928E-02 0. -1.
       -1    1    3    3    0  502  0.69684255227E+03 -0.62214095460E+03  0.11060242227E+03  0.94068156455E+03  0.50400001928E-02 0.  1.
</event>
<event>
 5   0  0.3885219E-05  0.2254403E+04  0.7818609E-02  0.8496119E-01
       -1   -1    0    0    0  501  0.00000000000E+00  0.00000000000E+00  0.10707779158E+04  0.10707779158E+04  0.50400001928E-02 0. -1.
        1   -1    0    0  501    0  0.00000000000E+00  0.00000000000E+00 -0.11865984919E+04  0.11865984919E+04  0.50400001928E-02 0.  1.
    10030    2    1    2    0    0  0.00000000000E+00  0.00000000000E+00 -0.11582057611E+03  0.22573764078E+04  0.22544032116E+04 0.  0.
        2    1    3    3  502    0 -0.11047874107E+03  0.25782104768E+03 -0.11510946982E+04  0.11847768773E+04  0.25500000920E-02 0.  1.
       -2    1    3    3    0  502  0.11047874107E+03 -0.25782104768E+03  0.10352741221E+04  0.10725995305E+04  0.25500000920E-02 0. -1.
</event>
<event>
 5   0  0.4005462E-05  0.2203707E+04  0.7818609E-02  0.8516887E-01
       -1   -1    0    0    0  501  0.00000000000E+00  0.00000000000E+00  0.58712064799E+03  0.58712064801E+03  0.50400001928E-02 0.  1.
        1   -1    0    0  501    0  0.00000000000E+00  0.00000000000E+00 -0.20678569400E+04  0.20678569400E+04  0.50400001928E-02 0. -1.
    10030    2    1    2    0    0  0.00000000000E+00  0.00000000000E+00 -0.14807362920E+04  0.26549775880E+04  0.22037073368E+04 0.  0.
        4    1    3    3  502    0 -0.51725797998E+03 -0.12702123492E+03  0.42172083827E+03  0.67936756642E+03  0.12699999809E+01 0.  1.
       -4    1    3    3    0  502  0.51725797998E+03  0.12702123492E+03 -0.19024571302E+04  0.19756100216E+04  0.12699999809E+01 0. -1.
</event>
<event>
 5   0  0.9641157E-05  0.2270837E+04  0.7818609E-02  0.8489509E-01
       -2   -1    0    0    0  501  0.00000000000E+00  0.00000000000E+00  0.49283525036E+03  0.49283525037E+03  0.25500000920E-02 0. -1.
        2   -1    0    0  501    0  0.00000000000E+00  0.00000000000E+00 -0.26158347121E+04  0.26158347121E+04  0.25500000920E-02 0.  1.
    10030    2    1    2    0    0  0.00000000000E+00  0.00000000000E+00 -0.21229994617E+04  0.31086699625E+04  0.22708373392E+04 0.  0.
        3    1    3    3  502    0  0.87734468344E+03 -0.14707281142E+03 -0.95624506005E+02  0.89471121697E+03  0.10100000352E+00 0. -1.
       -3    1    3    3    0  502 -0.87734468344E+03  0.14707281142E+03 -0.20273749557E+04  0.22139587455E+04  0.10100000352E+00 0.  1.
</event>
<event>
 5   0  0.9483073E-05  0.2294102E+04  0.7818609E-02  0.8480250E-01
       -2   -1    0    0    0  501  0.00000000000E+00  0.00000000000E+00  0.94769316350E+03  0.94769316351E+03  0.25500000920E-02 0.  1.
        2   -1    0    0  501    0  0.00000000000E+00  0.00000000000E+00 -0.13883463655E+04  0.13883463655E+04  0.25500000920E-02 0. -1.
    10030    2    1    2    0    0  0.00000000000E+00  0.00000000000E+00 -0.44065320196E+03  0.23360395290E+04  0.22941023161E+04 0.  0.
        5    1    3    3  502    0  0.68739129551E+03  0.38093949577E+03  0.63046031677E+03  0.10075336191E+04  0.46999998093E+01 0.  1.
       -5    1    3    3    0  502 -0.68739129551E+03 -0.38093949577E+03 -0.10711135187E+04  0.13285059099E+04  0.46999998093E+01 0. -1.
</event>
<event>
 5   0  0.3261500E-05  0.2307282E+04  0.7818609E-02  0.8475056E-01
        3   -1    0    0  501    0  0.00000000000E+00  0.00000000000E+00  0.96774489192E+03  0.96774489719E+03  0.10100000352E+00 0. -1.
       -3   -1    0    0    0  501  0.00000000000E+00  0.00000000000E+00 -0.13752458027E+04  0.13752458064E+04  0.10100000352E+00 0.  1.
    10030    2    1    2    0    0  0.00000000000E+00  0.00000000000E+00 -0.40750091077E+03  0.23429907036E+04  0.23072816137E+04 0.  0.
        5    1    3    3  502    0  0.35281107556E+03 -0.24375522828E+02  0.91133136530E+03  0.97755652959E+03  0.46999998093E+01 0. -1.
       -5    1    3    3    0  502 -0.35281107556E+03  0.24375522828E+02 -0.13188322761E+04  0.13654341740E+04  0.46999998093E+01 0.  1.
</event>
<event>
 5   0  0.9483073E-05  0.2268997E+04  0.7818609E-02  0.8490246E-01
       -2   -1    0    0    0  501  0.00000000000E+00  0.00000000000E+00  0.14385968708E+04  0.14385968708E+04  0.25500000920E-02 0.  1.
        2   -1    0    0  501    0  0.00000000000E+00  0.00000000000E+00 -0.89468247543E+03  0.89468247543E+03  0.25500000920E-02 0. -1.
    10030    2    1    2    0    0  0.00000000000E+00  0.00000000000E+00  0.54391439537E+03  0.23332793462E+04  0.22689974963E+04 0.  0.
        5    1    3    3  502    0 -0.24453953174E+03  0.59769692618E+03  0.12311333376E+04  0.13902347223E+04  0.46999998093E+01 0.  1.
       -5    1    3    3    0  502  0.24453953174E+03 -0.59769692618E+03 -0.68721894224E+03  0.94304462393E+03  0.46999998093E+01 0. -1.
</event>
<event>
 5   0  0.9313463E-05  0.2404477E+04  0.7818609E-02  0.8437829E-01
       -2   -1    0    0    0  501  0.00000000000E+00  0.00000000000E+00  0.98284070752E+03  0.98284070753E+03  0.25500000920E-02 0. -1.
        2   -1    0    0  501    0  0.00000000000E+00  0.00000000000E+00 -0.14706117233E+04  0.14706117233E+04  0.25500000920E-02 0.  1.
    10030    2    1    2    0    0  0.00000000000E+00  0.00000000000E+00 -0.48777101574E+03  0.24534524308E+04  0.24044767136E+04 0.  0.
        1    1    3    3  502    0  0.56362285316E+03 -0.63992496143E+03 -0.11086154347E+04  0.13986432208E+04  0.50400001928E-02 0.  1.
       -1    1    3    3    0  502 -0.56362285316E+03  0.63992496143E+03  0.62084441901E+03  0.10548092100E+04  0.50400001928E-02 0. -1.
</event>
<event>
 5   0  0.4005462E-05  0.1467737E+04  0.7818609E-02  0.8906195E-01
        1   -1    0    0  501    0  0.00000000000E+00  0.00000000000E+00  0.59119506859E+03  0.59119506861E+03  0.50400001928E-02 0. -1.
       -1   -1    0    0    0  501  0.00000000000E+00  0.00000000000E+00 -0.91097382485E+03  0.91097382487E+03  0.50400001928E-02 0.  1.
    10030    2    1    2    0    0  0.00000000000E+00  0.00000000000E+00 -0.31977875626E+03  0.15021688935E+04  0.14677373510E+04 0.  0.
        4    1    3    3  502    0 -0.31545044500E+03  0.65306993974E+03 -0.27455465128E+03  0.77549416431E+03  0.12699999809E+01 0.  1.
       -4    1    3    3    0  502  0.31545044500E+03 -0.65306993974E+03 -0.45224104980E+02  0.72667472917E+03  0.12699999809E+01 0. -1.
</event>
<event>
 5   0  0.4295775E-05  0.2321292E+04  0.7818609E-02  0.8469573E-01
        1   -1    0    0  501    0  0.00000000000E+00  0.00000000000E+00  0.20163586607E+04  0.20163586607E+04  0.50400001928E-02 0. -1.
       -1   -1    0    0    0  501  0.00000000000E+00  0.00000000000E+00 -0.66808487244E+03  0.66808487246E+03  0.50400001928E-02 0.  1.
    10030    2    1    2    0    0  0.00000000000E+00  0.00000000000E+00  0.13482737883E+04  0.26844435332E+04  0.23212916393E+04 0.  0.
        5    1    3    3  502    0 -0.21473844307E+03  0.57301876790E+03  0.18146353913E+04  0.19150422452E+04  0.46999998093E+01 0. -1.
       -5    1    3    3    0  502  0.21473844307E+03 -0.57301876790E+03 -0.46636160301E+03  0.76940128806E+03  0.46999998093E+01 0.  1.
</event>
<event>
 5   0  0.9483073E-05  0.2310510E+04  0.7818609E-02  0.8473789E-01
        2   -1    0    0  501    0  0.00000000000E+00  0.00000000000E+00  0.94308784630E+03  0.94308784631E+03  0.25500000920E-02 0.  1.
       -2   -1    0    0    0  501  0.00000000000E+00  0.00000000000E+00 -0.14151533976E+04  0.14151533976E+04  0.25500000920E-02 0. -1.
    10030    2    1    2    0    0  0.00000000000E+00  0.00000000000E+00 -0.47206555131E+03  0.23582412439E+04  0.23105098744E+04 0.  0.
        5    1    3    3  502    0 -0.63118164093E+03 -0.16576706286E+02  0.75138592964E+03  0.98146215225E+03  0.46999998093E+01 0.  1.
       -5    1    3    3    0  502  0.63118164093E+03  0.16576706286E+02 -0.12234514810E+04  0.13767790917E+04  0.46999998093E+01 0. -1.
</event>
<event>
 5   0  0.9535394E-05  0.2276052E+04  0.7818609E-02  0.8487424E-01
       -2   -1    0    0    0  501  0.00000000000E+00  0.00000000000E+00  0.17860360191E+04  0.17860360191E+04  0.25500000920E-02 0.  1.
        2   -1    0    0  501    0  0.00000000000E+00  0.00000000000E+00 -0.72512727477E+03  0.72512727477E+03  0.25500000920E-02 0. -1.
    10030    2    1    2    0    0  0.00000000000E+00  0.00000000000E+00  0.10609087443E+04  0.25111632938E+04  0.22760522236E+04 0.  0.
        2    1    3    3  502    0  0.40527651521E+03 -0.38989884071E+03  0.16220130671E+04  0.17167400938E+04  0.25500000920E-02 0.  1.
       -2    1    3    3    0  502 -0.40527651521E+03  0.38989884071E+03 -0.56110432277E+03  0.79442320007E+03  0.25500000920E-02 0. -1.
</event>
<event>
 5   0  0.9641157E-05  0.2337951E+04  0.7818609E-02  0.8463106E-01
       -2   -1    0    0    0  501  0.00000000000E+00  0.00000000000E+00  0.11792055873E+04  0.11792055873E+04  0.25500000920E-02 0. -1.
        2   -1    0    0  501    0  0.00000000000E+00  0.00000000000E+00 -0.11588340289E+04  0.11588340289E+04  0.25500000920E-02 0.  1.
    10030    2    1    2    0    0  0.00000000000E+00  0.00000000000E+00  0.20371558412E+02  0.23380396162E+04  0.23379508649E+04 0.  0.
        3    1    3    3  502    0  0.93537160375E+03  0.63373167097E+03  0.31014329988E+03  0.11716333661E+04  0.10100000352E+00 0. -1.
       -3    1    3    3    0  502 -0.93537160375E+03 -0.63373167097E+03 -0.28977174147E+03  0.11664062501E+04  0.10100000352E+00 0.  1.
</event>
<event>
 5   0  0.4139830E-05  0.2222733E+04  0.7818609E-02  0.8509025E-01
       -1   -1    0    0    0  501  0.00000000000E+00  0.00000000000E+00  0.62644961854E+03  0.62644961856E+03  0.50400001928E-02 0. -1.
        1   -1    0    0  501    0  0.00000000000E+00  0.00000000000E+00 -0.19716431225E+04  0.19716431225E+04  0.50400001928E-02 0.  1.
    10030    2    1    2    0    0  0.00000000000E+00  0.00000000000E+00 -0.13451935040E+04  0.25980927411E+04  0.22227326263E+04 0.  0.
        1    1    3    3  502    0 -0.67634659478E+03  0.84889835295E+03 -0.39338047143E+03  0.11544788111E+04  0.50400001928E-02 0. -1.
       -1    1    3    3    0  502  0.67634659478E+03 -0.84889835295E+03 -0.95181303255E+03  0.14436139300E+04  0.50400001928E-02 0.  1.
</event>
<event>
 5   0  0.9641157E-05  0.2285001E+04  0.7818609E-02  0.8483858E-01
       -2   -1    0    0    0  501  0.00000000000E+00  0.00000000000E+00  0.91412064853E+03  0.91412064853E+03  0.25500000920E-02 0.  1.
        2   -1    0    0  501    0  0.00000000000E+00  0.00000000000E+00 -0.14279380746E+04  0.14279380746E+04  0.25500000920E-02 0. -1.
    10030    2    1    2    0    0  0.00000000000E+00  0.00000000000E+00 -0.51381742606E+03  0.23420587231E+04  0.22850012506E+04 0.  0.
        3    1    3    3  502    0 -0.94245379331E+03 -0.60895661675E+03 -0.47736161418E+03  0.12193938800E+04  0.10100000352E+00 0. -1.
       -3    1    3    3    0  502  0.94245379331E+03  0.60895661675E+03 -0.36455811876E+02  0.11226648431E+04  0.10100000352E+00 0.  1.
</event>
<event>
 5   0  0.9483073E-05  0.2339261E+04  0.7818609E-02  0.8462600E-01
        2   -1    0    0  501    0  0.00000000000E+00  0.00000000000E+00  0.82321703551E+03  0.82321703551E+03  0.25500000920E-02 0. -1.
       -2   -1    0    0    0  501  0.00000000000E+00  0.00000000000E+00 -0.16618165196E+04  0.16618165196E+04  0.25500000920E-02 0.  1.
    10030    2    1    2    0    0  0.00000000000E+00  0.00000000000E+00 -0.83859948408E+03  0.24850335551E+04  0.23392611388E+04 0.  0.
        5    1    3    3  502    0 -0.12994537166E+03  0.30278523341E+02 -0.16536953578E+04  0.16590759521E+04  0.46999998093E+01 0.  1.
       -5    1    3    3    0  502  0.12994537166E+03 -0.30278523341E+02  0.81509587370E+03  0.82595760298E+03  0.46999998093E+01 0. -1.
</event>
<event>
 5   0  0.4139830E-05  0.2177279E+04  0.7818609E-02  0.8527945E-01
       -1   -1    0    0    0  501  0.00000000000E+00  0.00000000000E+00  0.12151236121E+04  0.12151236121E+04  0.50400001928E-02 0.  1.
        1   -1    0    0  501    0  0.00000000000E+00  0.00000000000E+00 -0.97532175707E+03  0.97532175709E+03  0.50400001928E-02 0. -1.
    10030    2    1    2    0    0  0.00000000000E+00  0.00000000000E+00  0.23980185506E+03  0.21904453692E+04  0.21772794919E+04 0.  0.
        1    1    3    3  502    0  0.10807029210E+04  0.56513748977E+02  0.23903952362E+03  0.11082655373E+04  0.50400001928E-02 0.  1.
       -1    1    3    3    0  502 -0.10807029210E+04 -0.56513748977E+02  0.76233143629E+00  0.10821798319E+04  0.50400001928E-02 0. -1.
</event>
<event>
 5   0  0.3885219E-05  0.2254228E+04  0.7818609E-02  0.8496190E-01
        1   -1    0    0  501    0  0.00000000000E+00  0.00000000000E+00  0.96925197734E+03  0.96925197735E+03  0.50400001928E-02 0. -1.
       -1   -1    0    0    0  501  0.00000000000E+00  0.00000000000E+00 -0.13106867518E+04  0.13106867518E+04  0.50400001928E-02 0.  1.
    10030    2    1    2    0    0  0.00000000000E+00  0.00000000000E+00 -0.34143477448E+03  0.22799387292E+04  0.22542277843E+04 0.  0.
        2    1    3    3  502    0 -0.79056143193E+03  0.51618898231E+03 -0.79332550135E+03  0.12332087391E+04  0.25500000920E-02 0.  1.
       -2    1    3    3    0  502  0.79056143193E+03 -0.51618898231E+03  0.45189072687E+03  0.10467299901E+04  0.25500000920E-02 0. -1.
</event>
<event>
 5   0  0.9312074E-05  0.2262635E+04  0.7818609E-02  0.8492801E-01
       -2   -1    0    0    0  501  0.00000000000E+00  0.00000000000E+00  0.11997485218E+04  0.11997485218E+04  0.25500000920E-02 0.  1.
        2   -1    0    0  501    0  0.00000000000E+00  0.00000000000E+00 -0.10667891752E+04  0.10667891752E+04  0.25500000920E-02 0. -1.
    10030    2    1    2    0    0  0.00000000000E+00  0.00000000000E+00  0.13295934661E+03  0.22665376971E+04  0.22626345141E+04 0.  0.
        4    1    3    3  502    0  0.48045587470E+03  0.68808371410E+03 -0.69349901889E+03  0.10886870750E+04  0.12699999809E+01 0. -1.
       -4    1    3    3    0  502 -0.48045587470E+03 -0.68808371410E+03  0.82645836550E+03  0.11778506221E+04  0.12699999809E+01 0.  1.
</event>
<event>
 5   0  0.9312074E-05  0.2296143E+04  0.7818609E-02  0.8479443E-01
        2   -1    0    0  501    0  0.00000000000E+00  0.00000000000E+00  0.14674311951E+04  0.14674311951E+04  0.25500000920E-02 0. -1.
       -2   -1    0    0    0  501  0.00000000000E+00  0.00000000000E+00 -0.89821453927E+03  0.89821453927E+03  0.25500000920E-02 0.  1.
    10030    2    1    2    0    0  0.00000000000E+00  0.00000000000E+00  0.56921665581E+03  0.23656457344E+04  0.22961428830E+04 0.  0.
        4    1    3    3  502    0  0.84565404363E+03 -0.77176581729E+03  0.37271403445E+03  0.12040226753E+04  0.12699999809E+01 0. -1.
       -4    1    3    3    0  502 -0.84565404363E+03  0.77176581729E+03  0.19650262136E+03  0.11616230591E+04  0.12699999809E+01 0.  1.
</event>
<event>
 5   0  0.9535394E-05  0.1963299E+04  0.7818609E-02  0.8623974E-01
       -2   -1    0    0    0  501  0.00000000000E+00  0.00000000000E+00  0.55455228959E+03  0.55455228960E+03  0.25500000920E-02 0. -1.
        2   -1    0    0  501    0  0.00000000000E+00  0.00000000000E+00 -0.17376828584E+04  0.17376828584E+04  0.25500000920E-02 0.  1.
    10030    2    1    2    0    0  0.00000000000E+00  0.00000000000E+00 -0.11831305688E+04  0.22922351480E+04  0.19632992718E+04 0.  0.
        2    1    3    3  502    0  0.10672427625E+03 -0.45737674632E+02  0.54650651737E+03  0.55870509176E+03  0.25500000920E-02 0. -1.
       -2    1    3    3    0  502 -0.10672427625E+03  0.45737674632E+02 -0.17296370861E+04  0.17335300562E+04  0.25500000920E-02 0.  1.
</event>
<event>
 5   0  0.9313463E-05  0.2286502E+04  0.7818609E-02  0.8483262E-01
        2   -1    0    0  501    0  0.00000000000E+00  0.00000000000E+00  0.19022834664E+04  0.19022834664E+04  0.25500000920E-02 0. -1.
       -2   -1    0    0    0  501  0.00000000000E+00  0.00000000000E+00 -0.68708119228E+03  0.68708119228E+03  0.25500000920E-02 0.  1.
    10030    2    1    2    0    0  0.00000000000E+00  0.00000000000E+00  0.12152022741E+04  0.25893646587E+04  0.22865023002E+04 0.  0.
        1    1    3    3  502    0 -0.13354611787E+03 -0.10810775732E+04  0.10006466438E+04  0.14791406257E+04  0.50400001928E-02 0. -1.
       -1    1    3    3    0  502  0.13354611787E+03  0.10810775732E+04  0.21455563039E+03  0.11102240330E+04  0.50400001928E-02 0.  1.
</event>
<event>
 5   0  0.9312074E-05  0.2278571E+04  0.7818609E-02  0.8486419E-01
       -2   -1    0    0    0  501  0.00000000000E+00  0.00000000000E+00  0.25943067720E+04  0.25943067720E+04  0.25500000920E-02 0. -1.
        2   -1    0    0  501    0  0.00000000000E+00  0.00000000000E+00 -0.50031512296E+03  0.50031512296E+03  0.25500000920E-02 0.  1.
    10030    2    1    2    0    0  0.00000000000E+00  0.00000000000E+00  0.20939916491E+04  0.30946218950E+04  0.22785705270E+04 0.  0.
        4    1    3    3  502    0 -0.49833805885E+03  0.49964929261E+03  0.22617388902E+04  0.23692730229E+04  0.12699999809E+01 0. -1.
       -4    1    3    3    0  502  0.49833805885E+03 -0.49964929261E+03 -0.16774724112E+03  0.72534887214E+03  0.12699999809E+01 0.  1.
</event>
<event>
 5   0  0.9483073E-05  0.2340860E+04  0.7818609E-02  0.8461983E-01
       -2   -1    0    0    0  501  0.00000000000E+00  0.00000000000E+00  0.47350319821E+03  0.47350319822E+03  0.25500000920E-02 0. -1.
        2   -1    0    0  501    0  0.00000000000E+00  0.00000000000E+00 -0.28931303274E+04  0.28931303274E+04  0.25500000920E-02 0.  1.
    10030    2    1    2    0    0  0.00000000000E+00  0.00000000000E+00 -0.24196271292E+04  0.33666335257E+04  0.23408600666E+04 0.  0.
        5    1    3    3  502    0 -0.19192971130E+03 -0.22682649045E+03  0.41834294265E+03  0.51314732633E+03  0.46999998093E+01 0. -1.
       -5    1    3    3    0  502  0.19192971130E+03  0.22682649045E+03 -0.28379700719E+04  0.28534861993E+04  0.46999998093E+01 0.  1.
</event>
<event>
 5   0  0.4095451E-05  0.2342962E+04  0.7818609E-02  0.8461172E-01
        1   -1    0    0  501    0  0.00000000000E+00  0.00000000000E+00  0.20492998200E+04  0.20492998200E+04  0.50400001928E-02 0.  1.
       -1   -1    0    0    0  501  0.00000000000E+00  0.00000000000E+00 -0.66967630154E+03  0.66967630156E+03  0.50400001928E-02 0. -1.
    10030    2    1    2    0    0  0.00000000000E+00  0.00000000000E+00  0.13796235184E+04  0.27189761215E+04  0.23429618215E+04 0.  0.
        3    1    3    3  502    0 -0.18680920798E+03 -0.10310684117E+04  0.81947338835E+02  0.10510542927E+04  0.10100000352E+00 0. -1.
       -3    1    3    3    0  502  0.18680920798E+03  0.10310684117E+04  0.12976761796E+04  0.16679218288E+04  0.10100000352E+00 0.  1.
</event>
<event>
 5   0  0.4095451E-05  0.2293539E+04  0.7818609E-02  0.8480473E-01
       -1   -1    0    0    0  501  0.00000000000E+00  0.00000000000E+00  0.83249272274E+03  0.83249272276E+03  0.50400001928E-02 0.  1.
        1   -1    0    0  501    0  0.00000000000E+00  0.00000000000E+00 -0.15796897232E+04  0.15796897233E+04  0.50400001928E-02 0. -1.
    10030    2    1    2    0    0  0.00000000000E+00  0.00000000000E+00 -0.74719700051E+03  0.24121824460E+04  0.22935389239E+04 0.  0.
        3    1    3    3  502    0  0.57553130364E+03  0.26228492157E+03 -0.13796647393E+04  0.15177300368E+04  0.10100000352E+00 0. -1.
       -3    1    3    3    0  502 -0.57553130364E+03 -0.26228492157E+03  0.63246773878E+03  0.89445240922E+03  0.10100000352E+00 0.  1.
</event>
<event>
 5   0  0.4005462E-05  0.2284438E+04  0.7818609E-02  0.8484082E-01
        1   -1    0    0  501    0  0.00000000000E+00  0.00000000000E+00  0.20743612752E+04  0.20743612752E+04  0.50400001928E-02 0.  1.
       -1   -1    0    0    0  501  0.00000000000E+00  0.00000000000E+00 -0.62894726678E+03  0.62894726680E+03  0.50400001928E-02 0. -1.
    10030    2    1    2    0    0  0.00000000000E+00  0.00000000000E+00  0.14454140084E+04  0.27033085420E+04  0.22844376590E+04 0.  0.
        4    1    3    3  502    0  0.16278468744E+03  0.47213128833E+03  0.19383193562E+04  0.20016219292E+04  0.12699999809E+01 0.  1.
       -4    1    3    3    0  502 -0.16278468744E+03 -0.47213128833E+03 -0.49290534776E+03  0.70168661284E+03  0.12699999809E+01 0. -1.
</event>
<event>
 5   0  0.4139830E-05  0.1531391E+04  0.7818609E-02  0.8863842E-01
        1   -1    0    0  501    0  0.00000000000E+00  0.00000000000E+00  0.66758327669E+03  0.66758327671E+03  0.50400001928E-02 0.  1.
       -1   -1    0    0    0  501  0.00000000000E+00  0.00000000000E+00 -0.87822744579E+03  0.87822744580E+03  0.50400001928E-02 0. -1.
    10030    2    1    2    0    0  0.00000000000E+00  0.00000000000E+00 -0.21064416909E+03  0.15458107225E+04  0.15313914666E+04 0.  0.
        1    1    3    3  502    0  0.54149600522E+01 -0.76565117474E+03 -0.99025338279E+02  0.77204731773E+03  0.50400001928E-02 0.  1.
       -1    1    3    3    0  502 -0.54149600522E+01  0.76565117474E+03 -0.11161883082E+03  0.77376340479E+03  0.50400001928E-02 0. -1.
</event>
<event>
 5   0  0.9313463E-05  0.2582556E+04  0.7818609E-02  0.8374151E-01
       -2   -1    0    0    0  501  0.00000000000E+00  0.00000000000E+00  0.68361707547E+03  0.68361707547E+03  0.25500000920E-02 0. -1.
        2   -1    0    0  501    0  0.00000000000E+00  0.00000000000E+00 -0.24390835198E+04  0.24390835198E+04  0.25500000920E-02 0.  1.
    10030    2    1    2    0    0  0.00000000000E+00  0.00000000000E+00 -0.17554664444E+04  0.31227005953E+04  0.25825562086E+04 0.  0.
        1    1    3    3  502    0 -0.79139265344E+03 -0.76227269310E+03 -0.16978524924E+04  0.20223909307E+04  0.50400001928E-02 0.  1.
       -1    1    3    3    0  502  0.79139265344E+03  0.76227269310E+03 -0.57613951970E+02  0.11003096646E+04  0.50400001928E-02 0. -1.
</event>
<event>
 5   0  0.9312074E-05  0.2280942E+04  0.7818609E-02  0.8485474E-01
       -2   -1    0    0    0  501  0.00000000000E+00  0.00000000000E+00  0.17857348940E+04  0.17857348940E+04  0.25500000920E-02 0. -1.
        2   -1    0    0  501    0  0.00000000000E+00  0.00000000000E+00 -0.72836910557E+03  0.72836910558E+03  0.25500000920E-02 0.  1.
    10030    2    1    2    0    0  0.00000000000E+00  0.00000000000E+00  0.10573657885E+04  0.25141039996E+04  0.22809420226E+04 0.  0.
        4    1    3    3  502    0  0.44045045653E+03 -0.10369710902E+04  0.33347176601E+03  0.11749513514E+04  0.12699999809E+01 0. -1.
       -4    1    3    3    0  502 -0.44045045653E+03  0.10369710902E+04  0.72389402245E+03  0.13391526482E+04  0.12699999809E+01 0.  1.
</event>
<event>
 5   0  0.9535394E-05  0.2283234E+04  0.7818609E-02  0.8484561E-01
       -2   -1    0    0    0  501  0.00000000000E+00  0.00000000000E+00  0.72805857525E+03  0.72805857525E+03  0.25500000920E-02 0.  1.
        2   -1    0    0  501    0  0.00000000000E+00  0.00000000000E+00 -0.17900884633E+04  0.17900884633E+04  0.25500000920E-02 0. -1.
    10030    2    1    2    0    0  0.00000000000E+00  0.00000000000E+00 -0.10620298881E+04  0.25181470386E+04  0.22832338962E+04 0.  0.
        2    1    3    3  502    0  0.40746213247E+03 -0.32851500389E+03  0.58793453485E+03  0.78715596577E+03  0.25500000920E-02 0.  1.
       -2    1    3    3    0  502 -0.40746213247E+03  0.32851500389E+03 -0.16499644229E+04  0.17309910728E+04  0.25500000920E-02 0. -1.
</event>
<event>
 5   0  0.4295775E-05  0.1877222E+04  0.7818609E-02  0.8666278E-01
        1   -1    0    0  501    0  0.00000000000E+00  0.00000000000E+00  0.67172974054E+03  0.67172974055E+03  0.50400001928E-02 0.  1.
       -1   -1    0    0    0  501  0.00000000000E+00  0.00000000000E+00 -0.13115253286E+04  0.13115253287E+04  0.50400001928E-02 0. -1.
    10030    2    1    2    0    0  0.00000000000E+00  0.00000000000E+00 -0.63979558811E+03  0.19832550692E+04  0.18772219568E+04 0.  0.
        5    1    3    3  502    0  0.50072404241E+03 -0.34049441108E+03 -0.10775578000E+04  0.12360476985E+04  0.46999998093E+01 0. -1.
       -5    1    3    3    0  502 -0.50072404241E+03  0.34049441108E+03  0.43776221192E+03  0.74720737069E+03  0.46999998093E+01 0.  1.
</event>
<event>
 5   0  0.4095451E-05  0.2331669E+04  0.7818609E-02  0.8465538E-01
        1   -1    0    0  501    0  0.00000000000E+00  0.00000000000E+00  0.20101301666E+04  0.20101301666E+04  0.50400001928E-02 0. -1.
       -1   -1    0    0    0  501  0.00000000000E+00  0.00000000000E+00 -0.67616048277E+03  0.67616048279E+03  0.50400001928E-02 0.  1.
    10030    2    1    2    0    0  0.00000000000E+00  0.00000000000E+00  0.13339696838E+04  0.26862906493E+04  0.23316694310E+04 0.  0.
        3    1    3    3  502    0 -0.85176170196E+03  0.68486479612E+03  0.19952512949E+03  0.11110121842E+04  0.10100000352E+00 0.  1.
       -3    1    3    3    0  502  0.85176170196E+03 -0.68486479612E+03  0.11344445543E+04  0.15752784652E+04  0.10100000352E+00 0. -1.
</event>
<event>
 5   0  0.9313463E-05  0.2334940E+04  0.7818609E-02  0.8464271E-01
        2   -1    0    0  501    0  0.00000000000E+00  0.00000000000E+00  0.11794846556E+04  0.11794846556E+04  0.25500000920E-02 0.  1.
       -2   -1    0    0    0  501  0.00000000000E+00  0.00000000000E+00 -0.11555781955E+04  0.11555781955E+04  0.25500000920E-02 0. -1.
    10030    2    1    2    0    0  0.00000000000E+00  0.00000000000E+00  0.23906460112E+02  0.23350628511E+04  0.23349404703E+04 0.  0.
        1    1    3    3  502    0  0.54789202262E+03 -0.17654423184E+03  0.10276999308E+04  0.11779306780E+04  0.50400001928E-02 0.  1.
       -1    1    3    3    0  502 -0.54789202262E+03  0.17654423184E+03 -0.10037934707E+04  0.11571321731E+04  0.50400001928E-02 0. -1.
</event>
<event>
 5   0  0.4005462E-05  0.2011842E+04  0.7818609E-02  0.8601104E-01
       -1   -1    0    0    0  501  0.00000000000E+00  0.00000000000E+00  0.77226739103E+03  0.77226739105E+03  0.50400001928E-02 0. -1.
        1   -1    0    0  501    0  0.00000000000E+00  0.00000000000E+00 -0.13102674079E+04  0.13102674079E+04  0.50400001928E-02 0.  1.
    10030    2    1    2    0    0  0.00000000000E+00  0.00000000000E+00 -0.53800001685E+03  0.20825347989E+04  0.20118417360E+04 0.  0.
        4    1    3    3  502    0  0.33696037224E+03  0.53049383212E+03 -0.10820346881E+04  0.12513059888E+04  0.12699999809E+01 0.  1.
       -4    1    3    3    0  502 -0.33696037224E+03 -0.53049383212E+03  0.54403467127E+03  0.83122881015E+03  0.12699999809E+01 0. -1.
</event>
<event>
 5   0  0.4095451E-05  0.1783806E+04  0.7818609E-02  0.8714959E-01
       -1   -1    0    0    0  501  0.00000000000E+00  0.00000000000E+00  0.51836621258E+03  0.51836621260E+03  0.50400001928E-02 0. -1.
        1   -1    0    0  501    0  0.00000000000E+00  0.00000000000E+00 -0.15346116114E+04  0.15346116114E+04  0.50400001928E-02 0.  1.
    10030    2    1    2    0    0  0.00000000000E+00  0.00000000000E+00 -0.10162453988E+04  0.20529778240E+04  0.17838058289E+04 0.  0.
        3    1    3    3  502    0 -0.22375598761E+03  0.80207092847E+03 -0.87588136206E+03  0.12085332792E+04  0.10100000352E+00 0.  1.
       -3    1    3    3    0  502  0.22375598761E+03 -0.80207092847E+03 -0.14036403678E+03  0.84444454484E+03  0.10100000352E+00 0. -1.
</event>
<event>
 5   0  0.4139830E-05  0.2330640E+04  0.7818609E-02  0.8465937E-01
       -1   -1    0    0    0  501  0.00000000000E+00  0.00000000000E+00  0.73340747503E+03  0.73340747504E+03  0.50400001928E-02 0. -1.
        1   -1    0    0  501    0  0.00000000000E+00  0.00000000000E+00 -0.18515912714E+04  0.18515912714E+04  0.50400001928E-02 0.  1.
    10030    2    1    2    0    0  0.00000000000E+00  0.00000000000E+00 -0.11181837964E+04  0.25849987465E+04  0.23306401517E+04 0.  0.
        1    1    3    3  502    0  0.48274812496E+03  0.10114724787E+04 -0.91305870817E+03  0.14456135486E+04  0.50400001928E-02 0.  1.
       -1    1    3    3    0  502 -0.48274812496E+03 -0.10114724787E+04 -0.20512508823E+03  0.11393851979E+04  0.50400001928E-02 0. -1.
</event>
<event>
 5   0  0.4295775E-05  0.2299736E+04  0.7818609E-02  0.8478025E-01
       -1   -1    0    0    0  501  0.00000000000E+00  0.00000000000E+00  0.12499376390E+04  0.12499376390E+04  0.50400001928E-02 0. -1.
        1   -1    0    0  501    0  0.00000000000E+00  0.00000000000E+00 -0.10578096137E+04  0.10578096137E+04  0.50400001928E-02 0.  1.
    10030    2    1    2    0    0  0.00000000000E+00  0.00000000000E+00  0.19212802525E+03  0.23077472527E+04  0.22997356814E+04 0.  0.
        5    1    3    3  502    0 -0.10713397457E+04  0.32355356390E+03 -0.16889787367E+03  0.11318146232E+04  0.46999998093E+01 0.  1.
       -5    1    3    3    0  502  0.10713397457E+04 -0.32355356390E+03  0.36102589892E+03  0.11759326295E+04  0.46999998093E+01 0. -1.
</event>
<event>
 5   0  0.4095451E-05  0.2253632E+04  0.7818609E-02  0.8496431E-01
       -1   -1    0    0    0  501  0.00000000000E+00  0.00000000000E+00  0.85641292242E+03  0.85641292243E+03  0.50400001928E-02 0.  1.
        1   -1    0    0  501    0  0.00000000000E+00  0.00000000000E+00 -0.14825962228E+04  0.14825962228E+04  0.50400001928E-02 0. -1.
    10030    2    1    2    0    0  0.00000000000E+00  0.00000000000E+00 -0.62618330041E+03  0.23390091453E+04  0.22536322362E+04 0.  0.
        3    1    3    3  502    0 -0.86322849190E+03  0.65298570894E+03  0.12083906738E+02  0.10824508286E+04  0.10100000352E+00 0.  1.
       -3    1    3    3    0  502  0.86322849190E+03 -0.65298570894E+03 -0.63826720715E+03  0.12565583167E+04  0.10100000352E+00 0. -1.
</event>
<event>
 5   0  0.9312074E-05  0.2322228E+04  0.7818609E-02  0.8469208E-01
       -2   -1    0    0    0  501  0.00000000000E+00  0.00000000000E+00  0.10558338294E+04  0.10558338294E+04  0.25500000920E-02 0.  1.
        2   -1    0    0  501    0  0.00000000000E+00  0.00000000000E+00 -0.12768915310E+04  0.12768915310E+04  0.25500000920E-02 0. -1.
    10030    2    1    2    0    0  0.00000000000E+00  0.00000000000E+00 -0.22105770165E+03  0.23327253604E+04  0.23222276158E+04 0.  0.
        4    1    3    3  502    0  0.38555103827E+03  0.10791116679E+04 -0.29859717009E+03  0.11841847312E+04  0.12699999809E+01 0. -1.
       -4    1    3    3    0  502 -0.38555103827E+03 -0.10791116679E+04  0.77539468432E+02  0.11485406292E+04  0.12699999809E+01 0.  1.
</event>
<event>
 5   0  0.9313463E-05  0.2308372E+04  0.7818609E-02  0.8474628E-01
        2   -1    0    0  501    0  0.00000000000E+00  0.00000000000E+00  0.23712607432E+04  0.23712607432E+04  0.25500000920E-02 0. -1.
       -2   -1    0    0    0  501  0.00000000000E+00  0.00000000000E+00 -0.56178773670E+03  0.56178773670E+03  0.25500000920E-02 0.  1.
    10030    2    1    2    0    0  0.00000000000E+00  0.00000000000E+00  0.18094730065E+04  0.29330484799E+04  0.23083718990E+04 0.  0.
        1    1    3    3  502    0  0.11676574442E+03  0.97681815475E+03  0.16716833325E+04  0.19396734546E+04  0.50400001928E-02 0. -1.
       -1    1    3    3    0  502 -0.11676574442E+03 -0.97681815475E+03  0.13778967403E+03  0.99337502527E+03  0.50400001928E-02 0.  1.
</event>
<event>
 5   0  0.4005462E-05  0.1553247E+04  0.7818609E-02  0.8849796E-01
        1   -1    0    0  501    0  0.00000000000E+00  0.00000000000E+00  0.65561623286E+03  0.65561623288E+03  0.50400001928E-02 0. -1.
       -1   -1    0    0    0  501  0.00000000000E+00  0.00000000000E+00 -0.91996514462E+03  0.91996514463E+03  0.50400001928E-02 0.  1.
    10030    2    1    2    0    0  0.00000000000E+00  0.00000000000E+00 -0.26434891175E+03  0.15755813775E+04  0.15532470280E+04 0.  0.
        4    1    3    3  502    0  0.13962390545E+01 -0.76439525135E+03  0.70596390156E+01  0.76443018070E+03  0.12699999809E+01 0.  1.
       -4    1    3    3    0  502 -0.13962390545E+01  0.76439525135E+03 -0.27140855077E+03  0.81115119682E+03  0.12699999809E+01 0. -1.
</event>
<event>
 5   0  0.9483073E-05  0.2225004E+04  0.7818609E-02  0.8508093E-01
       -2   -1    0    0    0  501  0.00000000000E+00  0.00000000000E+00  0.61485666027E+03  0.61485666028E+03  0.25500000920E-02 0. -1.
        2   -1    0    0  501    0  0.00000000000E+00  0.00000000000E+00 -0.20129248794E+04  0.20129248794E+04  0.25500000920E-02 0.  1.
    10030    2    1    2    0    0  0.00000000000E+00  0.00000000000E+00 -0.13980682191E+04  0.26277815397E+04  0.22250036123E+04 0.  0.
        5    1    3    3  502    0  0.10122984617E+04  0.46013823994E+03 -0.65876132555E+03  0.12924642933E+04  0.46999998093E+01 0.  1.
       -5    1    3    3    0  502 -0.10122984617E+04 -0.46013823994E+03 -0.73930689356E+03  0.13353172463E+04  0.46999998093E+01 0. -1.
</event>
<event>
 5   0  0.4005462E-05  0.2319698E+04  0.7818609E-02  0.8470195E-01
        1   -1    0    0  501    0  0.00000000000E+00  0.00000000000E+00  0.81090862365E+03  0.81090862367E+03  0.50400001928E-02 0.  1.
       -1   -1    0    0    0  501  0.00000000000E+00  0.00000000000E+00 -0.16589406619E+04  0.16589406619E+04  0.50400001928E-02 0. -1.
    10030    2    1    2    0    0  0.00000000000E+00  0.00000000000E+00 -0.84803203829E+03  0.24698492856E+04  0.23196976432E+04 0.  0.
        4    1    3    3  502    0 -0.69569298924E+03  0.90619243951E+03 -0.21087280033E+03  0.11617411173E+04  0.12699999809E+01 0. -1.
       -4    1    3    3    0  502  0.69569298924E+03 -0.90619243951E+03 -0.63715923796E+03  0.13081081684E+04  0.12699999809E+01 0.  1.
</event>
<event>
 5   0  0.4139830E-05  0.2201481E+04  0.7818609E-02  0.8517812E-01
       -1   -1    0    0    0  501  0.00000000000E+00  0.00000000000E+00  0.58924689789E+03  0.58924689791E+03  0.50400001928E-02 0. -1.
        1   -1    0    0  501    0  0.00000000000E+00  0.00000000000E+00 -0.20562345396E+04  0.20562345396E+04  0.50400001928E-02 0.  1.
    10030    2    1    2    0    0  0.00000000000E+00  0.00000000000E+00 -0.14669876417E+04  0.26454814375E+04  0.22014811594E+04 0.  0.
        1    1    3    3  502    0 -0.18443888053E+03  0.10850979983E+04 -0.74936591208E+03  0.13315422024E+04  0.50400001928E-02 0.  1.
       -1    1    3    3    0  502  0.18443888053E+03 -0.10850979983E+04 -0.71762172959E+03  0.13139392351E+04  0.50400001928E-02 0. -1.
</event>
<event>
 5   0  0.4139830E-05  0.1841504E+04  0.7818609E-02  0.8684534E-01
        1   -1    0    0  501    0  0.00000000000E+00  0.00000000000E+00  0.60320194958E+03  0.60320194960E+03  0.50400001928E-02 0. -1.
       -1   -1    0    0    0  501  0.00000000000E+00  0.00000000000E+00 -0.14054740510E+04  0.14054740510E+04  0.50400001928E-02 0.  1.
    10030    2    1    2    0    0  0.00000000000E+00  0.00000000000E+00 -0.80227210141E+03  0.20086760006E+04  0.18415044802E+04 0.  0.
        1    1    3    3  502    0  0.85592376639E+03 -0.12111233823E+03 -0.74695110683E+03  0.11424577228E+04  0.50400001928E-02 0.  1.
       -1    1    3    3    0  502 -0.85592376639E+03  0.12111233823E+03 -0.55320994582E+02  0.86621827781E+03  0.50400001928E-02 0. -1.
</event>
<event>
 5   0  0.4095451E-05  0.2305548E+04  0.7818609E-02  0.8475737E-01
        1   -1    0    0  501    0  0.00000000000E+00  0.00000000000E+00  0.14247420923E+04  0.14247420923E+04  0.50400001928E-02 0. -1.
       -1   -1    0    0    0  501  0.00000000000E+00  0.00000000000E+00 -0.93272133474E+03  0.93272133476E+03  0.50400001928E-02 0.  1.
    10030    2    1    2    0    0  0.00000000000E+00  0.00000000000E+00  0.49202075759E+03  0.23574634271E+04  0.23055475237E+04 0.  0.
        3    1    3    3  502    0 -0.86036074474E+03  0.30619119027E+02  0.10299083082E+04  0.13423372434E+04  0.10100000352E+00 0. -1.
       -3    1    3    3    0  502  0.86036074474E+03 -0.30619119027E+02 -0.53788755059E+03  0.10151261837E+04  0.10100000352E+00 0.  1.
</event>
<event>
 5   0  0.9483073E-05  0.2262701E+04  0.7818609E-02  0.8492774E-01
        2   -1    0    0  501    0  0.00000000000E+00  0.00000000000E+00  0.16874028415E+04  0.16874028415E+04  0.25500000920E-02 0.  1.
       -2   -1    0    0    0  501  0.00000000000E+00  0.00000000000E+00 -0.75853514628E+03  0.75853514629E+03  0.25500000920E-02 0. -1.
    10030    2    1    2    0    0  0.00000000000E+00  0.00000000000E+00  0.92886769520E+03  0.24459379878E+04  0.22627013601E+04 0.  0.
        5    1    3    3  502    0 -0.10533018839E+04 -0.33306564606E+02  0.19549820046E+02  0.10540201475E+04  0.46999998093E+01 0. -1.
       -5    1    3    3    0  502  0.10533018839E+04  0.33306564606E+02  0.90931787515E+03  0.13919178402E+04  0.46999998093E+01 0.  1.
</event>
<event>
 5   0  0.9313463E-05  0.2020065E+04  0.7818609E-02  0.8597297E-01
        2   -1    0    0  501    0  0.00000000000E+00  0.00000000000E+00  0.18007391546E+04  0.18007391546E+04  0.25500000920E-02 0.  1.
       -2   -1    0    0    0  501  0.00000000000E+00  0.00000000000E+00 -0.56652621779E+03  0.56652621780E+03  0.25500000920E-02 0. -1.
    10030    2    1    2    0    0  0.00000000000E+00  0.00000000000E+00  0.12342129368E+04  0.23672653724E+04  0.20200652885E+04 0.  0.
        1    1    3    3  502    0 -0.20622924557E+03 -0.69051676163E+03 -0.21221566638E+03  0.75125188113E+03  0.50400001928E-02 0. -1.
       -1    1    3    3    0  502  0.20622924557E+03  0.69051676163E+03  0.14464286032E+04  0.16160134913E+04  0.50400001928E-02 0.  1.
</event>
<event>
 5   0  0.4005462E-05  0.2278673E+04  0.7818609E-02  0.8486378E-01
       -1   -1    0    0    0  501  0.00000000000E+00  0.00000000000E+00  0.15005572955E+04  0.15005572955E+04  0.50400001928E-02 0. -1.
        1   -1    0    0  501    0  0.00000000000E+00  0.00000000000E+00 -0.86507032134E+03  0.86507032136E+03  0.50400001928E-02 0.  1.
    10030    2    1    2    0    0  0.00000000000E+00  0.00000000000E+00  0.63548697415E+03  0.23656276169E+04  0.22786729312E+04 0.  0.
        4    1    3    3  502    0  0.74873750363E+03  0.31929491140E+03  0.11453654999E+04  0.14051408581E+04  0.12699999809E+01 0. -1.
       -4    1    3    3    0  502 -0.74873750363E+03 -0.31929491140E+03 -0.50987852577E+03  0.96048675875E+03  0.12699999809E+01 0.  1.
</event>
<event>
 5   0  0.4095451E-05  0.2322702E+04  0.7818609E-02  0.8469023E-01
       -1   -1    0    0    0  501  0.00000000000E+00  0.00000000000E+00  0.69719522229E+03  0.69719522231E+03  0.50400001928E-02 0.  1.
        1   -1    0    0  501    0  0.00000000000E+00  0.00000000000E+00 -0.19345179893E+04  0.19345179893E+04  0.50400001928E-02 0. -1.
    10030    2    1    2    0    0  0.00000000000E+00  0.00000000000E+00 -0.12373227670E+04  0.26317132116E+04  0.23227024774E+04 0.  0.
        3    1    3    3  502    0 -0.46743634020E+03  0.87037365769E+03  0.73040001845E+02  0.99064720674E+03  0.10100000352E+00 0.  1.
       -3    1    3    3    0  502  0.46743634020E+03 -0.87037365769E+03 -0.13103627688E+04  0.16410660049E+04  0.10100000352E+00 0. -1.
</event>
<event>
 5   0  0.9483073E-05  0.2279770E+04  0.7818609E-02  0.8485941E-01
        2   -1    0    0  501    0  0.00000000000E+00  0.00000000000E+00  0.15710951296E+04  0.15710951296E+04  0.25500000920E-02 0. -1.
       -2   -1    0    0    0  501  0.00000000000E+00  0.00000000000E+00 -0.82702669908E+03  0.82702669908E+03  0.25500000920E-02 0.  1.
    10030    2    1    2    0    0  0.00000000000E+00  0.00000000000E+00  0.74406843053E+03  0.23981218287E+04  0.22797698296E+04 0.  0.
        5    1    3    3  502    0  0.60561094219E+03  0.10022429168E+02  0.13877989375E+04  0.15142235777E+04  0.46999998093E+01 0. -1.
       -5    1    3    3    0  502 -0.60561094219E+03 -0.10022429168E+02 -0.64373050700E+03  0.88389825095E+03  0.46999998093E+01 0.  1.
</event>
<event>
 5   0  0.4095451E-05  0.2302431E+04  0.7818609E-02  0.8476963E-01
       -1   -1    0    0    0  501  0.00000000000E+00  0.00000000000E+00  0.89250827713E+03  0.89250827715E+03  0.50400001928E-02 0.  1.
        1   -1    0    0  501    0  0.00000000000E+00  0.00000000000E+00 -0.14849123383E+04  0.14849123383E+04  0.50400001928E-02 0. -1.
    10030    2    1    2    0    0  0.00000000000E+00  0.00000000000E+00 -0.59240406117E+03  0.23774206155E+04  0.23024305008E+04 0.  0.
        3    1    3    3  502    0 -0.38268831247E+03 -0.10735909813E+04 -0.46349303596E+03  0.12303957673E+04  0.10100000352E+00 0. -1.
       -3    1    3    3    0  502  0.38268831247E+03  0.10735909813E+04 -0.12891102521E+03  0.11470248481E+04  0.10100000352E+00 0.  1.
</event>
<event>
 5   0  0.4095451E-05  0.2279571E+04  0.7818609E-02  0.8486020E-01
       -1   -1    0    0    0  501  0.00000000000E+00  0.00000000000E+00  0.14287318052E+04  0.14287318052E+04  0.50400001928E-02 0. -1.
        1   -1    0    0  501    0  0.00000000000E+00  0.00000000000E+00 -0.90927552860E+03  0.90927552862E+03  0.50400001928E-02 0.  1.
    10030    2    1    2    0    0  0.00000000000E+00  0.00000000000E+00  0.51945627657E+03  0.23380073338E+04  0.22795708959E+04 0.  0.
        3    1    3    3  502    0 -0.10036567122E+04  0.54016976878E+03  0.25888109315E+03  0.11688154712E+04  0.10100000352E+00 0. -1.
       -3    1    3    3    0  502  0.10036567122E+04 -0.54016976878E+03  0.26057518342E+03  0.11691918626E+04  0.10100000352E+00 0.  1.
</event>
<event>
 5   0  0.9312074E-05  0.2290069E+04  0.7818609E-02  0.8481847E-01
        2   -1    0    0  501    0  0.00000000000E+00  0.00000000000E+00  0.10722565395E+04  0.10722565395E+04  0.25500000920E-02 0. -1.
       -2   -1    0    0    0  501  0.00000000000E+00  0.00000000000E+00 -0.12227523879E+04  0.12227523879E+04  0.25500000920E-02 0.  1.
    10030    2    1    2    0    0  0.00000000000E+00  0.00000000000E+00 -0.15049584835E+03  0.22950089274E+04  0.22900692078E+04 0.  0.
        4    1    3    3  502    0  0.66228939623E+03  0.93159700273E+03 -0.72605151246E+01  0.11430461705E+04  0.12699999809E+01 0. -1.
       -4    1    3    3    0  502 -0.66228939623E+03 -0.93159700273E+03 -0.14323533322E+03  0.11519627570E+04  0.12699999809E+01 0.  1.
</event>
<event>
 5   0  0.9535394E-05  0.2262247E+04  0.7818609E-02  0.8492957E-01
       -2   -1    0    0    0  501  0.00000000000E+00  0.00000000000E+00  0.14981332346E+04  0.14981332346E+04  0.25500000920E-02 0. -1.
        2   -1    0    0  501    0  0.00000000000E+00  0.00000000000E+00 -0.85402301804E+03  0.85402301804E+03  0.25500000920E-02 0.  1.
    10030    2    1    2    0    0  0.00000000000E+00  0.00000000000E+00  0.64411021653E+03  0.23521562526E+04  0.22622469064E+04 0.  0.
        2    1    3    3  502    0 -0.95504105146E+03 -0.60264767618E+03  0.38905714992E+03  0.11944258443E+04  0.25500000920E-02 0. -1.
       -2    1    3    3    0  502  0.95504105146E+03  0.60264767618E+03  0.25505306661E+03  0.11577304083E+04  0.25500000920E-02 0.  1.
</event>
<event>
 5   0  0.3885219E-05  0.2290243E+04  0.7818609E-02  0.8481778E-01
       -1   -1    0    0    0  501  0.00000000000E+00  0.00000000000E+00  0.13560517619E+04  0.13560517619E+04  0.50400001928E-02 0. -1.
        1   -1    0    0  501    0  0.00000000000E+00  0.00000000000E+00 -0.96700110421E+03  0.96700110422E+03  0.50400001928E-02 0.  1.
    10030    2    1    2    0    0  0.00000000000E+00  0.00000000000E+00  0.38905065769E+03  0.23230528661E+04  0.22902432632E+04 0.  0.
        2    1    3    3  502    0 -0.75927911186E+03  0.66363997055E+03  0.74486674628E+03  0.12536942410E+04  0.25500000920E-02 0. -1.
       -2    1    3    3    0  502  0.75927911186E+03 -0.66363997055E+03 -0.35581608858E+03  0.10693586251E+04  0.25500000920E-02 0.  1.
</event>
<event>
 5   0  0.9535394E-05  0.2339664E+04  0.7818609E-02  0.8462444E-01
       -2   -1    0    0    0  501  0.00000000000E+00  0.00000000000E+00  0.70940518904E+03  0.70940518904E+03  0.25500000920E-02 0.  1.
        2   -1    0    0  501    0  0.00000000000E+00  0.00000000000E+00 -0.19290911518E+04  0.19290911518E+04  0.25500000920E-02 0. -1.
    10030    2    1    2    0    0  0.00000000000E+00  0.00000000000E+00 -0.12196859628E+04  0.26384963409E+04  0.23396643120E+04 0.  0.
        2    1    3    3  502    0  0.33482830050E+03 -0.11208912229E+04 -0.60940800436E+03  0.13190470955E+04  0.25500000920E-02 0.  1.
       -2    1    3    3    0  502 -0.33482830050E+03  0.11208912229E+04 -0.61027795842E+03  0.13194492453E+04  0.25500000920E-02 0. -1.
</event>
<event>
 5   0  0.3885219E-05  0.2335507E+04  0.7818609E-02  0.8464052E-01
        1   -1    0    0  501    0  0.00000000000E+00  0.00000000000E+00  0.77114136523E+03  0.77114136524E+03  0.50400001928E-02 0.  1.
       -1   -1    0    0    0  501  0.00000000000E+00  0.00000000000E+00 -0.17683497732E+04  0.17683497732E+04  0.50400001928E-02 0. -1.
    10030    2    1    2    0    0  0.00000000000E+00  0.00000000000E+00 -0.99720840795E+03  0.25394911384E+04  0.23355065047E+04 0.  0.
        2    1    3    3  502    0  0.49428957496E+03 -0.64559183482E+03  0.41277710049E+03  0.91186398975E+03  0.25500000920E-02 0.  1.
       -2    1    3    3    0  502 -0.49428957496E+03  0.64559183482E+03 -0.14099855084E+04  0.16276271487E+04  0.25500000920E-02 0. -1.
</event>
<event>
 5   0  0.3261500E-05  0.1580248E+04  0.7818609E-02  0.8832775E-01
       -3   -1    0    0    0  501  0.00000000000E+00  0.00000000000E+00  0.20736172045E+04  0.20736172069E+04  0.10100000352E+00 0.  1.
        3   -1    0    0  501    0  0.00000000000E+00  0.00000000000E+00 -0.30106615674E+03  0.30106617369E+03  0.10100000352E+00 0. -1.
    10030    2    1    2    0    0  0.00000000000E+00  0.00000000000E+00  0.17725510477E+04  0.23746833806E+04  0.15802480632E+04 0.  0.
        3    1    3    3  502    0 -0.72016107361E+03  0.31261299497E+03  0.10201543453E+04  0.12872737685E+04  0.10100000352E+00 0.  1.
       -3    1    3    3    0  502  0.72016107361E+03 -0.31261299497E+03  0.75239670246E+03  0.10874096122E+04  0.10100000352E+00 0. -1.
</event>
<event>
 5   0  0.4139830E-05  0.2322170E+04  0.7818609E-02  0.8469231E-01
        1   -1    0    0  501    0  0.00000000000E+00  0.00000000000E+00  0.12231853876E+04  0.12231853876E+04  0.50400001928E-02 0. -1.
       -1   -1    0    0    0  501  0.00000000000E+00  0.00000000000E+00 -0.11021372212E+04  0.11021372212E+04  0.50400001928E-02 0.  1.
    10030    2    1    2    0    0  0.00000000000E+00  0.00000000000E+00  0.12104816634E+03  0.23253226088E+04  0.23221697993E+04 0.  0.
        1    1    3    3  502    0  0.43259109616E+03 -0.31062415888E+03  0.10936689003E+04  0.12164432120E+04  0.50400001928E-02 0. -1.
       -1    1    3    3    0  502 -0.43259109616E+03  0.31062415888E+03 -0.97262073395E+03  0.11088793968E+04  0.50400001928E-02 0.  1.
</event>
<event>
 5   0  0.9535394E-05  0.2223459E+04  0.7818609E-02  0.8508727E-01
       -2   -1    0    0    0  501  0.00000000000E+00  0.00000000000E+00  0.84361813516E+03  0.84361813516E+03  0.25500000920E-02 0. -1.
        2   -1    0    0  501    0  0.00000000000E+00  0.00000000000E+00 -0.14650491909E+04  0.14650491909E+04  0.25500000920E-02 0.  1.
    10030    2    1    2    0    0  0.00000000000E+00  0.00000000000E+00 -0.62143105572E+03  0.23086673260E+04  0.22234586269E+04 0.  0.
        2    1    3    3  502    0  0.93814390495E+03 -0.48950111158E+03  0.43254631534E+02  0.10590544310E+04  0.25500000920E-02 0. -1.
       -2    1    3    3    0  502 -0.93814390495E+03  0.48950111158E+03 -0.66468568726E+03  0.12496128951E+04  0.25500000920E-02 0.  1.
</event>
<event>
 5   0  0.9312074E-05  0.2243219E+04  0.7818609E-02  0.8500652E-01
       -2   -1    0    0    0  501  0.00000000000E+00  0.00000000000E+00  0.10984265411E+04  0.10984265411E+04  0.25500000920E-02 0. -1.
        2   -1    0    0  501    0  0.00000000000E+00  0.00000000000E+00 -0.11452822527E+04  0.11452822527E+04  0.25500000920E-02 0.  1.
    10030    2    1    2    0    0  0.00000000000E+00  0.00000000000E+00 -0.46855711577E+02  0.22437087938E+04  0.22432194930E+04 0.  0.
        4    1    3    3  502    0  0.42729903740E+03 -0.40592063623E+03  0.93106053799E+03  0.11019216708E+04  0.12699999809E+01 0. -1.
       -4    1    3    3    0  502 -0.42729903740E+03  0.40592063623E+03 -0.97791624957E+03  0.11417871230E+04  0.12699999809E+01 0.  1.
</event>
<event>
 5   0  0.9313463E-05  0.2307126E+04  0.7818609E-02  0.8475117E-01
       -2   -1    0    0    0  501  0.00000000000E+00  0.00000000000E+00  0.58802257074E+03  0.58802257075E+03  0.25500000920E-02 0. -1.
        2   -1    0    0  501    0  0.00000000000E+00  0.00000000000E+00 -0.22630221802E+04  0.22630221802E+04  0.25500000920E-02 0.  1.
    10030    2    1    2    0    0  0.00000000000E+00  0.00000000000E+00 -0.16749996095E+04  0.28510447510E+04  0.23071264552E+04 0.  0.
        1    1    3    3  502    0  0.11290198334E+04  0.74717995137E+02 -0.55996448089E+03  0.12624693196E+04  0.50400001928E-02 0. -1.
       -1    1    3    3    0  502 -0.11290198334E+04 -0.74717995137E+02 -0.11150351286E+04  0.15885754313E+04  0.50400001928E-02 0.  1.
</event>
<event>
 5   0  0.9313463E-05  0.2175586E+04  0.7818609E-02  0.8528659E-01
        2   -1    0    0  501    0  0.00000000000E+00  0.00000000000E+00  0.20656670706E+04  0.20656670706E+04  0.25500000920E-02 0. -1.
       -2   -1    0    0    0  501  0.00000000000E+00  0.00000000000E+00 -0.57283825200E+03  0.57283825201E+03  0.25500000920E-02 0.  1.
    10030    2    1    2    0    0  0.00000000000E+00  0.00000000000E+00  0.14928288186E+04  0.26385053226E+04  0.21755855432E+04 0.  0.
        1    1    3    3  502    0  0.54163135574E+03  0.56320476586E+03  0.16642320271E+04  0.18385408273E+04  0.50400001928E-02 0. -1.
       -1    1    3    3    0  502 -0.54163135574E+03 -0.56320476586E+03 -0.17140320848E+03  0.79996449528E+03  0.50400001928E-02 0.  1.
</event>
<event>
 5   0  0.3885219E-05  0.1609438E+04  0.7818609E-02  0.8814771E-01
       -1   -1    0    0    0  501  0.00000000000E+00  0.00000000000E+00  0.38025022792E+03  0.38025022795E+03  0.50400001928E-02 0. -1.
        1   -1    0    0  501    0  0.00000000000E+00  0.00000000000E+00 -0.17030167896E+04  0.17030167896E+04  0.50400001928E-02 0.  1.
    10030    2    1    2    0    0  0.00000000000E+00  0.00000000000E+00 -0.13227665617E+04  0.20832670175E+04  0.16094378179E+04 0.  0.
        2    1    3    3  502    0  0.94165082883E+02 -0.68983025957E+03 -0.13904621351E+03  0.70997654845E+03  0.25500000920E-02 0. -1.
       -2    1    3    3    0  502 -0.94165082883E+02  0.68983025957E+03 -0.11837203481E+04  0.13732904691E+04  0.25500000920E-02 0.  1.
</event>
<event>
 5   0  0.3885219E-05  0.2307645E+04  0.7818609E-02  0.8474913E-01
       -1   -1    0    0    0  501  0.00000000000E+00  0.00000000000E+00  0.95982768944E+03  0.95982768945E+03  0.50400001928E-02 0.  1.
        1   -1    0    0  501    0  0.00000000000E+00  0.00000000000E+00 -0.13870265757E+04  0.13870265757E+04  0.50400001928E-02 0. -1.
    10030    2    1    2    0    0  0.00000000000E+00  0.00000000000E+00 -0.42719888628E+03  0.23468542652E+04  0.23076451316E+04 0.  0.
        2    1    3    3  502    0  0.38556781391E+02 -0.10848913603E+04  0.18397850799E+03  0.11010558480E+04  0.25500000920E-02 0.  1.
       -2    1    3    3    0  502 -0.38556781391E+02  0.10848913603E+04 -0.61117739427E+03  0.12457984172E+04  0.25500000920E-02 0. -1.
</event>
<event>
 5   0  0.9313463E-05  0.2286471E+04  0.7818609E-02  0.8483275E-01
       -2   -1    0    0    0  501  0.00000000000E+00  0.00000000000E+00  0.73206393169E+03  0.73206393169E+03  0.25500000920E-02 0. -1.
        2   -1    0    0  501    0  0.00000000000E+00  0.00000000000E+00 -0.17853459777E+04  0.17853459777E+04  0.25500000920E-02 0.  1.
    10030    2    1    2    0    0  0.00000000000E+00  0.00000000000E+00 -0.10532820460E+04  0.25174099094E+04  0.22864709890E+04 0.  0.
        1    1    3    3  502    0 -0.32831199245E+02  0.19292251091E+03 -0.17667677604E+04  0.17775728683E+04  0.50400001928E-02 0.  1.
       -1    1    3    3    0  502  0.32831199245E+02 -0.19292251091E+03  0.71348571434E+03  0.73983704115E+03  0.50400001928E-02 0. -1.
</event>
<event>
 5   0  0.9483073E-05  0.2502194E+04  0.7818609E-02  0.8402204E-01
        2   -1    0    0  501    0  0.00000000000E+00  0.00000000000E+00  0.17043201237E+04  0.17043201237E+04  0.25500000920E-02 0. -1.
       -2   -1    0    0    0  501  0.00000000000E+00  0.00000000000E+00 -0.91839766079E+03  0.91839766079E+03  0.25500000920E-02 0.  1.
    10030    2    1    2    0    0  0.00000000000E+00  0.00000000000E+00  0.78592246295E+03  0.26227177845E+04  0.25021939292E+04 0.  0.
        5    1    3    3  502    0 -0.89921561375E+03  0.82236816572E+02 -0.51469952528E+03  0.10393696673E+04  0.46999998093E+01 0. -1.
       -5    1    3    3    0  502  0.89921561375E+03 -0.82236816572E+02  0.13006219882E+04  0.15833481172E+04  0.46999998093E+01 0.  1.
</event>
<event>
 5   0  0.9312074E-05  0.2307112E+04  0.7818609E-02  0.8475122E-01
       -2   -1    0    0    0  501  0.00000000000E+00  0.00000000000E+00  0.59431292661E+03  0.59431292662E+03  0.25500000920E-02 0.  1.
        2   -1    0    0  501    0  0.00000000000E+00  0.00000000000E+00 -0.22390425820E+04  0.22390425820E+04  0.25500000920E-02 0. -1.
    10030    2    1    2    0    0  0.00000000000E+00  0.00000000000E+00 -0.16447296554E+04  0.28333555087E+04  0.23071124374E+04 0.  0.
        4    1    3    3  502    0  0.10828252801E+04  0.20794873628E+03 -0.40601117835E+03  0.11749893421E+04  0.12699999809E+01 0.  1.
       -4    1    3    3    0  502 -0.10828252801E+04 -0.20794873628E+03 -0.12387184771E+04  0.16583661666E+04  0.12699999809E+01 0. -1.
</event>
<event>
 5   0  0.4139830E-05  0.2297995E+04  0.7818609E-02  0.8478712E-01
        1   -1    0    0  501    0  0.00000000000E+00  0.00000000000E+00  0.10218211188E+04  0.10218211188E+04  0.50400001928E-02 0. -1.
       -1   -1    0    0    0  501  0.00000000000E+00  0.00000000000E+00 -0.12920019008E+04  0.12920019008E+04  0.50400001928E-02 0.  1.
    10030    2    1    2    0    0  0.00000000000E+00  0.00000000000E+00 -0.27018078201E+03  0.23138230196E+04  0.22979946282E+04 0.  0.
        1    1    3    3  502    0 -0.34179473107E+03  0.59317847311E+03 -0.10642196343E+04  0.12654041920E+04  0.50400001928E-02 0.  1.
       -1    1    3    3    0  502  0.34179473107E+03 -0.59317847311E+03  0.79403885228E+03  0.10484188276E+04  0.50400001928E-02 0. -1.
</event>
<event>
 5   0  0.9641157E-05  0.2284535E+04  0.7818609E-02  0.8484044E-01
       -2   -1    0    0    0  501  0.00000000000E+00  0.00000000000E+00  0.12041041273E+04  0.12041041273E+04  0.25500000920E-02 0. -1.
        2   -1    0    0  501    0  0.00000000000E+00  0.00000000000E+00 -0.10836061818E+04  0.10836061818E+04  0.25500000920E-02 0.  1.
    10030    2    1    2    0    0  0.00000000000E+00  0.00000000000E+00  0.12049794556E+03  0.22877103091E+04  0.22845346799E+04 0.  0.
        3    1    3    3  502    0 -0.74724761665E+02 -0.15912763587E+03  0.11904760428E+04  0.12033863108E+04  0.10100000352E+00 0. -1.
       -3    1    3    3    0  502  0.74724761665E+02  0.15912763587E+03 -0.10699780972E+04  0.10843239983E+04  0.10100000352E+00 0.  1.
</event>
<event>
 5   0  0.9313463E-05  0.2305670E+04  0.7818609E-02  0.8475689E-01
        2   -1    0    0  501    0  0.00000000000E+00  0.00000000000E+00  0.11890635644E+04  0.11890635645E+04  0.25500000920E-02 0. -1.
       -2   -1    0    0    0  501  0.00000000000E+00  0.00000000000E+00 -0.11177104031E+04  0.11177104031E+04  0.25500000920E-02 0.  1.
    10030    2    1    2    0    0  0.00000000000E+00  0.00000000000E+00  0.71353161336E+02  0.23067739676E+04  0.23056701550E+04 0.  0.
        1    1    3    3  502    0 -0.11130619393E+04  0.16879990263E+03 -0.21269300292E+03  0.11457044127E+04  0.50400001928E-02 0.  1.
       -1    1    3    3    0  502  0.11130619393E+04 -0.16879990263E+03  0.28404616426E+03  0.11610695549E+04  0.50400001928E-02 0. -1.
</event>
<event>
 5   0  0.4005462E-05  0.2230073E+04  0.7818609E-02  0.8506014E-01
        1   -1    0    0  501    0  0.00000000000E+00  0.00000000000E+00  0.13803069219E+04  0.13803069219E+04  0.50400001928E-02 0. -1.
       -1   -1    0    0    0  501  0.00000000000E+00  0.00000000000E+00 -0.90074612207E+03  0.90074612208E+03  0.50400001928E-02 0.  1.
    10030    2    1    2    0    0  0.00000000000E+00  0.00000000000E+00  0.47956079983E+03  0.22810530440E+04  0.22300727407E+04 0.  0.
        4    1    3    3  502    0 -0.90277960222E+03 -0.36351444412E+03 -0.31685748524E+03  0.10235008745E+04  0.12699999809E+01 0.  1.
       -4    1    3    3    0  502  0.90277960222E+03  0.36351444412E+03  0.79641828507E+03  0.12575521695E+04  0.12699999809E+01 0. -1.
</event>
<event>
 5   0  0.9641157E-05  0.2344979E+04  0.7818609E-02  0.8460395E-01
       -2   -1    0    0    0  501  0.00000000000E+00  0.00000000000E+00  0.56224684698E+03  0.56224684698E+03  0.25500000920E-02 0. -1.
        2   -1    0    0  501    0  0.00000000000E+00  0.00000000000E+00 -0.24450686010E+04  0.24450686010E+04  0.25500000920E-02 0.  1.
    10030    2    1    2    0    0  0.00000000000E+00  0.00000000000E+00 -0.18828217540E+04  0.30073154479E+04  0.23449794127E+04 0.  0.
        3    1    3    3  502    0 -0.46799083150E+03 -0.31484674695E+03  0.37682410042E+03  0.67833642486E+03  0.10100000352E+00 0. -1.
       -3    1    3    3    0  502  0.46799083150E+03  0.31484674695E+03 -0.22596458544E+04  0.23289790231E+04  0.10100000352E+00 0.  1.
</event>
<event>
 5   0  0.9313463E-05  0.2262955E+04  0.7818609E-02  0.8492672E-01
       -2   -1    0    0    0  501  0.00000000000E+00  0.00000000000E+00  0.21617359078E+04  0.21617359078E+04  0.25500000920E-02 0.  1.
        2   -1    0    0  501    0  0.00000000000E+00  0.00000000000E+00 -0.59222816695E+03  0.59222816695E+03  0.25500000920E-02 0. -1.
    10030    2    1    2    0    0  0.00000000000E+00  0.00000000000E+00  0.15695077409E+04  0.27539640748E+04  0.22629546121E+04 0.  0.
        1    1    3    3  502    0  0.35905406747E+03 -0.55798001138E+03  0.19001181689E+04  0.20126377151E+04  0.50400001928E-02 0.  1.
       -1    1    3    3    0  502 -0.35905406747E+03  0.55798001138E+03 -0.33061042799E+03  0.74132635970E+03  0.50400001928E-02 0. -1.
</event>
<event>
 5   0  0.3885219E-05  0.2255559E+04  0.7818609E-02  0.8495653E-01
        1   -1    0    0  501    0  0.00000000000E+00  0.00000000000E+00  0.13581276711E+04  0.13581276711E+04  0.50400001928E-02 0.  1.
       -1   -1    0    0    0  501  0.00000000000E+00  0.00000000000E+00 -0.93650002612E+03  0.93650002613E+03  0.50400001928E-02 0. -1.
    10030    2    1    2    0    0  0.00000000000E+00  0.00000000000E+00  0.42162764494E+03  0.22946276972E+04  0.22555589990E+04 0.  0.
        2    1    3    3  502    0  0.71664599940E+03 -0.58704443675E+03 -0.44350945510E+03  0.10270848533E+04  0.25500000920E-02 0. -1.
       -2    1    3    3    0  502 -0.71664599940E+03  0.58704443675E+03  0.86513710004E+03  0.12675428439E+04  0.25500000920E-02 0.  1.
</event>
<event>
 5   0  0.9483073E-05  0.1938891E+04  0.7818609E-02  0.8635736E-01
       -2   -1    0    0    0  501  0.00000000000E+00  0.00000000000E+00  0.10997226626E+04  0.10997226626E+04  0.25500000920E-02 0. -1.
        2   -1    0    0  501    0  0.00000000000E+00  0.00000000000E+00 -0.85460144838E+03  0.85460144838E+03  0.25500000920E-02 0.  1.
    10030    2    1    2    0    0  0.00000000000E+00  0.00000000000E+00  0.24512121418E+03  0.19543241110E+04  0.19388910029E+04 0.  0.
        5    1    3    3  502    0  0.59186463512E+03  0.63903278792E+03 -0.30642763529E+03  0.92335618047E+03  0.46999998093E+01 0.  1.
       -5    1    3    3    0  502 -0.59186463512E+03 -0.63903278792E+03  0.55154884947E+03  0.10309679305E+04  0.46999998093E+01 0. -1.
</event>
<event>
 5   0  0.4139830E-05  0.2299262E+04  0.7818609E-02  0.8478212E-01
        1   -1    0    0  501    0  0.00000000000E+00  0.00000000000E+00  0.10432411807E+04  0.10432411807E+04  0.50400001928E-02 0. -1.
       -1   -1    0    0    0  501  0.00000000000E+00  0.00000000000E+00 -0.12668704043E+04  0.12668704043E+04  0.50400001928E-02 0.  1.
    10030    2    1    2    0    0  0.00000000000E+00  0.00000000000E+00 -0.22362922355E+03  0.23101115850E+04  0.22992619480E+04 0.  0.
        1    1    3    3  502    0 -0.59412836474E+03  0.26639717938E+02  0.87667402991E+03  0.10593656324E+04  0.50400001928E-02 0. -1.
       -1    1    3    3    0  502  0.59412836474E+03 -0.26639717938E+02 -0.11003032535E+04  0.12507459526E+04  0.50400001928E-02 0.  1.
</event>
<event>
 5   0  0.9313463E-05  0.2242924E+04  0.7818609E-02  0.8500772E-01
        2   -1    0    0  501    0  0.00000000000E+00  0.00000000000E+00  0.19116893443E+04  0.19116893444E+04  0.25500000920E-02 0. -1.
       -2   -1    0    0    0  501  0.00000000000E+00  0.00000000000E+00 -0.65788770083E+03  0.65788770083E+03  0.25500000920E-02 0.  1.
    10030    2    1    2    0    0  0.00000000000E+00  0.00000000000E+00  0.12538016435E+04  0.25695770452E+04  0.22429239019E+04 0.  0.
        1    1    3    3  502    0  0.79222644360E+03 -0.59709320614E+03  0.12260744110E+04  0.15771498014E+04  0.50400001928E-02 0. -1.
       -1    1    3    3    0  502 -0.79222644360E+03  0.59709320614E+03  0.27727232529E+02  0.99242724378E+03  0.50400001928E-02 0.  1.
</event>
<event>
 5   0  0.9535394E-05  0.2355049E+04  0.7818609E-02  0.8456527E-01
        2   -1    0    0  501    0  0.00000000000E+00  0.00000000000E+00  0.10174399577E+04  0.10174399577E+04  0.25500000920E-02 0.  1.
       -2   -1    0    0    0  501  0.00000000000E+00  0.00000000000E+00 -0.13627969515E+04  0.13627969515E+04  0.25500000920E-02 0. -1.
    10030    2    1    2    0    0  0.00000000000E+00  0.00000000000E+00 -0.34535699382E+03  0.23802369092E+04  0.23550491058E+04 0.  0.
        2    1    3    3  502    0  0.84527253263E+03 -0.20557805762E+03  0.62941886985E+03  0.10737393100E+04  0.25500000920E-02 0.  1.
       -2    1    3    3    0  502 -0.84527253263E+03  0.20557805762E+03 -0.97477586367E+03  0.13064975991E+04  0.25500000920E-02 0. -1.
</event>
<event>
 5   0  0.4295775E-05  0.2276235E+04  0.7818609E-02  0.8487351E-01
       -1   -1    0    0    0  501  0.00000000000E+00  0.00000000000E+00  0.12069988791E+04  0.12069988791E+04  0.50400001928E-02 0. -1.
        1   -1    0    0  501    0  0.00000000000E+00  0.00000000000E+00 -0.10731668394E+04  0.10731668394E+04  0.50400001928E-02 0.  1.
    10030    2    1    2    0    0  0.00000000000E+00  0.00000000000E+00  0.13383203969E+03  0.22801657184E+04  0.22762347613E+04 0.  0.
        5    1    3    3  502    0 -0.42843424440E+03  0.78272803287E+03 -0.64075285695E+03  0.10985469443E+04  0.46999998093E+01 0.  1.
       -5    1    3    3    0  502  0.42843424440E+03 -0.78272803287E+03  0.77458489664E+03  0.11816187741E+04  0.46999998093E+01 0. -1.
</event>
<event>
 5   0  0.4095451E-05  0.2307430E+04  0.7818609E-02  0.8474997E-01
        1   -1    0    0  501    0  0.00000000000E+00  0.00000000000E+00  0.10084840109E+04  0.10084840109E+04  0.50400001928E-02 0.  1.
       -1   -1    0    0    0  501  0.00000000000E+00  0.00000000000E+00 -0.13198603585E+04  0.13198603585E+04  0.50400001928E-02 0. -1.
    10030    2    1    2    0    0  0.00000000000E+00  0.00000000000E+00 -0.31137634764E+03  0.23283443694E+04  0.23074297980E+04 0.  0.
        3    1    3    3  502    0  0.11402686641E+03  0.98658144918E+03  0.43675613691E+03  0.10849428628E+04  0.10100000352E+00 0.  1.
       -3    1    3    3    0  502 -0.11402686641E+03 -0.98658144918E+03 -0.74813248455E+03  0.12434015067E+04  0.10100000352E+00 0. -1.
</event>
<event>
 5   0  0.9641157E-05  0.2297387E+04  0.7818609E-02  0.8478952E-01
        2   -1    0    0  501    0  0.00000000000E+00  0.00000000000E+00  0.16865363391E+04  0.16865363391E+04  0.25500000920E-02 0. -1.
       -2   -1    0    0    0  501  0.00000000000E+00  0.00000000000E+00 -0.78237101749E+03  0.78237101749E+03  0.25500000920E-02 0.  1.
    10030    2    1    2    0    0  0.00000000000E+00  0.00000000000E+00  0.90416532165E+03  0.24689073566E+04  0.22973873437E+04 0.  0.
        3    1    3    3  502    0 -0.28484443423E+03 -0.68681260138E+03 -0.48887249099E+03  0.88985629389E+03  0.10100000352E+00 0.  1.
       -3    1    3    3    0  502  0.28484443423E+03  0.68681260138E+03  0.13930378126E+04  0.15790510627E+04  0.10100000352E+00 0. -1.
</event>
<event>
 5   0  0.9483073E-05  0.2412046E+04  0.7818609E-02  0.8435008E-01
       -2   -1    0    0    0  501  0.00000000000E+00  0.00000000000E+00  0.11749890674E+04  0.11749890674E+04  0.25500000920E-02 0. -1.
        2   -1    0    0  501    0  0.00000000000E+00  0.00000000000E+00 -0.12378761404E+04  0.12378761404E+04  0.25500000920E-02 0.  1.
    10030    2    1    2    0    0  0.00000000000E+00  0.00000000000E+00 -0.62887072952E+02  0.24128652079E+04  0.24120455483E+04 0.  0.
        5    1    3    3  502    0 -0.36753004608E+03  0.93713283278E+03 -0.69587746817E+03  0.12237499016E+04  0.46999998093E+01 0.  1.
       -5    1    3    3    0  502  0.36753004608E+03 -0.93713283278E+03  0.63299039522E+03  0.11891153062E+04  0.46999998093E+01 0. -1.
</event>
<event>
 5   0  0.4295775E-05  0.2285507E+04  0.7818609E-02  0.8483658E-01
        1   -1    0    0  501    0  0.00000000000E+00  0.00000000000E+00  0.10350686708E+04  0.10350686708E+04  0.50400001928E-02 0.  1.
       -1   -1    0    0    0  501  0.00000000000E+00  0.00000000000E+00 -0.12616411127E+04  0.12616411127E+04  0.50400001928E-02 0. -1.
    10030    2    1    2    0    0  0.00000000000E+00  0.00000000000E+00 -0.22657244197E+03  0.22967097835E+04  0.22855066743E+04 0.  0.
        5    1    3    3  502    0 -0.90447925777E+03 -0.44760494479E+03 -0.65203936041E+03  0.12015033632E+04  0.46999998093E+01 0. -1.
       -5    1    3    3    0  502  0.90447925777E+03  0.44760494479E+03  0.42546691844E+03  0.10952064203E+04  0.46999998093E+01 0.  1.
</event>
<event>
 5   0  0.9313463E-05  0.2258471E+04  0.7818609E-02  0.8494478E-01
        2   -1    0    0  501    0  0.00000000000E+00  0.00000000000E+00  0.18770630910E+04  0.18770630911E+04  0.25500000920E-02 0. -1.
       -2   -1    0    0    0  501  0.00000000000E+00  0.00000000000E+00 -0.67934440045E+03  0.67934440045E+03  0.25500000920E-02 0.  1.
    10030    2    1    2    0    0  0.00000000000E+00  0.00000000000E+00  0.11977186906E+04  0.25564074915E+04  0.22584705446E+04 0.  0.
        1    1    3    3  502    0  0.33276443108E+03  0.77599029599E+03 -0.24991385347E+03  0.88053963014E+03  0.50400001928E-02 0.  1.
       -1    1    3    3    0  502 -0.33276443108E+03 -0.77599029599E+03  0.14476325441E+04  0.16758678614E+04  0.50400001928E-02 0. -1.
</event>
<event>
 5   0  0.4139830E-05  0.2284849E+04  0.7818609E-02  0.8483919E-01
       -1   -1    0    0    0  501  0.00000000000E+00  0.00000000000E+00  0.13526094190E+04  0.13526094190E+04  0.50400001928E-02 0. -1.
        1   -1    0    0  501    0  0.00000000000E+00  0.00000000000E+00 -0.96490103673E+03  0.96490103674E+03  0.50400001928E-02 0.  1.
    10030    2    1    2    0    0  0.00000000000E+00  0.00000000000E+00  0.38770838223E+03  0.23175104557E+04  0.22848494311E+04 0.  0.
        1    1    3    3  502    0 -0.11151818157E+03 -0.66424517211E+03 -0.74209094708E+03  0.10021760959E+04  0.50400001928E-02 0.  1.
       -1    1    3    3    0  502  0.11151818157E+03  0.66424517211E+03  0.11297993293E+04  0.13153343598E+04  0.50400001928E-02 0. -1.
</event>
<event>
 5   0  0.9641157E-05  0.2183336E+04  0.7818609E-02  0.8525396E-01
       -2   -1    0    0    0  501  0.00000000000E+00  0.00000000000E+00  0.10486615762E+04  0.10486615762E+04  0.25500000920E-02 0. -1.
        2   -1    0    0  501    0  0.00000000000E+00  0.00000000000E+00 -0.11364386357E+04  0.11364386357E+04  0.25500000920E-02 0.  1.
    10030    2    1    2    0    0  0.00000000000E+00  0.00000000000E+00 -0.87777059533E+02  0.21851002119E+04  0.21833364660E+04 0.  0.
        3    1    3    3  502    0  0.46248943062E+02  0.79738903943E+03 -0.78864777524E+03  0.11224676247E+04  0.10100000352E+00 0.  1.
       -3    1    3    3    0  502 -0.46248943062E+02 -0.79738903943E+03  0.70087071571E+03  0.10626325872E+04  0.10100000352E+00 0. -1.
</event>
<event>
 5   0  0.9312074E-05  0.2224529E+04  0.7818609E-02  0.8508287E-01
        2   -1    0    0  501    0  0.00000000000E+00  0.00000000000E+00  0.22175866369E+04  0.22175866369E+04  0.25500000920E-02 0. -1.
       -2   -1    0    0    0  501  0.00000000000E+00  0.00000000000E+00 -0.55787345293E+03  0.55787345294E+03  0.25500000920E-02 0.  1.
    10030    2    1    2    0    0  0.00000000000E+00  0.00000000000E+00  0.16597131839E+04  0.27754600898E+04  0.22245293563E+04 0.  0.
        4    1    3    3  502    0  0.62153797216E+03  0.28400402810E+03  0.19247914267E+04  0.20424963618E+04  0.12699999809E+01 0. -1.
       -4    1    3    3    0  502 -0.62153797216E+03 -0.28400402810E+03 -0.26507824280E+03  0.73296372796E+03  0.12699999809E+01 0.  1.
</event>
<event>
 5   0  0.9535394E-05  0.2324906E+04  0.7818609E-02  0.8468165E-01
        2   -1    0    0  501    0  0.00000000000E+00  0.00000000000E+00  0.21349697056E+04  0.21349697056E+04  0.25500000920E-02 0.  1.
       -2   -1    0    0    0  501  0.00000000000E+00  0.00000000000E+00 -0.63293502683E+03  0.63293502683E+03  0.25500000920E-02 0. -1.
    10030    2    1    2    0    0  0.00000000000E+00  0.00000000000E+00  0.15020346788E+04  0.27679047324E+04  0.23249061124E+04 0.  0.
        2    1    3    3  502    0 -0.29272513179E+03 -0.94667615998E+03  0.27411581701E+02  0.99127955163E+03  0.25500000920E-02 0. -1.
       -2    1    3    3    0  502  0.29272513179E+03  0.94667615998E+03  0.14746230971E+04  0.17766251808E+04  0.25500000920E-02 0.  1.
</event>
<event>
 5   0  0.9535394E-05  0.1887038E+04  0.7818609E-02  0.8661335E-01
       -2   -1    0    0    0  501  0.00000000000E+00  0.00000000000E+00  0.44301679057E+03  0.44301679058E+03  0.25500000920E-02 0.  1.
        2   -1    0    0  501    0  0.00000000000E+00  0.00000000000E+00 -0.20094682310E+04  0.20094682310E+04  0.25500000920E-02 0. -1.
    10030    2    1    2    0    0  0.00000000000E+00  0.00000000000E+00 -0.15664514404E+04  0.24524850215E+04  0.18870380669E+04 0.  0.
        2    1    3    3  502    0 -0.22768529687E+03  0.96762468812E+02 -0.19665653534E+04  0.19820653013E+04  0.25500000920E-02 0. -1.
       -2    1    3    3    0  502  0.22768529687E+03 -0.96762468812E+02  0.40011391297E+03  0.47041972019E+03  0.25500000920E-02 0.  1.
</event>
<event>
 5   0  0.9313463E-05  0.1509741E+04  0.7818609E-02  0.8878001E-01
        2   -1    0    0  501    0  0.00000000000E+00  0.00000000000E+00  0.79854735524E+03  0.79854735525E+03  0.25500000920E-02 0.  1.
       -2   -1    0    0    0  501  0.00000000000E+00  0.00000000000E+00 -0.71358232100E+03  0.71358232101E+03  0.25500000920E-02 0. -1.
    10030    2    1    2    0    0  0.00000000000E+00  0.00000000000E+00  0.84965034237E+02  0.15121296763E+04  0.15097407396E+04 0.  0.
        1    1    3    3  502    0 -0.37643431178E+03  0.24520164924E+03  0.65007462855E+03  0.79020482318E+03  0.50400001928E-02 0.  1.
       -1    1    3    3    0  502  0.37643431178E+03 -0.24520164924E+03 -0.56510959431E+03  0.72192485307E+03  0.50400001928E-02 0. -1.
</event>
<event>
 5   0  0.4295775E-05  0.2336442E+04  0.7818609E-02  0.8463689E-01
       -1   -1    0    0    0  501  0.00000000000E+00  0.00000000000E+00  0.94495960684E+03  0.94495960685E+03  0.50400001928E-02 0.  1.
        1   -1    0    0  501    0  0.00000000000E+00  0.00000000000E+00 -0.14442319135E+04  0.14442319135E+04  0.50400001928E-02 0. -1.
    10030    2    1    2    0    0  0.00000000000E+00  0.00000000000E+00 -0.49927230662E+03  0.23891915203E+04  0.23364424420E+04 0.  0.
        5    1    3    3  502    0 -0.80667454221E+03 -0.55312440946E+03 -0.90284440953E+03  0.13310974973E+04  0.46999998093E+01 0. -1.
       -5    1    3    3    0  502  0.80667454221E+03  0.55312440946E+03  0.40357210291E+03  0.10580940231E+04  0.46999998093E+01 0.  1.
</event>
<event>
 5   0  0.4139830E-05  0.2265289E+04  0.7818609E-02  0.8491734E-01
       -1   -1    0    0    0  501  0.00000000000E+00  0.00000000000E+00  0.88205238183E+03  0.88205238184E+03  0.50400001928E-02 0. -1.
        1   -1    0    0  501    0  0.00000000000E+00  0.00000000000E+00 -0.14544296991E+04  0.14544296991E+04  0.50400001928E-02 0.  1.
    10030    2    1    2    0    0  0.00000000000E+00  0.00000000000E+00 -0.57237731729E+03  0.23364820810E+04  0.22652886618E+04 0.  0.
        1    1    3    3  502    0  0.92208848537E+03 -0.57143421361E+01  0.39220822366E+03  0.10020514554E+04  0.50400001928E-02 0. -1.
       -1    1    3    3    0  502 -0.92208848537E+03  0.57143421361E+01 -0.96458554096E+03  0.13344306256E+04  0.50400001928E-02 0.  1.
</event>
<event>
 5   0  0.9313463E-05  0.2312131E+04  0.7818609E-02  0.8473154E-01
        2   -1    0    0  501    0  0.00000000000E+00  0.00000000000E+00  0.71741680560E+03  0.71741680560E+03  0.25500000920E-02 0.  1.
       -2   -1    0    0    0  501  0.00000000000E+00  0.00000000000E+00 -0.18629155662E+04  0.18629155662E+04  0.25500000920E-02 0. -1.
    10030    2    1    2    0    0  0.00000000000E+00  0.00000000000E+00 -0.11454987606E+04  0.25803323718E+04  0.23121305626E+04 0.  0.
        1    1    3    3  502    0 -0.88298680698E+03  0.30763143890E+03  0.18595189055E+03  0.95335245798E+03  0.50400001928E-02 0.  1.
       -1    1    3    3    0  502  0.88298680698E+03 -0.30763143890E+03 -0.13314506511E+04  0.16269799138E+04  0.50400001928E-02 0. -1.
</event>
<event>
 5   0  0.3885219E-05  0.1495052E+04  0.7818609E-02  0.8887750E-01
        1   -1    0    0  501    0  0.00000000000E+00  0.00000000000E+00  0.62474823343E+03  0.62474823345E+03  0.50400001928E-02 0. -1.
       -1   -1    0    0    0  501  0.00000000000E+00  0.00000000000E+00 -0.89443221395E+03  0.89443221396E+03  0.50400001928E-02 0.  1.
    10030    2    1    2    0    0  0.00000000000E+00  0.00000000000E+00 -0.26968398052E+03  0.15191804474E+04  0.14950517658E+04 0.  0.
        2    1    3    3  502    0  0.46637364385E+03  0.36051768174E+03 -0.60195389631E+03  0.84251164254E+03  0.25500000920E-02 0.  1.
       -2    1    3    3    0  502 -0.46637364385E+03 -0.36051768174E+03  0.33226991579E+03  0.67666880486E+03  0.25500000920E-02 0. -1.
</event>
<event>
 5   0  0.4095451E-05  0.2257373E+04  0.7818609E-02  0.8494921E-01
        1   -1    0    0  501    0  0.00000000000E+00  0.00000000000E+00  0.15859003340E+04  0.15859003340E+04  0.50400001928E-02 0. -1.
       -1   -1    0    0    0  501  0.00000000000E+00  0.00000000000E+00 -0.80328700316E+03  0.80328700317E+03  0.50400001928E-02 0.  1.
    10030    2    1    2    0    0  0.00000000000E+00  0.00000000000E+00  0.78261333081E+03  0.23891873371E+04  0.22573729214E+04 0.  0.
        3    1    3    3  502    0  0.11002426279E+04  0.14962869506E+03  0.17697093137E+03  0.11243848574E+04  0.10100000352E+00 0.  1.
       -3    1    3    3    0  502 -0.11002426279E+04 -0.14962869506E+03  0.60564239944E+03  0.12648024798E+04  0.10100000352E+00 0. -1.
</event>
<event>
 5   0  0.4005462E-05  0.2309993E+04  0.7818609E-02  0.8473992E-01
        1   -1    0    0  501    0  0.00000000000E+00  0.00000000000E+00  0.16484638946E+04  0.16484638946E+04  0.50400001928E-02 0.  1.
       -1   -1    0    0    0  501  0.00000000000E+00  0.00000000000E+00 -0.80924823073E+03  0.80924823074E+03  0.50400001928E-02 0. -1.
    10030    2    1    2    0    0  0.00000000000E+00  0.00000000000E+00  0.83921566390E+03  0.24577121254E+04  0.23099926322E+04 0.  0.
        4    1    3    3  502    0 -0.52956737724E+03 -0.58346725481E+03  0.13180861105E+04  0.15356523865E+04  0.12699999809E+01 0.  1.
       -4    1    3    3    0  502  0.52956737724E+03  0.58346725481E+03 -0.47887044664E+03  0.92205973887E+03  0.12699999809E+01 0. -1.
</event>
<event>
 5   0  0.9313463E-05  0.2350838E+04  0.7818609E-02  0.8458142E-01
        2   -1    0    0  501    0  0.00000000000E+00  0.00000000000E+00  0.14732804702E+04  0.14732804702E+04  0.25500000920E-02 0.  1.
       -2   -1    0    0    0  501  0.00000000000E+00  0.00000000000E+00 -0.93777784335E+03  0.93777784335E+03  0.25500000920E-02 0. -1.
    10030    2    1    2    0    0  0.00000000000E+00  0.00000000000E+00  0.53550262684E+03  0.24110583135E+04  0.23508379629E+04 0.  0.
        1    1    3    3  502    0  0.37880967504E+03  0.56793555218E+03  0.12491126660E+04  0.14234921895E+04  0.50400001928E-02 0.  1.
       -1    1    3    3    0  502 -0.37880967504E+03 -0.56793555218E+03 -0.71361003913E+03  0.98756612401E+03  0.50400001928E-02 0. -1.
</event>
<event>
 5   0  0.3885219E-05  0.2317765E+04  0.7818609E-02  0.8470950E-01
       -1   -1    0    0    0  501  0.00000000000E+00  0.00000000000E+00  0.97214717078E+03  0.97214717079E+03  0.50400001928E-02 0. -1.
        1   -1    0    0  501    0  0.00000000000E+00  0.00000000000E+00 -0.13814864274E+04  0.13814864274E+04  0.50400001928E-02 0.  1.
    10030    2    1    2    0    0  0.00000000000E+00  0.00000000000E+00 -0.40933925659E+03  0.23536335982E+04  0.23177645453E+04 0.  0.
        2    1    3    3  502    0  0.11363410034E+04  0.11399516573E+03 -0.40454648376E+03  0.12115789828E+04  0.25500000920E-02 0. -1.
       -2    1    3    3    0  502 -0.11363410034E+04 -0.11399516573E+03 -0.47927728365E+01  0.11420546154E+04  0.25500000920E-02 0.  1.
</event>
<event>
 5   0  0.4095451E-05  0.2295488E+04  0.7818609E-02  0.8479702E-01
        1   -1    0    0  501    0  0.00000000000E+00  0.00000000000E+00  0.49302037478E+03  0.49302037480E+03  0.50400001928E-02 0. -1.
       -1   -1    0    0    0  501  0.00000000000E+00  0.00000000000E+00 -0.26719304155E+04  0.26719304155E+04  0.50400001928E-02 0.  1.
    10030    2    1    2    0    0  0.00000000000E+00  0.00000000000E+00 -0.21789100408E+04  0.31649507903E+04  0.22954878653E+04 0.  0.
        3    1    3    3  502    0  0.76115118924E+03 -0.37215588040E+02 -0.22727742426E+04  0.23971313900E+04  0.10100000352E+00 0.  1.
       -3    1    3    3    0  502 -0.76115118924E+03  0.37215588040E+02  0.93864201888E+02  0.76781940030E+03  0.10100000352E+00 0. -1.
</event>
<event>
 5   0  0.4295775E-05  0.2074404E+04  0.7818609E-02  0.8572603E-01
        1   -1    0    0  501    0  0.00000000000E+00  0.00000000000E+00  0.22315951991E+04  0.22315951991E+04  0.50400001928E-02 0. -1.
       -1   -1    0    0    0  501  0.00000000000E+00  0.00000000000E+00 -0.48207144960E+03  0.48207144962E+03  0.50400001928E-02 0.  1.
    10030    2    1    2    0    0  0.00000000000E+00  0.00000000000E+00  0.17495237495E+04  0.27136666487E+04  0.20744043314E+04 0.  0.
        5    1    3    3  502    0  0.57922618088E+03 -0.81218754451E+03  0.12461860070E+04  0.15962935914E+04  0.46999998093E+01 0. -1.
       -5    1    3    3    0  502 -0.57922618088E+03  0.81218754451E+03  0.50333774249E+03  0.11173730573E+04  0.46999998093E+01 0.  1.
</event>
<event>
 5   0  0.9313463E-05  0.1424626E+04  0.7818609E-02  0.8936184E-01
        2   -1    0    0  501    0  0.00000000000E+00  0.00000000000E+00  0.13451422633E+04  0.13451422633E+04  0.25500000920E-02 0. -1.
       -2   -1    0    0    0  501  0.00000000000E+00  0.00000000000E+00 -0.37720136282E+03  0.37720136283E+03  0.25500000920E-02 0.  1.
    10030    2    1    2    0    0  0.00000000000E+00  0.00000000000E+00  0.96794090049E+03  0.17223436261E+04  0.14246255577E+04 0.  0.
        1    1    3    3  502    0 -0.41945178812E+03  0.44154599724E+02 -0.21000933840E+03  0.47116170629E+03  0.50400001928E-02 0.  1.
       -1    1    3    3    0  502  0.41945178812E+03 -0.44154599724E+02  0.11779502389E+04  0.12511819198E+04  0.50400001928E-02 0. -1.
</event>
<event>
 5   0  0.4295775E-05  0.2346954E+04  0.7818609E-02  0.8459635E-01
       -1   -1    0    0    0  501  0.00000000000E+00  0.00000000000E+00  0.11701652822E+04  0.11701652823E+04  0.50400001928E-02 0. -1.
        1   -1    0    0  501    0  0.00000000000E+00  0.00000000000E+00 -0.11767978007E+04  0.11767978007E+04  0.50400001928E-02 0.  1.
    10030    2    1    2    0    0  0.00000000000E+00  0.00000000000E+00 -0.66325184780E+01  0.23469630830E+04  0.23469537112E+04 0.  0.
        5    1    3    3  502    0  0.72289427782E+03 -0.38209830956E+01  0.92104402098E+03  0.11708692990E+04  0.46999998093E+01 0. -1.
       -5    1    3    3    0  502 -0.72289427782E+03  0.38209830956E+01 -0.92767653946E+03  0.11760937840E+04  0.46999998093E+01 0.  1.
</event>
<event>
 5   0  0.9535394E-05  0.1758538E+04  0.7818609E-02  0.8728665E-01
       -2   -1    0    0    0  501  0.00000000000E+00  0.00000000000E+00  0.38655336632E+03  0.38655336633E+03  0.25500000920E-02 0.  1.
        2   -1    0    0  501    0  0.00000000000E+00  0.00000000000E+00 -0.20000191405E+04  0.20000191405E+04  0.25500000920E-02 0. -1.
    10030    2    1    2    0    0  0.00000000000E+00  0.00000000000E+00 -0.16134657742E+04  0.23865725068E+04  0.17585381787E+04 0.  0.
        2    1    3    3  502    0  0.46446798766E+03  0.48628155836E+03 -0.37926340278E+02  0.67352703944E+03  0.25500000920E-02 0.  1.
       -2    1    3    3    0  502 -0.46446798766E+03 -0.48628155836E+03 -0.15755394339E+04  0.17130454674E+04  0.25500000920E-02 0. -1.
</event>
<event>
 5   0  0.3885219E-05  0.2278149E+04  0.7818609E-02  0.8486587E-01
        1   -1    0    0  501    0  0.00000000000E+00  0.00000000000E+00  0.94650712679E+03  0.94650712680E+03  0.50400001928E-02 0. -1.
       -1   -1    0    0    0  501  0.00000000000E+00  0.00000000000E+00 -0.13708200602E+04  0.13708200602E+04  0.50400001928E-02 0.  1.
    10030    2    1    2    0    0  0.00000000000E+00  0.00000000000E+00 -0.42431293337E+03  0.23173271870E+04  0.22781492107E+04 0.  0.
        2    1    3    3  502    0 -0.10962725476E+03 -0.11222109443E+04 -0.37653824826E+03  0.11887626301E+04  0.25500000920E-02 0.  1.
       -2    1    3    3    0  502  0.10962725476E+03  0.11222109443E+04 -0.47774685108E+02  0.11285645568E+04  0.25500000920E-02 0. -1.
</event>
<event>
 5   0  0.9483073E-05  0.2244923E+04  0.7818609E-02  0.8499959E-01
        2   -1    0    0  501    0  0.00000000000E+00  0.00000000000E+00  0.10894685601E+04  0.10894685601E+04  0.25500000920E-02 0. -1.
       -2   -1    0    0    0  501  0.00000000000E+00  0.00000000000E+00 -0.11564536307E+04  0.11564536307E+04  0.25500000920E-02 0.  1.
    10030    2    1    2    0    0  0.00000000000E+00  0.00000000000E+00 -0.66985070586E+02  0.22459221908E+04  0.22449230471E+04 0.  0.
        5    1    3    3  502    0 -0.63716635159E+03  0.49568775529E+03 -0.81371813230E+03  0.11462314771E+04  0.46999998093E+01 0.  1.
       -5    1    3    3    0  502  0.63716635159E+03 -0.49568775529E+03  0.74673306172E+03  0.10996907137E+04  0.46999998093E+01 0. -1.
</event>
<event>
 5   0  0.9312074E-05  0.2342117E+04  0.7818609E-02  0.8461498E-01
        2   -1    0    0  501    0  0.00000000000E+00  0.00000000000E+00  0.21947517172E+04  0.21947517172E+04  0.25500000920E-02 0. -1.
       -2   -1    0    0    0  501  0.00000000000E+00  0.00000000000E+00 -0.62484437173E+03  0.62484437173E+03  0.25500000920E-02 0.  1.
    10030    2    1    2    0    0  0.00000000000E+00  0.00000000000E+00  0.15699073455E+04  0.28195960889E+04  0.23421172113E+04 0.  0.
        4    1    3    3  502    0  0.18457345173E+03  0.10619114453E+04  0.13361790404E+04  0.17167117748E+04  0.12699999809E+01 0. -1.
       -4    1    3    3    0  502 -0.18457345173E+03 -0.10619114453E+04  0.23372830506E+03  0.11028843141E+04  0.12699999809E+01 0.  1.
</event>
<event>
 5   0  0.9312074E-05  0.2283402E+04  0.7818609E-02  0.8484494E-01
        2   -1    0    0  501    0  0.00000000000E+00  0.00000000000E+00  0.12130213486E+04  0.12130213486E+04  0.25500000920E-02 0. -1.
       -2   -1    0    0    0  501  0.00000000000E+00  0.00000000000E+00 -0.10745741580E+04  0.10745741580E+04  0.25500000920E-02 0.  1.
    10030    2    1    2    0    0  0.00000000000E+00  0.00000000000E+00  0.13844719065E+03  0.22875955066E+04  0.22834021935E+04 0.  0.
        4    1    3    3  502    0  0.50687332861E+03 -0.98856589749E+03  0.33294964152E+03  0.11597586739E+04  0.12699999809E+01 0. -1.
       -4    1    3    3    0  502 -0.50687332861E+03  0.98856589749E+03 -0.19450245087E+03  0.11278368327E+04  0.12699999809E+01 0.  1.
</event>
<event>
 5   0  0.4295775E-05  0.2306538E+04  0.7818609E-02  0.8475348E-01
        1   -1    0    0  501    0  0.00000000000E+00  0.00000000000E+00  0.68598772566E+03  0.68598772568E+03  0.50400001928E-02 0. -1.
       -1   -1    0    0    0  501  0.00000000000E+00  0.00000000000E+00 -0.19388538733E+04  0.19388538733E+04  0.50400001928E-02 0.  1.
    10030    2    1    2    0    0  0.00000000000E+00  0.00000000000E+00 -0.12528661476E+04  0.26248415990E+04  0.23065384965E+04 0.  0.
        5    1    3    3  502    0 -0.98980511113E+03  0.58970742196E+03 -0.56909245084E+03  0.12850514811E+04  0.46999998093E+01 0.  1.
       -5    1    3    3    0  502  0.98980511113E+03 -0.58970742196E+03 -0.68377369681E+03  0.13397901179E+04  0.46999998093E+01 0. -1.
</event>
<event>
 5   0  0.3261500E-05  0.2332356E+04  0.7818609E-02  0.8465272E-01
       -3   -1    0    0    0  501  0.00000000000E+00  0.00000000000E+00  0.19815340496E+04  0.19815340522E+04  0.10100000352E+00 0.  1.
        3   -1    0    0  501    0  0.00000000000E+00  0.00000000000E+00 -0.68632254441E+03  0.68632255184E+03  0.10100000352E+00 0. -1.
    10030    2    1    2    0    0  0.00000000000E+00  0.00000000000E+00  0.12952115052E+04  0.26678566041E+04  0.23323563228E+04 0.  0.
        2    1    3    3  502    0 -0.45919043278E+03 -0.78283846800E+03 -0.19004544654E+03  0.92725896723E+03  0.25500000920E-02 0. -1.
       -2    1    3    3    0  502  0.45919043278E+03  0.78283846800E+03  0.14852569518E+04  0.17405976368E+04  0.25500000920E-02 0.  1.
</event>
<event>
 5   0  0.4295775E-05  0.2306134E+04  0.7818609E-02  0.8475507E-01
       -1   -1    0    0    0  501  0.00000000000E+00  0.00000000000E+00  0.66212444332E+03  0.66212444334E+03  0.50400001928E-02 0.  1.
        1   -1    0    0  501    0  0.00000000000E+00  0.00000000000E+00 -0.20080263734E+04  0.20080263734E+04  0.50400001928E-02 0. -1.
    10030    2    1    2    0    0  0.00000000000E+00  0.00000000000E+00 -0.13459019301E+04  0.26701508167E+04  0.23061338597E+04 0.  0.
        5    1    3    3  502    0  0.17302437642E+03 -0.64147255677E+03  0.41820370886E+03  0.78507382329E+03  0.46999998093E+01 0.  1.
       -5    1    3    3    0  502 -0.17302437642E+03  0.64147255677E+03 -0.17641056389E+04  0.18850769934E+04  0.46999998093E+01 0. -1.
</event>
<event>
 5   0  0.9313463E-05  0.2225790E+04  0.7818609E-02  0.8507770E-01
        2   -1    0    0  501    0  0.00000000000E+00  0.00000000000E+00  0.97593819343E+03  0.97593819343E+03  0.25500000920E-02 0. -1.
       -2   -1    0    0    0  501  0.00000000000E+00  0.00000000000E+00 -0.12690716572E+04  0.12690716572E+04  0.25500000920E-02 0.  1.
    10030    2    1    2    0    0  0.00000000000E+00  0.00000000000E+00 -0.29313346378E+03  0.22450098506E+04  0.22257901972E+04 0.  0.
        1    1    3    3  502    0 -0.30115657902E+03 -0.10274826686E+04 -0.45269962976E+03  0.11624770425E+04  0.50400001928E-02 0. -1.
       -1    1    3    3    0  502  0.30115657902E+03  0.10274826686E+04  0.15956616598E+03  0.10825328082E+04  0.50400001928E-02 0.  1.
</event>
<event>
 5   0  0.9483073E-05  0.2049909E+04  0.7818609E-02  0.8583636E-01
       -2   -1    0    0    0  501  0.00000000000E+00  0.00000000000E+00  0.61603427614E+03  0.61603427615E+03  0.25500000920E-02 0.  1.
        2   -1    0    0  501    0  0.00000000000E+00  0.00000000000E+00 -0.17053130160E+04  0.17053130160E+04  0.25500000920E-02 0. -1.
    10030    2    1    2    0    0  0.00000000000E+00  0.00000000000E+00 -0.10892787399E+04  0.23213472922E+04  0.20499085535E+04 0.  0.
        5    1    3    3  502    0 -0.69466533456E+02 -0.96581278881E+03 -0.16415931050E+03  0.98213558713E+03  0.46999998093E+01 0.  1.
       -5    1    3    3    0  502  0.69466533456E+02  0.96581278881E+03 -0.92511942939E+03  0.13392117050E+04  0.46999998093E+01 0. -1.
</event>
<event>
 5   0  0.4095451E-05  0.2286332E+04  0.7818609E-02  0.8483330E-01
        1   -1    0    0  501    0  0.00000000000E+00  0.00000000000E+00  0.18038360897E+04  0.18038360897E+04  0.50400001928E-02 0.  1.
       -1   -1    0    0    0  501  0.00000000000E+00  0.00000000000E+00 -0.72447191103E+03  0.72447191105E+03  0.50400001928E-02 0. -1.
    10030    2    1    2    0    0  0.00000000000E+00  0.00000000000E+00  0.10793641787E+04  0.25283080008E+04  0.22863320661E+04 0.  0.
        3    1    3    3  502    0 -0.41750505989E+03  0.13778639296E+03  0.17066051390E+04  0.17623270626E+04  0.10100000352E+00 0.  1.
       -3    1    3    3    0  502  0.41750505989E+03 -0.13778639296E+03 -0.62724096029E+03  0.76598093813E+03  0.10100000352E+00 0. -1.
</event>
<event>
 5   0  0.9312074E-05  0.2475055E+04  0.7818609E-02  0.8411926E-01
       -2   -1    0    0    0  501  0.00000000000E+00  0.00000000000E+00  0.11311804045E+04  0.11311804045E+04  0.25500000920E-02 0.  1.
        2   -1    0    0  501    0  0.00000000000E+00  0.00000000000E+00 -0.13538729975E+04  0.13538729975E+04  0.25500000920E-02 0. -1.
    10030    2    1    2    0    0  0.00000000000E+00  0.00000000000E+00 -0.22269259300E+03  0.24850534020E+04  0.24750552357E+04 0.  0.
        4    1    3    3  502    0  0.26747682736E+03 -0.72446196611E+03 -0.10822499671E+04  0.13295320973E+04  0.12699999809E+01 0. -1.
       -4    1    3    3    0  502 -0.26747682736E+03  0.72446196611E+03  0.85955737407E+03  0.11555213047E+04  0.12699999809E+01 0.  1.
</event>
<event>
 5   0  0.9313463E-05  0.2228003E+04  0.7818609E-02  0.8506862E-01
        2   -1    0    0  501    0  0.00000000000E+00  0.00000000000E+00  0.25083726882E+04  0.25083726882E+04  0.25500000920E-02 0. -1.
       -2   -1    0    0    0  501  0.00000000000E+00  0.00000000000E+00 -0.49474267403E+03  0.49474267403E+03  0.25500000920E-02 0.  1.
    10030    2    1    2    0    0  0.00000000000E+00  0.00000000000E+00  0.20136300142E+04  0.30031153622E+04  0.22280027031E+04 0.  0.
        1    1    3    3  502    0  0.47024693397E+03 -0.21606081026E+03  0.23365157362E+04  0.23931402462E+04  0.50400001928E-02 0. -1.
       -1    1    3    3    0  502 -0.47024693397E+03  0.21606081026E+03 -0.32288572201E+03  0.60997511601E+03  0.50400001928E-02 0.  1.
</event>
<event>
 5   0  0.4095451E-05  0.2423297E+04  0.7818609E-02  0.8430833E-01
        1   -1    0    0  501    0  0.00000000000E+00  0.00000000000E+00  0.11232063173E+04  0.11232063173E+04  0.50400001928E-02 0. -1.
       -1   -1    0    0    0  501  0.00000000000E+00  0.00000000000E+00 -0.13070542009E+04  0.13070542010E+04  0.50400001928E-02 0.  1.
    10030    2    1    2    0    0  0.00000000000E+00  0.00000000000E+00 -0.18384788365E+03  0.24302605183E+04  0.24232965444E+04 0.  0.
        3    1    3    3  502    0  0.22298947947E+02 -0.50840800551E+03  0.10108339576E+04  0.11317072251E+04  0.10100000352E+00 0. -1.
       -3    1    3    3    0  502 -0.22298947947E+02  0.50840800551E+03 -0.11946818413E+04  0.12985532932E+04  0.10100000352E+00 0.  1.
</event>
<event>
 5   0  0.9641157E-05  0.2322247E+04  0.7818609E-02  0.8469201E-01
       -2   -1    0    0    0  501  0.00000000000E+00  0.00000000000E+00  0.10309508395E+04  0.10309508395E+04  0.25500000920E-02 0. -1.
        2   -1    0    0  501    0  0.00000000000E+00  0.00000000000E+00 -0.13077321228E+04  0.13077321228E+04  0.25500000920E-02 0.  1.
    10030    2    1    2    0    0  0.00000000000E+00  0.00000000000E+00 -0.27678128333E+03  0.23386829624E+04  0.23222467827E+04 0.  0.
        3    1    3    3  502    0 -0.79651507233E+03 -0.56295076705E+03  0.49603449761E+03  0.10942577665E+04  0.10100000352E+00 0. -1.
       -3    1    3    3    0  502  0.79651507233E+03  0.56295076705E+03 -0.77281578095E+03  0.12444251958E+04  0.10100000352E+00 0.  1.
</event>
<event>
 5   0  0.4095451E-05  0.2229064E+04  0.7818609E-02  0.8506428E-01
        1   -1    0    0  501    0  0.00000000000E+00  0.00000000000E+00  0.20917585619E+04  0.20917585619E+04  0.50400001928E-02 0.  1.
       -1   -1    0    0    0  501  0.00000000000E+00  0.00000000000E+00 -0.59384540193E+03  0.59384540196E+03  0.50400001928E-02 0. -1.
    10030    2    1    2    0    0  0.00000000000E+00  0.00000000000E+00  0.14979131600E+04  0.26856039639E+04  0.22290636635E+04 0.  0.
        3    1    3    3  502    0 -0.36399390807E+02  0.97798688347E+03  0.13914707578E+04  0.17011684631E+04  0.10100000352E+00 0.  1.
       -3    1    3    3    0  502  0.36399390807E+02 -0.97798688347E+03  0.10644240213E+03  0.98443550071E+03  0.10100000352E+00 0. -1.
</event>
<event>
 5   0  0.4295775E-05  0.2330014E+04  0.7818609E-02  0.8466180E-01
        1   -1    0    0  501    0  0.00000000000E+00  0.00000000000E+00  0.12046233732E+04  0.12046233732E+04  0.50400001928E-02 0.  1.
       -1   -1    0    0    0  501  0.00000000000E+00  0.00000000000E+00 -0.11266938160E+04  0.11266938160E+04  0.50400001928E-02 0. -1.
    10030    2    1    2    0    0  0.00000000000E+00  0.00000000000E+00  0.77929557129E+02  0.23313171892E+04  0.23300143392E+04 0.  0.
        5    1    3    3  502    0 -0.11417136867E+04 -0.20683535187E+03  0.14356322569E+03  0.11691550346E+04  0.46999998093E+01 0.  1.
       -5    1    3    3    0  502  0.11417136867E+04  0.20683535187E+03 -0.65633668566E+02  0.11621621546E+04  0.46999998093E+01 0. -1.
</event>
<event>
 5   0  0.4139830E-05  0.2129261E+04  0.7818609E-02  0.8548462E-01
       -1   -1    0    0    0  501  0.00000000000E+00  0.00000000000E+00  0.66045000046E+03  0.66045000048E+03  0.50400001928E-02 0.  1.
        1   -1    0    0  501    0  0.00000000000E+00  0.00000000000E+00 -0.17161601678E+04  0.17161601678E+04  0.50400001928E-02 0. -1.
    10030    2    1    2    0    0  0.00000000000E+00  0.00000000000E+00 -0.10557101674E+04  0.23766101683E+04  0.21292608893E+04 0.  0.
        1    1    3    3  502    0 -0.64439928550E+03  0.31611683956E+03  0.34977971879E+03  0.79845234492E+03  0.50400001928E-02 0.  1.
       -1    1    3    3    0  502  0.64439928550E+03 -0.31611683956E+03 -0.14054898862E+04  0.15781578234E+04  0.50400001928E-02 0. -1.
</event>
<event>
 5   0  0.4139830E-05  0.2258225E+04  0.7818609E-02  0.8494577E-01
        1   -1    0    0  501    0  0.00000000000E+00  0.00000000000E+00  0.17370196390E+04  0.17370196390E+04  0.50400001928E-02 0. -1.
       -1   -1    0    0    0  501  0.00000000000E+00  0.00000000000E+00 -0.73395562258E+03  0.73395562260E+03  0.50400001928E-02 0.  1.
    10030    2    1    2    0    0  0.00000000000E+00  0.00000000000E+00  0.10030640165E+04  0.24709752616E+04  0.22582252595E+04 0.  0.
        1    1    3    3  502    0 -0.10895718505E+04 -0.65661112170E+02  0.81756233668E+03  0.13637765115E+04  0.50400001928E-02 0. -1.
       -1    1    3    3    0  502  0.10895718505E+04  0.65661112170E+02  0.18550167978E+03  0.11071987501E+04  0.50400001928E-02 0.  1.
</event>
<event>
 5   0  0.9641157E-05  0.2310008E+04  0.7818609E-02  0.8473985E-01
       -2   -1    0    0    0  501  0.00000000000E+00  0.00000000000E+00  0.79902424133E+03  0.79902424134E+03  0.25500000920E-02 0. -1.
        2   -1    0    0  501    0  0.00000000000E+00  0.00000000000E+00 -0.16695794840E+04  0.16695794840E+04  0.25500000920E-02 0.  1.
    10030    2    1    2    0    0  0.00000000000E+00  0.00000000000E+00 -0.87055524267E+03  0.24686037253E+04  0.23100082083E+04 0.  0.
        3    1    3    3  502    0 -0.85970725698E+03 -0.51568699022E+03  0.17769206044E+03  0.10181375733E+04  0.10100000352E+00 0.  1.
       -3    1    3    3    0  502  0.85970725698E+03  0.51568699022E+03 -0.10482473031E+04  0.14504661521E+04  0.10100000352E+00 0. -1.
</event>
<event>
 5   0  0.4139830E-05  0.2337803E+04  0.7818609E-02  0.8463163E-01
        1   -1    0    0  501    0  0.00000000000E+00  0.00000000000E+00  0.19504636017E+04  0.19504636018E+04  0.50400001928E-02 0.  1.
       -1   -1    0    0    0  501  0.00000000000E+00  0.00000000000E+00 -0.70051574176E+03  0.70051574177E+03  0.50400001928E-02 0. -1.
    10030    2    1    2    0    0  0.00000000000E+00  0.00000000000E+00  0.12499478600E+04  0.26509793435E+04  0.23378027776E+04 0.  0.
        1    1    3    3  502    0  0.11581328169E+03 -0.33692111191E+03 -0.63744806641E+03  0.73025241476E+03  0.50400001928E-02 0. -1.
       -1    1    3    3    0  502 -0.11581328169E+03  0.33692111191E+03  0.18873959264E+04  0.19207269288E+04  0.50400001928E-02 0.  1.
</event>
<event>
 5   0  0.3885219E-05  0.2293261E+04  0.7818609E-02  0.8480583E-01
        1   -1    0    0  501    0  0.00000000000E+00  0.00000000000E+00  0.14419957294E+04  0.14419957294E+04  0.50400001928E-02 0.  1.
       -1   -1    0    0    0  501  0.00000000000E+00  0.00000000000E+00 -0.91176543633E+03  0.91176543634E+03  0.50400001928E-02 0. -1.
    10030    2    1    2    0    0  0.00000000000E+00  0.00000000000E+00  0.53023029310E+03  0.23537611658E+04  0.22932613156E+04 0.  0.
        2    1    3    3  502    0 -0.53258224006E+03 -0.89173413893E+03  0.76365378112E+03  0.12891860666E+04  0.25500000920E-02 0.  1.
       -2    1    3    3    0  502  0.53258224006E+03  0.89173413893E+03 -0.23342348802E+03  0.10645750992E+04  0.25500000920E-02 0. -1.
</event>
<event>
 5   0  0.4295775E-05  0.2266619E+04  0.7818609E-02  0.8491200E-01
       -1   -1    0    0    0  501  0.00000000000E+00  0.00000000000E+00  0.82297200524E+03  0.82297200525E+03  0.50400001928E-02 0.  1.
        1   -1    0    0  501    0  0.00000000000E+00  0.00000000000E+00 -0.15606732436E+04  0.15606732436E+04  0.50400001928E-02 0. -1.
    10030    2    1    2    0    0  0.00000000000E+00  0.00000000000E+00 -0.73770123833E+03  0.23836452488E+04  0.22666189700E+04 0.  0.
        5    1    3    3  502    0 -0.53705203056E+03  0.79583207852E+03 -0.10020986363E+04  0.13878030652E+04  0.46999998093E+01 0. -1.
       -5    1    3    3    0  502  0.53705203056E+03 -0.79583207852E+03  0.26439739799E+03  0.99584218368E+03  0.46999998093E+01 0.  1.
</event>
<event>
 5   0  0.9313463E-05  0.2248207E+04  0.7818609E-02  0.8498627E-01
       -2   -1    0    0    0  501  0.00000000000E+00  0.00000000000E+00  0.14329152697E+04  0.14329152697E+04  0.25500000920E-02 0. -1.
        2   -1    0    0  501    0  0.00000000000E+00  0.00000000000E+00 -0.88184475440E+03  0.88184475440E+03  0.25500000920E-02 0.  1.
    10030    2    1    2    0    0  0.00000000000E+00  0.00000000000E+00  0.55107051528E+03  0.23147600241E+04  0.22482071204E+04 0.  0.
        1    1    3    3  502    0 -0.42628314686E+03  0.89732083709E+03 -0.26606589113E+03  0.10284420569E+04  0.50400001928E-02 0.  1.
       -1    1    3    3    0  502  0.42628314686E+03 -0.89732083709E+03  0.81713640641E+03  0.12863179672E+04  0.50400001928E-02 0. -1.
</event>
<event>
 5   0  0.9641157E-05  0.2303514E+04  0.7818609E-02  0.8476537E-01
        2   -1    0    0  501    0  0.00000000000E+00  0.00000000000E+00  0.14467631000E+04  0.14467631000E+04  0.25500000920E-02 0. -1.
       -2   -1    0    0    0  501  0.00000000000E+00  0.00000000000E+00 -0.91690453621E+03  0.91690453621E+03  0.25500000920E-02 0.  1.
    10030    2    1    2    0    0  0.00000000000E+00  0.00000000000E+00  0.52985856383E+03  0.23636676362E+04  0.23035135331E+04 0.  0.
        3    1    3    3  502    0  0.11650792052E+03 -0.11137326624E+04  0.54135058497E+03  0.12437986191E+04  0.10100000352E+00 0. -1.
       -3    1    3    3    0  502 -0.11650792052E+03  0.11137326624E+04 -0.11492021141E+02  0.11198690171E+04  0.10100000352E+00 0.  1.
</event>
<event>
 5   0  0.4005462E-05  0.2335599E+04  0.7818609E-02  0.8464016E-01
       -1   -1    0    0    0  501  0.00000000000E+00  0.00000000000E+00  0.15049037859E+04  0.15049037859E+04  0.50400001928E-02 0. -1.
        1   -1    0    0  501    0  0.00000000000E+00  0.00000000000E+00 -0.90620780327E+03  0.90620780329E+03  0.50400001928E-02 0.  1.
    10030    2    1    2    0    0  0.00000000000E+00  0.00000000000E+00  0.59869598258E+03  0.24111115892E+04  0.23355988987E+04 0.  0.
        4    1    3    3  502    0  0.49130099276E+03  0.88871296573E+03  0.89467875435E+03  0.13533806144E+04  0.12699999809E+01 0. -1.
       -4    1    3    3    0  502 -0.49130099276E+03 -0.88871296573E+03 -0.29598277176E+03  0.10577309748E+04  0.12699999809E+01 0.  1.
</event>
<event>
 5   0  0.3885219E-05  0.2256063E+04  0.7818609E-02  0.8495449E-01
       -1   -1    0    0    0  501  0.00000000000E+00  0.00000000000E+00  0.94305815524E+03  0.94305815525E+03  0.50400001928E-02 0. -1.
        1   -1    0    0  501    0  0.00000000000E+00  0.00000000000E+00 -0.13492862237E+04  0.13492862237E+04  0.50400001928E-02 0.  1.
    10030    2    1    2    0    0  0.00000000000E+00  0.00000000000E+00 -0.40622806850E+03  0.22923443790E+04  0.22560632767E+04 0.  0.
        2    1    3    3  502    0  0.33083625328E+03  0.91831991769E+03  0.37139118800E+03  0.10443636877E+04  0.25500000920E-02 0. -1.
       -2    1    3    3    0  502 -0.33083625328E+03 -0.91831991769E+03 -0.77761925650E+03  0.12479806913E+04  0.25500000920E-02 0.  1.
</event>
<event>
 5   0  0.4005462E-05  0.2382232E+04  0.7818609E-02  0.8446186E-01
       -1   -1    0    0    0  501  0.00000000000E+00  0.00000000000E+00  0.62019467007E+03  0.62019467009E+03  0.50400001928E-02 0. -1.
        1   -1    0    0  501    0  0.00000000000E+00  0.00000000000E+00 -0.22875998768E+04  0.22875998768E+04  0.50400001928E-02 0.  1.
    10030    2    1    2    0    0  0.00000000000E+00  0.00000000000E+00 -0.16674052067E+04  0.29077945469E+04  0.23822319374E+04 0.  0.
        4    1    3    3  502    0  0.91758847671E+02 -0.85128038607E+03 -0.18444283759E+04  0.20334737836E+04  0.12699999809E+01 0.  1.
       -4    1    3    3    0  502 -0.91758847671E+02  0.85128038607E+03  0.17702316916E+03  0.87432076331E+03  0.12699999809E+01 0. -1.
</event>
<event>
 5   0  0.4139830E-05  0.2270948E+04  0.7818609E-02  0.8489465E-01
        1   -1    0    0  501    0  0.00000000000E+00  0.00000000000E+00  0.79987537749E+03  0.79987537751E+03  0.50400001928E-02 0. -1.
       -1   -1    0    0    0  501  0.00000000000E+00  0.00000000000E+00 -0.16118781915E+04  0.16118781915E+04  0.50400001928E-02 0.  1.
    10030    2    1    2    0    0  0.00000000000E+00  0.00000000000E+00 -0.81200281397E+03  0.24117535690E+04  0.22709484159E+04 0.  0.
        1    1    3    3  502    0  0.11112056959E+04 -0.17039858323E+03 -0.23645339668E+03  0.11487924027E+04  0.50400001928E-02 0.  1.
       -1    1    3    3    0  502 -0.11112056959E+04  0.17039858323E+03 -0.57554941729E+03  0.12629611663E+04  0.50400001928E-02 0. -1.
</event>
<event>
 5   0  0.3261500E-05  0.2213482E+04  0.7818609E-02  0.8512838E-01
       -3   -1    0    0    0  501  0.00000000000E+00  0.00000000000E+00  0.92267624190E+03  0.92267624743E+03  0.10100000352E+00 0.  1.
        3   -1    0    0  501    0  0.00000000000E+00  0.00000000000E+00 -0.13275247659E+04  0.13275247698E+04  0.10100000352E+00 0. -1.
    10030    2    1    2    0    0  0.00000000000E+00  0.00000000000E+00 -0.40484852402E+03  0.22502010172E+04  0.22134819381E+04 0.  0.
        3    1    3    3  502    0  0.51287610613E+03  0.83067815787E+03  0.32757592202E+03  0.10297446757E+04  0.10100000352E+00 0.  1.
       -3    1    3    3    0  502 -0.51287610613E+03 -0.83067815787E+03 -0.73242444604E+03  0.12204563415E+04  0.10100000352E+00 0. -1.
</event>
<event>
 5   0  0.4005462E-05  0.2271068E+04  0.7818609E-02  0.8489417E-01
       -1   -1    0    0    0  501  0.00000000000E+00  0.00000000000E+00  0.65870268930E+03  0.65870268932E+03  0.50400001928E-02 0.  1.
        1   -1    0    0  501    0  0.00000000000E+00  0.00000000000E+00 -0.19575406670E+04  0.19575406670E+04  0.50400001928E-02 0. -1.
    10030    2    1    2    0    0  0.00000000000E+00  0.00000000000E+00 -0.12988379777E+04  0.26162433564E+04  0.22710678562E+04 0.  0.
        4    1    3    3  502    0 -0.12318800897E+03 -0.96156288655E+03  0.31772600781E+02  0.96994308153E+03  0.12699999809E+01 0.  1.
       -4    1    3    3    0  502  0.12318800897E+03  0.96156288655E+03 -0.13306105785E+04  0.16463002748E+04  0.12699999809E+01 0. -1.
</event>
<event>
 5   0  0.9312074E-05  0.2156490E+04  0.7818609E-02  0.8536759E-01
       -2   -1    0    0    0  501  0.00000000000E+00  0.00000000000E+00  0.71768375850E+03  0.71768375851E+03  0.25500000920E-02 0. -1.
        2   -1    0    0  501    0  0.00000000000E+00  0.00000000000E+00 -0.16199505509E+04  0.16199505509E+04  0.25500000920E-02 0.  1.
    10030    2    1    2    0    0  0.00000000000E+00  0.00000000000E+00 -0.90226679240E+03  0.23376343094E+04  0.21564899257E+04 0.  0.
        4    1    3    3  502    0  0.32896092147E+03  0.13829238958E+03 -0.15540839970E+04  0.15945277531E+04  0.12699999809E+01 0.  1.
       -4    1    3    3    0  502 -0.32896092147E+03 -0.13829238958E+03  0.65181720460E+03  0.74310655628E+03  0.12699999809E+01 0. -1.
</event>
<event>
 5   0  0.9312074E-05  0.1636698E+04  0.7818609E-02  0.8798315E-01
       -2   -1    0    0    0  501  0.00000000000E+00  0.00000000000E+00  0.67266838821E+03  0.67266838822E+03  0.25500000920E-02 0.  1.
        2   -1    0    0  501    0  0.00000000000E+00  0.00000000000E+00 -0.99558013358E+03  0.99558013359E+03  0.25500000920E-02 0. -1.
    10030    2    1    2    0    0  0.00000000000E+00  0.00000000000E+00 -0.32291174537E+03  0.16682485218E+04  0.16366982420E+04 0.  0.
        4    1    3    3  502    0 -0.35785168037E+03 -0.65872530831E+03 -0.49598495753E+03  0.89887682579E+03  0.12699999809E+01 0. -1.
       -4    1    3    3    0  502  0.35785168037E+03  0.65872530831E+03  0.17307321216E+03  0.76937169601E+03  0.12699999809E+01 0.  1.
</event>
<event>
 5   0  0.4139830E-05  0.2363262E+04  0.7818609E-02  0.8453387E-01
        1   -1    0    0  501    0  0.00000000000E+00  0.00000000000E+00  0.24459702231E+04  0.24459702231E+04  0.50400001928E-02 0. -1.
       -1   -1    0    0    0  501  0.00000000000E+00  0.00000000000E+00 -0.57083739011E+03  0.57083739013E+03  0.50400001928E-02 0.  1.
    10030    2    1    2    0    0  0.00000000000E+00  0.00000000000E+00  0.18751328329E+04  0.30168076132E+04  0.23632615246E+04 0.  0.
        1    1    3    3  502    0 -0.80969980165E+03 -0.81729266190E+03  0.59344318530E+03  0.12945098988E+04  0.50400001928E-02 0. -1.
       -1    1    3    3    0  502  0.80969980165E+03  0.81729266190E+03  0.12816896476E+04  0.17222977144E+04  0.50400001928E-02 0.  1.
</event>
<event>
 5   0  0.4005462E-05  0.2342679E+04  0.7818609E-02  0.8461281E-01
       -1   -1    0    0    0  501  0.00000000000E+00  0.00000000000E+00  0.70733953192E+03  0.70733953194E+03  0.50400001928E-02 0.  1.
        1   -1    0    0  501    0  0.00000000000E+00  0.00000000000E+00 -0.19397131071E+04  0.19397131071E+04  0.50400001928E-02 0. -1.
    10030    2    1    2    0    0  0.00000000000E+00  0.00000000000E+00 -0.12323735752E+04  0.26470526391E+04  0.23426786048E+04 0.  0.
        4    1    3    3  502    0  0.81894533529E+03 -0.16993910387E+03 -0.15427832687E+04  0.17549166898E+04  0.12699999809E+01 0. -1.
       -4    1    3    3    0  502 -0.81894533529E+03  0.16993910387E+03  0.31040969348E+03  0.89213594924E+03  0.12699999809E+01 0.  1.
</event>
<event>
 5   0  0.9312074E-05  0.2298364E+04  0.7818609E-02  0.8478566E-01
       -2   -1    0    0    0  501  0.00000000000E+00  0.00000000000E+00  0.10060843146E+04  0.10060843146E+04  0.25500000920E-02 0.  1.
        2   -1    0    0  501    0  0.00000000000E+00  0.00000000000E+00 -0.13126329944E+04  0.13126329944E+04  0.25500000920E-02 0. -1.
    10030    2    1    2    0    0  0.00000000000E+00  0.00000000000E+00 -0.30654867981E+03  0.23187173090E+04  0.22983641718E+04 0.  0.
        4    1    3    3  502    0  0.11060974248E+02 -0.42470755571E+03  0.92394477871E+03  0.10169436661E+04  0.12699999809E+01 0.  1.
       -4    1    3    3    0  502 -0.11060974248E+02  0.42470755571E+03 -0.12304934585E+04  0.13017736429E+04  0.12699999809E+01 0. -1.
</event>
<event>
 5   0  0.9312074E-05  0.2301017E+04  0.7818609E-02  0.8477520E-01
        2   -1    0    0  501    0  0.00000000000E+00  0.00000000000E+00  0.22782950708E+04  0.22782950708E+04  0.25500000920E-02 0. -1.
       -2   -1    0    0    0  501  0.00000000000E+00  0.00000000000E+00 -0.58099140718E+03  0.58099140719E+03  0.25500000920E-02 0.  1.
    10030    2    1    2    0    0  0.00000000000E+00  0.00000000000E+00  0.16973036636E+04  0.28592864780E+04  0.23010170440E+04 0.  0.
        4    1    3    3  502    0 -0.85974102944E+03 -0.17844294613E+03  0.17724380047E+04  0.19780127947E+04  0.12699999809E+01 0. -1.
       -4    1    3    3    0  502  0.85974102944E+03  0.17844294613E+03 -0.75134341063E+02  0.88127368328E+03  0.12699999809E+01 0.  1.
</event>
<event>
 5   0  0.9483073E-05  0.2328795E+04  0.7818609E-02  0.8466653E-01
       -2   -1    0    0    0  501  0.00000000000E+00  0.00000000000E+00  0.86571762414E+03  0.86571762414E+03  0.25500000920E-02 0. -1.
        2   -1    0    0  501    0  0.00000000000E+00  0.00000000000E+00 -0.15661245716E+04  0.15661245716E+04  0.25500000920E-02 0.  1.
    10030    2    1    2    0    0  0.00000000000E+00  0.00000000000E+00 -0.70040694746E+03  0.24318421957E+04  0.23287950904E+04 0.  0.
        5    1    3    3  502    0 -0.41251254830E+03 -0.18281099125E+03  0.77070593809E+03  0.89308241167E+03  0.46999998093E+01 0. -1.
       -5    1    3    3    0  502  0.41251254830E+03  0.18281099125E+03 -0.14711128856E+04  0.15387597841E+04  0.46999998093E+01 0.  1.
</event>
<event>
 5   0  0.9313463E-05  0.2262607E+04  0.7818609E-02  0.8492812E-01
        2   -1    0    0  501    0  0.00000000000E+00  0.00000000000E+00  0.66261124480E+03  0.66261124481E+03  0.25500000920E-02 0. -1.
       -2   -1    0    0    0  501  0.00000000000E+00  0.00000000000E+00 -0.19315207913E+04  0.19315207913E+04  0.25500000920E-02 0.  1.
    10030    2    1    2    0    0  0.00000000000E+00  0.00000000000E+00 -0.12689095465E+04  0.25941320361E+04  0.22626068115E+04 0.  0.
        1    1    3    3  502    0  0.67849412067E+03 -0.20730457707E+03  0.37586472060E+03  0.80287218639E+03  0.50400001928E-02 0. -1.
       -1    1    3    3    0  502 -0.67849412067E+03  0.20730457707E+03 -0.16447742670E+04  0.17912598497E+04  0.50400001928E-02 0.  1.
</event>
<event>
 5   0  0.4295775E-05  0.2288512E+04  0.7818609E-02  0.8482464E-01
        1   -1    0    0  501    0  0.00000000000E+00  0.00000000000E+00  0.99784138168E+03  0.99784138170E+03  0.50400001928E-02 0.  1.
       -1   -1    0    0    0  501  0.00000000000E+00  0.00000000000E+00 -0.13121547451E+04  0.13121547451E+04  0.50400001928E-02 0. -1.
    10030    2    1    2    0    0  0.00000000000E+00  0.00000000000E+00 -0.31431336345E+03  0.23099961268E+04  0.22885124460E+04 0.  0.
        5    1    3    3  502    0  0.33183504601E+03 -0.72557698298E+03 -0.98505377117E+03  0.12676472215E+04  0.46999998093E+01 0. -1.
       -5    1    3    3    0  502 -0.33183504601E+03  0.72557698298E+03  0.67074040772E+03  0.10423489054E+04  0.46999998093E+01 0.  1.
</event>
<event>
 5   0  0.9483073E-05  0.2258977E+04  0.7818609E-02  0.8494274E-01
       -2   -1    0    0    0  501  0.00000000000E+00  0.00000000000E+00  0.71745382370E+03  0.71745382370E+03  0.25500000920E-02 0.  1.
        2   -1    0    0  501    0  0.00000000000E+00  0.00000000000E+00 -0.17781545063E+04  0.17781545063E+04  0.25500000920E-02 0. -1.
    10030    2    1    2    0    0  0.00000000000E+00  0.00000000000E+00 -0.10607006826E+04  0.24956083300E+04  0.22589765379E+04 0.  0.
        5    1    3    3  502    0 -0.88691163512E+03  0.58937253582E+03 -0.94628523857E+03  0.14245876867E+04  0.46999998093E+01 0. -1.
       -5    1    3    3    0  502  0.88691163512E+03 -0.58937253582E+03 -0.11441544404E+03  0.10710206433E+04  0.46999998093E+01 0.  1.
</event>
<event>
 5   0  0.3885219E-05  0.2263532E+04  0.7818609E-02  0.8492440E-01
       -1   -1    0    0    0  501  0.00000000000E+00  0.00000000000E+00  0.79179806126E+03  0.79179806128E+03  0.50400001928E-02 0.  1.
        1   -1    0    0  501    0  0.00000000000E+00  0.00000000000E+00 -0.16177026726E+04  0.16177026726E+04  0.50400001928E-02 0. -1.
    10030    2    1    2    0    0  0.00000000000E+00  0.00000000000E+00 -0.82590461132E+03  0.24095007339E+04  0.22635316122E+04 0.  0.
        2    1    3    3  502    0  0.27863438962E+03 -0.36956487450E+03 -0.15123562067E+04  0.15815930625E+04  0.25500000920E-02 0. -1.
       -2    1    3    3    0  502 -0.27863438962E+03  0.36956487450E+03  0.68645159534E+03  0.82790767136E+03  0.25500000920E-02 0.  1.
</event>
<event>
 5   0  0.9483073E-05  0.2271874E+04  0.7818609E-02  0.8489094E-01
        2   -1    0    0  501    0  0.00000000000E+00  0.00000000000E+00  0.14564600029E+04  0.14564600029E+04  0.25500000920E-02 0.  1.
       -2   -1    0    0    0  501  0.00000000000E+00  0.00000000000E+00 -0.88595153058E+03  0.88595153059E+03  0.25500000920E-02 0. -1.
    10030    2    1    2    0    0  0.00000000000E+00  0.00000000000E+00  0.57050847229E+03  0.23424115335E+04  0.22718740888E+04 0.  0.
        5    1    3    3  502    0 -0.32258537671E+03  0.88228336769E+03 -0.37320188117E+03  0.10108348036E+04  0.46999998093E+01 0. -1.
       -5    1    3    3    0  502  0.32258537671E+03 -0.88228336769E+03  0.94371035346E+03  0.13315767298E+04  0.46999998093E+01 0.  1.
</event>
<event>
 5   0  0.4095451E-05  0.2273151E+04  0.7818609E-02  0.8488583E-01
       -1   -1    0    0    0  501  0.00000000000E+00  0.00000000000E+00  0.16133084479E+04  0.16133084479E+04  0.50400001928E-02 0. -1.
        1   -1    0    0  501    0  0.00000000000E+00  0.00000000000E+00 -0.80071741445E+03  0.80071741447E+03  0.50400001928E-02 0.  1.
    10030    2    1    2    0    0  0.00000000000E+00  0.00000000000E+00  0.81259103348E+03  0.24140258624E+04  0.22731512657E+04 0.  0.
        3    1    3    3  502    0  0.76147213345E+03 -0.14525035923E+03 -0.47639956418E+03  0.90988682364E+03  0.10100000352E+00 0.  1.
       -3    1    3    3    0  502 -0.76147213345E+03  0.14525035923E+03  0.12889905977E+04  0.15041390388E+04  0.10100000352E+00 0. -1.
</event>
<event>
 5   0  0.4005462E-05  0.1667081E+04  0.7818609E-02  0.8780365E-01
        1   -1    0    0  501    0  0.00000000000E+00  0.00000000000E+00  0.90768768857E+03  0.90768768858E+03  0.50400001928E-02 0. -1.
       -1   -1    0    0    0  501  0.00000000000E+00  0.00000000000E+00 -0.76545060598E+03  0.76545060600E+03  0.50400001928E-02 0.  1.
    10030    2    1    2    0    0  0.00000000000E+00  0.00000000000E+00  0.14223708259E+03  0.16731382946E+04  0.16670813913E+04 0.  0.
        4    1    3    3  502    0 -0.61862745052E+03  0.38730003666E+03  0.47518187799E+03  0.87091944002E+03  0.12699999809E+01 0. -1.
       -4    1    3    3    0  502  0.61862745052E+03 -0.38730003666E+03 -0.33294479540E+03  0.80221885456E+03  0.12699999809E+01 0.  1.
</event>
<event>
 5   0  0.4095451E-05  0.2296177E+04  0.7818609E-02  0.8479430E-01
        1   -1    0    0  501    0  0.00000000000E+00  0.00000000000E+00  0.13576176316E+04  0.13576176316E+04  0.50400001928E-02 0. -1.
       -1   -1    0    0    0  501  0.00000000000E+00  0.00000000000E+00 -0.97089724519E+03  0.97089724520E+03  0.50400001928E-02 0.  1.
    10030    2    1    2    0    0  0.00000000000E+00  0.00000000000E+00  0.38672038642E+03  0.23285148768E+04  0.22961770128E+04 0.  0.
        3    1    3    3  502    0 -0.91852773304E+03  0.32324175534E+03  0.81014364332E+03  0.12666930022E+04  0.10100000352E+00 0. -1.
       -3    1    3    3    0  502  0.91852773304E+03 -0.32324175534E+03 -0.42342325690E+03  0.10618218746E+04  0.10100000352E+00 0.  1.
</event>
<event>
 5   0  0.4095451E-05  0.2266726E+04  0.7818609E-02  0.8491157E-01
        1   -1    0    0  501    0  0.00000000000E+00  0.00000000000E+00  0.28663160535E+04  0.28663160535E+04  0.50400001928E-02 0. -1.
       -1   -1    0    0    0  501  0.00000000000E+00  0.00000000000E+00 -0.44814043462E+03  0.44814043464E+03  0.50400001928E-02 0.  1.
    10030    2    1    2    0    0  0.00000000000E+00  0.00000000000E+00  0.24181756189E+04  0.33144564882E+04  0.22667263814E+04 0.  0.
        3    1    3    3  502    0 -0.45654426428E+03 -0.10258619547E+04  0.14341307896E+04  0.18214160829E+04  0.10100000352E+00 0.  1.
       -3    1    3    3    0  502  0.45654426428E+03  0.10258619547E+04  0.98404482934E+03  0.14930404052E+04  0.10100000352E+00 0. -1.
</event>
<event>
 5   0  0.9535394E-05  0.2184313E+04  0.7818609E-02  0.8524986E-01
       -2   -1    0    0    0  501  0.00000000000E+00  0.00000000000E+00  0.47389617773E+03  0.47389617774E+03  0.25500000920E-02 0. -1.
        2   -1    0    0  501    0  0.00000000000E+00  0.00000000000E+00 -0.25170196446E+04  0.25170196446E+04  0.25500000920E-02 0.  1.
    10030    2    1    2    0    0  0.00000000000E+00  0.00000000000E+00 -0.20431234668E+04  0.29909158223E+04  0.21843131541E+04 0.  0.
        2    1    3    3  502    0  0.39979420239E+03  0.11425367776E+03  0.36127732154E+03  0.55082720541E+03  0.25500000920E-02 0. -1.
       -2    1    3    3    0  502 -0.39979420239E+03 -0.11425367776E+03 -0.24044007884E+04  0.24400886169E+04  0.25500000920E-02 0.  1.
</event>
<event>
 5   0  0.4295775E-05  0.2347621E+04  0.7818609E-02  0.8459378E-01
        1   -1    0    0  501    0  0.00000000000E+00  0.00000000000E+00  0.10516466262E+04  0.10516466262E+04  0.50400001928E-02 0. -1.
       -1   -1    0    0    0  501  0.00000000000E+00  0.00000000000E+00 -0.13101649222E+04  0.13101649222E+04  0.50400001928E-02 0.  1.
    10030    2    1    2    0    0  0.00000000000E+00  0.00000000000E+00 -0.25851829602E+03  0.23618115484E+04  0.23476205146E+04 0.  0.
        5    1    3    3  502    0 -0.53422586735E+03  0.86899972086E+03  0.45498414547E+03  0.11169558876E+04  0.46999998093E+01 0. -1.
       -5    1    3    3    0  502  0.53422586735E+03 -0.86899972086E+03 -0.71350244148E+03  0.12448556608E+04  0.46999998093E+01 0.  1.
</event>
<event>
 5   0  0.3885219E-05  0.2314037E+04  0.7818609E-02  0.8472407E-01
       -1   -1    0    0    0  501  0.00000000000E+00  0.00000000000E+00  0.96106006792E+03  0.96106006793E+03  0.50400001928E-02 0.  1.
        1   -1    0    0  501    0  0.00000000000E+00  0.00000000000E+00 -0.13929330757E+04  0.13929330758E+04  0.50400001928E-02 0. -1.
    10030    2    1    2    0    0  0.00000000000E+00  0.00000000000E+00 -0.43187300782E+03  0.23539931437E+04  0.23140374728E+04 0.  0.
        2    1    3    3  502    0 -0.99803223515E+03 -0.41039867523E+03 -0.64051213974E+03  0.12548909180E+04  0.25500000920E-02 0.  1.
       -2    1    3    3    0  502  0.99803223515E+03  0.41039867523E+03  0.20863913192E+03  0.10991022256E+04  0.25500000920E-02 0. -1.
</event>
<event>
 5   0  0.4095451E-05  0.1830510E+04  0.7818609E-02  0.8690241E-01
       -1   -1    0    0    0  501  0.00000000000E+00  0.00000000000E+00  0.64756395874E+03  0.64756395876E+03  0.50400001928E-02 0.  1.
        1   -1    0    0  501    0  0.00000000000E+00  0.00000000000E+00 -0.12936045769E+04  0.12936045769E+04  0.50400001928E-02 0. -1.
    10030    2    1    2    0    0  0.00000000000E+00  0.00000000000E+00 -0.64604061819E+03  0.19411685357E+04  0.18305099846E+04 0.  0.
        3    1    3    3  502    0 -0.44892046329E+03 -0.53495223053E+03  0.30434117780E+03  0.76179198868E+03  0.10100000352E+00 0.  1.
       -3    1    3    3    0  502  0.44892046329E+03  0.53495223053E+03 -0.95038179598E+03  0.11793765470E+04  0.10100000352E+00 0. -1.
</event>
<event>
 5   0  0.9313463E-05  0.1408617E+04  0.7818609E-02  0.8947604E-01
       -2   -1    0    0    0  501  0.00000000000E+00  0.00000000000E+00  0.17021692256E+03  0.17021692258E+03  0.25500000920E-02 0. -1.
        2   -1    0    0  501    0  0.00000000000E+00  0.00000000000E+00 -0.29142273279E+04  0.29142273279E+04  0.25500000920E-02 0.  1.
    10030    2    1    2    0    0  0.00000000000E+00  0.00000000000E+00 -0.27440104053E+04  0.30844442505E+04  0.14086174888E+04 0.  0.
        1    1    3    3  502    0 -0.54817089797E+03  0.43829114979E+03 -0.15008133587E+04  0.16568135692E+04  0.50400001928E-02 0.  1.
       -1    1    3    3    0  502  0.54817089797E+03 -0.43829114979E+03 -0.12431970466E+04  0.14276306813E+04  0.50400001928E-02 0. -1.
</event>
<event>
 5   0  0.9535394E-05  0.2413742E+04  0.7818609E-02  0.8434377E-01
        2   -1    0    0  501    0  0.00000000000E+00  0.00000000000E+00  0.22247363672E+04  0.22247363672E+04  0.25500000920E-02 0. -1.
       -2   -1    0    0    0  501  0.00000000000E+00  0.00000000000E+00 -0.65470117180E+03  0.65470117181E+03  0.25500000920E-02 0.  1.
    10030    2    1    2    0    0  0.00000000000E+00  0.00000000000E+00  0.15700351954E+04  0.28794375390E+04  0.24137419138E+04 0.  0.
        2    1    3    3  502    0  0.22108204146E+03 -0.10030422089E+04  0.15409720044E+04  0.18519086534E+04  0.25500000920E-02 0. -1.
       -2    1    3    3    0  502 -0.22108204146E+03  0.10030422089E+04  0.29063190993E+02  0.10275288857E+04  0.25500000920E-02 0.  1.
</event>
<event>
 5   0  0.4095451E-05  0.2315875E+04  0.7818609E-02  0.8471688E-01
        1   -1    0    0  501    0  0.00000000000E+00  0.00000000000E+00  0.76231613084E+03  0.76231613085E+03  0.50400001928E-02 0. -1.
       -1   -1    0    0    0  501  0.00000000000E+00  0.00000000000E+00 -0.17588749573E+04  0.17588749573E+04  0.50400001928E-02 0.  1.
    10030    2    1    2    0    0  0.00000000000E+00  0.00000000000E+00 -0.99655882647E+03  0.25211910882E+04  0.23158745666E+04 0.  0.
        3    1    3    3  502    0  0.18105929738E+03 -0.24404720633E+03 -0.17146923877E+04  0.17414107794E+04  0.10100000352E+00 0.  1.
       -3    1    3    3    0  502 -0.18105929738E+03  0.24404720633E+03  0.71813356118E+03  0.77978030879E+03  0.10100000352E+00 0. -1.
</event>
<event>
 5   0  0.9313463E-05  0.2294615E+04  0.7818609E-02  0.8480047E-01
        2   -1    0    0  501    0  0.00000000000E+00  0.00000000000E+00  0.87261519983E+03  0.87261519983E+03  0.25500000920E-02 0. -1.
       -2   -1    0    0    0  501  0.00000000000E+00  0.00000000000E+00 -0.15084704962E+04  0.15084704962E+04  0.25500000920E-02 0.  1.
    10030    2    1    2    0    0  0.00000000000E+00  0.00000000000E+00 -0.63585529635E+03  0.23810856960E+04  0.22946148117E+04 0.  0.
        1    1    3    3  502    0 -0.11236442685E+04  0.15832514363E+03 -0.14222165342E+03  0.11436215685E+04  0.50400001928E-02 0. -1.
       -1    1    3    3    0  502  0.11236442685E+04 -0.15832514363E+03 -0.49363364292E+03  0.12374641275E+04  0.50400001928E-02 0.  1.
</event>
<event>
 5   0  0.4139830E-05  0.2299335E+04  0.7818609E-02  0.8478183E-01
        1   -1    0    0  501    0  0.00000000000E+00  0.00000000000E+00  0.88348639667E+03  0.88348639669E+03  0.50400001928E-02 0. -1.
       -1   -1    0    0    0  501  0.00000000000E+00  0.00000000000E+00 -0.14960447302E+04  0.14960447302E+04  0.50400001928E-02 0.  1.
    10030    2    1    2    0    0  0.00000000000E+00  0.00000000000E+00 -0.61255833355E+03  0.23795311269E+04  0.22993348325E+04 0.  0.
        1    1    3    3  502    0  0.61308388569E+03 -0.79817266935E+03  0.26878507053E+03  0.10417278316E+04  0.50400001928E-02 0. -1.
       -1    1    3    3    0  502 -0.61308388569E+03  0.79817266935E+03 -0.88134340408E+03  0.13378032953E+04  0.50400001928E-02 0.  1.
</event>
<event>
 5   0  0.4095451E-05  0.2188055E+04  0.7818609E-02  0.8523417E-01
        1   -1    0    0  501    0  0.00000000000E+00  0.00000000000E+00  0.28980565685E+04  0.28980565685E+04  0.50400001928E-02 0.  1.
       -1   -1    0    0    0  501  0.00000000000E+00  0.00000000000E+00 -0.41299945912E+03  0.41299945915E+03  0.50400001928E-02 0. -1.
    10030    2    1    2    0    0  0.00000000000E+00  0.00000000000E+00  0.24850571093E+04  0.33110560276E+04  0.21880546568E+04 0.  0.
        3    1    3    3  502    0 -0.23202160575E+03  0.95575788042E+03  0.51745251326E+03  0.11113344524E+04  0.10100000352E+00 0. -1.
       -3    1    3    3    0  502  0.23202160575E+03 -0.95575788042E+03  0.19676045961E+04  0.21997215752E+04  0.10100000352E+00 0.  1.
</event>
<event>
 5   0  0.9312074E-05  0.1704309E+04  0.7818609E-02  0.8758911E-01
        2   -1    0    0  501    0  0.00000000000E+00  0.00000000000E+00  0.11758286624E+04  0.11758286624E+04  0.25500000920E-02 0. -1.
       -2   -1    0    0    0  501  0.00000000000E+00  0.00000000000E+00 -0.61757919548E+03  0.61757919548E+03  0.25500000920E-02 0.  1.
    10030    2    1    2    0    0  0.00000000000E+00  0.00000000000E+00  0.55824946696E+03  0.17934078579E+04  0.17043090323E+04 0.  0.
        4    1    3    3  502    0  0.31949650370E+03  0.77900889231E+03  0.14098802482E+03  0.85370492924E+03  0.12699999809E+01 0. -1.
       -4    1    3    3    0  502 -0.31949650370E+03 -0.77900889231E+03  0.41726144214E+03  0.93970292868E+03  0.12699999809E+01 0.  1.
</event>
<event>
 5   0  0.3261500E-05  0.2257531E+04  0.7818609E-02  0.8494857E-01
       -4   -1    0    0    0  501  0.00000000000E+00  0.00000000000E+00  0.62907040016E+03  0.62907168213E+03  0.12699999809E+01 0.  1.
        4   -1    0    0  501    0  0.00000000000E+00  0.00000000000E+00 -0.20253850512E+04  0.20253854493E+04  0.12699999809E+01 0. -1.
    10030    2    1    2    0    0  0.00000000000E+00  0.00000000000E+00 -0.13963146510E+04  0.26544571315E+04  0.22575314080E+04 0.  0.
        3    1    3    3  502    0 -0.94285903451E+02  0.10907496240E+04 -0.10212143854E+04  0.14971651228E+04  0.10100000352E+00 0. -1.
       -3    1    3    3    0  502  0.94285903451E+02 -0.10907496240E+04 -0.37510026558E+03  0.11572920086E+04  0.10100000352E+00 0.  1.
</event>
<event>
 5   0  0.9313463E-05  0.2307397E+04  0.7818609E-02  0.8475010E-01
        2   -1    0    0  501    0  0.00000000000E+00  0.00000000000E+00  0.14605135227E+04  0.14605135227E+04  0.25500000920E-02 0. -1.
       -2   -1    0    0    0  501  0.00000000000E+00  0.00000000000E+00 -0.91133675444E+03  0.91133675444E+03  0.25500000920E-02 0.  1.
    10030    2    1    2    0    0  0.00000000000E+00  0.00000000000E+00  0.54917676822E+03  0.23718502771E+04  0.23073965013E+04 0.  0.
        1    1    3    3  502    0 -0.35371123780E+03 -0.84474610459E+03  0.99583745416E+03  0.13529227088E+04  0.50400001928E-02 0. -1.
       -1    1    3    3    0  502  0.35371123780E+03  0.84474610459E+03 -0.44666068594E+03  0.10189275683E+04  0.50400001928E-02 0.  1.
</event>
<event>
 5   0  0.9483073E-05  0.2276908E+04  0.7818609E-02  0.8487082E-01
        2   -1    0    0  501    0  0.00000000000E+00  0.00000000000E+00  0.77502349232E+03  0.77502349232E+03  0.25500000920E-02 0. -1.
       -2   -1    0    0    0  501  0.00000000000E+00  0.00000000000E+00 -0.16723066907E+04  0.16723066907E+04  0.25500000920E-02 0.  1.
    10030    2    1    2    0    0  0.00000000000E+00  0.00000000000E+00 -0.89728319835E+03  0.24473301830E+04  0.22769075270E+04 0.  0.
        5    1    3    3  502    0 -0.11259011507E+04  0.54916404749E+02 -0.27738730079E+03  0.11608768312E+04  0.46999998093E+01 0. -1.
       -5    1    3    3    0  502  0.11259011507E+04 -0.54916404749E+02 -0.61989589756E+03  0.12864533518E+04  0.46999998093E+01 0.  1.
</event>
<event>
 5   0  0.9312074E-05  0.2323341E+04  0.7818609E-02  0.8468775E-01
       -2   -1    0    0    0  501  0.00000000000E+00  0.00000000000E+00  0.96463221115E+03  0.96463221115E+03  0.25500000920E-02 0. -1.
        2   -1    0    0  501    0  0.00000000000E+00  0.00000000000E+00 -0.13989562131E+04  0.13989562131E+04  0.25500000920E-02 0.  1.
    10030    2    1    2    0    0  0.00000000000E+00  0.00000000000E+00 -0.43432400193E+03  0.23635884242E+04  0.23233408920E+04 0.  0.
        4    1    3    3  502    0  0.10158715148E+04 -0.45724012434E+03 -0.55212735722E+03  0.12433461695E+04  0.12699999809E+01 0.  1.
       -4    1    3    3    0  502 -0.10158715148E+04  0.45724012434E+03  0.11780335529E+03  0.11202422547E+04  0.12699999809E+01 0. -1.
</event>
<event>
 5   0  0.4095451E-05  0.1879870E+04  0.7818609E-02  0.8664942E-01
        1   -1    0    0  501    0  0.00000000000E+00  0.00000000000E+00  0.86049646181E+03  0.86049646183E+03  0.50400001928E-02 0.  1.
       -1   -1    0    0    0  501  0.00000000000E+00  0.00000000000E+00 -0.10267072836E+04  0.10267072836E+04  0.50400001928E-02 0. -1.
    10030    2    1    2    0    0  0.00000000000E+00  0.00000000000E+00 -0.16621082181E+03  0.18872037455E+04  0.18798701922E+04 0.  0.
        3    1    3    3  502    0  0.60335387968E+03 -0.33482577489E+03  0.55761142670E+03  0.88717231531E+03  0.10100000352E+00 0.  1.
       -3    1    3    3    0  502 -0.60335387968E+03  0.33482577489E+03 -0.72382224851E+03  0.10000314302E+04  0.10100000352E+00 0. -1.
</event>
<event>
 5   0  0.4095451E-05  0.2306489E+04  0.7818609E-02  0.8475367E-01
       -1   -1    0    0    0  501  0.00000000000E+00  0.00000000000E+00  0.13378605349E+04  0.13378605349E+04  0.50400001928E-02 0. -1.
        1   -1    0    0  501    0  0.00000000000E+00  0.00000000000E+00 -0.99410445246E+03  0.99410445248E+03  0.50400001928E-02 0.  1.
    10030    2    1    2    0    0  0.00000000000E+00  0.00000000000E+00  0.34375608244E+03  0.23319649874E+04  0.23064892062E+04 0.  0.
        3    1    3    3  502    0 -0.86878293109E+03  0.61298374383E+03  0.62339805673E+03  0.12325412767E+04  0.10100000352E+00 0. -1.
       -3    1    3    3    0  502  0.86878293109E+03 -0.61298374383E+03 -0.27964197428E+03  0.10994237106E+04  0.10100000352E+00 0.  1.
</event>
<event>
 5   0  0.9641157E-05  0.2320267E+04  0.7818609E-02  0.8469973E-01
       -2   -1    0    0    0  501  0.00000000000E+00  0.00000000000E+00  0.93679494215E+03  0.93679494216E+03  0.25500000920E-02 0.  1.
        2   -1    0    0  501    0  0.00000000000E+00  0.00000000000E+00 -0.14367178505E+04  0.14367178505E+04  0.25500000920E-02 0. -1.
    10030    2    1    2    0    0  0.00000000000E+00  0.00000000000E+00 -0.49992290834E+03  0.23735127927E+04  0.23202672395E+04 0.  0.
        3    1    3    3  502    0 -0.10582506720E+04 -0.36958027440E+03 -0.55586557633E+03  0.12511876810E+04  0.10100000352E+00 0.  1.
       -3    1    3    3    0  502  0.10582506720E+04  0.36958027440E+03  0.55942667988E+02  0.11223251117E+04  0.10100000352E+00 0. -1.
</event>
<event>
 5   0  0.9312074E-05  0.2300665E+04  0.7818609E-02  0.8477659E-01
       -2   -1    0    0    0  501  0.00000000000E+00  0.00000000000E+00  0.13463742077E+04  0.13463742077E+04  0.25500000920E-02 0. -1.
        2   -1    0    0  501    0  0.00000000000E+00  0.00000000000E+00 -0.98283600686E+03  0.98283600686E+03  0.25500000920E-02 0.  1.
    10030    2    1    2    0    0  0.00000000000E+00  0.00000000000E+00  0.36353820079E+03  0.23292102145E+04  0.23006651647E+04 0.  0.
        4    1    3    3  502    0  0.28358880423E+03 -0.71268421736E+03  0.10496815205E+04  0.13000670410E+04  0.12699999809E+01 0. -1.
       -4    1    3    3    0  502 -0.28358880423E+03  0.71268421736E+03 -0.68614331973E+03  0.10291431736E+04  0.12699999809E+01 0.  1.
</event>
<event>
 5   0  0.3885219E-05  0.2249062E+04  0.7818609E-02  0.8498281E-01
        1   -1    0    0  501    0  0.00000000000E+00  0.00000000000E+00  0.97240032919E+03  0.97240032920E+03  0.50400001928E-02 0.  1.
       -1   -1    0    0    0  501  0.00000000000E+00  0.00000000000E+00 -0.13004621173E+04  0.13004621173E+04  0.50400001928E-02 0. -1.
    10030    2    1    2    0    0  0.00000000000E+00  0.00000000000E+00 -0.32806178806E+03  0.22728624465E+04  0.22490618408E+04 0.  0.
        2    1    3    3  502    0 -0.37643621526E+03 -0.76027472152E+03 -0.90998035154E+03  0.12441005251E+04  0.25500000920E-02 0. -1.
       -2    1    3    3    0  502  0.37643621526E+03  0.76027472152E+03  0.58191856347E+03  0.10287619214E+04  0.25500000920E-02 0.  1.
</event>
<event>
 5   0  0.4139830E-05  0.2323325E+04  0.7818609E-02  0.8468781E-01
       -1   -1    0    0    0  501  0.00000000000E+00  0.00000000000E+00  0.12710820162E+04  0.12710820162E+04  0.50400001928E-02 0.  1.
        1   -1    0    0  501    0  0.00000000000E+00  0.00000000000E+00 -0.10616617955E+04  0.10616617955E+04  0.50400001928E-02 0. -1.
    10030    2    1    2    0    0  0.00000000000E+00  0.00000000000E+00  0.20942022069E+03  0.23327438118E+04  0.23233245280E+04 0.  0.
        1    1    3    3  502    0 -0.74280705770E+02  0.29910307659E+03 -0.10198660075E+04  0.10654139792E+04  0.50400001928E-02 0. -1.
       -1    1    3    3    0  502  0.74280705770E+02 -0.29910307659E+03  0.12292862282E+04  0.12673298326E+04  0.50400001928E-02 0.  1.
</event>
<event>
 5   0  0.3885219E-05  0.2309315E+04  0.7818609E-02  0.8474258E-01
        1   -1    0    0  501    0  0.00000000000E+00  0.00000000000E+00  0.90292420670E+03  0.90292420671E+03  0.50400001928E-02 0. -1.
       -1   -1    0    0    0  501  0.00000000000E+00  0.00000000000E+00 -0.14765728997E+04  0.14765728997E+04  0.50400001928E-02 0.  1.
    10030    2    1    2    0    0  0.00000000000E+00  0.00000000000E+00 -0.57364869299E+03  0.23794971064E+04  0.23093145426E+04 0.  0.
        2    1    3    3  502    0  0.37650484275E+03 -0.20838594279E+03  0.81721111903E+03  0.92358790098E+03  0.25500000920E-02 0. -1.
       -2    1    3    3    0  502 -0.37650484275E+03  0.20838594279E+03 -0.13908598120E+04  0.14559092054E+04  0.25500000920E-02 0.  1.
</event>
<event>
 5   0  0.9312074E-05  0.2311919E+04  0.7818609E-02  0.8473236E-01
       -2   -1    0    0    0  501  0.00000000000E+00  0.00000000000E+00  0.13127377319E+04  0.13127377319E+04  0.25500000920E-02 0.  1.
        2   -1    0    0  501    0  0.00000000000E+00  0.00000000000E+00 -0.10179049632E+04  0.10179049632E+04  0.25500000920E-02 0. -1.
    10030    2    1    2    0    0  0.00000000000E+00  0.00000000000E+00  0.29483276865E+03  0.23306426951E+04  0.23119189023E+04 0.  0.
        4    1    3    3  502    0 -0.47779867137E+03  0.18175084715E+03 -0.89776172505E+03  0.10331034163E+04  0.12699999809E+01 0. -1.
       -4    1    3    3    0  502  0.47779867137E+03 -0.18175084715E+03  0.11925944937E+04  0.12975392788E+04  0.12699999809E+01 0.  1.
</event>
<event>
 5   0  0.9312074E-05  0.2302709E+04  0.7818609E-02  0.8476854E-01
        2   -1    0    0  501    0  0.00000000000E+00  0.00000000000E+00  0.11812823740E+04  0.11812823740E+04  0.25500000920E-02 0. -1.
       -2   -1    0    0    0  501  0.00000000000E+00  0.00000000000E+00 -0.11221847406E+04  0.11221847406E+04  0.25500000920E-02 0.  1.
    10030    2    1    2    0    0  0.00000000000E+00  0.00000000000E+00  0.59097633353E+02  0.23034671146E+04  0.23027088869E+04 0.  0.
        4    1    3    3  502    0  0.25516080208E+02  0.36494656641E+03 -0.10624966737E+04  0.11237160946E+04  0.12699999809E+01 0.  1.
       -4    1    3    3    0  502 -0.25516080208E+02 -0.36494656641E+03  0.11215943071E+04  0.11797510200E+04  0.12699999809E+01 0. -1.
</event>
<event>
 5   0  0.9483073E-05  0.2083584E+04  0.7818609E-02  0.8568509E-01
        2   -1    0    0  501    0  0.00000000000E+00  0.00000000000E+00  0.15846252383E+04  0.15846252383E+04  0.25500000920E-02 0. -1.
       -2   -1    0    0    0  501  0.00000000000E+00  0.00000000000E+00 -0.68491332303E+03  0.68491332303E+03  0.25500000920E-02 0.  1.
    10030    2    1    2    0    0  0.00000000000E+00  0.00000000000E+00  0.89971191527E+03  0.22695385613E+04  0.20835843518E+04 0.  0.
        5    1    3    3  502    0 -0.24374909268E+03 -0.54601892820E+02 -0.65180005932E+03  0.69804039583E+03  0.46999998093E+01 0.  1.
       -5    1    3    3    0  502  0.24374909268E+03  0.54601892820E+02  0.15515119746E+04  0.15714981655E+04  0.46999998093E+01 0. -1.
</event>
<event>
 5   0  0.4095451E-05  0.2307157E+04  0.7818609E-02  0.8475105E-01
       -1   -1    0    0    0  501  0.00000000000E+00  0.00000000000E+00  0.12600745254E+04  0.12600745254E+04  0.50400001928E-02 0. -1.
        1   -1    0    0  501    0  0.00000000000E+00  0.00000000000E+00 -0.10560828474E+04  0.10560828475E+04  0.50400001928E-02 0.  1.
    10030    2    1    2    0    0  0.00000000000E+00  0.00000000000E+00  0.20399167796E+03  0.23161573729E+04  0.23071567721E+04 0.  0.
        3    1    3    3  502    0 -0.67720714956E+03 -0.32443888240E+03 -0.77713329764E+03  0.10806508614E+04  0.10100000352E+00 0.  1.
       -3    1    3    3    0  502  0.67720714956E+03  0.32443888240E+03  0.98112497560E+03  0.12355065114E+04  0.10100000352E+00 0. -1.
</event>
<event>
 5   0  0.3885219E-05  0.2326272E+04  0.7818609E-02  0.8467634E-01
       -1   -1    0    0    0  501  0.00000000000E+00  0.00000000000E+00  0.89212986714E+03  0.89212986715E+03  0.50400001928E-02 0.  1.
        1   -1    0    0  501    0  0.00000000000E+00  0.00000000000E+00 -0.15164671759E+04  0.15164671759E+04  0.50400001928E-02 0. -1.
    10030    2    1    2    0    0  0.00000000000E+00  0.00000000000E+00 -0.62433730876E+03  0.24085970431E+04  0.23262722628E+04 0.  0.
        2    1    3    3  502    0  0.79652812542E+02 -0.11386368279E+04 -0.80539204789E+02  0.11442573836E+04  0.25500000920E-02 0.  1.
       -2    1    3    3    0  502 -0.79652812542E+02  0.11386368279E+04 -0.54379810398E+03  0.12643396594E+04  0.25500000920E-02 0. -1.
</event>
<event>
 5   0  0.9313463E-05  0.2312757E+04  0.7818609E-02  0.8472908E-01
        2   -1    0    0  501    0  0.00000000000E+00  0.00000000000E+00  0.12870354472E+04  0.12870354472E+04  0.25500000920E-02 0.  1.
       -2   -1    0    0    0  501  0.00000000000E+00  0.00000000000E+00 -0.10389856569E+04  0.10389856569E+04  0.25500000920E-02 0. -1.
    10030    2    1    2    0    0  0.00000000000E+00  0.00000000000E+00  0.24804979027E+03  0.23260211042E+04  0.23127571162E+04 0.  0.
        1    1    3    3  502    0  0.99738186811E+02 -0.10647647924E+04  0.56647932247E+03  0.12101944438E+04  0.50400001928E-02 0.  1.
       -1    1    3    3    0  502 -0.99738186811E+02  0.10647647924E+04 -0.31842953221E+03  0.11158266604E+04  0.50400001928E-02 0. -1.
</event>
<event>
 5   0  0.4005462E-05  0.2288319E+04  0.7818609E-02  0.8482541E-01
        1   -1    0    0  501    0  0.00000000000E+00  0.00000000000E+00  0.19359151611E+04  0.19359151611E+04  0.50400001928E-02 0.  1.
       -1   -1    0    0    0  501  0.00000000000E+00  0.00000000000E+00 -0.67621825850E+03  0.67621825852E+03  0.50400001928E-02 0. -1.
    10030    2    1    2    0    0  0.00000000000E+00  0.00000000000E+00  0.12596969026E+04  0.26121334197E+04  0.22883191901E+04 0.  0.
        4    1    3    3  502    0  0.87103356330E+03  0.71305913203E+03  0.39605732417E+03  0.11933213361E+04  0.12699999809E+01 0. -1.
       -4    1    3    3    0  502 -0.87103356330E+03 -0.71305913203E+03  0.86363957846E+03  0.14188120836E+04  0.12699999809E+01 0.  1.
</event>
<event>
 5   0  0.9313463E-05  0.2116717E+04  0.7818609E-02  0.8553915E-01
        2   -1    0    0  501    0  0.00000000000E+00  0.00000000000E+00  0.16423603029E+04  0.16423603029E+04  0.25500000920E-02 0. -1.
       -2   -1    0    0    0  501  0.00000000000E+00  0.00000000000E+00 -0.68201986196E+03  0.68201986197E+03  0.25500000920E-02 0.  1.
    10030    2    1    2    0    0  0.00000000000E+00  0.00000000000E+00  0.96034044097E+03  0.23243801649E+04  0.21167166528E+04 0.  0.
        1    1    3    3  502    0  0.46685778653E+03  0.47628578293E+03  0.13825692079E+04  0.15350250664E+04  0.50400001928E-02 0. -1.
       -1    1    3    3    0  502 -0.46685778653E+03 -0.47628578293E+03 -0.42222876693E+03  0.78935509849E+03  0.50400001928E-02 0.  1.
</event>
<event>
 5   0  0.3261500E-05  0.2298876E+04  0.7818609E-02  0.8478365E-01
       -3   -1    0    0    0  501  0.00000000000E+00  0.00000000000E+00  0.11498536378E+04  0.11498536422E+04  0.10100000352E+00 0. -1.
        3   -1    0    0  501    0  0.00000000000E+00  0.00000000000E+00 -0.11490222391E+04  0.11490222436E+04  0.10100000352E+00 0.  1.
    10030    2    1    2    0    0  0.00000000000E+00  0.00000000000E+00  0.83139870137E+00  0.22988758858E+04  0.22988757355E+04 0.  0.
        5    1    3    3  502    0  0.88784453192E+03 -0.33660019432E+03 -0.64736340882E+03  0.11492036707E+04  0.46999998093E+01 0.  1.
       -5    1    3    3    0  502 -0.88784453192E+03  0.33660019432E+03  0.64819480752E+03  0.11496722151E+04  0.46999998093E+01 0. -1.
</event>
<event>
 5   0  0.9535394E-05  0.2273875E+04  0.7818609E-02  0.8488294E-01
        2   -1    0    0  501    0  0.00000000000E+00  0.00000000000E+00  0.14496419908E+04  0.14496419908E+04  0.25500000920E-02 0. -1.
       -2   -1    0    0    0  501  0.00000000000E+00  0.00000000000E+00 -0.89168672134E+03  0.89168672134E+03  0.25500000920E-02 0.  1.
    10030    2    1    2    0    0  0.00000000000E+00  0.00000000000E+00  0.55795526946E+03  0.23413287121E+04  0.22738746790E+04 0.  0.
        2    1    3    3  502    0 -0.10107924196E+04 -0.16370441394E+03  0.78772589758E+03  0.12919026822E+04  0.25500000920E-02 0.  1.
       -2    1    3    3    0  502  0.10107924196E+04  0.16370441394E+03 -0.22977062812E+03  0.10494260299E+04  0.25500000920E-02 0. -1.
</event>
<event>
 5   0  0.4005462E-05  0.2256943E+04  0.7818609E-02  0.8495094E-01
        1   -1    0    0  501    0  0.00000000000E+00  0.00000000000E+00  0.90605051404E+03  0.90605051406E+03  0.50400001928E-02 0. -1.
       -1   -1    0    0    0  501  0.00000000000E+00  0.00000000000E+00 -0.14054937896E+04  0.14054937896E+04  0.50400001928E-02 0.  1.
    10030    2    1    2    0    0  0.00000000000E+00  0.00000000000E+00 -0.49944327559E+03  0.23115443037E+04  0.22569433937E+04 0.  0.
        4    1    3    3  502    0 -0.10996343315E+04 -0.22228825557E+03 -0.12495908385E+03  0.11288153600E+04  0.12699999809E+01 0. -1.
       -4    1    3    3    0  502  0.10996343315E+04  0.22228825557E+03 -0.37448419174E+03  0.11827289437E+04  0.12699999809E+01 0.  1.
</event>
<event>
 5   0  0.9312074E-05  0.1983358E+04  0.7818609E-02  0.8614441E-01
        2   -1    0    0  501    0  0.00000000000E+00  0.00000000000E+00  0.17298887666E+04  0.17298887666E+04  0.25500000920E-02 0.  1.
       -2   -1    0    0    0  501  0.00000000000E+00  0.00000000000E+00 -0.56849165789E+03  0.56849165790E+03  0.25500000920E-02 0. -1.
    10030    2    1    2    0    0  0.00000000000E+00  0.00000000000E+00  0.11613971087E+04  0.22983804245E+04  0.19833580946E+04 0.  0.
        4    1    3    3  502    0  0.22785234889E+02  0.97786801706E+03  0.76998492502E+03  0.12448387138E+04  0.12699999809E+01 0.  1.
       -4    1    3    3    0  502 -0.22785234889E+02 -0.97786801706E+03  0.39141218366E+03  0.10535417107E+04  0.12699999809E+01 0. -1.
</event>
<event>
 5   0  0.4095451E-05  0.2310338E+04  0.7818609E-02  0.8473856E-01
        1   -1    0    0  501    0  0.00000000000E+00  0.00000000000E+00  0.29448576737E+04  0.29448576737E+04  0.50400001928E-02 0.  1.
       -1   -1    0    0    0  501  0.00000000000E+00  0.00000000000E+00 -0.45313420646E+03  0.45313420649E+03  0.50400001928E-02 0. -1.
    10030    2    1    2    0    0  0.00000000000E+00  0.00000000000E+00  0.24917234673E+04  0.33979918802E+04  0.23103382827E+04 0.  0.
        3    1    3    3  502    0 -0.92658148661E+03  0.49861485929E+03  0.19469853643E+04  0.22131249508E+04  0.10100000352E+00 0.  1.
       -3    1    3    3    0  502  0.92658148661E+03 -0.49861485929E+03  0.54473810300E+03  0.11848669294E+04  0.10100000352E+00 0. -1.
</event>
<event>
 5   0  0.9483073E-05  0.2323257E+04  0.7818609E-02  0.8468807E-01
       -2   -1    0    0    0  501  0.00000000000E+00  0.00000000000E+00  0.11155376487E+04  0.11155376487E+04  0.25500000920E-02 0. -1.
        2   -1    0    0  501    0  0.00000000000E+00  0.00000000000E+00 -0.12096235189E+04  0.12096235189E+04  0.25500000920E-02 0.  1.
    10030    2    1    2    0    0  0.00000000000E+00  0.00000000000E+00 -0.94085870210E+02  0.23251611676E+04  0.23232568313E+04 0.  0.
        5    1    3    3  502    0  0.11440272834E+04 -0.72864306044E+01  0.15438546867E+03  0.11544299373E+04  0.46999998093E+01 0. -1.
       -5    1    3    3    0  502 -0.11440272834E+04  0.72864306044E+01 -0.24847133888E+03  0.11707312303E+04  0.46999998093E+01 0.  1.
</event>
<event>
 5   0  0.9483073E-05  0.2282817E+04  0.7818609E-02  0.8484727E-01
       -2   -1    0    0    0  501  0.00000000000E+00  0.00000000000E+00  0.17996848795E+04  0.17996848795E+04  0.25500000920E-02 0.  1.
        2   -1    0    0  501    0  0.00000000000E+00  0.00000000000E+00 -0.72391200038E+03  0.72391200038E+03  0.25500000920E-02 0. -1.
    10030    2    1    2    0    0  0.00000000000E+00  0.00000000000E+00  0.10757728791E+04  0.25235968799E+04  0.22828171028E+04 0.  0.
        5    1    3    3  502    0  0.99088484203E+03  0.63976390140E+02 -0.84374776781E+02  0.99653747627E+03  0.46999998093E+01 0. -1.
       -5    1    3    3    0  502 -0.99088484203E+03 -0.63976390140E+02  0.11601476559E+04  0.15270594036E+04  0.46999998093E+01 0.  1.
</event>
<event>
 5   0  0.9313463E-05  0.2323736E+04  0.7818609E-02  0.8468621E-01
       -2   -1    0    0    0  501  0.00000000000E+00  0.00000000000E+00  0.15837995861E+04  0.15837995861E+04  0.25500000920E-02 0. -1.
        2   -1    0    0  501    0  0.00000000000E+00  0.00000000000E+00 -0.85234112121E+03  0.85234112121E+03  0.25500000920E-02 0.  1.
    10030    2    1    2    0    0  0.00000000000E+00  0.00000000000E+00  0.73145846493E+03  0.24361407074E+04  0.23237362286E+04 0.  0.
        1    1    3    3  502    0  0.44953016568E+01 -0.20001237952E+03  0.15656060404E+04  0.15783369201E+04  0.50400001928E-02 0. -1.
       -1    1    3    3    0  502 -0.44953016568E+01  0.20001237952E+03 -0.83414757546E+03  0.85780378722E+03  0.50400001928E-02 0.  1.
</event>
<event>
 5   0  0.4005462E-05  0.1444858E+04  0.7818609E-02  0.8921973E-01
       -1   -1    0    0    0  501  0.00000000000E+00  0.00000000000E+00  0.41200563179E+03  0.41200563182E+03  0.50400001928E-02 0.  1.
        1   -1    0    0  501    0  0.00000000000E+00  0.00000000000E+00 -0.12667397787E+04  0.12667397787E+04  0.50400001928E-02 0. -1.
    10030    2    1    2    0    0  0.00000000000E+00  0.00000000000E+00 -0.85473414690E+03  0.16787454105E+04  0.14448583638E+04 0.  0.
        4    1    3    3  502    0  0.27042737874E+03 -0.37786066306E+03  0.21534294264E+03  0.51213654791E+03  0.12699999809E+01 0.  1.
       -4    1    3    3    0  502 -0.27042737874E+03  0.37786066306E+03 -0.10700770895E+04  0.11666088626E+04  0.12699999809E+01 0. -1.
</event>
<event>
 5   0  0.4095451E-05  0.1485926E+04  0.7818609E-02  0.8893866E-01
        1   -1    0    0  501    0  0.00000000000E+00  0.00000000000E+00  0.17837328897E+04  0.17837328897E+04  0.50400001928E-02 0.  1.
       -1   -1    0    0    0  501  0.00000000000E+00  0.00000000000E+00 -0.30946016694E+03  0.30946016698E+03  0.50400001928E-02 0. -1.
    10030    2    1    2    0    0  0.00000000000E+00  0.00000000000E+00  0.14742727227E+04  0.20931930567E+04  0.14859263479E+04 0.  0.
        3    1    3    3  502    0 -0.42704709224E+01 -0.17769560870E+03 -0.27906733818E+03  0.33086637138E+03  0.10100000352E+00 0. -1.
       -3    1    3    3    0  502  0.42704709224E+01  0.17769560870E+03  0.17533400609E+04  0.17623266853E+04  0.10100000352E+00 0.  1.
</event>
<event>
 5   0  0.4095451E-05  0.2299151E+04  0.7818609E-02  0.8478256E-01
        1   -1    0    0  501    0  0.00000000000E+00  0.00000000000E+00  0.79739913768E+03  0.79739913770E+03  0.50400001928E-02 0. -1.
       -1   -1    0    0    0  501  0.00000000000E+00  0.00000000000E+00 -0.16572924699E+04  0.16572924699E+04  0.50400001928E-02 0.  1.
    10030    2    1    2    0    0  0.00000000000E+00  0.00000000000E+00 -0.85989333221E+03  0.24546916076E+04  0.22991507879E+04 0.  0.
        3    1    3    3  502    0  0.24013790324E+03  0.10173688072E+04 -0.94065699981E+03  0.14062507258E+04  0.10100000352E+00 0.  1.
       -3    1    3    3    0  502 -0.24013790324E+03 -0.10173688072E+04  0.80763667599E+02  0.10484408818E+04  0.10100000352E+00 0. -1.
</event>
<event>
 5   0  0.9312074E-05  0.2367246E+04  0.7818609E-02  0.8451869E-01
        2   -1    0    0  501    0  0.00000000000E+00  0.00000000000E+00  0.91310494947E+03  0.91310494948E+03  0.25500000920E-02 0.  1.
       -2   -1    0    0    0  501  0.00000000000E+00  0.00000000000E+00 -0.15342850747E+04  0.15342850747E+04  0.25500000920E-02 0. -1.
    10030    2    1    2    0    0  0.00000000000E+00  0.00000000000E+00 -0.62118012520E+03  0.24473900242E+04  0.23672459066E+04 0.  0.
        4    1    3    3  502    0  0.75223283130E+03 -0.57681901524E+03 -0.10433793740E+04  0.14096866815E+04  0.12699999809E+01 0. -1.
       -4    1    3    3    0  502 -0.75223283130E+03  0.57681901524E+03  0.42219924882E+03  0.10377033427E+04  0.12699999809E+01 0.  1.
</event>
<event>
 5   0  0.4295775E-05  0.2300695E+04  0.7818609E-02  0.8477647E-01
        1   -1    0    0  501    0  0.00000000000E+00  0.00000000000E+00  0.14237801029E+04  0.14237801029E+04  0.50400001928E-02 0.  1.
       -1   -1    0    0    0  501  0.00000000000E+00  0.00000000000E+00 -0.92942652420E+03  0.92942652421E+03  0.50400001928E-02 0. -1.
    10030    2    1    2    0    0  0.00000000000E+00  0.00000000000E+00  0.49435357871E+03  0.23532066271E+04  0.23006946710E+04 0.  0.
        5    1    3    3  502    0 -0.35683835123E+03 -0.13056604859E+03  0.13577285028E+04  0.14099042093E+04  0.46999998093E+01 0.  1.
       -5    1    3    3    0  502  0.35683835123E+03  0.13056604859E+03 -0.86337492411E+03  0.94330241785E+03  0.46999998093E+01 0. -1.
</event>
<event>
 5   0  0.4005462E-05  0.2300198E+04  0.7818609E-02  0.8477843E-01
       -1   -1    0    0    0  501  0.00000000000E+00  0.00000000000E+00  0.68025507704E+03  0.68025507706E+03  0.50400001928E-02 0. -1.
        1   -1    0    0  501    0  0.00000000000E+00  0.00000000000E+00 -0.19444582562E+04  0.19444582562E+04  0.50400001928E-02 0.  1.
    10030    2    1    2    0    0  0.00000000000E+00  0.00000000000E+00 -0.12642031791E+04  0.26247133332E+04  0.23001979053E+04 0.  0.
        4    1    3    3  502    0  0.62332470443E+03  0.96410379805E+03 -0.71029829568E+03  0.13500204081E+04  0.12699999809E+01 0. -1.
       -4    1    3    3    0  502 -0.62332470443E+03 -0.96410379805E+03 -0.55390488346E+03  0.12746929251E+04  0.12699999809E+01 0.  1.
</event>
<event>
 5   0  0.3885219E-05  0.2270915E+04  0.7818609E-02  0.8489478E-01
        1   -1    0    0  501    0  0.00000000000E+00  0.00000000000E+00  0.19614444426E+04  0.19614444426E+04  0.50400001928E-02 0.  1.
       -1   -1    0    0    0  501  0.00000000000E+00  0.00000000000E+00 -0.65730328068E+03  0.65730328070E+03  0.50400001928E-02 0. -1.
    10030    2    1    2    0    0  0.00000000000E+00  0.00000000000E+00  0.13041411619E+04  0.26187477233E+04  0.22709151169E+04 0.  0.
        2    1    3    3  502    0 -0.44935815398E+03 -0.86110867855E+03  0.13302208720E+04  0.16470939485E+04  0.25500000920E-02 0. -1.
       -2    1    3    3    0  502  0.44935815398E+03  0.86110867855E+03 -0.26079710089E+02  0.97165377481E+03  0.25500000920E-02 0.  1.
</event>
<event>
 5   0  0.9641157E-05  0.1711499E+04  0.7818609E-02  0.8754833E-01
        2   -1    0    0  501    0  0.00000000000E+00  0.00000000000E+00  0.16144992555E+04  0.16144992555E+04  0.25500000920E-02 0. -1.
       -2   -1    0    0    0  501  0.00000000000E+00  0.00000000000E+00 -0.45358157141E+03  0.45358157142E+03  0.25500000920E-02 0.  1.
    10030    2    1    2    0    0  0.00000000000E+00  0.00000000000E+00  0.11609176841E+04  0.20680808269E+04  0.17114988862E+04 0.  0.
        3    1    3    3  502    0  0.32327921771E+03  0.76481363231E+03  0.33030591250E+03  0.89361700454E+03  0.10100000352E+00 0.  1.
       -3    1    3    3    0  502 -0.32327921771E+03 -0.76481363231E+03  0.83061177159E+03  0.11744638224E+04  0.10100000352E+00 0. -1.
</event>
<event>
 5   0  0.9312074E-05  0.2164320E+04  0.7818609E-02  0.8533427E-01
        2   -1    0    0  501    0  0.00000000000E+00  0.00000000000E+00  0.14390358649E+04  0.14390358649E+04  0.25500000920E-02 0.  1.
       -2   -1    0    0    0  501  0.00000000000E+00  0.00000000000E+00 -0.81378797831E+03  0.81378797831E+03  0.25500000920E-02 0. -1.
    10030    2    1    2    0    0  0.00000000000E+00  0.00000000000E+00  0.62524788660E+03  0.22528238432E+04  0.21643198352E+04 0.  0.
        4    1    3    3  502    0  0.43924539880E+03 -0.90925327359E+03  0.71762393814E+03  0.12388154687E+04  0.12699999809E+01 0.  1.
       -4    1    3    3    0  502 -0.43924539880E+03  0.90925327359E+03 -0.92376051536E+02  0.10140083746E+04  0.12699999809E+01 0. -1.
</event>
<event>
 5   0  0.9313463E-05  0.2310447E+04  0.7818609E-02  0.8473813E-01
       -2   -1    0    0    0  501  0.00000000000E+00  0.00000000000E+00  0.10945857551E+04  0.10945857551E+04  0.25500000920E-02 0.  1.
        2   -1    0    0  501    0  0.00000000000E+00  0.00000000000E+00 -0.12192202491E+04  0.12192202491E+04  0.25500000920E-02 0. -1.
    10030    2    1    2    0    0  0.00000000000E+00  0.00000000000E+00 -0.12463449396E+03  0.23138060042E+04  0.23104468113E+04 0.  0.
        1    1    3    3  502    0 -0.41905214881E+03 -0.66109591208E+02 -0.11383867880E+04  0.12148661081E+04  0.50400001928E-02 0. -1.
       -1    1    3    3    0  502  0.41905214881E+03  0.66109591208E+02  0.10137522941E+04  0.10989398961E+04  0.50400001928E-02 0.  1.
</event>
<event>
 5   0  0.9641157E-05  0.1985960E+04  0.7818609E-02  0.8613213E-01
        2   -1    0    0  501    0  0.00000000000E+00  0.00000000000E+00  0.18649917784E+04  0.18649917784E+04  0.25500000920E-02 0. -1.
       -2   -1    0    0    0  501  0.00000000000E+00  0.00000000000E+00 -0.52869355560E+03  0.52869355561E+03  0.25500000920E-02 0.  1.
    10030    2    1    2    0    0  0.00000000000E+00  0.00000000000E+00  0.13362982228E+04  0.23936853340E+04  0.19859598531E+04 0.  0.
        3    1    3    3  502    0 -0.30223787298E+03  0.48424657636E+03  0.16474663137E+04  0.17435560626E+04  0.10100000352E+00 0. -1.
       -3    1    3    3    0  502  0.30223787298E+03 -0.48424657636E+03 -0.31116809085E+03  0.65012927141E+03  0.10100000352E+00 0.  1.
</event>
<event>
 5   0  0.4295775E-05  0.1590957E+04  0.7818609E-02  0.8826123E-01
        1   -1    0    0  501    0  0.00000000000E+00  0.00000000000E+00  0.13708287383E+04  0.13708287383E+04  0.50400001928E-02 0.  1.
       -1   -1    0    0    0  501  0.00000000000E+00  0.00000000000E+00 -0.46160826769E+03  0.46160826772E+03  0.50400001928E-02 0. -1.
    10030    2    1    2    0    0  0.00000000000E+00  0.00000000000E+00  0.90922047063E+03  0.18324370060E+04  0.15909567929E+04 0.  0.
        5    1    3    3  502    0 -0.15415644674E+03  0.67235197612E+03 -0.16796191779E+01  0.68981613564E+03  0.46999998093E+01 0. -1.
       -5    1    3    3    0  502  0.15415644674E+03 -0.67235197612E+03  0.91090008981E+03  0.11426208704E+04  0.46999998093E+01 0.  1.
</event>
<event>
 5   0  0.4005462E-05  0.2115253E+04  0.7818609E-02  0.8554554E-01
       -1   -1    0    0    0  501  0.00000000000E+00  0.00000000000E+00  0.94535603601E+03  0.94535603603E+03  0.50400001928E-02 0. -1.
        1   -1    0    0  501    0  0.00000000000E+00  0.00000000000E+00 -0.11832302313E+04  0.11832302313E+04  0.50400001928E-02 0.  1.
    10030    2    1    2    0    0  0.00000000000E+00  0.00000000000E+00 -0.23787419531E+03  0.21285862674E+04  0.21152530262E+04 0.  0.
        4    1    3    3  502    0 -0.66083153875E+03  0.44712590694E+03 -0.81754094425E+03  0.11423636495E+04  0.12699999809E+01 0.  1.
       -4    1    3    3    0  502  0.66083153875E+03 -0.44712590694E+03  0.57966674894E+03  0.98622261787E+03  0.12699999809E+01 0. -1.
</event>
<event>
 5   0  0.4295775E-05  0.2273538E+04  0.7818609E-02  0.8488428E-01
       -1   -1    0    0    0  501  0.00000000000E+00  0.00000000000E+00  0.48560859566E+03  0.48560859568E+03  0.50400001928E-02 0. -1.
        1   -1    0    0  501    0  0.00000000000E+00  0.00000000000E+00 -0.26610820253E+04  0.26610820253E+04  0.50400001928E-02 0.  1.
    10030    2    1    2    0    0  0.00000000000E+00  0.00000000000E+00 -0.21754734297E+04  0.31466906210E+04  0.22735384802E+04 0.  0.
        5    1    3    3  502    0 -0.47352900763E+03  0.55656123507E+03  0.11744578208E+03  0.74013899450E+03  0.46999998093E+01 0. -1.
       -5    1    3    3    0  502  0.47352900763E+03 -0.55656123507E+03 -0.22929192117E+04  0.24065516265E+04  0.46999998093E+01 0.  1.
</event>
<event>
 5   0  0.4139830E-05  0.2276104E+04  0.7818609E-02  0.8487403E-01
       -1   -1    0    0    0  501  0.00000000000E+00  0.00000000000E+00  0.67175394916E+03  0.67175394917E+03  0.50400001928E-02 0.  1.
        1   -1    0    0  501    0  0.00000000000E+00  0.00000000000E+00 -0.19280317206E+04  0.19280317206E+04  0.50400001928E-02 0. -1.
    10030    2    1    2    0    0  0.00000000000E+00  0.00000000000E+00 -0.12562777714E+04  0.25997856698E+04  0.22761044989E+04 0.  0.
        1    1    3    3  502    0  0.62975443339E+03  0.24561430209E+03 -0.16738965710E+04  0.18052276206E+04  0.50400001928E-02 0. -1.
       -1    1    3    3    0  502 -0.62975443339E+03 -0.24561430209E+03  0.41761879954E+03  0.79455804919E+03  0.50400001928E-02 0.  1.
</event>
<event>
 5   0  0.9312074E-05  0.2007382E+04  0.7818609E-02  0.8603177E-01
        2   -1    0    0  501    0  0.00000000000E+00  0.00000000000E+00  0.74716406864E+03  0.74716406864E+03  0.25500000920E-02 0. -1.
       -2   -1    0    0    0  501  0.00000000000E+00  0.00000000000E+00 -0.13482930360E+04  0.13482930360E+04  0.25500000920E-02 0.  1.
    10030    2    1    2    0    0  0.00000000000E+00  0.00000000000E+00 -0.60112896734E+03  0.20954571046E+04  0.20073824852E+04 0.  0.
        4    1    3    3  502    0 -0.42160116782E+03 -0.47657653211E+03 -0.11108442854E+04  0.12801755250E+04  0.12699999809E+01 0.  1.
       -4    1    3    3    0  502  0.42160116782E+03  0.47657653211E+03  0.50971531803E+03  0.81528157958E+03  0.12699999809E+01 0. -1.
</event>
<event>
 5   0  0.9313463E-05  0.1703397E+04  0.7818609E-02  0.8759430E-01
       -2   -1    0    0    0  501  0.00000000000E+00  0.00000000000E+00  0.52843654998E+03  0.52843654999E+03  0.25500000920E-02 0. -1.
        2   -1    0    0  501    0  0.00000000000E+00  0.00000000000E+00 -0.13727097940E+04  0.13727097940E+04  0.25500000920E-02 0.  1.
    10030    2    1    2    0    0  0.00000000000E+00  0.00000000000E+00 -0.84427324401E+03  0.19011463440E+04  0.17033966393E+04 0.  0.
        1    1    3    3  502    0 -0.19959802704E+03 -0.43121422670E+03  0.36674734045E+03  0.60024052967E+03  0.50400001928E-02 0. -1.
       -1    1    3    3    0  502  0.19959802704E+03  0.43121422670E+03 -0.12110205845E+04  0.13009058143E+04  0.50400001928E-02 0.  1.
</event>
<event>
 5   0  0.9535394E-05  0.2331245E+04  0.7818609E-02  0.8465703E-01
        2   -1    0    0  501    0  0.00000000000E+00  0.00000000000E+00  0.10363901233E+04  0.10363901233E+04  0.25500000920E-02 0.  1.
       -2   -1    0    0    0  501  0.00000000000E+00  0.00000000000E+00 -0.13109694093E+04  0.13109694093E+04  0.25500000920E-02 0. -1.
    10030    2    1    2    0    0  0.00000000000E+00  0.00000000000E+00 -0.27457928600E+03  0.23473595326E+04  0.23312449444E+04 0.  0.
        2    1    3    3  502    0  0.84574484163E+03  0.34011866101E+02  0.66964536402E+03  0.10792896079E+04  0.25500000920E-02 0.  1.
       -2    1    3    3    0  502 -0.84574484163E+03 -0.34011866101E+02 -0.94422465002E+03  0.12680699247E+04  0.25500000920E-02 0. -1.
</event>
<event>
 5   0  0.4095451E-05  0.2308641E+04  0.7818609E-02  0.8474522E-01
        1   -1    0    0  501    0  0.00000000000E+00  0.00000000000E+00  0.11441297744E+04  0.11441297744E+04  0.50400001928E-02 0. -1.
       -1   -1    0    0    0  501  0.00000000000E+00  0.00000000000E+00 -0.11646020486E+04  0.11646020487E+04  0.50400001928E-02 0.  1.
    10030    2    1    2    0    0  0.00000000000E+00  0.00000000000E+00 -0.20472274240E+02  0.23087318231E+04  0.23086410541E+04 0.  0.
        3    1    3    3  502    0  0.10208296327E+03 -0.99319115685E+03  0.56910198022E+03  0.11492287325E+04  0.10100000352E+00 0. -1.
       -3    1    3    3    0  502 -0.10208296327E+03  0.99319115685E+03 -0.58957425446E+03  0.11595030906E+04  0.10100000352E+00 0.  1.
</event>
<event>
 5   0  0.9641157E-05  0.2376682E+04  0.7818609E-02  0.8448286E-01
        2   -1    0    0  501    0  0.00000000000E+00  0.00000000000E+00  0.12552437857E+04  0.12552437857E+04  0.25500000920E-02 0. -1.
       -2   -1    0    0    0  501  0.00000000000E+00  0.00000000000E+00 -0.11250035985E+04  0.11250035985E+04  0.25500000920E-02 0.  1.
    10030    2    1    2    0    0  0.00000000000E+00  0.00000000000E+00  0.13024018716E+03  0.23802473842E+04  0.23766815318E+04 0.  0.
        3    1    3    3  502    0  0.27630832007E+03  0.22051213930E+03 -0.10711224935E+04  0.11279518153E+04  0.10100000352E+00 0.  1.
       -3    1    3    3    0  502 -0.27630832007E+03 -0.22051213930E+03  0.12013626806E+04  0.12522955689E+04  0.10100000352E+00 0. -1.
</event>
<event>
 5   0  0.9483073E-05  0.2295697E+04  0.7818609E-02  0.8479620E-01
       -2   -1    0    0    0  501  0.00000000000E+00  0.00000000000E+00  0.15100490928E+04  0.15100490928E+04  0.25500000920E-02 0. -1.
        2   -1    0    0  501    0  0.00000000000E+00  0.00000000000E+00 -0.87252543719E+03  0.87252543719E+03  0.25500000920E-02 0.  1.
    10030    2    1    2    0    0  0.00000000000E+00  0.00000000000E+00  0.63752365562E+03  0.23825745300E+04  0.22956970574E+04 0.  0.
        5    1    3    3  502    0 -0.13177577670E+01 -0.45616061315E+03  0.14119269516E+04  0.14837938024E+04  0.46999998093E+01 0. -1.
       -5    1    3    3    0  502  0.13177577670E+01  0.45616061315E+03 -0.77440329597E+03  0.89878072759E+03  0.46999998093E+01 0.  1.
</event>
<event>
 5   0  0.9313463E-05  0.2320854E+04  0.7818609E-02  0.8469744E-01
        2   -1    0    0  501    0  0.00000000000E+00  0.00000000000E+00  0.18371565469E+04  0.18371565469E+04  0.25500000920E-02 0.  1.
       -2   -1    0    0    0  501  0.00000000000E+00  0.00000000000E+00 -0.73297523478E+03  0.73297523479E+03  0.25500000920E-02 0. -1.
    10030    2    1    2    0    0  0.00000000000E+00  0.00000000000E+00  0.11041813121E+04  0.25701317817E+04  0.23208535079E+04 0.  0.
        1    1    3    3  502    0  0.98256099284E+03  0.30527465571E+03 -0.42177475401E+02  0.10297561165E+04  0.50400001928E-02 0. -1.
       -1    1    3    3    0  502 -0.98256099284E+03 -0.30527465571E+03  0.11463587875E+04  0.15403756652E+04  0.50400001928E-02 0.  1.
</event>
<event>
 5   0  0.4095451E-05  0.2311963E+04  0.7818609E-02  0.8473219E-01
        1   -1    0    0  501    0  0.00000000000E+00  0.00000000000E+00  0.13546398939E+04  0.13546398939E+04  0.50400001928E-02 0.  1.
       -1   -1    0    0    0  501  0.00000000000E+00  0.00000000000E+00 -0.98645679830E+03  0.98645679831E+03  0.50400001928E-02 0. -1.
    10030    2    1    2    0    0  0.00000000000E+00  0.00000000000E+00  0.36818309557E+03  0.23410966922E+04  0.23119634362E+04 0.  0.
        3    1    3    3  502    0  0.77866532495E+03  0.85130671291E+03  0.11071523752E+03  0.11590084908E+04  0.10100000352E+00 0. -1.
       -3    1    3    3    0  502 -0.77866532495E+03 -0.85130671291E+03  0.25746785806E+03  0.11820882014E+04  0.10100000352E+00 0.  1.
</event>
<event>
 5   0  0.4005462E-05  0.2391315E+04  0.7818609E-02  0.8442762E-01
       -1   -1    0    0    0  501  0.00000000000E+00  0.00000000000E+00  0.90516035674E+03  0.90516035675E+03  0.50400001928E-02 0. -1.
        1   -1    0    0  501    0  0.00000000000E+00  0.00000000000E+00 -0.15793849225E+04  0.15793849225E+04  0.50400001928E-02 0.  1.
    10030    2    1    2    0    0  0.00000000000E+00  0.00000000000E+00 -0.67422456576E+03  0.24845452792E+04  0.23913148014E+04 0.  0.
        4    1    3    3  502    0 -0.83626706608E+02 -0.58030463630E+03  0.74555422906E+03  0.94847225492E+03  0.12699999809E+01 0. -1.
       -4    1    3    3    0  502  0.83626706608E+02  0.58030463630E+03 -0.14197787948E+04  0.15360730243E+04  0.12699999809E+01 0.  1.
</event>
<event>
 5   0  0.4095451E-05  0.2175354E+04  0.7818609E-02  0.8528757E-01
        1   -1    0    0  501    0  0.00000000000E+00  0.00000000000E+00  0.29254802277E+04  0.29254802277E+04  0.50400001928E-02 0. -1.
       -1   -1    0    0    0  501  0.00000000000E+00  0.00000000000E+00 -0.40439223961E+03  0.40439223964E+03  0.50400001928E-02 0.  1.
    10030    2    1    2    0    0  0.00000000000E+00  0.00000000000E+00  0.25210879881E+04  0.33298724673E+04  0.21753542252E+04 0.  0.
        3    1    3    3  502    0  0.52243806762E+03  0.65731872379E+03  0.23188862182E+04  0.24662203354E+04  0.10100000352E+00 0. -1.
       -3    1    3    3    0  502 -0.52243806762E+03 -0.65731872379E+03  0.20220176983E+03  0.86365213197E+03  0.10100000352E+00 0.  1.
</event>
<event>
 5   0  0.9312074E-05  0.2306244E+04  0.7818609E-02  0.8475463E-01
       -2   -1    0    0    0  501  0.00000000000E+00  0.00000000000E+00  0.15662827018E+04  0.15662827018E+04  0.25500000920E-02 0. -1.
        2   -1    0    0  501    0  0.00000000000E+00  0.00000000000E+00 -0.84894666911E+03  0.84894666911E+03  0.25500000920E-02 0.  1.
    10030    2    1    2    0    0  0.00000000000E+00  0.00000000000E+00  0.71733603266E+03  0.24152293709E+04  0.23062441177E+04 0.  0.
        4    1    3    3  502    0 -0.25306812080E+03  0.71230339647E+03 -0.55326897541E+03  0.93676452455E+03  0.12699999809E+01 0.  1.
       -4    1    3    3    0  502  0.25306812080E+03 -0.71230339647E+03  0.12706050081E+04  0.14784648463E+04  0.12699999809E+01 0. -1.
</event>
<event>
 5   0  0.9483073E-05  0.2345310E+04  0.7818609E-02  0.8460267E-01
        2   -1    0    0  501    0  0.00000000000E+00  0.00000000000E+00  0.16666121017E+04  0.16666121017E+04  0.25500000920E-02 0. -1.
       -2   -1    0    0    0  501  0.00000000000E+00  0.00000000000E+00 -0.82509898978E+03  0.82509898978E+03  0.25500000920E-02 0.  1.
    10030    2    1    2    0    0  0.00000000000E+00  0.00000000000E+00  0.84151311196E+03  0.24917110915E+04  0.23453101812E+04 0.  0.
        5    1    3    3  502    0 -0.15643393684E+03 -0.12622668229E+03  0.16481621756E+04  0.16603811006E+04  0.46999998093E+01 0. -1.
       -5    1    3    3    0  502  0.15643393684E+03  0.12622668229E+03 -0.80664906368E+03  0.83132999095E+03  0.46999998093E+01 0.  1.
</event>
<event>
 5   0  0.9535394E-05  0.2297343E+04  0.7818609E-02  0.8478969E-01
       -2   -1    0    0    0  501  0.00000000000E+00  0.00000000000E+00  0.77031023421E+03  0.77031023422E+03  0.25500000920E-02 0.  1.
        2   -1    0    0  501    0  0.00000000000E+00  0.00000000000E+00 -0.17128770398E+04  0.17128770398E+04  0.25500000920E-02 0. -1.
    10030    2    1    2    0    0  0.00000000000E+00  0.00000000000E+00 -0.94256680562E+03  0.24831872741E+04  0.22973434343E+04 0.  0.
        2    1    3    3  502    0 -0.67410489564E+03 -0.79593030155E+03 -0.99137735213E+03  0.14390106009E+04  0.25500000920E-02 0. -1.
       -2    1    3    3    0  502  0.67410489564E+03  0.79593030155E+03  0.48810546509E+02  0.10441766731E+04  0.25500000920E-02 0.  1.
</event>
<event>
 5   0  0.9641157E-05  0.2286337E+04  0.7818609E-02  0.8483328E-01
       -2   -1    0    0    0  501  0.00000000000E+00  0.00000000000E+00  0.62518649763E+03  0.62518649764E+03  0.25500000920E-02 0.  1.
        2   -1    0    0  501    0  0.00000000000E+00  0.00000000000E+00 -0.20903112269E+04  0.20903112269E+04  0.25500000920E-02 0. -1.
    10030    2    1    2    0    0  0.00000000000E+00  0.00000000000E+00 -0.14651247293E+04  0.27154977246E+04  0.22863371186E+04 0.  0.
        3    1    3    3  502    0  0.41964153295E+03 -0.80024534007E+02 -0.19919410723E+04  0.20372364094E+04  0.10100000352E+00 0. -1.
       -3    1    3    3    0  502 -0.41964153295E+03  0.80024534007E+02  0.52681634297E+03  0.67826131516E+03  0.10100000352E+00 0.  1.
</event>
<event>
 5   0  0.9535394E-05  0.2294701E+04  0.7818609E-02  0.8480013E-01
        2   -1    0    0  501    0  0.00000000000E+00  0.00000000000E+00  0.18692676587E+04  0.18692676587E+04  0.25500000920E-02 0. -1.
       -2   -1    0    0    0  501  0.00000000000E+00  0.00000000000E+00 -0.70424036748E+03  0.70424036749E+03  0.25500000920E-02 0.  1.
    10030    2    1    2    0    0  0.00000000000E+00  0.00000000000E+00  0.11650272913E+04  0.25735080262E+04  0.22947014995E+04 0.  0.
        2    1    3    3  502    0  0.19716112276E+03  0.92728921126E+03 -0.14228782168E+03  0.95863633034E+03  0.25500000920E-02 0.  1.
       -2    1    3    3    0  502 -0.19716112276E+03 -0.92728921126E+03  0.13073151129E+04  0.16148716959E+04  0.25500000920E-02 0. -1.
</event>
<event>
 5   0  0.9641157E-05  0.2205476E+04  0.7818609E-02  0.8516152E-01
       -2   -1    0    0    0  501  0.00000000000E+00  0.00000000000E+00  0.87505969725E+03  0.87505969726E+03  0.25500000920E-02 0. -1.
        2   -1    0    0  501    0  0.00000000000E+00  0.00000000000E+00 -0.13896547994E+04  0.13896547994E+04  0.25500000920E-02 0.  1.
    10030    2    1    2    0    0  0.00000000000E+00  0.00000000000E+00 -0.51459510211E+03  0.22647144966E+04  0.22054758290E+04 0.  0.
        3    1    3    3  502    0 -0.37564379868E+03  0.65701700054E+03 -0.10808693981E+04  0.13194916705E+04  0.10100000352E+00 0.  1.
       -3    1    3    3    0  502  0.37564379868E+03 -0.65701700054E+03  0.56627429602E+03  0.94522282612E+03  0.10100000352E+00 0. -1.
</event>
<event>
 5   0  0.9641157E-05  0.2320120E+04  0.7818609E-02  0.8470030E-01
        2   -1    0    0  501    0  0.00000000000E+00  0.00000000000E+00  0.11144360651E+04  0.11144360651E+04  0.25500000920E-02 0.  1.
       -2   -1    0    0    0  501  0.00000000000E+00  0.00000000000E+00 -0.12075517880E+04  0.12075517880E+04  0.25500000920E-02 0. -1.
    10030    2    1    2    0    0  0.00000000000E+00  0.00000000000E+00 -0.93115722946E+02  0.23219878531E+04  0.23201200513E+04 0.  0.
        3    1    3    3  502    0  0.10758410207E+04 -0.37697046833E+03 -0.26166953214E+03  0.11696202761E+04  0.10100000352E+00 0.  1.
       -3    1    3    3    0  502 -0.10758410207E+04  0.37697046833E+03  0.16855380919E+03  0.11523675771E+04  0.10100000352E+00 0. -1.
</event>
<event>
 5   0  0.9312074E-05  0.2331601E+04  0.7818609E-02  0.8465565E-01
        2   -1    0    0  501    0  0.00000000000E+00  0.00000000000E+00  0.96529562708E+03  0.96529562708E+03  0.25500000920E-02 0.  1.
       -2   -1    0    0    0  501  0.00000000000E+00  0.00000000000E+00 -0.14079525236E+04  0.14079525236E+04  0.25500000920E-02 0. -1.
    10030    2    1    2    0    0  0.00000000000E+00  0.00000000000E+00 -0.44265689648E+03  0.23732481506E+04  0.23316006640E+04 0.  0.
        4    1    3    3  502    0  0.87881379984E+03  0.66990062166E+03 -0.59945878939E+03  0.12571527317E+04  0.12699999809E+01 0. -1.
       -4    1    3    3    0  502 -0.87881379984E+03 -0.66990062166E+03  0.15680189292E+03  0.11160954190E+04  0.12699999809E+01 0.  1.
</event>
<event>
 5   0  0.4095451E-05  0.2341012E+04  0.7818609E-02  0.8461924E-01
       -1   -1    0    0    0  501  0.00000000000E+00  0.00000000000E+00  0.10071957022E+04  0.10071957022E+04  0.50400001928E-02 0. -1.
        1   -1    0    0  501    0  0.00000000000E+00  0.00000000000E+00 -0.13602955517E+04  0.13602955517E+04  0.50400001928E-02 0.  1.
    10030    2    1    2    0    0  0.00000000000E+00  0.00000000000E+00 -0.35309984945E+03  0.23674912539E+04  0.23410116048E+04 0.  0.
        3    1    3    3  502    0  0.49442290260E+03 -0.71750452145E+03  0.61383819248E+03  0.10658630689E+04  0.10100000352E+00 0. -1.
       -3    1    3    3    0  502 -0.49442290260E+03  0.71750452145E+03 -0.96693804193E+03  0.13016281850E+04  0.10100000352E+00 0.  1.
</event>
<event>
 5   0  0.3885219E-05  0.2249577E+04  0.7818609E-02  0.8498072E-01
       -1   -1    0    0    0  501  0.00000000000E+00  0.00000000000E+00  0.75149801118E+03  0.75149801120E+03  0.50400001928E-02 0. -1.
        1   -1    0    0  501    0  0.00000000000E+00  0.00000000000E+00 -0.16835032350E+04  0.16835032351E+04  0.50400001928E-02 0.  1.
    10030    2    1    2    0    0  0.00000000000E+00  0.00000000000E+00 -0.93200522387E+03  0.24350012463E+04  0.22495771451E+04 0.  0.
        2    1    3    3  502    0 -0.76523237063E+03  0.23974547287E+03  0.38773655714E+03  0.89072897706E+03  0.25500000920E-02 0. -1.
       -2    1    3    3    0  502  0.76523237063E+03 -0.23974547287E+03 -0.13197417810E+04  0.15442722692E+04  0.25500000920E-02 0.  1.
</event>
<event>
 5   0  0.3885219E-05  0.2284009E+04  0.7818609E-02  0.8484253E-01
        1   -1    0    0  501    0  0.00000000000E+00  0.00000000000E+00  0.16090453979E+04  0.16090453980E+04  0.50400001928E-02 0.  1.
       -1   -1    0    0    0  501  0.00000000000E+00  0.00000000000E+00 -0.81052648996E+03  0.81052648998E+03  0.50400001928E-02 0. -1.
    10030    2    1    2    0    0  0.00000000000E+00  0.00000000000E+00  0.79851890798E+03  0.24195718879E+04  0.22840086853E+04 0.  0.
        2    1    3    3  502    0 -0.10769708659E+04 -0.32857158692E+03  0.19729109434E+03  0.11431313615E+04  0.25500000920E-02 0. -1.
       -2    1    3    3    0  502  0.10769708659E+04  0.32857158692E+03  0.60122781364E+03  0.12764405265E+04  0.25500000920E-02 0.  1.
</event>
<event>
 5   0  0.4095451E-05  0.2368910E+04  0.7818609E-02  0.8451236E-01
        1   -1    0    0  501    0  0.00000000000E+00  0.00000000000E+00  0.21803634794E+04  0.21803634794E+04  0.50400001928E-02 0.  1.
       -1   -1    0    0    0  501  0.00000000000E+00  0.00000000000E+00 -0.64344030082E+03  0.64344030083E+03  0.50400001928E-02 0. -1.
    10030    2    1    2    0    0  0.00000000000E+00  0.00000000000E+00  0.15369231786E+04  0.28238037802E+04  0.23689100727E+04 0.  0.
        3    1    3    3  502    0  0.65664409077E+03  0.86034336110E+03  0.13420748410E+04  0.17241047097E+04  0.10100000352E+00 0.  1.
       -3    1    3    3    0  502 -0.65664409077E+03 -0.86034336110E+03  0.19484833760E+03  0.10996990706E+04  0.10100000352E+00 0. -1.
</event>
<event>
 5   0  0.9313463E-05  0.2229883E+04  0.7818609E-02  0.8506092E-01
       -2   -1    0    0    0  501  0.00000000000E+00  0.00000000000E+00  0.80417415913E+03  0.80417415914E+03  0.25500000920E-02 0.  1.
        2   -1    0    0  501    0  0.00000000000E+00  0.00000000000E+00 -0.15458025296E+04  0.15458025296E+04  0.25500000920E-02 0. -1.
    10030    2    1    2    0    0  0.00000000000E+00  0.00000000000E+00 -0.74162837048E+03  0.23499766887E+04  0.22298829112E+04 0.  0.
        1    1    3    3  502    0  0.29134359864E+03 -0.10760020955E+04 -0.34888871335E+03  0.11680688919E+04  0.50400001928E-02 0. -1.
       -1    1    3    3    0  502 -0.29134359864E+03  0.10760020955E+04 -0.39273965713E+03  0.11819077968E+04  0.50400001928E-02 0.  1.
</event>
<event>
 5   0  0.4095451E-05  0.2315793E+04  0.7818609E-02  0.8471720E-01
       -1   -1    0    0    0  501  0.00000000000E+00  0.00000000000E+00  0.11962274323E+04  0.11962274323E+04  0.50400001928E-02 0.  1.
        1   -1    0    0  501    0  0.00000000000E+00  0.00000000000E+00 -0.11207938678E+04  0.11207938678E+04  0.50400001928E-02 0. -1.
    10030    2    1    2    0    0  0.00000000000E+00  0.00000000000E+00  0.75433564457E+02  0.23170213002E+04  0.23157930570E+04 0.  0.
        3    1    3    3  502    0  0.67601976345E+02 -0.10516784779E+04  0.51768645311E+03  0.11741366709E+04  0.10100000352E+00 0.  1.
       -3    1    3    3    0  502 -0.67601976345E+02  0.10516784779E+04 -0.44225288865E+03  0.11428846292E+04  0.10100000352E+00 0. -1.
</event>
<event>
 5   0  0.9641157E-05  0.2306454E+04  0.7818609E-02  0.8475381E-01
       -2   -1    0    0    0  501  0.00000000000E+00  0.00000000000E+00  0.10991418230E+04  0.10991418230E+04  0.25500000920E-02 0. -1.
        2   -1    0    0  501    0  0.00000000000E+00  0.00000000000E+00 -0.12099730122E+04  0.12099730122E+04  0.25500000920E-02 0.  1.
    10030    2    1    2    0    0  0.00000000000E+00  0.00000000000E+00 -0.11083118926E+03  0.23091148352E+04  0.23064535048E+04 0.  0.
        3    1    3    3  502    0 -0.14107317427E+03 -0.28839480683E+03 -0.11643302051E+04  0.12077822825E+04  0.10100000352E+00 0.  1.
       -3    1    3    3    0  502  0.14107317427E+03  0.28839480683E+03  0.10534990159E+04  0.11013325527E+04  0.10100000352E+00 0. -1.
</event>
<event>
 5   0  0.4139830E-05  0.2304762E+04  0.7818609E-02  0.8476046E-01
        1   -1    0    0  501    0  0.00000000000E+00  0.00000000000E+00  0.76988045183E+03  0.76988045185E+03  0.50400001928E-02 0.  1.
       -1   -1    0    0    0  501  0.00000000000E+00  0.00000000000E+00 -0.17249194398E+04  0.17249194398E+04  0.50400001928E-02 0. -1.
    10030    2    1    2    0    0  0.00000000000E+00  0.00000000000E+00 -0.95503898796E+03  0.24947998916E+04  0.23047618165E+04 0.  0.
        1    1    3    3  502    0  0.40841731292E+02 -0.60796572892E+03  0.58123580607E+03  0.84209585965E+03  0.50400001928E-02 0.  1.
       -1    1    3    3    0  502 -0.40841731292E+02  0.60796572892E+03 -0.15362747940E+04  0.16527040320E+04  0.50400001928E-02 0. -1.
</event>
<event>
 5   0  0.9312074E-05  0.2234061E+04  0.7818609E-02  0.8504383E-01
        2   -1    0    0  501    0  0.00000000000E+00  0.00000000000E+00  0.91694282253E+03  0.91694282253E+03  0.25500000920E-02 0.  1.
       -2   -1    0    0    0  501  0.00000000000E+00  0.00000000000E+00 -0.13607800551E+04  0.13607800551E+04  0.25500000920E-02 0. -1.
    10030    2    1    2    0    0  0.00000000000E+00  0.00000000000E+00 -0.44383723255E+03  0.22777228776E+04  0.22340613282E+04 0.  0.
        4    1    3    3  502    0 -0.29834817292E+03  0.12813921465E+03  0.86776534292E+03  0.92652554951E+03  0.12699999809E+01 0.  1.
       -4    1    3    3    0  502  0.29834817292E+03 -0.12813921465E+03 -0.13116025755E+04  0.13511973281E+04  0.12699999809E+01 0. -1.
</event>
<event>
 5   0  0.9312074E-05  0.2366384E+04  0.7818609E-02  0.8452197E-01
        2   -1    0    0  501    0  0.00000000000E+00  0.00000000000E+00  0.88505291840E+03  0.88505291840E+03  0.25500000920E-02 0. -1.
       -2   -1    0    0    0  501  0.00000000000E+00  0.00000000000E+00 -0.15817619247E+04  0.15817619247E+04  0.25500000920E-02 0.  1.
    10030    2    1    2    0    0  0.00000000000E+00  0.00000000000E+00 -0.69670900627E+03  0.24668148431E+04  0.23663837454E+04 0.  0.
        4    1    3    3  502    0  0.57172392315E+03 -0.75711184824E+03 -0.10853643881E+04  0.14415630624E+04  0.12699999809E+01 0.  1.
       -4    1    3    3    0  502 -0.57172392315E+03  0.75711184824E+03  0.38865538182E+03  0.10252517807E+04  0.12699999809E+01 0. -1.
</event>
<event>
 5   0  0.4295775E-05  0.2397459E+04  0.7818609E-02  0.8440455E-01
        1   -1    0    0  501    0  0.00000000000E+00  0.00000000000E+00  0.99202217453E+03  0.99202217454E+03  0.50400001928E-02 0.  1.
       -1   -1    0    0    0  501  0.00000000000E+00  0.00000000000E+00 -0.14485087964E+04  0.14485087964E+04  0.50400001928E-02 0. -1.
    10030    2    1    2    0    0  0.00000000000E+00  0.00000000000E+00 -0.45648662186E+03  0.24405309709E+04  0.23974593603E+04 0.  0.
        5    1    3    3  502    0  0.14014975656E+03 -0.56919789400E+03 -0.12926393545E+04  0.14193543559E+04  0.46999998093E+01 0. -1.
       -5    1    3    3    0  502 -0.14014975656E+03  0.56919789400E+03  0.83615273265E+03  0.10211766150E+04  0.46999998093E+01 0.  1.
</event>
<event>
 5   0  0.4095451E-05  0.2288136E+04  0.7818609E-02  0.8482614E-01
        1   -1    0    0  501    0  0.00000000000E+00  0.00000000000E+00  0.18251324232E+04  0.18251324233E+04  0.50400001928E-02 0.  1.
       -1   -1    0    0    0  501  0.00000000000E+00  0.00000000000E+00 -0.71714871779E+03  0.71714871781E+03  0.50400001928E-02 0. -1.
    10030    2    1    2    0    0  0.00000000000E+00  0.00000000000E+00  0.11079837055E+04  0.25422811411E+04  0.22881358152E+04 0.  0.
        3    1    3    3  502    0 -0.15277225343E+03 -0.24448392658E+03 -0.67612954833E+03  0.73502580097E+03  0.10100000352E+00 0. -1.
       -3    1    3    3    0  502  0.15277225343E+03  0.24448392658E+03  0.17841132538E+04  0.18072553401E+04  0.10100000352E+00 0.  1.
</event>
<event>
 5   0  0.3885219E-05  0.2308963E+04  0.7818609E-02  0.8474396E-01
        1   -1    0    0  501    0  0.00000000000E+00  0.00000000000E+00  0.17954981714E+04  0.17954981714E+04  0.50400001928E-02 0.  1.
       -1   -1    0    0    0  501  0.00000000000E+00  0.00000000000E+00 -0.74231612929E+03  0.74231612931E+03  0.50400001928E-02 0. -1.
    10030    2    1    2    0    0  0.00000000000E+00  0.00000000000E+00  0.10531820421E+04  0.25378143007E+04  0.23089627565E+04 0.  0.
        2    1    3    3  502    0  0.15684494208E+03 -0.10326714510E+04 -0.13896859279E+02  0.10446069999E+04  0.25500000920E-02 0. -1.
       -2    1    3    3    0  502 -0.15684494208E+03  0.10326714510E+04  0.10670789014E+04  0.14932073008E+04  0.25500000920E-02 0.  1.
</event>
<event>
 5   0  0.9312074E-05  0.2102097E+04  0.7818609E-02  0.8560320E-01
       -2   -1    0    0    0  501  0.00000000000E+00  0.00000000000E+00  0.92943069905E+03  0.92943069906E+03  0.25500000920E-02 0.  1.
        2   -1    0    0  501    0  0.00000000000E+00  0.00000000000E+00 -0.11885807732E+04  0.11885807732E+04  0.25500000920E-02 0. -1.
    10030    2    1    2    0    0  0.00000000000E+00  0.00000000000E+00 -0.25915007413E+03  0.21180114722E+04  0.21020974848E+04 0.  0.
        4    1    3    3  502    0 -0.26178939938E+03  0.93997894381E+03  0.26403280111E+03  0.10108457040E+04  0.12699999809E+01 0. -1.
       -4    1    3    3    0  502  0.26178939938E+03 -0.93997894381E+03 -0.52318287523E+03  0.11071657682E+04  0.12699999809E+01 0.  1.
</event>
<event>
 5   0  0.4095451E-05  0.2312513E+04  0.7818609E-02  0.8473004E-01
       -1   -1    0    0    0  501  0.00000000000E+00  0.00000000000E+00  0.53367817869E+03  0.53367817871E+03  0.50400001928E-02 0. -1.
        1   -1    0    0  501    0  0.00000000000E+00  0.00000000000E+00 -0.25051224391E+04  0.25051224391E+04  0.50400001928E-02 0.  1.
    10030    2    1    2    0    0  0.00000000000E+00  0.00000000000E+00 -0.19714442604E+04  0.30388006178E+04  0.23125130752E+04 0.  0.
        3    1    3    3  502    0 -0.49111032013E+03 -0.10353161952E+04 -0.11887029713E+04  0.16510856231E+04  0.10100000352E+00 0.  1.
       -3    1    3    3    0  502  0.49111032013E+03  0.10353161952E+04 -0.78274128909E+03  0.13877149947E+04  0.10100000352E+00 0. -1.
</event>
<event>
 5   0  0.9535394E-05  0.2335820E+04  0.7818609E-02  0.8463930E-01
       -2   -1    0    0    0  501  0.00000000000E+00  0.00000000000E+00  0.82736825402E+03  0.82736825402E+03  0.25500000920E-02 0. -1.
        2   -1    0    0  501    0  0.00000000000E+00  0.00000000000E+00 -0.16486174688E+04  0.16486174688E+04  0.25500000920E-02 0.  1.
    10030    2    1    2    0    0  0.00000000000E+00  0.00000000000E+00 -0.82124921478E+03  0.24759857228E+04  0.23358199902E+04 0.  0.
        2    1    3    3  502    0 -0.76503323241E+02 -0.60299136813E+03 -0.14677458142E+04  0.15886249160E+04  0.25500000920E-02 0.  1.
       -2    1    3    3    0  502  0.76503323241E+02  0.60299136813E+03  0.64649659942E+03  0.88736080687E+03  0.25500000920E-02 0. -1.
</event>
<event>
 5   0  0.9312074E-05  0.2292451E+04  0.7818609E-02  0.8480903E-01
       -2   -1    0    0    0  501  0.00000000000E+00  0.00000000000E+00  0.68310511343E+03  0.68310511343E+03  0.25500000920E-02 0. -1.
        2   -1    0    0  501    0  0.00000000000E+00  0.00000000000E+00 -0.19233250133E+04  0.19233250133E+04  0.25500000920E-02 0.  1.
    10030    2    1    2    0    0  0.00000000000E+00  0.00000000000E+00 -0.12402198999E+04  0.26064301268E+04  0.22924512221E+04 0.  0.
        4    1    3    3  502    0  0.35944262533E+02 -0.80807406890E+03  0.30325156763E+03  0.86385115443E+03  0.12699999809E+01 0. -1.
       -4    1    3    3    0  502 -0.35944262533E+02  0.80807406890E+03 -0.15434714675E+04  0.17425789723E+04  0.12699999809E+01 0.  1.
</event>
<event>
 5   0  0.4295775E-05  0.2309164E+04  0.7818609E-02  0.8474317E-01
       -1   -1    0    0    0  501  0.00000000000E+00  0.00000000000E+00  0.65342541163E+03  0.65342541165E+03  0.50400001928E-02 0.  1.
        1   -1    0    0  501    0  0.00000000000E+00  0.00000000000E+00 -0.20401095588E+04  0.20401095588E+04  0.50400001928E-02 0. -1.
    10030    2    1    2    0    0  0.00000000000E+00  0.00000000000E+00 -0.13866841472E+04  0.26935349705E+04  0.23091638558E+04 0.  0.
        5    1    3    3  502    0  0.99748426651E+03  0.33062929371E+03 -0.13545624428E+03  0.10595570187E+04  0.46999998093E+01 0. -1.
       -5    1    3    3    0  502 -0.99748426651E+03 -0.33062929371E+03 -0.12512279029E+04  0.16339779517E+04  0.46999998093E+01 0.  1.
</event>
<event>
 5   0  0.3885219E-05  0.2310635E+04  0.7818609E-02  0.8473740E-01
       -1   -1    0    0    0  501  0.00000000000E+00  0.00000000000E+00  0.62694086338E+03  0.62694086340E+03  0.50400001928E-02 0.  1.
        1   -1    0    0  501    0  0.00000000000E+00  0.00000000000E+00 -0.21290025250E+04  0.21290025250E+04  0.50400001928E-02 0. -1.
    10030    2    1    2    0    0  0.00000000000E+00  0.00000000000E+00 -0.15020616617E+04  0.27559433884E+04  0.23106351345E+04 0.  0.
        2    1    3    3  502    0 -0.11273499345E+04  0.24628915726E+03 -0.81831613409E+03  0.14146439549E+04  0.25500000920E-02 0.  1.
       -2    1    3    3    0  502  0.11273499345E+04 -0.24628915726E+03 -0.68374552756E+03  0.13412994335E+04  0.25500000920E-02 0. -1.
</event>
<event>
 5   0  0.9535394E-05  0.2240136E+04  0.7818609E-02  0.8501906E-01
        2   -1    0    0  501    0  0.00000000000E+00  0.00000000000E+00  0.12752649397E+04  0.12752649397E+04  0.25500000920E-02 0.  1.
       -2   -1    0    0    0  501  0.00000000000E+00  0.00000000000E+00 -0.98375778364E+03  0.98375778364E+03  0.25500000920E-02 0. -1.
    10030    2    1    2    0    0  0.00000000000E+00  0.00000000000E+00  0.29150715605E+03  0.22590227233E+04  0.22401355411E+04 0.  0.
        2    1    3    3  502    0  0.47995339138E+03 -0.28574532200E+03 -0.83328006984E+03  0.10031756186E+04  0.25500000920E-02 0. -1.
       -2    1    3    3    0  502 -0.47995339138E+03  0.28574532200E+03  0.11247872259E+04  0.12558471047E+04  0.25500000920E-02 0.  1.
</event>
<event>
 5   0  0.9641157E-05  0.2309460E+04  0.7818609E-02  0.8474200E-01
        2   -1    0    0  501    0  0.00000000000E+00  0.00000000000E+00  0.20030380393E+04  0.20030380393E+04  0.25500000920E-02 0.  1.
       -2   -1    0    0    0  501  0.00000000000E+00  0.00000000000E+00 -0.66568951679E+03  0.66568951680E+03  0.25500000920E-02 0. -1.
    10030    2    1    2    0    0  0.00000000000E+00  0.00000000000E+00  0.13373485225E+04  0.26687275561E+04  0.23094600447E+04 0.  0.
        3    1    3    3  502    0  0.33299562940E+03  0.40225894026E+03 -0.52144559157E+03  0.73797280396E+03  0.10100000352E+00 0. -1.
       -3    1    3    3    0  502 -0.33299562940E+03 -0.40225894026E+03  0.18587941141E+04  0.19307547522E+04  0.10100000352E+00 0.  1.
</event>
<event>
 5   0  0.9483073E-05  0.2126578E+04  0.7818609E-02  0.8549625E-01
       -2   -1    0    0    0  501  0.00000000000E+00  0.00000000000E+00  0.89126704098E+03  0.89126704098E+03  0.25500000920E-02 0.  1.
        2   -1    0    0  501    0  0.00000000000E+00  0.00000000000E+00 -0.12685125984E+04  0.12685125984E+04  0.25500000920E-02 0. -1.
    10030    2    1    2    0    0  0.00000000000E+00  0.00000000000E+00 -0.37724555744E+03  0.21597796394E+04  0.21265779742E+04 0.  0.
        5    1    3    3  502    0  0.53408219165E+03 -0.81449411693E+03 -0.62179907709E+03  0.11555520915E+04  0.46999998093E+01 0.  1.
       -5    1    3    3    0  502 -0.53408219165E+03  0.81449411693E+03  0.24455351964E+03  0.10042275479E+04  0.46999998093E+01 0. -1.
</event>
<event>
 5   0  0.3885219E-05  0.2217976E+04  0.7818609E-02  0.8510983E-01
        1   -1    0    0  501    0  0.00000000000E+00  0.00000000000E+00  0.16579996942E+04  0.16579996942E+04  0.50400001928E-02 0. -1.
       -1   -1    0    0    0  501  0.00000000000E+00  0.00000000000E+00 -0.74176968518E+03  0.74176968519E+03  0.50400001928E-02 0.  1.
    10030    2    1    2    0    0  0.00000000000E+00  0.00000000000E+00  0.91623000900E+03  0.23997693794E+04  0.22179755735E+04 0.  0.
        2    1    3    3  502    0  0.91173343079E+03  0.11062778111E+03  0.11306384880E+04  0.14566536120E+04  0.25500000920E-02 0. -1.
       -2    1    3    3    0  502 -0.91173343079E+03 -0.11062778111E+03 -0.21440847903E+03  0.94311576737E+03  0.25500000920E-02 0.  1.
</event>
<event>
 5   0  0.9535394E-05  0.2325780E+04  0.7818609E-02  0.8467825E-01
       -2   -1    0    0    0  501  0.00000000000E+00  0.00000000000E+00  0.92497365082E+03  0.92497365082E+03  0.25500000920E-02 0.  1.
        2   -1    0    0  501    0  0.00000000000E+00  0.00000000000E+00 -0.14620021263E+04  0.14620021263E+04  0.25500000920E-02 0. -1.
    10030    2    1    2    0    0  0.00000000000E+00  0.00000000000E+00 -0.53702847551E+03  0.23869757772E+04  0.23257802513E+04 0.  0.
        2    1    3    3  502    0  0.22692117088E+03  0.61099413725E+03 -0.12569257354E+04  0.14158634673E+04  0.25500000920E-02 0. -1.
       -2    1    3    3    0  502 -0.22692117088E+03 -0.61099413725E+03  0.71989725993E+03  0.97111230988E+03  0.25500000920E-02 0.  1.
</event>
<event>
 5   0  0.3885219E-05  0.2263145E+04  0.7818609E-02  0.8492596E-01
       -1   -1    0    0    0  501  0.00000000000E+00  0.00000000000E+00  0.10767513006E+04  0.10767513006E+04  0.50400001928E-02 0.  1.
        1   -1    0    0  501    0  0.00000000000E+00  0.00000000000E+00 -0.11891851704E+04  0.11891851704E+04  0.50400001928E-02 0. -1.
    10030    2    1    2    0    0  0.00000000000E+00  0.00000000000E+00 -0.11243386985E+03  0.22659364710E+04  0.22631453147E+04 0.  0.
        2    1    3    3  502    0 -0.36572192490E+02 -0.40723763740E+03 -0.11126374860E+04  0.11853869384E+04  0.25500000920E-02 0. -1.
       -2    1    3    3    0  502  0.36572192490E+02  0.40723763740E+03  0.10002036161E+04  0.10805495326E+04  0.25500000920E-02 0.  1.
</event>
<event>
 5   0  0.9483073E-05  0.2268041E+04  0.7818609E-02  0.8490630E-01
        2   -1    0    0  501    0  0.00000000000E+00  0.00000000000E+00  0.17213465648E+04  0.17213465648E+04  0.25500000920E-02 0.  1.
       -2   -1    0    0    0  501  0.00000000000E+00  0.00000000000E+00 -0.74709074904E+03  0.74709074904E+03  0.25500000920E-02 0. -1.
    10030    2    1    2    0    0  0.00000000000E+00  0.00000000000E+00  0.97425581576E+03  0.24684373138E+04  0.22680406473E+04 0.  0.
        5    1    3    3  502    0 -0.70147200937E+03 -0.33254517781E+03 -0.41254935477E+03  0.87912930524E+03  0.46999998093E+01 0. -1.
       -5    1    3    3    0  502  0.70147200937E+03  0.33254517781E+03  0.13868051705E+04  0.15893080086E+04  0.46999998093E+01 0.  1.
</event>
<event>
 5   0  0.4139830E-05  0.2308172E+04  0.7818609E-02  0.8474706E-01
       -1   -1    0    0    0  501  0.00000000000E+00  0.00000000000E+00  0.89249799923E+03  0.89249799925E+03  0.50400001928E-02 0. -1.
        1   -1    0    0  501    0  0.00000000000E+00  0.00000000000E+00 -0.14923442067E+04  0.14923442067E+04  0.50400001928E-02 0.  1.
    10030    2    1    2    0    0  0.00000000000E+00  0.00000000000E+00 -0.59984620745E+03  0.23848422059E+04  0.23081717602E+04 0.  0.
        1    1    3    3  502    0  0.23192951871E+03  0.86156617486E+03 -0.10562397829E+04  0.13826532661E+04  0.50400001928E-02 0.  1.
       -1    1    3    3    0  502 -0.23192951871E+03 -0.86156617486E+03  0.45639357547E+03  0.10021889398E+04  0.50400001928E-02 0. -1.
</event>
<event>
 5   0  0.3885219E-05  0.1874754E+04  0.7818609E-02  0.8667526E-01
       -1   -1    0    0    0  501  0.00000000000E+00  0.00000000000E+00  0.81942290000E+03  0.81942290002E+03  0.50400001928E-02 0. -1.
        1   -1    0    0  501    0  0.00000000000E+00  0.00000000000E+00 -0.10723098945E+04  0.10723098945E+04  0.50400001928E-02 0.  1.
    10030    2    1    2    0    0  0.00000000000E+00  0.00000000000E+00 -0.25288699447E+03  0.18917327945E+04  0.18747536195E+04 0.  0.
        2    1    3    3  502    0 -0.41111313123E+03 -0.84114817272E+03 -0.79862347694E+02  0.93963942537E+03  0.25500000920E-02 0.  1.
       -2    1    3    3    0  502  0.41111313123E+03  0.84114817272E+03 -0.17302464677E+03  0.95209336912E+03  0.25500000920E-02 0. -1.
</event>
<event>
 5   0  0.4139830E-05  0.2433575E+04  0.7818609E-02  0.8427040E-01
        1   -1    0    0  501    0  0.00000000000E+00  0.00000000000E+00  0.17452386869E+04  0.17452386869E+04  0.50400001928E-02 0.  1.
       -1   -1    0    0    0  501  0.00000000000E+00  0.00000000000E+00 -0.84834885720E+03  0.84834885722E+03  0.50400001928E-02 0. -1.
    10030    2    1    2    0    0  0.00000000000E+00  0.00000000000E+00  0.89688982967E+03  0.25935875441E+04  0.24335745278E+04 0.  0.
        1    1    3    3  502    0 -0.10729109226E+04 -0.48338978061E+03  0.11863338843E+03  0.11827414801E+04  0.50400001928E-02 0. -1.
       -1    1    3    3    0  502  0.10729109226E+04  0.48338978061E+03  0.77825644124E+03  0.14108460640E+04  0.50400001928E-02 0.  1.
</event>
<event>
 5   0  0.9483073E-05  0.2296248E+04  0.7818609E-02  0.8479402E-01
       -2   -1    0    0    0  501  0.00000000000E+00  0.00000000000E+00  0.62623130833E+03  0.62623130833E+03  0.25500000920E-02 0. -1.
        2   -1    0    0  501    0  0.00000000000E+00  0.00000000000E+00 -0.21049555604E+04  0.21049555604E+04  0.25500000920E-02 0.  1.
    10030    2    1    2    0    0  0.00000000000E+00  0.00000000000E+00 -0.14787242521E+04  0.27311868688E+04  0.22962483094E+04 0.  0.
        5    1    3    3  502    0 -0.58913514772E+03 -0.47326688228E+03 -0.17674339381E+04  0.19222139786E+04  0.46999998093E+01 0.  1.
       -5    1    3    3    0  502  0.58913514772E+03  0.47326688228E+03  0.28870968601E+03  0.80897289012E+03  0.46999998093E+01 0. -1.
</event>
<event>
 5   0  0.4295775E-05  0.2275177E+04  0.7818609E-02  0.8487773E-01
       -1   -1    0    0    0  501  0.00000000000E+00  0.00000000000E+00  0.13629954782E+04  0.13629954782E+04  0.50400001928E-02 0. -1.
        1   -1    0    0  501    0  0.00000000000E+00  0.00000000000E+00 -0.94945833050E+03  0.94945833051E+03  0.50400001928E-02 0.  1.
    10030    2    1    2    0    0  0.00000000000E+00  0.00000000000E+00  0.41353714774E+03  0.23124538088E+04  0.22751768382E+04 0.  0.
        5    1    3    3  502    0 -0.37722714549E+03  0.55141518533E+03 -0.72903723336E+03  0.98887633379E+03  0.46999998093E+01 0.  1.
       -5    1    3    3    0  502  0.37722714549E+03 -0.55141518533E+03  0.11425743811E+04  0.13235774750E+04  0.46999998093E+01 0. -1.
</event>
<event>
 5   0  0.4095451E-05  0.2128774E+04  0.7818609E-02  0.8548673E-01
        1   -1    0    0  501    0  0.00000000000E+00  0.00000000000E+00  0.11259368836E+04  0.11259368836E+04  0.50400001928E-02 0.  1.
       -1   -1    0    0    0  501  0.00000000000E+00  0.00000000000E+00 -0.10062015611E+04  0.10062015611E+04  0.50400001928E-02 0. -1.
    10030    2    1    2    0    0  0.00000000000E+00  0.00000000000E+00  0.11973532249E+03  0.21321384447E+04  0.21287737784E+04 0.  0.
        3    1    3    3  502    0  0.51048439907E+03 -0.92801799725E+03  0.16542738602E+03  0.10719971806E+04  0.10100000352E+00 0. -1.
       -3    1    3    3    0  502 -0.51048439907E+03  0.92801799725E+03 -0.45692063526E+02  0.10601412641E+04  0.10100000352E+00 0.  1.
</event>
<event>
 5   0  0.9313463E-05  0.2332126E+04  0.7818609E-02  0.8465361E-01
        2   -1    0    0  501    0  0.00000000000E+00  0.00000000000E+00  0.18718713536E+04  0.18718713536E+04  0.25500000920E-02 0.  1.
       -2   -1    0    0    0  501  0.00000000000E+00  0.00000000000E+00 -0.72638724657E+03  0.72638724657E+03  0.25500000920E-02 0. -1.
    10030    2    1    2    0    0  0.00000000000E+00  0.00000000000E+00  0.11454841071E+04  0.25982586002E+04  0.23321264790E+04 0.  0.
        1    1    3    3  502    0  0.30848404674E+03  0.20187334235E+03  0.18052320659E+04  0.18424923515E+04  0.50400001928E-02 0.  1.
       -1    1    3    3    0  502 -0.30848404674E+03 -0.20187334235E+03 -0.65974795886E+03  0.75576624871E+03  0.50400001928E-02 0. -1.
</event>
<event>
 5   0  0.4095451E-05  0.1833740E+04  0.7818609E-02  0.8688560E-01
       -1   -1    0    0    0  501  0.00000000000E+00  0.00000000000E+00  0.77014804311E+03  0.77014804312E+03  0.50400001928E-02 0.  1.
        1   -1    0    0  501    0  0.00000000000E+00  0.00000000000E+00 -0.10915445409E+04  0.10915445409E+04  0.50400001928E-02 0. -1.
    10030    2    1    2    0    0  0.00000000000E+00  0.00000000000E+00 -0.32139649781E+03  0.18616925841E+04  0.18337403221E+04 0.  0.
        3    1    3    3  502    0 -0.53527665186E+03  0.63328940893E+03 -0.55790927252E+03  0.99941949953E+03  0.10100000352E+00 0. -1.
       -3    1    3    3    0  502  0.53527665186E+03 -0.63328940893E+03  0.23651277471E+03  0.86227308452E+03  0.10100000352E+00 0.  1.
</event>
<event>
 5   0  0.9641157E-05  0.2241678E+04  0.7818609E-02  0.8501278E-01
       -2   -1    0    0    0  501  0.00000000000E+00  0.00000000000E+00  0.15098455764E+04  0.15098455764E+04  0.25500000920E-02 0.  1.
        2   -1    0    0  501    0  0.00000000000E+00  0.00000000000E+00 -0.83205892987E+03  0.83205892987E+03  0.25500000920E-02 0. -1.
    10030    2    1    2    0    0  0.00000000000E+00  0.00000000000E+00  0.67778664655E+03  0.23419045063E+04  0.22416783842E+04 0.  0.
        3    1    3    3  502    0  0.47155572443E+02  0.77529246097E+03 -0.50530657984E+03  0.92662656873E+03  0.10100000352E+00 0. -1.
       -3    1    3    3    0  502 -0.47155572443E+02 -0.77529246097E+03  0.11830932264E+04  0.14152779376E+04  0.10100000352E+00 0.  1.
</event>
<event>
 5   0  0.4139830E-05  0.2238986E+04  0.7818609E-02  0.8502374E-01
       -1   -1    0    0    0  501  0.00000000000E+00  0.00000000000E+00  0.11807330382E+04  0.11807330382E+04  0.50400001928E-02 0.  1.
        1   -1    0    0  501    0  0.00000000000E+00  0.00000000000E+00 -0.10614290301E+04  0.10614290301E+04  0.50400001928E-02 0. -1.
    10030    2    1    2    0    0  0.00000000000E+00  0.00000000000E+00  0.11930400803E+03  0.22421620683E+04  0.22389857736E+04 0.  0.
        1    1    3    3  502    0  0.28984703783E+03  0.46121830699E+03  0.10390633297E+04  0.11731948837E+04  0.50400001928E-02 0.  1.
       -1    1    3    3    0  502 -0.28984703783E+03 -0.46121830699E+03 -0.91975932163E+03  0.10689671846E+04  0.50400001928E-02 0. -1.
</event>
<event>
 5   0  0.4139830E-05  0.2305194E+04  0.7818609E-02  0.8475876E-01
       -1   -1    0    0    0  501  0.00000000000E+00  0.00000000000E+00  0.12639895643E+04  0.12639895643E+04  0.50400001928E-02 0. -1.
        1   -1    0    0  501    0  0.00000000000E+00  0.00000000000E+00 -0.10510214231E+04  0.10510214231E+04  0.50400001928E-02 0.  1.
    10030    2    1    2    0    0  0.00000000000E+00  0.00000000000E+00  0.21296814120E+03  0.23150109874E+04  0.23051942310E+04 0.  0.
        1    1    3    3  502    0 -0.53961247012E+03 -0.27834113855E+03 -0.87739448346E+03  0.10669941363E+04  0.50400001928E-02 0.  1.
       -1    1    3    3    0  502  0.53961247012E+03  0.27834113855E+03  0.10903626247E+04  0.12480168511E+04  0.50400001928E-02 0. -1.
</event>
<event>
 5   0  0.9313463E-05  0.2355775E+04  0.7818609E-02  0.8456249E-01
        2   -1    0    0  501    0  0.00000000000E+00  0.00000000000E+00  0.10299986347E+04  0.10299986347E+04  0.25500000920E-02 0. -1.
       -2   -1    0    0    0  501  0.00000000000E+00  0.00000000000E+00 -0.13470104314E+04  0.13470104314E+04  0.25500000920E-02 0.  1.
    10030    2    1    2    0    0  0.00000000000E+00  0.00000000000E+00 -0.31701179671E+03  0.23770090660E+04  0.23557749512E+04 0.  0.
        1    1    3    3  502    0  0.81273196966E+03  0.27206590416E+03 -0.97379004249E+03  0.12972355829E+04  0.50400001928E-02 0.  1.
       -1    1    3    3    0  502 -0.81273196966E+03 -0.27206590416E+03  0.65677824578E+03  0.10797734831E+04  0.50400001928E-02 0. -1.
</event>
<event>
 5   0  0.4139830E-05  0.2324072E+04  0.7818609E-02  0.8468490E-01
       -1   -1    0    0    0  501  0.00000000000E+00  0.00000000000E+00  0.12692917322E+04  0.12692917322E+04  0.50400001928E-02 0.  1.
        1   -1    0    0  501    0  0.00000000000E+00  0.00000000000E+00 -0.10638430489E+04  0.10638430489E+04  0.50400001928E-02 0. -1.
    10030    2    1    2    0    0  0.00000000000E+00  0.00000000000E+00  0.20544868331E+03  0.23331347810E+04  0.23240715878E+04 0.  0.
        1    1    3    3  502    0  0.36292407791E+02  0.52312290607E+03 -0.93831165229E+03  0.10748969581E+04  0.50400001928E-02 0. -1.
       -1    1    3    3    0  502 -0.36292407791E+02 -0.52312290607E+03  0.11437603356E+04  0.12582378229E+04  0.50400001928E-02 0.  1.
</event>
<event>
 5   0  0.4139830E-05  0.2335067E+04  0.7818609E-02  0.8464221E-01
       -1   -1    0    0    0  501  0.00000000000E+00  0.00000000000E+00  0.81076612337E+03  0.81076612338E+03  0.50400001928E-02 0.  1.
        1   -1    0    0  501    0  0.00000000000E+00  0.00000000000E+00 -0.16812925335E+04  0.16812925335E+04  0.50400001928E-02 0. -1.
    10030    2    1    2    0    0  0.00000000000E+00  0.00000000000E+00 -0.87052641013E+03  0.24920586569E+04  0.23350674762E+04 0.  0.
        1    1    3    3  502    0 -0.71773916106E+03 -0.77097868847E+03  0.10215712049E+03  0.10582975568E+04  0.50400001928E-02 0.  1.
       -1    1    3    3    0  502  0.71773916106E+03  0.77097868847E+03 -0.97268353062E+03  0.14337611001E+04  0.50400001928E-02 0. -1.
</event>
<event>
 5   0  0.9641157E-05  0.2317135E+04  0.7818609E-02  0.8471195E-01
        2   -1    0    0  501    0  0.00000000000E+00  0.00000000000E+00  0.19530291604E+04  0.19530291604E+04  0.25500000920E-02 0. -1.
       -2   -1    0    0    0  501  0.00000000000E+00  0.00000000000E+00 -0.68728051232E+03  0.68728051233E+03  0.25500000920E-02 0.  1.
    10030    2    1    2    0    0  0.00000000000E+00  0.00000000000E+00  0.12657486481E+04  0.26403096727E+04  0.23171351984E+04 0.  0.
        3    1    3    3  502    0 -0.43649320302E+03 -0.37784096530E+03 -0.51170700329E+03  0.77144940130E+03  0.10100000352E+00 0.  1.
       -3    1    3    3    0  502  0.43649320302E+03  0.37784096530E+03  0.17774556514E+04  0.18688602714E+04  0.10100000352E+00 0. -1.
</event>
<event>
 5   0  0.9483073E-05  0.2210066E+04  0.7818609E-02  0.8514250E-01
       -2   -1    0    0    0  501  0.00000000000E+00  0.00000000000E+00  0.91770477748E+03  0.91770477748E+03  0.25500000920E-02 0. -1.
        2   -1    0    0  501    0  0.00000000000E+00  0.00000000000E+00 -0.13306004405E+04  0.13306004406E+04  0.25500000920E-02 0.  1.
    10030    2    1    2    0    0  0.00000000000E+00  0.00000000000E+00 -0.41289566307E+03  0.22483052180E+04  0.22100664073E+04 0.  0.
        5    1    3    3  502    0 -0.36912771844E+03 -0.28237102417E+02  0.85273109292E+03  0.92963703310E+03  0.46999998093E+01 0. -1.
       -5    1    3    3    0  502  0.36912771844E+03  0.28237102417E+02 -0.12656267560E+04  0.13186681849E+04  0.46999998093E+01 0.  1.
</event>
<event>
 5   0  0.9535394E-05  0.2338518E+04  0.7818609E-02  0.8462887E-01
       -2   -1    0    0    0  501  0.00000000000E+00  0.00000000000E+00  0.83028291646E+03  0.83028291646E+03  0.25500000920E-02 0.  1.
        2   -1    0    0  501    0  0.00000000000E+00  0.00000000000E+00 -0.16466267853E+04  0.16466267853E+04  0.25500000920E-02 0. -1.
    10030    2    1    2    0    0  0.00000000000E+00  0.00000000000E+00 -0.81634386884E+03  0.24769097018E+04  0.23385175557E+04 0.  0.
        2    1    3    3  502    0 -0.86281103554E+03  0.39310194797E+03  0.31656849958E+03  0.99959373722E+03  0.25500000920E-02 0.  1.
       -2    1    3    3    0  502  0.86281103554E+03 -0.39310194797E+03 -0.11329123684E+04  0.14773159645E+04  0.25500000920E-02 0. -1.
</event>
<event>
 5   0  0.9535394E-05  0.2302273E+04  0.7818609E-02  0.8477026E-01
        2   -1    0    0  501    0  0.00000000000E+00  0.00000000000E+00  0.95346069355E+03  0.95346069356E+03  0.25500000920E-02 0.  1.
       -2   -1    0    0    0  501  0.00000000000E+00  0.00000000000E+00 -0.13897948541E+04  0.13897948541E+04  0.25500000920E-02 0. -1.
    10030    2    1    2    0    0  0.00000000000E+00  0.00000000000E+00 -0.43633416057E+03  0.23432555477E+04  0.23022725864E+04 0.  0.
        2    1    3    3  502    0  0.48420901479E+03  0.29205572356E+03  0.80235799496E+03  0.98159730427E+03  0.25500000920E-02 0.  1.
       -2    1    3    3    0  502 -0.48420901479E+03 -0.29205572356E+03 -0.12386921555E+04  0.13616582434E+04  0.25500000920E-02 0. -1.
</event>
<event>
 5   0  0.9641157E-05  0.2329998E+04  0.7818609E-02  0.8466186E-01
        2   -1    0    0  501    0  0.00000000000E+00  0.00000000000E+00  0.63295834885E+03  0.63295834885E+03  0.25500000920E-02 0. -1.
       -2   -1    0    0    0  501  0.00000000000E+00  0.00000000000E+00 -0.21442524096E+04  0.21442524096E+04  0.25500000920E-02 0.  1.
    10030    2    1    2    0    0  0.00000000000E+00  0.00000000000E+00 -0.15112940608E+04  0.27772107585E+04  0.23299978238E+04 0.  0.
        3    1    3    3  502    0 -0.61223077173E+02  0.24315900317E+02  0.63073663098E+03  0.63416735649E+03  0.10100000352E+00 0. -1.
       -3    1    3    3    0  502  0.61223077173E+02 -0.24315900317E+02 -0.21420306918E+04  0.21430434020E+04  0.10100000352E+00 0.  1.
</event>
<event>
 5   0  0.3885219E-05  0.2396038E+04  0.7818609E-02  0.8440988E-01
        1   -1    0    0  501    0  0.00000000000E+00  0.00000000000E+00  0.17236232963E+04  0.17236232963E+04  0.50400001928E-02 0. -1.
       -1   -1    0    0    0  501  0.00000000000E+00  0.00000000000E+00 -0.83269302212E+03  0.83269302214E+03  0.50400001928E-02 0.  1.
    10030    2    1    2    0    0  0.00000000000E+00  0.00000000000E+00  0.89093027422E+03  0.25563163185E+04  0.23960376388E+04 0.  0.
        2    1    3    3  502    0  0.10334875555E+04 -0.50580088444E+02  0.10896727392E+04  0.15026781263E+04  0.25500000920E-02 0. -1.
       -2    1    3    3    0  502 -0.10334875555E+04  0.50580088444E+02 -0.19874246495E+03  0.10536381922E+04  0.25500000920E-02 0.  1.
</event>
<event>
 5   0  0.9313463E-05  0.2296873E+04  0.7818609E-02  0.8479155E-01
       -2   -1    0    0    0  501  0.00000000000E+00  0.00000000000E+00  0.64630529959E+03  0.64630529960E+03  0.25500000920E-02 0.  1.
        2   -1    0    0  501    0  0.00000000000E+00  0.00000000000E+00 -0.20406857518E+04  0.20406857518E+04  0.25500000920E-02 0. -1.
    10030    2    1    2    0    0  0.00000000000E+00  0.00000000000E+00 -0.13943804522E+04  0.26869910514E+04  0.22968726705E+04 0.  0.
        1    1    3    3  502    0  0.10986672605E+04 -0.51988681982E+02 -0.10836535010E+04  0.15440458162E+04  0.50400001928E-02 0.  1.
       -1    1    3    3    0  502 -0.10986672605E+04  0.51988681982E+02 -0.31072695119E+03  0.11429452352E+04  0.50400001928E-02 0. -1.
</event>
<event>
 5   0  0.4095451E-05  0.2306297E+04  0.7818609E-02  0.8475442E-01
        1   -1    0    0  501    0  0.00000000000E+00  0.00000000000E+00  0.15907166054E+04  0.15907166054E+04  0.50400001928E-02 0.  1.
       -1   -1    0    0    0  501  0.00000000000E+00  0.00000000000E+00 -0.83594491378E+03  0.83594491380E+03  0.50400001928E-02 0. -1.
    10030    2    1    2    0    0  0.00000000000E+00  0.00000000000E+00  0.75477169158E+03  0.24266615192E+04  0.23062969935E+04 0.  0.
        3    1    3    3  502    0  0.89658313879E+03  0.37299896041E+03 -0.27697274864E+03  0.10098036754E+04  0.10100000352E+00 0. -1.
       -3    1    3    3    0  502 -0.89658313879E+03 -0.37299896041E+03  0.10317444402E+04  0.14168578437E+04  0.10100000352E+00 0.  1.
</event>
<event>
 5   0  0.4095451E-05  0.2275329E+04  0.7818609E-02  0.8487713E-01
       -1   -1    0    0    0  501  0.00000000000E+00  0.00000000000E+00  0.75819620186E+03  0.75819620188E+03  0.50400001928E-02 0. -1.
        1   -1    0    0  501    0  0.00000000000E+00  0.00000000000E+00 -0.17070517326E+04  0.17070517326E+04  0.50400001928E-02 0.  1.
    10030    2    1    2    0    0  0.00000000000E+00  0.00000000000E+00 -0.94885553071E+03  0.24652479345E+04  0.22753286708E+04 0.  0.
        3    1    3    3  502    0 -0.52538277936E+03  0.32648719942E+03 -0.15089330595E+04  0.16307973340E+04  0.10100000352E+00 0.  1.
       -3    1    3    3    0  502  0.52538277936E+03 -0.32648719942E+03  0.56007752877E+03  0.83445060050E+03  0.10100000352E+00 0. -1.
</event>
<event>
 5   0  0.4005462E-05  0.1683142E+04  0.7818609E-02  0.8771038E-01
       -1   -1    0    0    0  501  0.00000000000E+00  0.00000000000E+00  0.53931323987E+03  0.53931323990E+03  0.50400001928E-02 0.  1.
        1   -1    0    0  501    0  0.00000000000E+00  0.00000000000E+00 -0.13132296533E+04  0.13132296533E+04  0.50400001928E-02 0. -1.
    10030    2    1    2    0    0  0.00000000000E+00  0.00000000000E+00 -0.77391641344E+03  0.18525428932E+04  0.16831424646E+04 0.  0.
        4    1    3    3  502    0 -0.23751653627E+03 -0.16215351627E+03 -0.12574654507E+04  0.12899336574E+04  0.12699999809E+01 0. -1.
       -4    1    3    3    0  502  0.23751653627E+03  0.16215351627E+03  0.48354903730E+03  0.56260923580E+03  0.12699999809E+01 0.  1.
</event>
<event>
 5   0  0.9312074E-05  0.2297556E+04  0.7818609E-02  0.8478885E-01
        2   -1    0    0  501    0  0.00000000000E+00  0.00000000000E+00  0.18756351071E+04  0.18756351071E+04  0.25500000920E-02 0.  1.
       -2   -1    0    0    0  501  0.00000000000E+00  0.00000000000E+00 -0.70359684016E+03  0.70359684017E+03  0.25500000920E-02 0. -1.
    10030    2    1    2    0    0  0.00000000000E+00  0.00000000000E+00  0.11720382669E+04  0.25792319473E+04  0.22975560360E+04 0.  0.
        4    1    3    3  502    0  0.58905169693E+03  0.35570975430E+03 -0.44663562274E+03  0.82036353122E+03  0.12699999809E+01 0. -1.
       -4    1    3    3    0  502 -0.58905169693E+03 -0.35570975430E+03  0.16186738897E+04  0.17588684160E+04  0.12699999809E+01 0.  1.
</event>
<event>
 5   0  0.4095451E-05  0.2262241E+04  0.7818609E-02  0.8492959E-01
        1   -1    0    0  501    0  0.00000000000E+00  0.00000000000E+00  0.17151299880E+04  0.17151299880E+04  0.50400001928E-02 0.  1.
       -1   -1    0    0    0  501  0.00000000000E+00  0.00000000000E+00 -0.74596904019E+03  0.74596904021E+03  0.50400001928E-02 0. -1.
    10030    2    1    2    0    0  0.00000000000E+00  0.00000000000E+00  0.96916094783E+03  0.24610990282E+04  0.22622412524E+04 0.  0.
        3    1    3    3  502    0 -0.63768803475E+03  0.57603624427E+03 -0.31557944434E+03  0.91545299184E+03  0.10100000352E+00 0. -1.
       -3    1    3    3    0  502  0.63768803475E+03 -0.57603624427E+03  0.12847403922E+04  0.15456460364E+04  0.10100000352E+00 0.  1.
</event>
<event>
 5   0  0.9483073E-05  0.2099690E+04  0.7818609E-02  0.8561380E-01
       -2   -1    0    0    0  501  0.00000000000E+00  0.00000000000E+00  0.11167462373E+04  0.11167462373E+04  0.25500000920E-02 0. -1.
        2   -1    0    0  501    0  0.00000000000E+00  0.00000000000E+00 -0.98695176309E+03  0.98695176309E+03  0.25500000920E-02 0.  1.
    10030    2    1    2    0    0  0.00000000000E+00  0.00000000000E+00  0.12979447423E+03  0.21036980004E+04  0.20996901370E+04 0.  0.
        5    1    3    3  502    0 -0.40611918277E+03  0.63102282375E+03  0.80048525703E+03  0.10972334899E+04  0.46999998093E+01 0. -1.
       -5    1    3    3    0  502  0.40611918277E+03 -0.63102282375E+03 -0.67069078280E+03  0.10064645105E+04  0.46999998093E+01 0.  1.
</event>
<event>
 5   0  0.4095451E-05  0.2243453E+04  0.7818609E-02  0.8500556E-01
       -1   -1    0    0    0  501  0.00000000000E+00  0.00000000000E+00  0.98984380940E+03  0.98984380942E+03  0.50400001928E-02 0. -1.
        1   -1    0    0  501    0  0.00000000000E+00  0.00000000000E+00 -0.12711812557E+04  0.12711812558E+04  0.50400001928E-02 0.  1.
    10030    2    1    2    0    0  0.00000000000E+00  0.00000000000E+00 -0.28133744634E+03  0.22610250652E+04  0.22434534955E+04 0.  0.
        3    1    3    3  502    0 -0.82989846734E+03  0.31977288100E+03 -0.82960506976E+03  0.12162363025E+04  0.10100000352E+00 0.  1.
       -3    1    3    3    0  502  0.82989846734E+03 -0.31977288100E+03  0.54826762342E+03  0.10447887627E+04  0.10100000352E+00 0. -1.
</event>
<event>
 5   0  0.9313463E-05  0.2296922E+04  0.7818609E-02  0.8479136E-01
       -2   -1    0    0    0  501  0.00000000000E+00  0.00000000000E+00  0.74247495399E+03  0.74247495400E+03  0.25500000920E-02 0.  1.
        2   -1    0    0  501    0  0.00000000000E+00  0.00000000000E+00 -0.17764410231E+04  0.17764410231E+04  0.25500000920E-02 0. -1.
    10030    2    1    2    0    0  0.00000000000E+00  0.00000000000E+00 -0.10339660691E+04  0.25189159771E+04  0.22969222598E+04 0.  0.
        1    1    3    3  502    0 -0.26468623989E+03 -0.29915767676E+02  0.70813033510E+03  0.75657275278E+03  0.50400001928E-02 0.  1.
       -1    1    3    3    0  502  0.26468623989E+03  0.29915767676E+02 -0.17420964042E+04  0.17623432243E+04  0.50400001928E-02 0. -1.
</event>
<event>
 5   0  0.4095451E-05  0.2314210E+04  0.7818609E-02  0.8472339E-01
       -1   -1    0    0    0  501  0.00000000000E+00  0.00000000000E+00  0.59338161945E+03  0.59338161947E+03  0.50400001928E-02 0. -1.
        1   -1    0    0  501    0  0.00000000000E+00  0.00000000000E+00 -0.22563762862E+04  0.22563762862E+04  0.50400001928E-02 0.  1.
    10030    2    1    2    0    0  0.00000000000E+00  0.00000000000E+00 -0.16629946667E+04  0.28497579057E+04  0.23142102021E+04 0.  0.
        3    1    3    3  502    0  0.51130776489E+03 -0.27503540974E+03  0.40103493797E+03  0.70562677013E+03  0.10100000352E+00 0. -1.
       -3    1    3    3    0  502 -0.51130776489E+03  0.27503540974E+03 -0.20640296047E+04  0.21441311355E+04  0.10100000352E+00 0.  1.
</event>
<event>
 5   0  0.9483073E-05  0.2306461E+04  0.7818609E-02  0.8475378E-01
        2   -1    0    0  501    0  0.00000000000E+00  0.00000000000E+00  0.15132262736E+04  0.15132262736E+04  0.25500000920E-02 0. -1.
       -2   -1    0    0    0  501  0.00000000000E+00  0.00000000000E+00 -0.87887746520E+03  0.87887746520E+03  0.25500000920E-02 0.  1.
    10030    2    1    2    0    0  0.00000000000E+00  0.00000000000E+00  0.63434880839E+03  0.23921037388E+04  0.23064609007E+04 0.  0.
        5    1    3    3  502    0  0.23153909006E+03 -0.71142209123E+03 -0.59301526805E+03  0.95468368597E+03  0.46999998093E+01 0.  1.
       -5    1    3    3    0  502 -0.23153909006E+03  0.71142209123E+03  0.12273640764E+04  0.14374200528E+04  0.46999998093E+01 0. -1.
</event>
<event>
 5   0  0.9641157E-05  0.2231207E+04  0.7818609E-02  0.8505550E-01
        2   -1    0    0  501    0  0.00000000000E+00  0.00000000000E+00  0.16366690413E+04  0.16366690413E+04  0.25500000920E-02 0.  1.
       -2   -1    0    0    0  501  0.00000000000E+00  0.00000000000E+00 -0.76042923814E+03  0.76042923815E+03  0.25500000920E-02 0. -1.
    10030    2    1    2    0    0  0.00000000000E+00  0.00000000000E+00  0.87623980312E+03  0.23970982794E+04  0.22312068413E+04 0.  0.
        3    1    3    3  502    0 -0.10664875266E+04 -0.12024415836E+02  0.78959963927E+03  0.13270297026E+04  0.10100000352E+00 0.  1.
       -3    1    3    3    0  502  0.10664875266E+04  0.12024415836E+02  0.86640163847E+02  0.10700685768E+04  0.10100000352E+00 0. -1.
</event>
<event>
 5   0  0.9641157E-05  0.2277569E+04  0.7818609E-02  0.8486818E-01
        2   -1    0    0  501    0  0.00000000000E+00  0.00000000000E+00  0.15775128771E+04  0.15775128771E+04  0.25500000920E-02 0.  1.
       -2   -1    0    0    0  501  0.00000000000E+00  0.00000000000E+00 -0.82207267191E+03  0.82207267191E+03  0.25500000920E-02 0. -1.
    10030    2    1    2    0    0  0.00000000000E+00  0.00000000000E+00  0.75544020523E+03  0.23995855491E+04  0.22775690777E+04 0.  0.
        3    1    3    3  502    0 -0.93585425994E+03 -0.61646320372E+03  0.59100072032E+03  0.12669380170E+04  0.10100000352E+00 0.  1.
       -3    1    3    3    0  502  0.93585425994E+03  0.61646320372E+03  0.16443948492E+03  0.11326475320E+04  0.10100000352E+00 0. -1.
</event>
<event>
 5   0  0.4139830E-05  0.1541949E+04  0.7818609E-02  0.8857027E-01
        1   -1    0    0  501    0  0.00000000000E+00  0.00000000000E+00  0.69936938504E+03  0.69936938506E+03  0.50400001928E-02 0. -1.
       -1   -1    0    0    0  501  0.00000000000E+00  0.00000000000E+00 -0.84991048835E+03  0.84991048836E+03  0.50400001928E-02 0.  1.
    10030    2    1    2    0    0  0.00000000000E+00  0.00000000000E+00 -0.15054110330E+03  0.15492798734E+04  0.15419486056E+04 0.  0.
        1    1    3    3  502    0 -0.46827102708E+02 -0.31570846418E+03  0.62987587047E+03  0.70612196123E+03  0.50400001928E-02 0. -1.
       -1    1    3    3    0  502  0.46827102708E+02  0.31570846418E+03 -0.78041697378E+03  0.84315791219E+03  0.50400001928E-02 0.  1.
</event>
<event>
 5   0  0.4005462E-05  0.2284724E+04  0.7818609E-02  0.8483969E-01
       -1   -1    0    0    0  501  0.00000000000E+00  0.00000000000E+00  0.69291591336E+03  0.69291591338E+03  0.50400001928E-02 0. -1.
        1   -1    0    0  501    0  0.00000000000E+00  0.00000000000E+00 -0.18833328858E+04  0.18833328858E+04  0.50400001928E-02 0.  1.
    10030    2    1    2    0    0  0.00000000000E+00  0.00000000000E+00 -0.11904169725E+04  0.25762487992E+04  0.22847243394E+04 0.  0.
        4    1    3    3  502    0  0.72304867727E+03 -0.33999151270E+03 -0.15158390245E+04  0.17135236151E+04  0.12699999809E+01 0.  1.
       -4    1    3    3    0  502 -0.72304867727E+03  0.33999151270E+03  0.32542205205E+03  0.86272518409E+03  0.12699999809E+01 0. -1.
</event>
<event>
 5   0  0.4139830E-05  0.2263884E+04  0.7818609E-02  0.8492299E-01
       -1   -1    0    0    0  501  0.00000000000E+00  0.00000000000E+00  0.10555104806E+04  0.10555104806E+04  0.50400001928E-02 0. -1.
        1   -1    0    0  501    0  0.00000000000E+00  0.00000000000E+00 -0.12139083725E+04  0.12139083725E+04  0.50400001928E-02 0.  1.
    10030    2    1    2    0    0  0.00000000000E+00  0.00000000000E+00 -0.15839789188E+03  0.22694188531E+04  0.22638842812E+04 0.  0.
        1    1    3    3  502    0 -0.99666299759E+03  0.21814339777E+03  0.41227439701E+03  0.11004062210E+04  0.50400001928E-02 0. -1.
       -1    1    3    3    0  502  0.99666299759E+03 -0.21814339777E+03 -0.57067228888E+03  0.11690126321E+04  0.50400001928E-02 0.  1.
</event>
<event>
 5   0  0.3261500E-05  0.2184421E+04  0.7818609E-02  0.8524941E-01
       -3   -1    0    0    0  501  0.00000000000E+00  0.00000000000E+00  0.11636261471E+04  0.11636261515E+04  0.10100000352E+00 0. -1.
        3   -1    0    0  501    0  0.00000000000E+00  0.00000000000E+00 -0.10251776725E+04  0.10251776775E+04  0.10100000352E+00 0.  1.
    10030    2    1    2    0    0  0.00000000000E+00  0.00000000000E+00  0.13844847455E+03  0.21888038289E+04  0.21844207977E+04 0.  0.
        2    1    3    3  502    0  0.51235274487E+03 -0.75527395475E+03 -0.53196252022E+03  0.10563750304E+04  0.25500000920E-02 0.  1.
       -2    1    3    3    0  502 -0.51235274487E+03  0.75527395475E+03  0.67041099477E+03  0.11324287986E+04  0.25500000920E-02 0. -1.
</event>
<event>
 5   0  0.4095451E-05  0.2296323E+04  0.7818609E-02  0.8479372E-01
        1   -1    0    0  501    0  0.00000000000E+00  0.00000000000E+00  0.16264612667E+04  0.16264612667E+04  0.50400001928E-02 0.  1.
       -1   -1    0    0    0  501  0.00000000000E+00  0.00000000000E+00 -0.81051733120E+03  0.81051733122E+03  0.50400001928E-02 0. -1.
    10030    2    1    2    0    0  0.00000000000E+00  0.00000000000E+00  0.81594393548E+03  0.24369785979E+04  0.22963231874E+04 0.  0.
        3    1    3    3  502    0 -0.28078446744E+02  0.26172328671E+02  0.16257801402E+04  0.16262332134E+04  0.10100000352E+00 0.  1.
       -3    1    3    3    0  502  0.28078446744E+02 -0.26172328671E+02 -0.80983620467E+03  0.81074538454E+03  0.10100000352E+00 0. -1.
</event>
<event>
 5   0  0.4005462E-05  0.2298028E+04  0.7818609E-02  0.8478699E-01
       -1   -1    0    0    0  501  0.00000000000E+00  0.00000000000E+00  0.19347510600E+04  0.19347510600E+04  0.50400001928E-02 0. -1.
        1   -1    0    0  501    0  0.00000000000E+00  0.00000000000E+00 -0.68237863182E+03  0.68237863184E+03  0.50400001928E-02 0.  1.
    10030    2    1    2    0    0  0.00000000000E+00  0.00000000000E+00  0.12523724281E+04  0.26171296918E+04  0.22980276597E+04 0.  0.
        4    1    3    3  502    0  0.49582851774E+03 -0.94972861031E+03  0.10990539160E+04  0.15348457497E+04  0.12699999809E+01 0. -1.
       -4    1    3    3    0  502 -0.49582851774E+03  0.94972861031E+03  0.15331851216E+03  0.10822839421E+04  0.12699999809E+01 0.  1.
</event>
<event>
 5   0  0.3885219E-05  0.2252034E+04  0.7818609E-02  0.8497077E-01
        1   -1    0    0  501    0  0.00000000000E+00  0.00000000000E+00  0.89923689991E+03  0.89923689992E+03  0.50400001928E-02 0.  1.
       -1   -1    0    0    0  501  0.00000000000E+00  0.00000000000E+00 -0.14099889337E+04  0.14099889337E+04  0.50400001928E-02 0. -1.
    10030    2    1    2    0    0  0.00000000000E+00  0.00000000000E+00 -0.51075203377E+03  0.23092258336E+04  0.22520338165E+04 0.  0.
        2    1    3    3  502    0  0.10078260431E+04 -0.20438123728E+02 -0.76989893679E+03  0.12684145312E+04  0.25500000920E-02 0. -1.
       -2    1    3    3    0  502 -0.10078260431E+04  0.20438123728E+02  0.25914690302E+03  0.10408113025E+04  0.25500000920E-02 0.  1.
</event>
<event>
 5   0  0.9535394E-05  0.2240308E+04  0.7818609E-02  0.8501836E-01
        2   -1    0    0  501    0  0.00000000000E+00  0.00000000000E+00  0.15165394265E+04  0.15165394265E+04  0.25500000920E-02 0.  1.
       -2   -1    0    0    0  501  0.00000000000E+00  0.00000000000E+00 -0.82737413074E+03  0.82737413075E+03  0.25500000920E-02 0. -1.
    10030    2    1    2    0    0  0.00000000000E+00  0.00000000000E+00  0.68916529573E+03  0.23439135572E+04  0.22403084517E+04 0.  0.
        2    1    3    3  502    0 -0.65949093775E+02  0.31186192472E+03  0.14680862805E+04  0.15022930706E+04  0.25500000920E-02 0.  1.
       -2    1    3    3    0  502  0.65949093775E+02 -0.31186192472E+03 -0.77892098473E+03  0.84162048663E+03  0.25500000920E-02 0. -1.
</event>
<event>
 5   0  0.4295775E-05  0.2377877E+04  0.7818609E-02  0.8447833E-01
        1   -1    0    0  501    0  0.00000000000E+00  0.00000000000E+00  0.12882304389E+04  0.12882304390E+04  0.50400001928E-02 0. -1.
       -1   -1    0    0    0  501  0.00000000000E+00  0.00000000000E+00 -0.10972992807E+04  0.10972992807E+04  0.50400001928E-02 0.  1.
    10030    2    1    2    0    0  0.00000000000E+00  0.00000000000E+00  0.19093115823E+03  0.23855297197E+04  0.23778766445E+04 0.  0.
        5    1    3    3  502    0  0.82941163882E+03 -0.85179009384E+03  0.86369230099E+02  0.11920368134E+04  0.46999998093E+01 0. -1.
       -5    1    3    3    0  502 -0.82941163882E+03  0.85179009384E+03  0.10456192813E+03  0.11934929063E+04  0.46999998093E+01 0.  1.
</event>
<event>
 5   0  0.4095451E-05  0.2298789E+04  0.7818609E-02  0.8478399E-01
       -1   -1    0    0    0  501  0.00000000000E+00  0.00000000000E+00  0.14281316918E+04  0.14281316918E+04  0.50400001928E-02 0. -1.
        1   -1    0    0  501    0  0.00000000000E+00  0.00000000000E+00 -0.92506022321E+03  0.92506022322E+03  0.50400001928E-02 0.  1.
    10030    2    1    2    0    0  0.00000000000E+00  0.00000000000E+00  0.50307146860E+03  0.23531919150E+04  0.22987890913E+04 0.  0.
        3    1    3    3  502    0 -0.26637174964E+03 -0.25146007729E+03 -0.86370663613E+03  0.93817655213E+03  0.10100000352E+00 0.  1.
       -3    1    3    3    0  502  0.26637174964E+03  0.25146007729E+03  0.13667781047E+04  0.14150153629E+04  0.10100000352E+00 0. -1.
</event>
<event>
 5   0  0.9535394E-05  0.2344123E+04  0.7818609E-02  0.8460724E-01
        2   -1    0    0  501    0  0.00000000000E+00  0.00000000000E+00  0.16326148452E+04  0.16326148452E+04  0.25500000920E-02 0. -1.
       -2   -1    0    0    0  501  0.00000000000E+00  0.00000000000E+00 -0.84142805814E+03  0.84142805815E+03  0.25500000920E-02 0.  1.
    10030    2    1    2    0    0  0.00000000000E+00  0.00000000000E+00  0.79118678701E+03  0.24740429033E+04  0.23441228115E+04 0.  0.
        2    1    3    3  502    0  0.40482839681E+03  0.10706132000E+04  0.66182240721E+03  0.13221601846E+04  0.25500000920E-02 0. -1.
       -2    1    3    3    0  502 -0.40482839681E+03 -0.10706132000E+04  0.12936437980E+03  0.11518827187E+04  0.25500000920E-02 0.  1.
</event>
<event>
 5   0  0.3885219E-05  0.2229855E+04  0.7818609E-02  0.8506103E-01
        1   -1    0    0  501    0  0.00000000000E+00  0.00000000000E+00  0.11956796491E+04  0.11956796492E+04  0.50400001928E-02 0.  1.
       -1   -1    0    0    0  501  0.00000000000E+00  0.00000000000E+00 -0.10396293272E+04  0.10396293272E+04  0.50400001928E-02 0. -1.
    10030    2    1    2    0    0  0.00000000000E+00  0.00000000000E+00  0.15605032194E+03  0.22353089764E+04  0.22298552681E+04 0.  0.
        2    1    3    3  502    0  0.71422764578E+03 -0.66841249260E+03  0.61427952970E+03  0.11550912219E+04  0.25500000920E-02 0.  1.
       -2    1    3    3    0  502 -0.71422764578E+03  0.66841249260E+03 -0.45822920776E+03  0.10802177545E+04  0.25500000920E-02 0. -1.
</event>
<event>
 5   0  0.4295775E-05  0.2249545E+04  0.7818609E-02  0.8498085E-01
       -1   -1    0    0    0  501  0.00000000000E+00  0.00000000000E+00  0.10802235358E+04  0.10802235358E+04  0.50400001928E-02 0.  1.
        1   -1    0    0  501    0  0.00000000000E+00  0.00000000000E+00 -0.11711588778E+04  0.11711588778E+04  0.50400001928E-02 0. -1.
    10030    2    1    2    0    0  0.00000000000E+00  0.00000000000E+00 -0.90935341948E+02  0.22513824136E+04  0.22495451842E+04 0.  0.
        5    1    3    3  502    0 -0.68034050076E+03 -0.13377993669E+03 -0.93181562355E+03  0.11614915905E+04  0.46999998093E+01 0. -1.
       -5    1    3    3    0  502  0.68034050076E+03  0.13377993669E+03  0.84088028160E+03  0.10898908232E+04  0.46999998093E+01 0.  1.
</event>
<event>
 5   0  0.9313463E-05  0.2302664E+04  0.7818609E-02  0.8476872E-01
       -2   -1    0    0    0  501  0.00000000000E+00  0.00000000000E+00  0.12524743518E+04  0.12524743518E+04  0.25500000920E-02 0. -1.
        2   -1    0    0  501    0  0.00000000000E+00  0.00000000000E+00 -0.10583570018E+04  0.10583570018E+04  0.25500000920E-02 0.  1.
    10030    2    1    2    0    0  0.00000000000E+00  0.00000000000E+00  0.19411735002E+03  0.23108313535E+04  0.23026636747E+04 0.  0.
        1    1    3    3  502    0 -0.64739219376E+03  0.83440045153E+03 -0.36306982139E+03  0.11167633864E+04  0.50400001928E-02 0.  1.
       -1    1    3    3    0  502  0.64739219376E+03 -0.83440045153E+03  0.55718717141E+03  0.11940679671E+04  0.50400001928E-02 0. -1.
</event>
<event>
 5   0  0.9535394E-05  0.2300679E+04  0.7818609E-02  0.8477653E-01
        2   -1    0    0  501    0  0.00000000000E+00  0.00000000000E+00  0.17566877858E+04  0.17566877858E+04  0.25500000920E-02 0.  1.
       -2   -1    0    0    0  501  0.00000000000E+00  0.00000000000E+00 -0.75328172652E+03  0.75328172652E+03  0.25500000920E-02 0. -1.
    10030    2    1    2    0    0  0.00000000000E+00  0.00000000000E+00  0.10034060593E+04  0.25099695123E+04  0.23006788635E+04 0.  0.
        2    1    3    3  502    0 -0.12354442337E+03 -0.39901206314E+03 -0.66762395536E+03  0.78752498174E+03  0.25500000920E-02 0. -1.
       -2    1    3    3    0  502  0.12354442337E+03  0.39901206314E+03  0.16710300147E+04  0.17224445306E+04  0.25500000920E-02 0.  1.
</event>
<event>
 5   0  0.9312074E-05  0.2322408E+04  0.7818609E-02  0.8469138E-01
        2   -1    0    0  501    0  0.00000000000E+00  0.00000000000E+00  0.20808128602E+04  0.20808128602E+04  0.25500000920E-02 0. -1.
       -2   -1    0    0    0  501  0.00000000000E+00  0.00000000000E+00 -0.64801343766E+03  0.64801343767E+03  0.25500000920E-02 0.  1.
    10030    2    1    2    0    0  0.00000000000E+00  0.00000000000E+00  0.14327994226E+04  0.27288262979E+04  0.23224079699E+04 0.  0.
        4    1    3    3  502    0  0.27256932260E+03 -0.39448741478E+03  0.19590566309E+04  0.20168834503E+04  0.12699999809E+01 0. -1.
       -4    1    3    3    0  502 -0.27256932260E+03  0.39448741478E+03 -0.52625720834E+03  0.71194284761E+03  0.12699999809E+01 0.  1.
</event>
<event>
 5   0  0.9483073E-05  0.2027666E+04  0.7818609E-02  0.8593794E-01
        2   -1    0    0  501    0  0.00000000000E+00  0.00000000000E+00  0.11645461407E+04  0.11645461407E+04  0.25500000920E-02 0.  1.
       -2   -1    0    0    0  501  0.00000000000E+00  0.00000000000E+00 -0.88262508355E+03  0.88262508356E+03  0.25500000920E-02 0. -1.
    10030    2    1    2    0    0  0.00000000000E+00  0.00000000000E+00  0.28192105711E+03  0.20471712242E+04  0.20276662790E+04 0.  0.
        5    1    3    3  502    0 -0.15191819265E+03 -0.44651739917E+03 -0.76510109832E+03  0.89880960479E+03  0.46999998093E+01 0. -1.
       -5    1    3    3    0  502  0.15191819265E+03  0.44651739917E+03  0.10470221554E+04  0.11483616194E+04  0.46999998093E+01 0.  1.
</event>
<event>
 5   0  0.9312074E-05  0.1847149E+04  0.7818609E-02  0.8681620E-01
        2   -1    0    0  501    0  0.00000000000E+00  0.00000000000E+00  0.98390558907E+03  0.98390558908E+03  0.25500000920E-02 0.  1.
       -2   -1    0    0    0  501  0.00000000000E+00  0.00000000000E+00 -0.86694321511E+03  0.86694321511E+03  0.25500000920E-02 0. -1.
    10030    2    1    2    0    0  0.00000000000E+00  0.00000000000E+00  0.11696237397E+03  0.18508488042E+04  0.18471494523E+04 0.  0.
        4    1    3    3  502    0 -0.77425097612E+03 -0.45842089308E+03  0.26716343682E+03  0.93861184954E+03  0.12699999809E+01 0.  1.
       -4    1    3    3    0  502  0.77425097612E+03  0.45842089308E+03 -0.15020106286E+03  0.91223695464E+03  0.12699999809E+01 0. -1.
</event>
<event>
 5   0  0.9313463E-05  0.2315929E+04  0.7818609E-02  0.8471667E-01
       -2   -1    0    0    0  501  0.00000000000E+00  0.00000000000E+00  0.12575824131E+04  0.12575824131E+04  0.25500000920E-02 0.  1.
        2   -1    0    0  501    0  0.00000000000E+00  0.00000000000E+00 -0.10662376884E+04  0.10662376884E+04  0.25500000920E-02 0. -1.
    10030    2    1    2    0    0  0.00000000000E+00  0.00000000000E+00  0.19134472466E+03  0.23238201015E+04  0.23159289843E+04 0.  0.
        1    1    3    3  502    0 -0.11043229372E+03  0.11524199807E+04  0.12054920823E+03  0.11639584250E+04  0.50400001928E-02 0. -1.
       -1    1    3    3    0  502  0.11043229372E+03 -0.11524199807E+04  0.70795516430E+02  0.11598616765E+04  0.50400001928E-02 0.  1.
</event>
<event>
 5   0  0.3885219E-05  0.2319367E+04  0.7818609E-02  0.8470324E-01
        1   -1    0    0  501    0  0.00000000000E+00  0.00000000000E+00  0.27283468984E+04  0.27283468984E+04  0.50400001928E-02 0.  1.
       -1   -1    0    0    0  501  0.00000000000E+00  0.00000000000E+00 -0.49292323423E+03  0.49292323426E+03  0.50400001928E-02 0. -1.
    10030    2    1    2    0    0  0.00000000000E+00  0.00000000000E+00  0.22354236642E+04  0.32212701327E+04  0.23193667906E+04 0.  0.
        2    1    3    3  502    0 -0.81679084149E+03  0.32894588437E+03  0.21658281818E+04  0.23379829740E+04  0.25500000920E-02 0.  1.
       -2    1    3    3    0  502  0.81679084149E+03 -0.32894588437E+03  0.69595482417E+02  0.88328715872E+03  0.25500000920E-02 0. -1.
</event>
<event>
 5   0  0.9535394E-05  0.2294296E+04  0.7818609E-02  0.8480173E-01
       -2   -1    0    0    0  501  0.00000000000E+00  0.00000000000E+00  0.65030435064E+03  0.65030435065E+03  0.25500000920E-02 0. -1.
        2   -1    0    0  501    0  0.00000000000E+00  0.00000000000E+00 -0.20235892196E+04  0.20235892196E+04  0.25500000920E-02 0.  1.
    10030    2    1    2    0    0  0.00000000000E+00  0.00000000000E+00 -0.13732848689E+04  0.26738935702E+04  0.22942962960E+04 0.  0.
        2    1    3    3  502    0 -0.46018310978E+03 -0.80659750878E+03  0.98271361211E+02  0.93382294689E+03  0.25500000920E-02 0. -1.
       -2    1    3    3    0  502  0.46018310978E+03  0.80659750878E+03 -0.14715562301E+04  0.17400706233E+04  0.25500000920E-02 0.  1.
</event>
<event>
 5   0  0.9641157E-05  0.2288034E+04  0.7818609E-02  0.8482654E-01
       -2   -1    0    0    0  501  0.00000000000E+00  0.00000000000E+00  0.11119161092E+04  0.11119161092E+04  0.25500000920E-02 0.  1.
        2   -1    0    0  501    0  0.00000000000E+00  0.00000000000E+00 -0.11770447845E+04  0.11770447846E+04  0.25500000920E-02 0. -1.
    10030    2    1    2    0    0  0.00000000000E+00  0.00000000000E+00 -0.65128675387E+02  0.22889608937E+04  0.22880341406E+04 0.  0.
        3    1    3    3  502    0 -0.31266931453E+03  0.50401572529E+03 -0.10112146788E+04  0.11723263574E+04  0.10100000352E+00 0. -1.
       -3    1    3    3    0  502  0.31266931453E+03 -0.50401572529E+03  0.94608600339E+03  0.11166345363E+04  0.10100000352E+00 0.  1.
</event>
<event>
 5   0  0.3261500E-05  0.2257098E+04  0.7818609E-02  0.8495032E-01
        4   -1    0    0  501    0  0.00000000000E+00  0.00000000000E+00  0.86082627219E+03  0.86082720902E+03  0.12699999809E+01 0. -1.
       -4   -1    0    0    0  501  0.00000000000E+00  0.00000000000E+00 -0.14795328089E+04  0.14795333539E+04  0.12699999809E+01 0.  1.
    10030    2    1    2    0    0  0.00000000000E+00  0.00000000000E+00 -0.61870653667E+03  0.23403605629E+04  0.22570976466E+04 0.  0.
        1    1    3    3  502    0 -0.11285257155E+04 -0.69141798427E+01 -0.30719064733E+03  0.11696085628E+04  0.50400001928E-02 0.  1.
       -1    1    3    3    0  502  0.11285257155E+04  0.69141798427E+01 -0.31151588934E+03  0.11707520001E+04  0.50400001928E-02 0. -1.
</event>
<event>
 5   0  0.9313463E-05  0.2307570E+04  0.7818609E-02  0.8474942E-01
        2   -1    0    0  501    0  0.00000000000E+00  0.00000000000E+00  0.27394967984E+04  0.27394967984E+04  0.25500000920E-02 0.  1.
       -2   -1    0    0    0  501  0.00000000000E+00  0.00000000000E+00 -0.48593602998E+03  0.48593602999E+03  0.25500000920E-02 0. -1.
    10030    2    1    2    0    0  0.00000000000E+00  0.00000000000E+00  0.22535607684E+04  0.32254328284E+04  0.23075703226E+04 0.  0.
        1    1    3    3  502    0 -0.34301347664E+03  0.85577753991E+03  0.20963944673E+04  0.22901709992E+04  0.50400001928E-02 0.  1.
       -1    1    3    3    0  502  0.34301347664E+03 -0.85577753991E+03  0.15716630114E+03  0.93526182923E+03  0.50400001928E-02 0. -1.
</event>
<event>
 5   0  0.4139830E-05  0.2366419E+04  0.7818609E-02  0.8452184E-01
        1   -1    0    0  501    0  0.00000000000E+00  0.00000000000E+00  0.14947905421E+04  0.14947905421E+04  0.50400001928E-02 0.  1.
       -1   -1    0    0    0  501  0.00000000000E+00  0.00000000000E+00 -0.93657613154E+03  0.93657613156E+03  0.50400001928E-02 0. -1.
    10030    2    1    2    0    0  0.00000000000E+00  0.00000000000E+00  0.55821441056E+03  0.24313666737E+04  0.23664193571E+04 0.  0.
        1    1    3    3  502    0  0.57094333623E+03 -0.96103395652E+03  0.67759522922E+03  0.13071717001E+04  0.50400001928E-02 0.  1.
       -1    1    3    3    0  502 -0.57094333623E+03  0.96103395652E+03 -0.11938081866E+03  0.11241949736E+04  0.50400001928E-02 0. -1.
</event>
<event>
 5   0  0.9535394E-05  0.2297687E+04  0.7818609E-02  0.8478833E-01
        2   -1    0    0  501    0  0.00000000000E+00  0.00000000000E+00  0.27127637685E+04  0.27127637685E+04  0.25500000920E-02 0.  1.
       -2   -1    0    0    0  501  0.00000000000E+00  0.00000000000E+00 -0.48653032717E+03  0.48653032718E+03  0.25500000920E-02 0. -1.
    10030    2    1    2    0    0  0.00000000000E+00  0.00000000000E+00  0.22262334413E+04  0.31992940957E+04  0.22976873972E+04 0.  0.
        2    1    3    3  502    0  0.25006184167E+03 -0.49135390411E+03  0.25165278318E+04  0.25762127070E+04  0.25500000920E-02 0.  1.
       -2    1    3    3    0  502 -0.25006184167E+03  0.49135390411E+03 -0.29029439046E+03  0.62308138865E+03  0.25500000920E-02 0. -1.
</event>
<event>
 5   0  0.4095451E-05  0.2318024E+04  0.7818609E-02  0.8470848E-01
       -1   -1    0    0    0  501  0.00000000000E+00  0.00000000000E+00  0.11706549816E+04  0.11706549816E+04  0.50400001928E-02 0.  1.
        1   -1    0    0  501    0  0.00000000000E+00  0.00000000000E+00 -0.11474844404E+04  0.11474844404E+04  0.50400001928E-02 0. -1.
    10030    2    1    2    0    0  0.00000000000E+00  0.00000000000E+00  0.23170541205E+02  0.23181394221E+04  0.23180236207E+04 0.  0.
        3    1    3    3  502    0 -0.59604359306E+03 -0.53737630201E+03  0.84784897289E+03  0.11674284328E+04  0.10100000352E+00 0.  1.
       -3    1    3    3    0  502  0.59604359306E+03  0.53737630201E+03 -0.82467843169E+03  0.11507109892E+04  0.10100000352E+00 0. -1.
</event>
<event>
 5   0  0.9483073E-05  0.2331378E+04  0.7818609E-02  0.8465651E-01
        2   -1    0    0  501    0  0.00000000000E+00  0.00000000000E+00  0.14512806737E+04  0.14512806737E+04  0.25500000920E-02 0.  1.
       -2   -1    0    0    0  501  0.00000000000E+00  0.00000000000E+00 -0.93629799838E+03  0.93629799838E+03  0.25500000920E-02 0. -1.
    10030    2    1    2    0    0  0.00000000000E+00  0.00000000000E+00  0.51498267533E+03  0.23875786721E+04  0.23313782961E+04 0.  0.
        5    1    3    3  502    0 -0.37442723487E+03 -0.75476602430E+03 -0.56749688239E+03  0.10158456119E+04  0.46999998093E+01 0. -1.
       -5    1    3    3    0  502  0.37442723487E+03  0.75476602430E+03  0.10824795577E+04  0.13717330602E+04  0.46999998093E+01 0.  1.
</event>
<event>
 5   0  0.4005462E-05  0.2332690E+04  0.7818609E-02  0.8465142E-01
       -1   -1    0    0    0  501  0.00000000000E+00  0.00000000000E+00  0.81305658707E+03  0.81305658709E+03  0.50400001928E-02 0. -1.
        1   -1    0    0  501    0  0.00000000000E+00  0.00000000000E+00 -0.16731435687E+04  0.16731435687E+04  0.50400001928E-02 0.  1.
    10030    2    1    2    0    0  0.00000000000E+00  0.00000000000E+00 -0.86008698165E+03  0.24862001558E+04  0.23326897777E+04 0.  0.
        4    1    3    3  502    0  0.11407349497E+03  0.10802897927E+04 -0.88262941048E+03  0.13996696351E+04  0.12699999809E+01 0.  1.
       -4    1    3    3    0  502 -0.11407349497E+03 -0.10802897927E+04  0.22542428837E+02  0.10865305207E+04  0.12699999809E+01 0. -1.
</event>
<event>
 5   0  0.9312074E-05  0.2325034E+04  0.7818609E-02  0.8468115E-01
        2   -1    0    0  501    0  0.00000000000E+00  0.00000000000E+00  0.11194020956E+04  0.11194020956E+04  0.25500000920E-02 0.  1.
       -2   -1    0    0    0  501  0.00000000000E+00  0.00000000000E+00 -0.12072924957E+04  0.12072924957E+04  0.25500000920E-02 0. -1.
    10030    2    1    2    0    0  0.00000000000E+00  0.00000000000E+00 -0.87890400101E+02  0.23266945913E+04  0.23250339780E+04 0.  0.
        4    1    3    3  502    0  0.48889189586E+03 -0.96520774885E+03 -0.46945808481E+03  0.11794209556E+04  0.12699999809E+01 0. -1.
       -4    1    3    3    0  502 -0.48889189586E+03  0.96520774885E+03  0.38156768471E+03  0.11472736357E+04  0.12699999809E+01 0.  1.
</event>
<event>
 5   0  0.4139830E-05  0.2131507E+04  0.7818609E-02  0.8547490E-01
        1   -1    0    0  501    0  0.00000000000E+00  0.00000000000E+00  0.90896366172E+03  0.90896366173E+03  0.50400001928E-02 0.  1.
       -1   -1    0    0    0  501  0.00000000000E+00  0.00000000000E+00 -0.12495890495E+04  0.12495890495E+04  0.50400001928E-02 0. -1.
    10030    2    1    2    0    0  0.00000000000E+00  0.00000000000E+00 -0.34062538774E+03  0.21585527112E+04  0.21315074835E+04 0.  0.
        1    1    3    3  502    0 -0.72690542805E+03  0.29244918035E+03  0.56128926504E+03  0.96382761088E+03  0.50400001928E-02 0.  1.
       -1    1    3    3    0  502  0.72690542805E+03 -0.29244918035E+03 -0.90191465278E+03  0.11947251003E+04  0.50400001928E-02 0. -1.
</event>
<event>
 5   0  0.9313463E-05  0.2278418E+04  0.7818609E-02  0.8486479E-01
        2   -1    0    0  501    0  0.00000000000E+00  0.00000000000E+00  0.27682057780E+04  0.27682057780E+04  0.25500000920E-02 0. -1.
       -2   -1    0    0    0  501  0.00000000000E+00  0.00000000000E+00 -0.46882253886E+03  0.46882253887E+03  0.25500000920E-02 0.  1.
    10030    2    1    2    0    0  0.00000000000E+00  0.00000000000E+00  0.22993832391E+04  0.32370283169E+04  0.22784181012E+04 0.  0.
        1    1    3    3  502    0 -0.51969714944E+03  0.58312383471E+03  0.23278559532E+04  0.24554086976E+04  0.50400001928E-02 0. -1.
       -1    1    3    3    0  502  0.51969714944E+03 -0.58312383471E+03 -0.28472714003E+02  0.78161961925E+03  0.50400001928E-02 0.  1.
</event>
<event>
 5   0  0.4005462E-05  0.2284140E+04  0.7818609E-02  0.8484201E-01
        1   -1    0    0  501    0  0.00000000000E+00  0.00000000000E+00  0.84375422791E+03  0.84375422793E+03  0.50400001928E-02 0. -1.
       -1   -1    0    0    0  501  0.00000000000E+00  0.00000000000E+00 -0.15458580052E+04  0.15458580052E+04  0.50400001928E-02 0.  1.
    10030    2    1    2    0    0  0.00000000000E+00  0.00000000000E+00 -0.70210377728E+03  0.23896122331E+04  0.22841403001E+04 0.  0.
        4    1    3    3  502    0  0.58048812464E+03 -0.21655402559E+02  0.67765716247E+03  0.89255602741E+03  0.12699999809E+01 0. -1.
       -4    1    3    3    0  502 -0.58048812464E+03  0.21655402559E+02 -0.13797609397E+04  0.14970562057E+04  0.12699999809E+01 0.  1.
</event>
<event>
 5   0  0.9641157E-05  0.1438098E+04  0.7818609E-02  0.8926694E-01
        2   -1    0    0  501    0  0.00000000000E+00  0.00000000000E+00  0.86542327218E+03  0.86542327219E+03  0.25500000920E-02 0. -1.
       -2   -1    0    0    0  501  0.00000000000E+00  0.00000000000E+00 -0.59743215207E+03  0.59743215208E+03  0.25500000920E-02 0.  1.
    10030    2    1    2    0    0  0.00000000000E+00  0.00000000000E+00  0.26799112011E+03  0.14628554243E+04  0.14380983109E+04 0.  0.
        3    1    3    3  502    0 -0.73161751387E+02 -0.46426837231E+03 -0.41955450208E+03  0.63001885195E+03  0.10100000352E+00 0.  1.
       -3    1    3    3    0  502  0.73161751387E+02  0.46426837231E+03  0.68754562219E+03  0.83283657232E+03  0.10100000352E+00 0. -1.
</event>
<event>
 5   0  0.4095451E-05  0.2343571E+04  0.7818609E-02  0.8460937E-01
        1   -1    0    0  501    0  0.00000000000E+00  0.00000000000E+00  0.14005363728E+04  0.14005363728E+04  0.50400001928E-02 0. -1.
       -1   -1    0    0    0  501  0.00000000000E+00  0.00000000000E+00 -0.98039646393E+03  0.98039646395E+03  0.50400001928E-02 0.  1.
    10030    2    1    2    0    0  0.00000000000E+00  0.00000000000E+00  0.42013990888E+03  0.23809328368E+04  0.23435707009E+04 0.  0.
        3    1    3    3  502    0 -0.44775694730E+02  0.10738312187E+04  0.68437748854E+03  0.12741628256E+04  0.10100000352E+00 0.  1.
       -3    1    3    3    0  502  0.44775694730E+02 -0.10738312187E+04 -0.26423757966E+03  0.11067700112E+04  0.10100000352E+00 0. -1.
</event>
<event>
 5   0  0.9313463E-05  0.2279887E+04  0.7818609E-02  0.8485894E-01
       -2   -1    0    0    0  501  0.00000000000E+00  0.00000000000E+00  0.87847265099E+03  0.87847265100E+03  0.25500000920E-02 0.  1.
        2   -1    0    0  501    0  0.00000000000E+00  0.00000000000E+00 -0.14792398026E+04  0.14792398026E+04  0.25500000920E-02 0. -1.
    10030    2    1    2    0    0  0.00000000000E+00  0.00000000000E+00 -0.60076715164E+03  0.23577124536E+04  0.22798874629E+04 0.  0.
        1    1    3    3  502    0  0.55061225027E+03 -0.84666440203E+02  0.72811570982E+03  0.91678500378E+03  0.50400001928E-02 0.  1.
       -1    1    3    3    0  502 -0.55061225027E+03  0.84666440203E+02 -0.13288828615E+04  0.14409274499E+04  0.50400001928E-02 0. -1.
</event>
<event>
 5   0  0.4005462E-05  0.2285238E+04  0.7818609E-02  0.8483764E-01
        1   -1    0    0  501    0  0.00000000000E+00  0.00000000000E+00  0.13379057742E+04  0.13379057742E+04  0.50400001928E-02 0.  1.
       -1   -1    0    0    0  501  0.00000000000E+00  0.00000000000E+00 -0.97583720663E+03  0.97583720664E+03  0.50400001928E-02 0. -1.
    10030    2    1    2    0    0  0.00000000000E+00  0.00000000000E+00  0.36206856760E+03  0.23137429809E+04  0.22852380475E+04 0.  0.
        4    1    3    3  502    0  0.69878991196E+03 -0.72550735532E+03  0.72712119435E+03  0.12423264900E+04  0.12699999809E+01 0.  1.
       -4    1    3    3    0  502 -0.69878991196E+03  0.72550735532E+03 -0.36505262674E+03  0.10714164909E+04  0.12699999809E+01 0. -1.
</event>
<event>
 5   0  0.9641157E-05  0.2275867E+04  0.7818609E-02  0.8487498E-01
       -2   -1    0    0    0  501  0.00000000000E+00  0.00000000000E+00  0.10681672930E+04  0.10681672930E+04  0.25500000920E-02 0. -1.
        2   -1    0    0  501    0  0.00000000000E+00  0.00000000000E+00 -0.12122566465E+04  0.12122566465E+04  0.25500000920E-02 0.  1.
    10030    2    1    2    0    0  0.00000000000E+00  0.00000000000E+00 -0.14408935347E+03  0.22804239396E+04  0.22758672198E+04 0.  0.
        3    1    3    3  502    0 -0.58066070836E+03 -0.65523728633E+03 -0.80040456329E+03  0.11862336341E+04  0.10100000352E+00 0.  1.
       -3    1    3    3    0  502  0.58066070836E+03  0.65523728633E+03  0.65631520982E+03  0.10941903054E+04  0.10100000352E+00 0. -1.
</event>
<event>
 5   0  0.4005462E-05  0.2291957E+04  0.7818609E-02  0.8481099E-01
       -1   -1    0    0    0  501  0.00000000000E+00  0.00000000000E+00  0.10062721378E+04  0.10062721378E+04  0.50400001928E-02 0. -1.
        1   -1    0    0  501    0  0.00000000000E+00  0.00000000000E+00 -0.13050805074E+04  0.13050805074E+04  0.50400001928E-02 0.  1.
    10030    2    1    2    0    0  0.00000000000E+00  0.00000000000E+00 -0.29880836961E+03  0.23113526452E+04  0.22919565023E+04 0.  0.
        4    1    3    3  502    0 -0.15877143643E+03  0.11039104324E+04 -0.41514497059E+03  0.11900309119E+04  0.12699999809E+01 0.  1.
       -4    1    3    3    0  502  0.15877143643E+03 -0.11039104324E+04  0.11633660099E+03  0.11213217332E+04  0.12699999809E+01 0. -1.
</event>
<event>
 5   0  0.3261500E-05  0.2296757E+04  0.7818609E-02  0.8479201E-01
       -3   -1    0    0    0  501  0.00000000000E+00  0.00000000000E+00  0.95968005696E+03  0.95968006227E+03  0.10100000352E+00 0.  1.
        3   -1    0    0  501    0  0.00000000000E+00  0.00000000000E+00 -0.13741799796E+04  0.13741799833E+04  0.10100000352E+00 0. -1.
    10030    2    1    2    0    0  0.00000000000E+00  0.00000000000E+00 -0.41449992260E+03  0.23338600455E+04  0.22967569585E+04 0.  0.
        2    1    3    3  502    0  0.68759976067E+03  0.89466602190E+01 -0.11418357934E+04  0.13329150208E+04  0.25500000920E-02 0. -1.
       -2    1    3    3    0  502 -0.68759976067E+03 -0.89466602190E+01  0.72733587079E+03  0.10009450247E+04  0.25500000920E-02 0.  1.
</event>
<event>
 5   0  0.4005462E-05  0.2269790E+04  0.7818609E-02  0.8489929E-01
        1   -1    0    0  501    0  0.00000000000E+00  0.00000000000E+00  0.18869283142E+04  0.18869283142E+04  0.50400001928E-02 0. -1.
       -1   -1    0    0    0  501  0.00000000000E+00  0.00000000000E+00 -0.68258369716E+03  0.68258369718E+03  0.50400001928E-02 0.  1.
    10030    2    1    2    0    0  0.00000000000E+00  0.00000000000E+00  0.12043446170E+04  0.25695120114E+04  0.22697898625E+04 0.  0.
        4    1    3    3  502    0 -0.60109161762E+03  0.59690584397E+03  0.14571328437E+04  0.16854807790E+04  0.12699999809E+01 0. -1.
       -4    1    3    3    0  502  0.60109161762E+03 -0.59690584397E+03 -0.25278822669E+03  0.88403123235E+03  0.12699999809E+01 0.  1.
</event>
<event>
 5   0  0.4295775E-05  0.2298057E+04  0.7818609E-02  0.8478688E-01
        1   -1    0    0  501    0  0.00000000000E+00  0.00000000000E+00  0.16641863662E+04  0.16641863662E+04  0.50400001928E-02 0.  1.
       -1   -1    0    0    0  501  0.00000000000E+00  0.00000000000E+00 -0.79334057488E+03  0.79334057490E+03  0.50400001928E-02 0. -1.
    10030    2    1    2    0    0  0.00000000000E+00  0.00000000000E+00  0.87084579128E+03  0.24575269411E+04  0.22980570650E+04 0.  0.
        5    1    3    3  502    0  0.45194419523E+03  0.10038560011E+04  0.83555021260E+02  0.11040760653E+04  0.46999998093E+01 0. -1.
       -5    1    3    3    0  502 -0.45194419523E+03 -0.10038560011E+04  0.78729077002E+03  0.13534508757E+04  0.46999998093E+01 0.  1.
</event>
<event>
 5   0  0.9535394E-05  0.2038211E+04  0.7818609E-02  0.8588961E-01
       -2   -1    0    0    0  501  0.00000000000E+00  0.00000000000E+00  0.35063740728E+03  0.35063740728E+03  0.25500000920E-02 0. -1.
        2   -1    0    0  501    0  0.00000000000E+00  0.00000000000E+00 -0.29619653749E+04  0.29619653749E+04  0.25500000920E-02 0.  1.
    10030    2    1    2    0    0  0.00000000000E+00  0.00000000000E+00 -0.26113279676E+04  0.33126027821E+04  0.20382108424E+04 0.  0.
        2    1    3    3  502    0  0.10484494067E+03  0.86896184852E+03 -0.21540519627E+04  0.23250864529E+04  0.25500000920E-02 0.  1.
       -2    1    3    3    0  502 -0.10484494067E+03 -0.86896184852E+03 -0.45727600491E+03  0.98751632920E+03  0.25500000920E-02 0. -1.
</event>
<event>
 5   0  0.9312074E-05  0.2187784E+04  0.7818609E-02  0.8523530E-01
       -2   -1    0    0    0  501  0.00000000000E+00  0.00000000000E+00  0.73238440383E+03  0.73238440383E+03  0.25500000920E-02 0.  1.
        2   -1    0    0  501    0  0.00000000000E+00  0.00000000000E+00 -0.16338413051E+04  0.16338413051E+04  0.25500000920E-02 0. -1.
    10030    2    1    2    0    0  0.00000000000E+00  0.00000000000E+00 -0.90145690130E+03  0.23662257090E+04  0.21877841669E+04 0.  0.
        4    1    3    3  502    0 -0.86037124413E+03  0.61086612957E+03 -0.76270289780E+03  0.13019652181E+04  0.12699999809E+01 0. -1.
       -4    1    3    3    0  502  0.86037124413E+03 -0.61086612957E+03 -0.13875400350E+03  0.10642604908E+04  0.12699999809E+01 0.  1.
</event>
<event>
 5   0  0.9483073E-05  0.2295722E+04  0.7818609E-02  0.8479610E-01
        2   -1    0    0  501    0  0.00000000000E+00  0.00000000000E+00  0.83141900133E+03  0.83141900134E+03  0.25500000920E-02 0. -1.
       -2   -1    0    0    0  501  0.00000000000E+00  0.00000000000E+00 -0.15847429134E+04  0.15847429134E+04  0.25500000920E-02 0.  1.
    10030    2    1    2    0    0  0.00000000000E+00  0.00000000000E+00 -0.75332391207E+03  0.24161619147E+04  0.22957224313E+04 0.  0.
        5    1    3    3  502    0 -0.64603481035E+03  0.60627980719E+03 -0.11447628778E+04  0.14475635797E+04  0.46999998093E+01 0.  1.
       -5    1    3    3    0  502  0.64603481035E+03 -0.60627980719E+03  0.39143896574E+03  0.96859833507E+03  0.46999998093E+01 0. -1.
</event>
<event>
 5   0  0.3261500E-05  0.2327116E+04  0.7818609E-02  0.8467306E-01
       -4   -1    0    0    0  501  0.00000000000E+00  0.00000000000E+00  0.11908413102E+04  0.11908419874E+04  0.12699999809E+01 0. -1.
        4   -1    0    0  501    0  0.00000000000E+00  0.00000000000E+00 -0.11368985365E+04  0.11368992458E+04  0.12699999809E+01 0.  1.
    10030    2    1    2    0    0  0.00000000000E+00  0.00000000000E+00  0.53942773656E+02  0.23277412332E+04  0.23271161179E+04 0.  0.
        2    1    3    3  502    0  0.83229990776E+03  0.52545021065E+03  0.64765906032E+03  0.11782543523E+04  0.25500000920E-02 0. -1.
       -2    1    3    3    0  502 -0.83229990776E+03 -0.52545021065E+03 -0.59371628666E+03  0.11494868809E+04  0.25500000920E-02 0.  1.
</event>
<event>
 5   0  0.4005462E-05  0.2280492E+04  0.7818609E-02  0.8485653E-01
       -1   -1    0    0    0  501  0.00000000000E+00  0.00000000000E+00  0.67787560537E+03  0.67787560539E+03  0.50400001928E-02 0. -1.
        1   -1    0    0  501    0  0.00000000000E+00  0.00000000000E+00 -0.19179932201E+04  0.19179932201E+04  0.50400001928E-02 0.  1.
    10030    2    1    2    0    0  0.00000000000E+00  0.00000000000E+00 -0.12401176147E+04  0.25958688255E+04  0.22804918901E+04 0.  0.
        4    1    3    3  502    0 -0.94022075013E+03  0.19703288333E+03 -0.13192732363E+04  0.16319682904E+04  0.12699999809E+01 0.  1.
       -4    1    3    3    0  502  0.94022075013E+03 -0.19703288333E+03  0.79155621593E+02  0.96390053503E+03  0.12699999809E+01 0. -1.
</event>
<event>
 5   0  0.4139830E-05  0.2262696E+04  0.7818609E-02  0.8492776E-01
        1   -1    0    0  501    0  0.00000000000E+00  0.00000000000E+00  0.80984595788E+03  0.80984595790E+03  0.50400001928E-02 0. -1.
       -1   -1    0    0    0  501  0.00000000000E+00  0.00000000000E+00 -0.15804843362E+04  0.15804843362E+04  0.50400001928E-02 0.  1.
    10030    2    1    2    0    0  0.00000000000E+00  0.00000000000E+00 -0.77063837834E+03  0.23903302941E+04  0.22626964898E+04 0.  0.
        1    1    3    3  502    0 -0.21010882674E+02 -0.11124617693E+04 -0.60165388625E+03  0.12649110816E+04  0.50400001928E-02 0.  1.
       -1    1    3    3    0  502  0.21010882674E+02  0.11124617693E+04 -0.16898449209E+03  0.11254192126E+04  0.50400001928E-02 0. -1.
</event>
<event>
 5   0  0.9641157E-05  0.2088425E+04  0.7818609E-02  0.8566359E-01
       -2   -1    0    0    0  501  0.00000000000E+00  0.00000000000E+00  0.71362902382E+03  0.71362902383E+03  0.25500000920E-02 0.  1.
        2   -1    0    0  501    0  0.00000000000E+00  0.00000000000E+00 -0.15279365930E+04  0.15279365930E+04  0.25500000920E-02 0. -1.
    10030    2    1    2    0    0  0.00000000000E+00  0.00000000000E+00 -0.81430756917E+03  0.22415656168E+04  0.20884251476E+04 0.  0.
        3    1    3    3  502    0  0.53730973059E+03 -0.99160070035E+02 -0.13622623673E+04  0.14677510802E+04  0.10100000352E+00 0. -1.
       -3    1    3    3    0  502 -0.53730973059E+03  0.99160070035E+02  0.54795479809E+03  0.77381453659E+03  0.10100000352E+00 0.  1.
</event>
<event>
 5   0  0.9313463E-05  0.2310148E+04  0.7818609E-02  0.8473931E-01
        2   -1    0    0  501    0  0.00000000000E+00  0.00000000000E+00  0.15295285180E+04  0.15295285180E+04  0.25500000920E-02 0.  1.
       -2   -1    0    0    0  501  0.00000000000E+00  0.00000000000E+00 -0.87229234186E+03  0.87229234186E+03  0.25500000920E-02 0. -1.
    10030    2    1    2    0    0  0.00000000000E+00  0.00000000000E+00  0.65723617610E+03  0.24018208598E+04  0.23101480583E+04 0.  0.
        1    1    3    3  502    0 -0.55985475628E+03  0.73911317384E+03  0.10447703216E+04  0.13968788984E+04  0.50400001928E-02 0.  1.
       -1    1    3    3    0  502  0.55985475628E+03 -0.73911317384E+03 -0.38753414550E+03  0.10049419614E+04  0.50400001928E-02 0. -1.
</event>
<event>
 5   0  0.9483073E-05  0.2332858E+04  0.7818609E-02  0.8465077E-01
       -2   -1    0    0    0  501  0.00000000000E+00  0.00000000000E+00  0.13277076437E+04  0.13277076437E+04  0.25500000920E-02 0.  1.
        2   -1    0    0  501    0  0.00000000000E+00  0.00000000000E+00 -0.10247409750E+04  0.10247409750E+04  0.25500000920E-02 0. -1.
    10030    2    1    2    0    0  0.00000000000E+00  0.00000000000E+00  0.30296666873E+03  0.23524486187E+04  0.23328578399E+04 0.  0.
        5    1    3    3  502    0 -0.38722412461E+03  0.32854924304E+03  0.12103716668E+04  0.13125962021E+04  0.46999998093E+01 0.  1.
       -5    1    3    3    0  502  0.38722412461E+03 -0.32854924304E+03 -0.90740499810E+03  0.10398524166E+04  0.46999998093E+01 0. -1.
</event>
<event>
 5   0  0.4095451E-05  0.2631335E+04  0.7818609E-02  0.8357635E-01
        1   -1    0    0  501    0  0.00000000000E+00  0.00000000000E+00  0.22553248702E+04  0.22553248702E+04  0.50400001928E-02 0.  1.
       -1   -1    0    0    0  501  0.00000000000E+00  0.00000000000E+00 -0.76750838988E+03  0.76750838990E+03  0.50400001928E-02 0. -1.
    10030    2    1    2    0    0  0.00000000000E+00  0.00000000000E+00  0.14878164803E+04  0.30228332601E+04  0.26313348398E+04 0.  0.
        3    1    3    3  502    0 -0.60775130954E+03 -0.65603283197E+03 -0.36467648826E+03  0.96577931339E+03  0.10100000352E+00 0. -1.
       -3    1    3    3    0  502  0.60775130954E+03  0.65603283197E+03  0.18524929686E+04  0.20570539467E+04  0.10100000352E+00 0.  1.
</event>
<event>
 5   0  0.9535394E-05  0.2184455E+04  0.7818609E-02  0.8524926E-01
       -2   -1    0    0    0  501  0.00000000000E+00  0.00000000000E+00  0.74675542060E+03  0.74675542061E+03  0.25500000920E-02 0.  1.
        2   -1    0    0  501    0  0.00000000000E+00  0.00000000000E+00 -0.15975253460E+04  0.15975253460E+04  0.25500000920E-02 0. -1.
    10030    2    1    2    0    0  0.00000000000E+00  0.00000000000E+00 -0.85076992542E+03  0.23442807666E+04  0.21844548168E+04 0.  0.
        2    1    3    3  502    0 -0.94937568778E+03  0.53990472853E+03 -0.41226777366E+03  0.11673799851E+04  0.25500000920E-02 0.  1.
       -2    1    3    3    0  502  0.94937568778E+03 -0.53990472853E+03 -0.43850215176E+03  0.11769007815E+04  0.25500000920E-02 0. -1.
</event>
<event>
 5   0  0.4139830E-05  0.2291453E+04  0.7818609E-02  0.8481299E-01
        1   -1    0    0  501    0  0.00000000000E+00  0.00000000000E+00  0.25687809233E+04  0.25687809233E+04  0.50400001928E-02 0. -1.
       -1   -1    0    0    0  501  0.00000000000E+00  0.00000000000E+00 -0.51101646092E+03  0.51101646095E+03  0.50400001928E-02 0.  1.
    10030    2    1    2    0    0  0.00000000000E+00  0.00000000000E+00  0.20577644624E+04  0.30797973843E+04  0.22914531079E+04 0.  0.
        1    1    3    3  502    0 -0.18622130370E+03  0.94868155032E+03  0.20252986744E+03  0.98777193982E+03  0.50400001928E-02 0.  1.
       -1    1    3    3    0  502  0.18622130370E+03 -0.94868155032E+03  0.18552345950E+04  0.20920254445E+04  0.50400001928E-02 0. -1.
</event>
<event>
 5   0  0.9641157E-05  0.2345358E+04  0.7818609E-02  0.8460249E-01
        2   -1    0    0  501    0  0.00000000000E+00  0.00000000000E+00  0.12651709939E+04  0.12651709939E+04  0.25500000920E-02 0. -1.
       -2   -1    0    0    0  501  0.00000000000E+00  0.00000000000E+00 -0.10869484670E+04  0.10869484670E+04  0.25500000920E-02 0.  1.
    10030    2    1    2    0    0  0.00000000000E+00  0.00000000000E+00  0.17822252681E+03  0.23521194609E+04  0.23453576890E+04 0.  0.
        3    1    3    3  502    0  0.44513119507E+03 -0.15766086286E+03  0.11656009598E+04  0.12576264693E+04  0.10100000352E+00 0. -1.
       -3    1    3    3    0  502 -0.44513119507E+03  0.15766086286E+03 -0.98737843301E+03  0.10944929916E+04  0.10100000352E+00 0.  1.
</event>
<event>
 5   0  0.9535394E-05  0.2073431E+04  0.7818609E-02  0.8573039E-01
        2   -1    0    0  501    0  0.00000000000E+00  0.00000000000E+00  0.98912243635E+03  0.98912243635E+03  0.25500000920E-02 0.  1.
       -2   -1    0    0    0  501  0.00000000000E+00  0.00000000000E+00 -0.10865980530E+04  0.10865980530E+04  0.25500000920E-02 0. -1.
    10030    2    1    2    0    0  0.00000000000E+00  0.00000000000E+00 -0.97475616668E+02  0.20757204894E+04  0.20734305038E+04 0.  0.
        2    1    3    3  502    0 -0.87007698452E+03  0.45954092360E+03 -0.37554389414E+03  0.10532070242E+04  0.25500000920E-02 0. -1.
       -2    1    3    3    0  502  0.87007698452E+03 -0.45954092360E+03  0.27806827748E+03  0.10225134651E+04  0.25500000920E-02 0.  1.
</event>
<event>
 5   0  0.4139830E-05  0.2140423E+04  0.7818609E-02  0.8543643E-01
       -1   -1    0    0    0  501  0.00000000000E+00  0.00000000000E+00  0.57955797940E+03  0.57955797942E+03  0.50400001928E-02 0. -1.
        1   -1    0    0  501    0  0.00000000000E+00  0.00000000000E+00 -0.19762522626E+04  0.19762522626E+04  0.50400001928E-02 0.  1.
    10030    2    1    2    0    0  0.00000000000E+00  0.00000000000E+00 -0.13966942832E+04  0.25558102420E+04  0.21404231060E+04 0.  0.
        1    1    3    3  502    0  0.93073463187E+03 -0.52181024121E+03 -0.59988262127E+03  0.12240964186E+04  0.50400001928E-02 0. -1.
       -1    1    3    3    0  502 -0.93073463187E+03  0.52181024121E+03 -0.79681166190E+03  0.13317138234E+04  0.50400001928E-02 0.  1.
</event>
<event>
 5   0  0.9483073E-05  0.2296458E+04  0.7818609E-02  0.8479319E-01
        2   -1    0    0  501    0  0.00000000000E+00  0.00000000000E+00  0.14211298090E+04  0.14211298090E+04  0.25500000920E-02 0. -1.
       -2   -1    0    0    0  501  0.00000000000E+00  0.00000000000E+00 -0.92773321027E+03  0.92773321027E+03  0.25500000920E-02 0.  1.
    10030    2    1    2    0    0  0.00000000000E+00  0.00000000000E+00  0.49339659872E+03  0.23488630193E+04  0.22964575501E+04 0.  0.
        5    1    3    3  502    0 -0.27619146437E+03  0.52502469536E+02  0.13853727659E+04  0.14136187693E+04  0.46999998093E+01 0. -1.
       -5    1    3    3    0  502  0.27619146437E+03 -0.52502469536E+02 -0.89197616720E+03  0.93524424999E+03  0.46999998093E+01 0.  1.
</event>
<event>
 5   0  0.9535394E-05  0.2324236E+04  0.7818609E-02  0.8468426E-01
        2   -1    0    0  501    0  0.00000000000E+00  0.00000000000E+00  0.72617676439E+03  0.72617676440E+03  0.25500000920E-02 0. -1.
       -2   -1    0    0    0  501  0.00000000000E+00  0.00000000000E+00 -0.18597650641E+04  0.18597650641E+04  0.25500000920E-02 0.  1.
    10030    2    1    2    0    0  0.00000000000E+00  0.00000000000E+00 -0.11335882997E+04  0.25859418285E+04  0.23242359405E+04 0.  0.
        2    1    3    3  502    0  0.18053798637E+03 -0.54529549600E+02 -0.18426255321E+04  0.18522516805E+04  0.25500000920E-02 0.  1.
       -2    1    3    3    0  502 -0.18053798637E+03  0.54529549600E+02  0.70903723242E+03  0.73369014799E+03  0.25500000920E-02 0. -1.
</event>
<event>
 5   0  0.9483073E-05  0.2313344E+04  0.7818609E-02  0.8472678E-01
        2   -1    0    0  501    0  0.00000000000E+00  0.00000000000E+00  0.22323412344E+04  0.22323412344E+04  0.25500000920E-02 0.  1.
       -2   -1    0    0    0  501  0.00000000000E+00  0.00000000000E+00 -0.59932169508E+03  0.59932169508E+03  0.25500000920E-02 0. -1.
    10030    2    1    2    0    0  0.00000000000E+00  0.00000000000E+00  0.16330195393E+04  0.28316629295E+04  0.23133443605E+04 0.  0.
        5    1    3    3  502    0 -0.88385581032E+03  0.61414438491E+03  0.13351023107E+04  0.17149036967E+04  0.46999998093E+01 0. -1.
       -5    1    3    3    0  502  0.88385581032E+03 -0.61414438491E+03  0.29791722865E+03  0.11167592328E+04  0.46999998093E+01 0.  1.
</event>
<event>
 5   0  0.4139830E-05  0.2299430E+04  0.7818609E-02  0.8478146E-01
        1   -1    0    0  501    0  0.00000000000E+00  0.00000000000E+00  0.10755023869E+04  0.10755023869E+04  0.50400001928E-02 0. -1.
       -1   -1    0    0    0  501  0.00000000000E+00  0.00000000000E+00 -0.12290485311E+04  0.12290485312E+04  0.50400001928E-02 0.  1.
    10030    2    1    2    0    0  0.00000000000E+00  0.00000000000E+00 -0.15354614426E+03  0.23045509181E+04  0.22994300414E+04 0.  0.
        1    1    3    3  502    0 -0.10328872907E+04  0.50487127654E+03 -0.67083676036E+02  0.11516298801E+04  0.50400001928E-02 0. -1.
       -1    1    3    3    0  502  0.10328872907E+04 -0.50487127654E+03 -0.86462468226E+02  0.11529210379E+04  0.50400001928E-02 0.  1.
</event>
<event>
 5   0  0.9312074E-05  0.2323575E+04  0.7818609E-02  0.8468683E-01
        2   -1    0    0  501    0  0.00000000000E+00  0.00000000000E+00  0.10966284300E+04  0.10966284300E+04  0.25500000920E-02 0. -1.
       -2   -1    0    0    0  501  0.00000000000E+00  0.00000000000E+00 -0.12308183117E+04  0.12308183117E+04  0.25500000920E-02 0.  1.
    10030    2    1    2    0    0  0.00000000000E+00  0.00000000000E+00 -0.13418988170E+03  0.23274467416E+04  0.23235751356E+04 0.  0.
        4    1    3    3  502    0 -0.98133808814E+03 -0.52488174921E+02  0.55359009591E+03  0.11279375244E+04  0.12699999809E+01 0. -1.
       -4    1    3    3    0  502  0.98133808814E+03  0.52488174921E+02 -0.68777997760E+03  0.11995092172E+04  0.12699999809E+01 0.  1.
</event>
<event>
 5   0  0.9641157E-05  0.2197509E+04  0.7818609E-02  0.8519466E-01
        2   -1    0    0  501    0  0.00000000000E+00  0.00000000000E+00  0.16461686760E+04  0.16461686760E+04  0.25500000920E-02 0.  1.
       -2   -1    0    0    0  501  0.00000000000E+00  0.00000000000E+00 -0.73337620041E+03  0.73337620041E+03  0.25500000920E-02 0. -1.
    10030    2    1    2    0    0  0.00000000000E+00  0.00000000000E+00  0.91279247561E+03  0.23795448764E+04  0.21975085245E+04 0.  0.
        3    1    3    3  502    0 -0.35873946618E+03  0.33555951050E+03 -0.60785561591E+03  0.78152584709E+03  0.10100000352E+00 0. -1.
       -3    1    3    3    0  502  0.35873946618E+03 -0.33555951050E+03  0.15206480915E+04  0.15980190293E+04  0.10100000352E+00 0.  1.
</event>
<event>
 5   0  0.3261500E-05  0.1479711E+04  0.7818609E-02  0.8898058E-01
        4   -1    0    0  501    0  0.00000000000E+00  0.00000000000E+00  0.68655294562E+03  0.68655412026E+03  0.12699999809E+01 0. -1.
       -4   -1    0    0    0  501  0.00000000000E+00  0.00000000000E+00 -0.79729382450E+03  0.79729483598E+03  0.12699999809E+01 0.  1.
    10030    2    1    2    0    0  0.00000000000E+00  0.00000000000E+00 -0.11074087888E+03  0.14838489562E+04  0.14797108443E+04 0.  0.
        2    1    3    3  502    0 -0.37191472955E+03 -0.53662064526E+03 -0.40434330317E+03  0.76796861251E+03  0.25500000920E-02 0.  1.
       -2    1    3    3    0  502  0.37191472955E+03  0.53662064526E+03  0.29360242429E+03  0.71588034373E+03  0.25500000920E-02 0. -1.
</event>
<event>
 5   0  0.9641157E-05  0.2220139E+04  0.7818609E-02  0.8510092E-01
       -2   -1    0    0    0  501  0.00000000000E+00  0.00000000000E+00  0.10769461505E+04  0.10769461505E+04  0.25500000920E-02 0. -1.
        2   -1    0    0  501    0  0.00000000000E+00  0.00000000000E+00 -0.11442112170E+04  0.11442112170E+04  0.25500000920E-02 0.  1.
    10030    2    1    2    0    0  0.00000000000E+00  0.00000000000E+00 -0.67265066572E+02  0.22211573675E+04  0.22201386132E+04 0.  0.
        3    1    3    3  502    0 -0.10710598768E+03  0.93147870373E+03  0.56088722455E+03  0.10925743714E+04  0.10100000352E+00 0. -1.
       -3    1    3    3    0  502  0.10710598768E+03 -0.93147870373E+03 -0.62815229112E+03  0.11285829961E+04  0.10100000352E+00 0.  1.
</event>
<event>
 5   0  0.4095451E-05  0.2338960E+04  0.7818609E-02  0.8462716E-01
        1   -1    0    0  501    0  0.00000000000E+00  0.00000000000E+00  0.14750738601E+04  0.14750738601E+04  0.50400001928E-02 0.  1.
       -1   -1    0    0    0  501  0.00000000000E+00  0.00000000000E+00 -0.92719676450E+03  0.92719676451E+03  0.50400001928E-02 0. -1.
    10030    2    1    2    0    0  0.00000000000E+00  0.00000000000E+00  0.54787709563E+03  0.24022706246E+04  0.23389602053E+04 0.  0.
        3    1    3    3  502    0 -0.57272797607E+03  0.43611677688E+03 -0.67267505969E+03  0.98524460099E+03  0.10100000352E+00 0. -1.
       -3    1    3    3    0  502  0.57272797607E+03 -0.43611677688E+03  0.12205521553E+04  0.14170260237E+04  0.10100000352E+00 0.  1.
</event>
<event>
 5   0  0.4095451E-05  0.2288373E+04  0.7818609E-02  0.8482520E-01
       -1   -1    0    0    0  501  0.00000000000E+00  0.00000000000E+00  0.13405845793E+04  0.13405845793E+04  0.50400001928E-02 0. -1.
        1   -1    0    0  501    0  0.00000000000E+00  0.00000000000E+00 -0.97656081490E+03  0.97656081492E+03  0.50400001928E-02 0.  1.
    10030    2    1    2    0    0  0.00000000000E+00  0.00000000000E+00  0.36402376439E+03  0.23171453942E+04  0.22883726700E+04 0.  0.
        3    1    3    3  502    0 -0.96171712145E+03  0.10690269409E+03 -0.43626711346E+03  0.10614410074E+04  0.10100000352E+00 0.  1.
       -3    1    3    3    0  502  0.96171712145E+03 -0.10690269409E+03  0.80029087785E+03  0.12557043868E+04  0.10100000352E+00 0. -1.
</event>
<event>
 5   0  0.9312074E-05  0.2296676E+04  0.7818609E-02  0.8479233E-01
        2   -1    0    0  501    0  0.00000000000E+00  0.00000000000E+00  0.18280687906E+04  0.18280687906E+04  0.25500000920E-02 0. -1.
       -2   -1    0    0    0  501  0.00000000000E+00  0.00000000000E+00 -0.72135150940E+03  0.72135150941E+03  0.25500000920E-02 0.  1.
    10030    2    1    2    0    0  0.00000000000E+00  0.00000000000E+00  0.11067172812E+04  0.25494203000E+04  0.22966760167E+04 0.  0.
        4    1    3    3  502    0 -0.62368402235E+03 -0.60575328387E+03 -0.27936946955E+03  0.91321832771E+03  0.12699999809E+01 0.  1.
       -4    1    3    3    0  502  0.62368402235E+03  0.60575328387E+03  0.13860867507E+04  0.16362019723E+04  0.12699999809E+01 0. -1.
</event>
<event>
 5   0  0.4295775E-05  0.2307953E+04  0.7818609E-02  0.8474792E-01
        1   -1    0    0  501    0  0.00000000000E+00  0.00000000000E+00  0.21086378193E+04  0.21086378193E+04  0.50400001928E-02 0. -1.
       -1   -1    0    0    0  501  0.00000000000E+00  0.00000000000E+00 -0.63152718166E+03  0.63152718168E+03  0.50400001928E-02 0.  1.
    10030    2    1    2    0    0  0.00000000000E+00  0.00000000000E+00  0.14771106376E+04  0.27401650010E+04  0.23079532917E+04 0.  0.
        5    1    3    3  502    0 -0.11441587235E+04 -0.11219531856E+03  0.85700324718E+03  0.14339329237E+04  0.46999998093E+01 0. -1.
       -5    1    3    3    0  502  0.11441587235E+04  0.11219531856E+03  0.62010739043E+03  0.13062320773E+04  0.46999998093E+01 0.  1.
</event>
<event>
 5   0  0.3261500E-05  0.2341909E+04  0.7818609E-02  0.8461578E-01
        3   -1    0    0  501    0  0.00000000000E+00  0.00000000000E+00  0.46726256808E+03  0.46726257899E+03  0.10100000352E+00 0.  1.
       -3   -1    0    0    0  501  0.00000000000E+00  0.00000000000E+00 -0.29343991204E+04  0.29343991222E+04  0.10100000352E+00 0. -1.
    10030    2    1    2    0    0  0.00000000000E+00  0.00000000000E+00 -0.24671365524E+04  0.34016617012E+04  0.23419093837E+04 0.  0.
        5    1    3    3  502    0  0.27611967516E+03  0.32366751595E+03 -0.28181498359E+04  0.28500865466E+04  0.46999998093E+01 0. -1.
       -5    1    3    3    0  502 -0.27611967516E+03 -0.32366751595E+03  0.35101328351E+03  0.55157515453E+03  0.46999998093E+01 0.  1.
</event>
<event>
 5   0  0.4095451E-05  0.2318141E+04  0.7818609E-02  0.8470802E-01
        1   -1    0    0  501    0  0.00000000000E+00  0.00000000000E+00  0.18677476549E+04  0.18677476549E+04  0.50400001928E-02 0.  1.
       -1   -1    0    0    0  501  0.00000000000E+00  0.00000000000E+00 -0.71928599255E+03  0.71928599256E+03  0.50400001928E-02 0. -1.
    10030    2    1    2    0    0  0.00000000000E+00  0.00000000000E+00  0.11484616624E+04  0.25870336475E+04  0.23181412604E+04 0.  0.
        3    1    3    3  502    0  0.10450530005E+04  0.32561222817E+03  0.14885433112E+03  0.11046794645E+04  0.10100000352E+00 0. -1.
       -3    1    3    3    0  502 -0.10450530005E+04 -0.32561222817E+03  0.99960733126E+03  0.14823541830E+04  0.10100000352E+00 0.  1.
</event>
<event>
 5   0  0.3261500E-05  0.2265028E+04  0.7818609E-02  0.8491839E-01
        3   -1    0    0  501    0  0.00000000000E+00  0.00000000000E+00  0.70857386561E+03  0.70857387281E+03  0.10100000352E+00 0.  1.
       -3   -1    0    0    0  501  0.00000000000E+00  0.00000000000E+00 -0.18100972650E+04  0.18100972678E+04  0.10100000352E+00 0. -1.
    10030    2    1    2    0    0  0.00000000000E+00  0.00000000000E+00 -0.11015233993E+04  0.25186711406E+04  0.22650277074E+04 0.  0.
        4    1    3    3  502    0  0.72903503730E+03  0.28720723472E+03  0.35848777864E+03  0.86168160107E+03  0.12699999809E+01 0.  1.
       -4    1    3    3    0  502 -0.72903503730E+03 -0.28720723472E+03 -0.14600111780E+04  0.16569895395E+04  0.12699999809E+01 0. -1.
</event>
<event>
 5   0  0.4095451E-05  0.2278222E+04  0.7818609E-02  0.8486557E-01
        1   -1    0    0  501    0  0.00000000000E+00  0.00000000000E+00  0.11476585994E+04  0.11476585995E+04  0.50400001928E-02 0.  1.
       -1   -1    0    0    0  501  0.00000000000E+00  0.00000000000E+00 -0.11306275485E+04  0.11306275486E+04  0.50400001928E-02 0. -1.
    10030    2    1    2    0    0  0.00000000000E+00  0.00000000000E+00  0.17031050910E+02  0.22782861480E+04  0.22782224903E+04 0.  0.
        3    1    3    3  502    0  0.32230524969E+03  0.34813662064E+03  0.10441576325E+04  0.11468848906E+04  0.10100000352E+00 0.  1.
       -3    1    3    3    0  502 -0.32230524969E+03 -0.34813662064E+03 -0.10271265815E+04  0.11314012574E+04  0.10100000352E+00 0. -1.
</event>
<event>
 5   0  0.9313463E-05  0.2323788E+04  0.7818609E-02  0.8468600E-01
       -2   -1    0    0    0  501  0.00000000000E+00  0.00000000000E+00  0.62710833977E+03  0.62710833978E+03  0.25500000920E-02 0. -1.
        2   -1    0    0  501    0  0.00000000000E+00  0.00000000000E+00 -0.21527348490E+04  0.21527348490E+04  0.25500000920E-02 0.  1.
    10030    2    1    2    0    0  0.00000000000E+00  0.00000000000E+00 -0.15256265092E+04  0.27798431888E+04  0.23237882667E+04 0.  0.
        1    1    3    3  502    0 -0.44666136501E+03  0.47249088597E+03  0.38910258757E+03  0.75773005484E+03  0.50400001928E-02 0. -1.
       -1    1    3    3    0  502  0.44666136501E+03 -0.47249088597E+03 -0.19147290968E+04  0.20221131339E+04  0.50400001928E-02 0.  1.
</event>
<event>
 5   0  0.3885219E-05  0.2263541E+04  0.7818609E-02  0.8492437E-01
       -1   -1    0    0    0  501  0.00000000000E+00  0.00000000000E+00  0.11164037375E+04  0.11164037375E+04  0.50400001928E-02 0.  1.
        1   -1    0    0  501    0  0.00000000000E+00  0.00000000000E+00 -0.11473486898E+04  0.11473486898E+04  0.50400001928E-02 0. -1.
    10030    2    1    2    0    0  0.00000000000E+00  0.00000000000E+00 -0.30944952304E+02  0.22637524272E+04  0.22635409123E+04 0.  0.
        2    1    3    3  502    0 -0.45404270078E+03 -0.96811019972E+03 -0.38633354605E+03  0.11369457954E+04  0.25500000920E-02 0.  1.
       -2    1    3    3    0  502  0.45404270078E+03  0.96811019972E+03  0.35538859375E+03  0.11268066318E+04  0.25500000920E-02 0. -1.
</event>
<event>
 5   0  0.4095451E-05  0.2296482E+04  0.7818609E-02  0.8479309E-01
       -1   -1    0    0    0  501  0.00000000000E+00  0.00000000000E+00  0.11388110683E+04  0.11388110684E+04  0.50400001928E-02 0.  1.
        1   -1    0    0  501    0  0.00000000000E+00  0.00000000000E+00 -0.11577493315E+04  0.11577493315E+04  0.50400001928E-02 0. -1.
    10030    2    1    2    0    0  0.00000000000E+00  0.00000000000E+00 -0.18938263151E+02  0.22965603999E+04  0.22964823127E+04 0.  0.
        3    1    3    3  502    0 -0.46383266913E+03 -0.39291141658E+03 -0.98363654590E+03  0.11563135348E+04  0.10100000352E+00 0. -1.
       -3    1    3    3    0  502  0.46383266913E+03  0.39291141658E+03  0.96469828275E+03  0.11402468650E+04  0.10100000352E+00 0.  1.
</event>
<event>
 5   0  0.3885219E-05  0.2290938E+04  0.7818609E-02  0.8481503E-01
       -1   -1    0    0    0  501  0.00000000000E+00  0.00000000000E+00  0.98718486744E+03  0.98718486745E+03  0.50400001928E-02 0.  1.
        1   -1    0    0  501    0  0.00000000000E+00  0.00000000000E+00 -0.13291322662E+04  0.13291322662E+04  0.50400001928E-02 0. -1.
    10030    2    1    2    0    0  0.00000000000E+00  0.00000000000E+00 -0.34194739873E+03  0.23163171336E+04  0.22909380262E+04 0.  0.
        2    1    3    3  502    0 -0.66919764528E+03 -0.75522355405E+03  0.37716783782E+03  0.10772389164E+04  0.25500000920E-02 0. -1.
       -2    1    3    3    0  502  0.66919764528E+03  0.75522355405E+03 -0.71911523655E+03  0.12390782173E+04  0.25500000920E-02 0.  1.
</event>
<event>
 5   0  0.4095451E-05  0.2356514E+04  0.7818609E-02  0.8455966E-01
       -1   -1    0    0    0  501  0.00000000000E+00  0.00000000000E+00  0.85142709646E+03  0.85142709647E+03  0.50400001928E-02 0.  1.
        1   -1    0    0  501    0  0.00000000000E+00  0.00000000000E+00 -0.16305449042E+04  0.16305449042E+04  0.50400001928E-02 0. -1.
    10030    2    1    2    0    0  0.00000000000E+00  0.00000000000E+00 -0.77911780773E+03  0.24819720007E+04  0.23565144714E+04 0.  0.
        3    1    3    3  502    0 -0.76599094638E+03 -0.88274653493E+03 -0.54686398803E+03  0.12903657646E+04  0.10100000352E+00 0.  1.
       -3    1    3    3    0  502  0.76599094638E+03  0.88274653493E+03 -0.23225381970E+03  0.11916062361E+04  0.10100000352E+00 0. -1.
</event>
<event>
 5   0  0.9483073E-05  0.1949708E+04  0.7818609E-02  0.8630502E-01
       -2   -1    0    0    0  501  0.00000000000E+00  0.00000000000E+00  0.45943894720E+03  0.45943894720E+03  0.25500000920E-02 0.  1.
        2   -1    0    0  501    0  0.00000000000E+00  0.00000000000E+00 -0.20684800250E+04  0.20684800250E+04  0.25500000920E-02 0. -1.
    10030    2    1    2    0    0  0.00000000000E+00  0.00000000000E+00 -0.16090410778E+04  0.25279189722E+04  0.19497079627E+04 0.  0.
        5    1    3    3  502    0  0.81137918101E+03 -0.35124417403E+03 -0.27212468049E+03  0.92508517278E+03  0.46999998093E+01 0.  1.
       -5    1    3    3    0  502 -0.81137918101E+03  0.35124417403E+03 -0.13369163973E+04  0.16028337994E+04  0.46999998093E+01 0. -1.
</event>
<event>
 5   0  0.9313463E-05  0.2314349E+04  0.7818609E-02  0.8472285E-01
       -2   -1    0    0    0  501  0.00000000000E+00  0.00000000000E+00  0.48929338818E+03  0.48929338819E+03  0.25500000920E-02 0. -1.
        2   -1    0    0  501    0  0.00000000000E+00  0.00000000000E+00 -0.27367065034E+04  0.27367065034E+04  0.25500000920E-02 0.  1.
    10030    2    1    2    0    0  0.00000000000E+00  0.00000000000E+00 -0.22474131152E+04  0.32259998916E+04  0.23143486319E+04 0.  0.
        1    1    3    3  502    0 -0.12068636345E+03 -0.47318230333E+02 -0.27265535135E+04  0.27296333591E+04  0.50400001928E-02 0.  1.
       -1    1    3    3    0  502  0.12068636345E+03  0.47318230333E+02  0.47914039829E+03  0.49636653245E+03  0.50400001928E-02 0. -1.
</event>
<event>
 5   0  0.4139830E-05  0.2296763E+04  0.7818609E-02  0.8479198E-01
       -1   -1    0    0    0  501  0.00000000000E+00  0.00000000000E+00  0.45833874288E+03  0.45833874291E+03  0.50400001928E-02 0. -1.
        1   -1    0    0  501    0  0.00000000000E+00  0.00000000000E+00 -0.28773045620E+04  0.28773045620E+04  0.50400001928E-02 0.  1.
    10030    2    1    2    0    0  0.00000000000E+00  0.00000000000E+00 -0.24189658192E+04  0.33356433049E+04  0.22967630752E+04 0.  0.
        1    1    3    3  502    0 -0.11271309281E+04  0.17456962297E+03 -0.14036899894E+04  0.18086581404E+04  0.50400001928E-02 0.  1.
       -1    1    3    3    0  502  0.11271309281E+04 -0.17456962297E+03 -0.10152758297E+04  0.15269851646E+04  0.50400001928E-02 0. -1.
</event>
<event>
 5   0  0.9535394E-05  0.2075076E+04  0.7818609E-02  0.8572303E-01
       -2   -1    0    0    0  501  0.00000000000E+00  0.00000000000E+00  0.61111762313E+03  0.61111762313E+03  0.25500000920E-02 0.  1.
        2   -1    0    0  501    0  0.00000000000E+00  0.00000000000E+00 -0.17615031497E+04  0.17615031497E+04  0.25500000920E-02 0. -1.
    10030    2    1    2    0    0  0.00000000000E+00  0.00000000000E+00 -0.11503855265E+04  0.23726207728E+04  0.20750764978E+04 0.  0.
        2    1    3    3  502    0  0.44860056142E+03 -0.79495798355E+02  0.49063003644E+03  0.66953706270E+03  0.25500000920E-02 0.  1.
       -2    1    3    3    0  502 -0.44860056142E+03  0.79495798355E+02 -0.16410155630E+04  0.17030837101E+04  0.25500000920E-02 0. -1.
</event>
<event>
 5   0  0.9483073E-05  0.2186202E+04  0.7818609E-02  0.8524193E-01
        2   -1    0    0  501    0  0.00000000000E+00  0.00000000000E+00  0.21147843589E+04  0.21147843589E+04  0.25500000920E-02 0.  1.
       -2   -1    0    0    0  501  0.00000000000E+00  0.00000000000E+00 -0.56500786011E+03  0.56500786011E+03  0.25500000920E-02 0. -1.
    10030    2    1    2    0    0  0.00000000000E+00  0.00000000000E+00  0.15497764988E+04  0.26797922190E+04  0.21862019899E+04 0.  0.
        5    1    3    3  502    0  0.14798336849E+03 -0.67643741512E+03  0.18116513927E+04  0.19394766079E+04  0.46999998093E+01 0.  1.
       -5    1    3    3    0  502 -0.14798336849E+03  0.67643741512E+03 -0.26187489395E+03  0.74031561107E+03  0.46999998093E+01 0. -1.
</event>
<event>
 5   0  0.3885219E-05  0.1968101E+04  0.7818609E-02  0.8621681E-01
       -1   -1    0    0    0  501  0.00000000000E+00  0.00000000000E+00  0.62600364451E+03  0.62600364453E+03  0.50400001928E-02 0. -1.
        1   -1    0    0  501    0  0.00000000000E+00  0.00000000000E+00 -0.15468848900E+04  0.15468848900E+04  0.50400001928E-02 0.  1.
    10030    2    1    2    0    0  0.00000000000E+00  0.00000000000E+00 -0.92088124548E+03  0.21728885345E+04  0.19681011954E+04 0.  0.
        2    1    3    3  502    0 -0.68933834896E+03  0.18644130859E+02 -0.12354990750E+04  0.14149179931E+04  0.25500000920E-02 0.  1.
       -2    1    3    3    0  502  0.68933834896E+03 -0.18644130859E+02  0.31461782952E+03  0.75797054139E+03  0.25500000920E-02 0. -1.
</event>
<event>
 5   0  0.9535394E-05  0.2254158E+04  0.7818609E-02  0.8496219E-01
       -2   -1    0    0    0  501  0.00000000000E+00  0.00000000000E+00  0.14874750963E+04  0.14874750963E+04  0.25500000920E-02 0.  1.
        2   -1    0    0  501    0  0.00000000000E+00  0.00000000000E+00 -0.85400190836E+03  0.85400190837E+03  0.25500000920E-02 0. -1.
    10030    2    1    2    0    0  0.00000000000E+00  0.00000000000E+00  0.63347318798E+03  0.23414770047E+04  0.22541575552E+04 0.  0.
        2    1    3    3  502    0 -0.10903340679E+04  0.16911828481E+03  0.55559462188E+03  0.12353601732E+04  0.25500000920E-02 0.  1.
       -2    1    3    3    0  502  0.10903340679E+04 -0.16911828481E+03  0.77878566102E+02  0.11061168315E+04  0.25500000920E-02 0. -1.
</event>
<event>
 5   0  0.9641157E-05  0.2258154E+04  0.7818609E-02  0.8494605E-01
       -2   -1    0    0    0  501  0.00000000000E+00  0.00000000000E+00  0.61845611952E+03  0.61845611953E+03  0.25500000920E-02 0. -1.
        2   -1    0    0  501    0  0.00000000000E+00  0.00000000000E+00 -0.20612862749E+04  0.20612862749E+04  0.25500000920E-02 0.  1.
    10030    2    1    2    0    0  0.00000000000E+00  0.00000000000E+00 -0.14428301554E+04  0.26797423944E+04  0.22581542116E+04 0.  0.
        3    1    3    3  502    0 -0.70267280858E+03  0.84741480130E+03 -0.42366510311E+03  0.11795562942E+04  0.10100000352E+00 0. -1.
       -3    1    3    3    0  502  0.70267280858E+03 -0.84741480130E+03 -0.10191650523E+04  0.15001861002E+04  0.10100000352E+00 0.  1.
</event>
<event>
 5   0  0.3261500E-05  0.2358142E+04  0.7818609E-02  0.8455343E-01
       -3   -1    0    0    0  501  0.00000000000E+00  0.00000000000E+00  0.12335962954E+04  0.12335962995E+04  0.10100000352E+00 0.  1.
        3   -1    0    0  501    0  0.00000000000E+00  0.00000000000E+00 -0.11269559105E+04  0.11269559150E+04  0.10100000352E+00 0. -1.
    10030    2    1    2    0    0  0.00000000000E+00  0.00000000000E+00  0.10664038490E+03  0.23605522146E+04  0.23581421895E+04 0.  0.
        2    1    3    3  502    0 -0.10217718052E+04 -0.58744656263E+03  0.86483503623E+02  0.11817742941E+04  0.25500000920E-02 0.  1.
       -2    1    3    3    0  502  0.10217718052E+04  0.58744656263E+03  0.20156881279E+02  0.11787779204E+04  0.25500000920E-02 0. -1.
</event>
<event>
 5   0  0.4295775E-05  0.2263841E+04  0.7818609E-02  0.8492316E-01
        1   -1    0    0  501    0  0.00000000000E+00  0.00000000000E+00  0.80999718449E+03  0.80999718450E+03  0.50400001928E-02 0. -1.
       -1   -1    0    0    0  501  0.00000000000E+00  0.00000000000E+00 -0.15817880065E+04  0.15817880065E+04  0.50400001928E-02 0.  1.
    10030    2    1    2    0    0  0.00000000000E+00  0.00000000000E+00 -0.77179082200E+03  0.23917851910E+04  0.22638408352E+04 0.  0.
        5    1    3    3  502    0 -0.65637917185E+03  0.83310240182E+03  0.31834314867E+02  0.10610978950E+04  0.46999998093E+01 0. -1.
       -5    1    3    3    0  502  0.65637917185E+03 -0.83310240182E+03 -0.80362513686E+03  0.13306872960E+04  0.46999998093E+01 0.  1.
</event>
<event>
 5   0  0.9313463E-05  0.1914915E+04  0.7818609E-02  0.8647467E-01
        2   -1    0    0  501    0  0.00000000000E+00  0.00000000000E+00  0.18004456161E+04  0.18004456161E+04  0.25500000920E-02 0.  1.
       -2   -1    0    0    0  501  0.00000000000E+00  0.00000000000E+00 -0.50916572785E+03  0.50916572786E+03  0.25500000920E-02 0. -1.
    10030    2    1    2    0    0  0.00000000000E+00  0.00000000000E+00  0.12912798882E+04  0.23096113439E+04  0.19149153533E+04 0.  0.
        1    1    3    3  502    0 -0.11473112811E+03  0.91456100813E+02 -0.49552603103E+03  0.51679154171E+03  0.50400001928E-02 0. -1.
       -1    1    3    3    0  502  0.11473112811E+03 -0.91456100813E+02  0.17868059192E+04  0.17928198022E+04  0.50400001928E-02 0.  1.
</event>
<event>
 5   0  0.4005462E-05  0.2319813E+04  0.7818609E-02  0.8470150E-01
        1   -1    0    0  501    0  0.00000000000E+00  0.00000000000E+00  0.16374640126E+04  0.16374640126E+04  0.50400001928E-02 0.  1.
       -1   -1    0    0    0  501  0.00000000000E+00  0.00000000000E+00 -0.82162609999E+03  0.82162610000E+03  0.50400001928E-02 0. -1.
    10030    2    1    2    0    0  0.00000000000E+00  0.00000000000E+00  0.81583791261E+03  0.24590901126E+04  0.23198130706E+04 0.  0.
        4    1    3    3  502    0 -0.48477092751E+02 -0.10723279277E+04 -0.57948582848E+02  0.10749869135E+04  0.12699999809E+01 0. -1.
       -4    1    3    3    0  502  0.48477092751E+02  0.10723279277E+04  0.87378649546E+03  0.13841031991E+04  0.12699999809E+01 0.  1.
</event>
<event>
 5   0  0.3885219E-05  0.2323832E+04  0.7818609E-02  0.8468583E-01
       -1   -1    0    0    0  501  0.00000000000E+00  0.00000000000E+00  0.10030785457E+04  0.10030785457E+04  0.50400001928E-02 0. -1.
        1   -1    0    0  501    0  0.00000000000E+00  0.00000000000E+00 -0.13459051453E+04  0.13459051453E+04  0.50400001928E-02 0.  1.
    10030    2    1    2    0    0  0.00000000000E+00  0.00000000000E+00 -0.34282659966E+03  0.23489836910E+04  0.23238318148E+04 0.  0.
        2    1    3    3  502    0  0.70681704278E+03 -0.92098347240E+03 -0.12349038055E+03  0.11674976499E+04  0.25500000920E-02 0. -1.
       -2    1    3    3    0  502 -0.70681704278E+03  0.92098347240E+03 -0.21933621911E+03  0.11814860411E+04  0.25500000920E-02 0.  1.
</event>
<event>
 5   0  0.9312074E-05  0.2258581E+04  0.7818609E-02  0.8494434E-01
        2   -1    0    0  501    0  0.00000000000E+00  0.00000000000E+00  0.21401676679E+04  0.21401676679E+04  0.25500000920E-02 0. -1.
       -2   -1    0    0    0  501  0.00000000000E+00  0.00000000000E+00 -0.59588628940E+03  0.59588628940E+03  0.25500000920E-02 0.  1.
    10030    2    1    2    0    0  0.00000000000E+00  0.00000000000E+00  0.15442813785E+04  0.27360539573E+04  0.22585805900E+04 0.  0.
        4    1    3    3  502    0 -0.40869522122E+03  0.82809327689E+03  0.15595764181E+04  0.18124708207E+04  0.12699999809E+01 0. -1.
       -4    1    3    3    0  502  0.40869522122E+03 -0.82809327689E+03 -0.15295039600E+02  0.92358313661E+03  0.12699999809E+01 0.  1.
</event>
<event>
 5   0  0.9535394E-05  0.2313198E+04  0.7818609E-02  0.8472735E-01
        2   -1    0    0  501    0  0.00000000000E+00  0.00000000000E+00  0.21302426912E+04  0.21302426912E+04  0.25500000920E-02 0.  1.
       -2   -1    0    0    0  501  0.00000000000E+00  0.00000000000E+00 -0.62796680452E+03  0.62796680452E+03  0.25500000920E-02 0. -1.
    10030    2    1    2    0    0  0.00000000000E+00  0.00000000000E+00  0.15022758866E+04  0.27582094957E+04  0.23131983881E+04 0.  0.
        2    1    3    3  502    0  0.49479161888E+03  0.86816637046E+03  0.56695983614E+02  0.10008726330E+04  0.25500000920E-02 0. -1.
       -2    1    3    3    0  502 -0.49479161888E+03 -0.86816637046E+03  0.14455799030E+04  0.17573368627E+04  0.25500000920E-02 0.  1.
</event>
<event>
 5   0  0.9483073E-05  0.2697190E+04  0.7818609E-02  0.8335917E-01
       -2   -1    0    0    0  501  0.00000000000E+00  0.00000000000E+00  0.10286293745E+04  0.10286293745E+04  0.25500000920E-02 0. -1.
        2   -1    0    0  501    0  0.00000000000E+00  0.00000000000E+00 -0.17680893784E+04  0.17680893784E+04  0.25500000920E-02 0.  1.
    10030    2    1    2    0    0  0.00000000000E+00  0.00000000000E+00 -0.73946000388E+03  0.27967187529E+04  0.26971901463E+04 0.  0.
        5    1    3    3  502    0  0.41022210208E+03 -0.79990199411E+03 -0.14120919328E+04  0.16739626907E+04  0.46999998093E+01 0.  1.
       -5    1    3    3    0  502 -0.41022210208E+03  0.79990199411E+03  0.67263192896E+03  0.11227560621E+04  0.46999998093E+01 0. -1.
</event>
<event>
 5   0  0.3885219E-05  0.2321860E+04  0.7818609E-02  0.8469352E-01
       -1   -1    0    0    0  501  0.00000000000E+00  0.00000000000E+00  0.97122771928E+03  0.97122771929E+03  0.50400001928E-02 0. -1.
        1   -1    0    0  501    0  0.00000000000E+00  0.00000000000E+00 -0.13876849321E+04  0.13876849321E+04  0.50400001928E-02 0.  1.
    10030    2    1    2    0    0  0.00000000000E+00  0.00000000000E+00 -0.41645721282E+03  0.23589126514E+04  0.23218596613E+04 0.  0.
        2    1    3    3  502    0  0.69578989632E+03 -0.92930603379E+03 -0.20317045661E+03  0.11785633283E+04  0.25500000920E-02 0. -1.
       -2    1    3    3    0  502 -0.69578989632E+03  0.92930603379E+03 -0.21328675621E+03  0.11803493231E+04  0.25500000920E-02 0.  1.
</event>
<event>
 5   0  0.9312074E-05  0.2340759E+04  0.7818609E-02  0.8462022E-01
       -2   -1    0    0    0  501  0.00000000000E+00  0.00000000000E+00  0.69307462852E+03  0.69307462852E+03  0.25500000920E-02 0. -1.
        2   -1    0    0  501    0  0.00000000000E+00  0.00000000000E+00 -0.19763927538E+04  0.19763927538E+04  0.25500000920E-02 0.  1.
    10030    2    1    2    0    0  0.00000000000E+00  0.00000000000E+00 -0.12833181253E+04  0.26694673824E+04  0.23407585725E+04 0.  0.
        4    1    3    3  502    0 -0.21707777773E+03 -0.11259539832E+04 -0.90884788056E+03  0.14631818809E+04  0.12699999809E+01 0. -1.
       -4    1    3    3    0  502  0.21707777773E+03  0.11259539832E+04 -0.37447024476E+03  0.12062855014E+04  0.12699999809E+01 0.  1.
</event>
<event>
 5   0  0.9641157E-05  0.2722538E+04  0.7818609E-02  0.8327729E-01
        2   -1    0    0  501    0  0.00000000000E+00  0.00000000000E+00  0.13803447728E+04  0.13803447728E+04  0.25500000920E-02 0.  1.
       -2   -1    0    0    0  501  0.00000000000E+00  0.00000000000E+00 -0.13424572065E+04  0.13424572065E+04  0.25500000920E-02 0. -1.
    10030    2    1    2    0    0  0.00000000000E+00  0.00000000000E+00  0.37887566335E+02  0.27228019793E+04  0.27225383653E+04 0.  0.
        3    1    3    3  502    0  0.20570741700E+03  0.10223583930E+04  0.89396938567E+03  0.13735768992E+04  0.10100000352E+00 0.  1.
       -3    1    3    3    0  502 -0.20570741700E+03 -0.10223583930E+04 -0.85608181934E+03  0.13492250801E+04  0.10100000352E+00 0. -1.
</event>
<event>
 5   0  0.4095451E-05  0.2302314E+04  0.7818609E-02  0.8477009E-01
        1   -1    0    0  501    0  0.00000000000E+00  0.00000000000E+00  0.11975346240E+04  0.11975346240E+04  0.50400001928E-02 0. -1.
       -1   -1    0    0    0  501  0.00000000000E+00  0.00000000000E+00 -0.11065756532E+04  0.11065756532E+04  0.50400001928E-02 0.  1.
    10030    2    1    2    0    0  0.00000000000E+00  0.00000000000E+00  0.90958970761E+02  0.23041102773E+04  0.23023141913E+04 0.  0.
        3    1    3    3  502    0  0.23269350060E+03  0.64420178951E+03 -0.88045601969E+03  0.11155021397E+04  0.10100000352E+00 0.  1.
       -3    1    3    3    0  502 -0.23269350060E+03 -0.64420178951E+03  0.97141499045E+03  0.11886081376E+04  0.10100000352E+00 0. -1.
</event>
<event>
 5   0  0.9641157E-05  0.2190402E+04  0.7818609E-02  0.8522434E-01
        2   -1    0    0  501    0  0.00000000000E+00  0.00000000000E+00  0.15008125068E+04  0.15008125068E+04  0.25500000920E-02 0.  1.
       -2   -1    0    0    0  501  0.00000000000E+00  0.00000000000E+00 -0.79921073398E+03  0.79921073398E+03  0.25500000920E-02 0. -1.
    10030    2    1    2    0    0  0.00000000000E+00  0.00000000000E+00  0.70160177278E+03  0.23000232407E+04  0.21904022143E+04 0.  0.
        3    1    3    3  502    0  0.25878202420E+03  0.61698042114E+03 -0.55967593912E+03  0.87227870727E+03  0.10100000352E+00 0.  1.
       -3    1    3    3    0  502 -0.25878202420E+03 -0.61698042114E+03  0.12612777119E+04  0.14277445335E+04  0.10100000352E+00 0. -1.
</event>
<event>
 5   0  0.3885219E-05  0.2297061E+04  0.7818609E-02  0.8479081E-01
        1   -1    0    0  501    0  0.00000000000E+00  0.00000000000E+00  0.14322944594E+04  0.14322944594E+04  0.50400001928E-02 0. -1.
       -1   -1    0    0    0  501  0.00000000000E+00  0.00000000000E+00 -0.92098545278E+03  0.92098545279E+03  0.50400001928E-02 0.  1.
    10030    2    1    2    0    0  0.00000000000E+00  0.00000000000E+00  0.51130900663E+03  0.23532799122E+04  0.22970610451E+04 0.  0.
        2    1    3    3  502    0 -0.43267996086E+03  0.68502876420E+03 -0.57829901027E+03  0.99544266615E+03  0.25500000920E-02 0.  1.
       -2    1    3    3    0  502  0.43267996086E+03 -0.68502876420E+03  0.10896080169E+04  0.13578372461E+04  0.25500000920E-02 0. -1.
</event>
<event>
 5   0  0.4139830E-05  0.2306254E+04  0.7818609E-02  0.8475459E-01
       -1   -1    0    0    0  501  0.00000000000E+00  0.00000000000E+00  0.81839237055E+03  0.81839237056E+03  0.50400001928E-02 0. -1.
        1   -1    0    0  501    0  0.00000000000E+00  0.00000000000E+00 -0.16247731427E+04  0.16247731427E+04  0.50400001928E-02 0.  1.
    10030    2    1    2    0    0  0.00000000000E+00  0.00000000000E+00 -0.80638077218E+03  0.24431655133E+04  0.23062540570E+04 0.  0.
        1    1    3    3  502    0  0.75129731520E+03 -0.24208294199E+03  0.48733840676E+03  0.92765862760E+03  0.50400001928E-02 0. -1.
       -1    1    3    3    0  502 -0.75129731520E+03  0.24208294199E+03 -0.12937191789E+04  0.15155068857E+04  0.50400001928E-02 0.  1.
</event>
<event>
 5   0  0.9312074E-05  0.2262598E+04  0.7818609E-02  0.8492816E-01
       -2   -1    0    0    0  501  0.00000000000E+00  0.00000000000E+00  0.16182642213E+04  0.16182642213E+04  0.25500000920E-02 0.  1.
        2   -1    0    0  501    0  0.00000000000E+00  0.00000000000E+00 -0.79087063024E+03  0.79087063025E+03  0.25500000920E-02 0. -1.
    10030    2    1    2    0    0  0.00000000000E+00  0.00000000000E+00  0.82739359108E+03  0.24091348516E+04  0.22625981920E+04 0.  0.
        4    1    3    3  502    0  0.60634091988E+03 -0.72836806101E+03 -0.24410613340E+03  0.97865150114E+03  0.12699999809E+01 0.  1.
       -4    1    3    3    0  502 -0.60634091988E+03  0.72836806101E+03  0.10714997245E+04  0.14304833504E+04  0.12699999809E+01 0. -1.
</event>
<event>
 5   0  0.9312074E-05  0.2303503E+04  0.7818609E-02  0.8476541E-01
       -2   -1    0    0    0  501  0.00000000000E+00  0.00000000000E+00  0.11426824239E+04  0.11426824239E+04  0.25500000920E-02 0.  1.
        2   -1    0    0  501    0  0.00000000000E+00  0.00000000000E+00 -0.11608929176E+04  0.11608929176E+04  0.25500000920E-02 0. -1.
    10030    2    1    2    0    0  0.00000000000E+00  0.00000000000E+00 -0.18210493774E+02  0.23035753415E+04  0.23035033605E+04 0.  0.
        4    1    3    3  502    0  0.36471168418E+03 -0.42664065089E+03  0.99665649366E+03  0.11438368052E+04  0.12699999809E+01 0.  1.
       -4    1    3    3    0  502 -0.36471168418E+03  0.42664065089E+03 -0.10148669874E+04  0.11597385363E+04  0.12699999809E+01 0. -1.
</event>
<event>
 5   0  0.9312074E-05  0.2275714E+04  0.7818609E-02  0.8487559E-01
       -2   -1    0    0    0  501  0.00000000000E+00  0.00000000000E+00  0.11138266334E+04  0.11138266334E+04  0.25500000920E-02 0. -1.
        2   -1    0    0  501    0  0.00000000000E+00  0.00000000000E+00 -0.11624055598E+04  0.11624055598E+04  0.25500000920E-02 0.  1.
    10030    2    1    2    0    0  0.00000000000E+00  0.00000000000E+00 -0.48578926370E+02  0.22762321932E+04  0.22757137530E+04 0.  0.
        4    1    3    3  502    0 -0.22670547561E+03  0.10133540078E+04  0.44104220970E+03  0.11281850741E+04  0.12699999809E+01 0. -1.
       -4    1    3    3    0  502  0.22670547561E+03 -0.10133540078E+04 -0.48962113607E+03  0.11480471191E+04  0.12699999809E+01 0.  1.
</event>
<event>
 5   0  0.4139830E-05  0.2377003E+04  0.7818609E-02  0.8448164E-01
        1   -1    0    0  501    0  0.00000000000E+00  0.00000000000E+00  0.13493036875E+04  0.13493036875E+04  0.50400001928E-02 0.  1.
       -1   -1    0    0    0  501  0.00000000000E+00  0.00000000000E+00 -0.10468630456E+04  0.10468630456E+04  0.50400001928E-02 0. -1.
    10030    2    1    2    0    0  0.00000000000E+00  0.00000000000E+00  0.30244064190E+03  0.23961667330E+04  0.23770032963E+04 0.  0.
        1    1    3    3  502    0  0.71321000578E+03 -0.76862241247E+03  0.71527335038E+03  0.12692773106E+04  0.50400001928E-02 0.  1.
       -1    1    3    3    0  502 -0.71321000578E+03  0.76862241247E+03 -0.41283270848E+03  0.11268894225E+04  0.50400001928E-02 0. -1.
</event>
<event>
 5   0  0.9641157E-05  0.2200018E+04  0.7818609E-02  0.8518421E-01
        2   -1    0    0  501    0  0.00000000000E+00  0.00000000000E+00  0.62045355794E+03  0.62045355795E+03  0.25500000920E-02 0. -1.
       -2   -1    0    0    0  501  0.00000000000E+00  0.00000000000E+00 -0.19502180312E+04  0.19502180312E+04  0.25500000920E-02 0.  1.
    10030    2    1    2    0    0  0.00000000000E+00  0.00000000000E+00 -0.13297644733E+04  0.25706715891E+04  0.22000179238E+04 0.  0.
        3    1    3    3  502    0  0.61043281842E+03 -0.59185230469E+03  0.15063000019E+03  0.86348525380E+03  0.10100000352E+00 0. -1.
       -3    1    3    3    0  502 -0.61043281842E+03  0.59185230469E+03 -0.14803944735E+04  0.17071863353E+04  0.10100000352E+00 0.  1.
</event>
<event>
 5   0  0.9313463E-05  0.2334016E+04  0.7818609E-02  0.8464628E-01
       -2   -1    0    0    0  501  0.00000000000E+00  0.00000000000E+00  0.47989835308E+03  0.47989835309E+03  0.25500000920E-02 0.  1.
        2   -1    0    0  501    0  0.00000000000E+00  0.00000000000E+00 -0.28379093745E+04  0.28379093745E+04  0.25500000920E-02 0. -1.
    10030    2    1    2    0    0  0.00000000000E+00  0.00000000000E+00 -0.23580110214E+04  0.33178077276E+04  0.23340163110E+04 0.  0.
        1    1    3    3  502    0  0.10934034313E+04  0.40615625494E+03 -0.11255512342E+04  0.16209131833E+04  0.50400001928E-02 0. -1.
       -1    1    3    3    0  502 -0.10934034313E+04 -0.40615625494E+03 -0.12324597872E+04  0.16968945442E+04  0.50400001928E-02 0.  1.
</event>
<event>
 5   0  0.3885219E-05  0.2348865E+04  0.7818609E-02  0.8458900E-01
        1   -1    0    0  501    0  0.00000000000E+00  0.00000000000E+00  0.15266916499E+04  0.15266916499E+04  0.50400001928E-02 0. -1.
       -1   -1    0    0    0  501  0.00000000000E+00  0.00000000000E+00 -0.90345165746E+03  0.90345165747E+03  0.50400001928E-02 0.  1.
    10030    2    1    2    0    0  0.00000000000E+00  0.00000000000E+00  0.62323999245E+03  0.24301433074E+04  0.23488653444E+04 0.  0.
        2    1    3    3  502    0 -0.74200834678E+03  0.80090978250E+03 -0.13608855282E+03  0.11002513170E+04  0.25500000920E-02 0.  1.
       -2    1    3    3    0  502  0.74200834678E+03 -0.80090978250E+03  0.75932854527E+03  0.13298919904E+04  0.25500000920E-02 0. -1.
</event>
<event>
 5   0  0.4139830E-05  0.2383811E+04  0.7818609E-02  0.8445590E-01
        1   -1    0    0  501    0  0.00000000000E+00  0.00000000000E+00  0.10734251866E+04  0.10734251866E+04  0.50400001928E-02 0. -1.
       -1   -1    0    0    0  501  0.00000000000E+00  0.00000000000E+00 -0.13234627272E+04  0.13234627272E+04  0.50400001928E-02 0.  1.
    10030    2    1    2    0    0  0.00000000000E+00  0.00000000000E+00 -0.25003754057E+03  0.23968879138E+04  0.23838105839E+04 0.  0.
        1    1    3    3  502    0 -0.15596141737E+03 -0.11701840109E+04  0.40149363955E+02  0.11812140173E+04  0.50400001928E-02 0. -1.
       -1    1    3    3    0  502  0.15596141737E+03  0.11701840109E+04 -0.29018690452E+03  0.12156738965E+04  0.50400001928E-02 0.  1.
</event>
<event>
 5   0  0.3885219E-05  0.2134919E+04  0.7818609E-02  0.8546015E-01
        1   -1    0    0  501    0  0.00000000000E+00  0.00000000000E+00  0.11506749059E+04  0.11506749059E+04  0.50400001928E-02 0.  1.
       -1   -1    0    0    0  501  0.00000000000E+00  0.00000000000E+00 -0.99026200685E+03  0.99026200686E+03  0.50400001928E-02 0. -1.
    10030    2    1    2    0    0  0.00000000000E+00  0.00000000000E+00  0.16041289900E+03  0.21409369127E+04  0.21349188664E+04 0.  0.
        2    1    3    3  502    0 -0.22209163573E+02  0.26366323679E+03 -0.95685473687E+03  0.99276509651E+03  0.25500000920E-02 0. -1.
       -2    1    3    3    0  502  0.22209163573E+02 -0.26366323679E+03  0.11172676359E+04  0.11481718162E+04  0.25500000920E-02 0.  1.
</event>
<event>
 5   0  0.9641157E-05  0.2334886E+04  0.7818609E-02  0.8464292E-01
       -2   -1    0    0    0  501  0.00000000000E+00  0.00000000000E+00  0.13841423213E+04  0.13841423213E+04  0.25500000920E-02 0.  1.
        2   -1    0    0  501    0  0.00000000000E+00  0.00000000000E+00 -0.98466975835E+03  0.98466975836E+03  0.25500000920E-02 0. -1.
    10030    2    1    2    0    0  0.00000000000E+00  0.00000000000E+00  0.39947256295E+03  0.23688120797E+04  0.23348859373E+04 0.  0.
        3    1    3    3  502    0 -0.33667061440E+03 -0.11110393607E+04  0.74790355196E+02  0.11633353649E+04  0.10100000352E+00 0. -1.
       -3    1    3    3    0  502  0.33667061440E+03  0.11110393607E+04  0.32468220775E+03  0.12054767148E+04  0.10100000352E+00 0.  1.
</event>
<event>
 5   0  0.3885219E-05  0.2314996E+04  0.7818609E-02  0.8472032E-01
       -1   -1    0    0    0  501  0.00000000000E+00  0.00000000000E+00  0.78820434927E+03  0.78820434929E+03  0.50400001928E-02 0. -1.
        1   -1    0    0  501    0  0.00000000000E+00  0.00000000000E+00 -0.16998152797E+04  0.16998152797E+04  0.50400001928E-02 0.  1.
    10030    2    1    2    0    0  0.00000000000E+00  0.00000000000E+00 -0.91161093047E+03  0.24880196290E+04  0.23149961525E+04 0.  0.
        2    1    3    3  502    0  0.64239108278E+03  0.31553757276E+03  0.52189607772E+03  0.88577975761E+03  0.25500000920E-02 0. -1.
       -2    1    3    3    0  502 -0.64239108278E+03 -0.31553757276E+03 -0.14335070082E+04  0.16022398714E+04  0.25500000920E-02 0.  1.
</event>
<event>
 5   0  0.9312074E-05  0.2260382E+04  0.7818609E-02  0.8493708E-01
       -2   -1    0    0    0  501  0.00000000000E+00  0.00000000000E+00  0.81656818891E+03  0.81656818892E+03  0.25500000920E-02 0.  1.
        2   -1    0    0  501    0  0.00000000000E+00  0.00000000000E+00 -0.15642681433E+04  0.15642681433E+04  0.25500000920E-02 0. -1.
    10030    2    1    2    0    0  0.00000000000E+00  0.00000000000E+00 -0.74769995441E+03  0.23808363322E+04  0.22603819189E+04 0.  0.
        4    1    3    3  502    0 -0.13080056707E+03  0.11142973274E+04 -0.23034467928E+03  0.11453504295E+04  0.12699999809E+01 0.  1.
       -4    1    3    3    0  502  0.13080056707E+03 -0.11142973274E+04 -0.51735527513E+03  0.12354859027E+04  0.12699999809E+01 0. -1.
</event>
<event>
 5   0  0.4095451E-05  0.2128129E+04  0.7818609E-02  0.8548953E-01
        1   -1    0    0  501    0  0.00000000000E+00  0.00000000000E+00  0.22113889511E+04  0.22113889511E+04  0.50400001928E-02 0. -1.
       -1   -1    0    0    0  501  0.00000000000E+00  0.00000000000E+00 -0.51200101916E+03  0.51200101918E+03  0.50400001928E-02 0.  1.
    10030    2    1    2    0    0  0.00000000000E+00  0.00000000000E+00  0.16993879320E+04  0.27233899703E+04  0.21281291284E+04 0.  0.
        3    1    3    3  502    0 -0.10126597509E+04 -0.23343119704E+03  0.11422513529E+04  0.15442499986E+04  0.10100000352E+00 0. -1.
       -3    1    3    3    0  502  0.10126597509E+04  0.23343119704E+03  0.55713657906E+03  0.11791399717E+04  0.10100000352E+00 0.  1.
</event>
<event>
 5   0  0.4139830E-05  0.2277881E+04  0.7818609E-02  0.8486694E-01
       -1   -1    0    0    0  501  0.00000000000E+00  0.00000000000E+00  0.84381695079E+03  0.84381695081E+03  0.50400001928E-02 0.  1.
        1   -1    0    0  501    0  0.00000000000E+00  0.00000000000E+00 -0.15372834295E+04  0.15372834295E+04  0.50400001928E-02 0. -1.
    10030    2    1    2    0    0  0.00000000000E+00  0.00000000000E+00 -0.69346647866E+03  0.23811003803E+04  0.22778813103E+04 0.  0.
        1    1    3    3  502    0 -0.24256465409E+02 -0.47704070362E+03  0.73405716377E+03  0.87578315166E+03  0.50400001928E-02 0.  1.
       -1    1    3    3    0  502  0.24256465409E+02  0.47704070362E+03 -0.14275236424E+04  0.15053172286E+04  0.50400001928E-02 0. -1.
</event>
<event>
 5   0  0.9312074E-05  0.1986274E+04  0.7818609E-02  0.8613065E-01
       -2   -1    0    0    0  501  0.00000000000E+00  0.00000000000E+00  0.57624232795E+03  0.57624232795E+03  0.25500000920E-02 0. -1.
        2   -1    0    0  501    0  0.00000000000E+00  0.00000000000E+00 -0.17116429131E+04  0.17116429131E+04  0.25500000920E-02 0.  1.
    10030    2    1    2    0    0  0.00000000000E+00  0.00000000000E+00 -0.11354005851E+04  0.22878852410E+04  0.19862739960E+04 0.  0.
        4    1    3    3  502    0 -0.13806791709E+02  0.45388529956E+03 -0.15850609720E+04  0.16488245482E+04  0.12699999809E+01 0.  1.
       -4    1    3    3    0  502  0.13806791709E+02 -0.45388529956E+03  0.44966038694E+03  0.63906069284E+03  0.12699999809E+01 0. -1.
</event>
<event>
 5   0  0.9483073E-05  0.2321884E+04  0.7818609E-02  0.8469342E-01
       -2   -1    0    0    0  501  0.00000000000E+00  0.00000000000E+00  0.13513992123E+04  0.13513992123E+04  0.25500000920E-02 0. -1.
        2   -1    0    0  501    0  0.00000000000E+00  0.00000000000E+00 -0.99732626595E+03  0.99732626595E+03  0.25500000920E-02 0.  1.
    10030    2    1    2    0    0  0.00000000000E+00  0.00000000000E+00  0.35407294640E+03  0.23487254783E+04  0.23218836579E+04 0.  0.
        5    1    3    3  502    0 -0.36051026608E+03  0.58972081503E+03 -0.76649807558E+03  0.10321238693E+04  0.46999998093E+01 0.  1.
       -5    1    3    3    0  502  0.36051026608E+03 -0.58972081503E+03  0.11205710220E+04  0.13166016090E+04  0.46999998093E+01 0. -1.
</event>
<event>
 5   0  0.3885219E-05  0.2306882E+04  0.7818609E-02  0.8475213E-01
       -1   -1    0    0    0  501  0.00000000000E+00  0.00000000000E+00  0.14122420301E+04  0.14122420301E+04  0.50400001928E-02 0. -1.
        1   -1    0    0  501    0  0.00000000000E+00  0.00000000000E+00 -0.94206647704E+03  0.94206647705E+03  0.50400001928E-02 0.  1.
    10030    2    1    2    0    0  0.00000000000E+00  0.00000000000E+00  0.47017555310E+03  0.23543085072E+04  0.23068817690E+04 0.  0.
        2    1    3    3  502    0  0.11354989242E+04  0.17363243414E+03  0.34173419425E+03  0.11984524557E+04  0.25500000920E-02 0. -1.
       -2    1    3    3    0  502 -0.11354989242E+04 -0.17363243414E+03  0.12844135885E+03  0.11558560515E+04  0.25500000920E-02 0.  1.
</event>
<event>
 5   0  0.3885219E-05  0.2298355E+04  0.7818609E-02  0.8478570E-01
       -1   -1    0    0    0  501  0.00000000000E+00  0.00000000000E+00  0.11621302355E+04  0.11621302355E+04  0.50400001928E-02 0. -1.
        1   -1    0    0  501    0  0.00000000000E+00  0.00000000000E+00 -0.11363694380E+04  0.11363694380E+04  0.50400001928E-02 0.  1.
    10030    2    1    2    0    0  0.00000000000E+00  0.00000000000E+00  0.25760797535E+02  0.22984996735E+04  0.22983553098E+04 0.  0.
        2    1    3    3  502    0  0.83995346413E+02 -0.97458377720E+03 -0.59026653303E+03  0.11424899724E+04  0.25500000920E-02 0.  1.
       -2    1    3    3    0  502 -0.83995346413E+02  0.97458377720E+03  0.61602733056E+03  0.11560097011E+04  0.25500000920E-02 0. -1.
</event>
<event>
 5   0  0.4139830E-05  0.2311654E+04  0.7818609E-02  0.8473340E-01
       -1   -1    0    0    0  501  0.00000000000E+00  0.00000000000E+00  0.18434421017E+04  0.18434421017E+04  0.50400001928E-02 0. -1.
        1   -1    0    0  501    0  0.00000000000E+00  0.00000000000E+00 -0.72469624765E+03  0.72469624767E+03  0.50400001928E-02 0.  1.
    10030    2    1    2    0    0  0.00000000000E+00  0.00000000000E+00  0.11187458540E+04  0.25681383494E+04  0.23116535847E+04 0.  0.
        1    1    3    3  502    0  0.38664057610E+03 -0.99471477618E+03  0.10524497791E+04  0.14988658908E+04  0.50400001928E-02 0. -1.
       -1    1    3    3    0  502 -0.38664057610E+03  0.99471477618E+03  0.66296074913E+02  0.10692724586E+04  0.50400001928E-02 0.  1.
</event>
<event>
 5   0  0.4295775E-05  0.2318855E+04  0.7818609E-02  0.8470524E-01
       -1   -1    0    0    0  501  0.00000000000E+00  0.00000000000E+00  0.13189296246E+04  0.13189296246E+04  0.50400001928E-02 0. -1.
        1   -1    0    0  501    0  0.00000000000E+00  0.00000000000E+00 -0.10192140248E+04  0.10192140248E+04  0.50400001928E-02 0.  1.
    10030    2    1    2    0    0  0.00000000000E+00  0.00000000000E+00  0.29971559980E+03  0.23381436494E+04  0.23188545199E+04 0.  0.
        5    1    3    3  502    0 -0.87213138696E+03 -0.70002249383E+03 -0.15863627244E+03  0.11295274255E+04  0.46999998093E+01 0. -1.
       -5    1    3    3    0  502  0.87213138696E+03  0.70002249383E+03  0.45835187224E+03  0.12086162239E+04  0.46999998093E+01 0.  1.
</event>
<event>
 5   0  0.4095451E-05  0.2291926E+04  0.7818609E-02  0.8481111E-01
       -1   -1    0    0    0  501  0.00000000000E+00  0.00000000000E+00  0.10862586009E+04  0.10862586009E+04  0.50400001928E-02 0. -1.
        1   -1    0    0  501    0  0.00000000000E+00  0.00000000000E+00 -0.12089492257E+04  0.12089492257E+04  0.50400001928E-02 0.  1.
    10030    2    1    2    0    0  0.00000000000E+00  0.00000000000E+00 -0.12269062489E+03  0.22952078266E+04  0.22919262593E+04 0.  0.
        3    1    3    3  502    0  0.39689951113E+03 -0.32165920975E+03  0.96590974267E+03  0.10926918643E+04  0.10100000352E+00 0. -1.
       -3    1    3    3    0  502 -0.39689951113E+03  0.32165920975E+03 -0.10886003676E+04  0.12025159623E+04  0.10100000352E+00 0.  1.
</event>
<event>
 5   0  0.9313463E-05  0.2305203E+04  0.7818609E-02  0.8475872E-01
       -2   -1    0    0    0  501  0.00000000000E+00  0.00000000000E+00  0.55830115919E+03  0.55830115920E+03  0.25500000920E-02 0. -1.
        2   -1    0    0  501    0  0.00000000000E+00  0.00000000000E+00 -0.23795233145E+04  0.23795233145E+04  0.25500000920E-02 0.  1.
    10030    2    1    2    0    0  0.00000000000E+00  0.00000000000E+00 -0.18212221553E+04  0.29378244737E+04  0.23052033531E+04 0.  0.
        1    1    3    3  502    0  0.52753422880E+03 -0.10167026611E+04 -0.74683810579E+03  0.13673857612E+04  0.50400001928E-02 0. -1.
       -1    1    3    3    0  502 -0.52753422880E+03  0.10167026611E+04 -0.10743840495E+04  0.15704387125E+04  0.50400001928E-02 0.  1.
</event>
<event>
 5   0  0.4295775E-05  0.2099989E+04  0.7818609E-02  0.8561248E-01
        1   -1    0    0  501    0  0.00000000000E+00  0.00000000000E+00  0.16788687000E+04  0.16788687001E+04  0.50400001928E-02 0. -1.
       -1   -1    0    0    0  501  0.00000000000E+00  0.00000000000E+00 -0.65668547196E+03  0.65668547198E+03  0.50400001928E-02 0.  1.
    10030    2    1    2    0    0  0.00000000000E+00  0.00000000000E+00  0.10221832281E+04  0.23355541720E+04  0.20999892235E+04 0.  0.
        5    1    3    3  502    0  0.74970901771E+03  0.51669491459E+03  0.10926528393E+04  0.14223043146E+04  0.46999998093E+01 0.  1.
       -5    1    3    3    0  502 -0.74970901771E+03 -0.51669491459E+03 -0.70469611258E+02  0.91324985744E+03  0.46999998093E+01 0. -1.
</event>
<event>
 5   0  0.4139830E-05  0.2503542E+04  0.7818609E-02  0.8401725E-01
       -1   -1    0    0    0  501  0.00000000000E+00  0.00000000000E+00  0.10860413256E+04  0.10860413256E+04  0.50400001928E-02 0. -1.
        1   -1    0    0  501    0  0.00000000000E+00  0.00000000000E+00 -0.14427907262E+04  0.14427907262E+04  0.50400001928E-02 0.  1.
    10030    2    1    2    0    0  0.00000000000E+00  0.00000000000E+00 -0.35674940064E+03  0.25288320518E+04  0.25035417735E+04 0.  0.
        1    1    3    3  502    0 -0.53328200965E+03 -0.34382898979E+03 -0.12683125854E+04  0.14181766076E+04  0.50400001928E-02 0.  1.
       -1    1    3    3    0  502  0.53328200965E+03  0.34382898979E+03  0.91156318473E+03  0.11106554442E+04  0.50400001928E-02 0. -1.
</event>
<event>
 5   0  0.4139830E-05  0.2271877E+04  0.7818609E-02  0.8489093E-01
        1   -1    0    0  501    0  0.00000000000E+00  0.00000000000E+00  0.14879906234E+04  0.14879906234E+04  0.50400001928E-02 0. -1.
       -1   -1    0    0    0  501  0.00000000000E+00  0.00000000000E+00 -0.86718054110E+03  0.86718054112E+03  0.50400001928E-02 0.  1.
    10030    2    1    2    0    0  0.00000000000E+00  0.00000000000E+00  0.62081008233E+03  0.23551711646E+04  0.22718772097E+04 0.  0.
        1    1    3    3  502    0 -0.10577948822E+02  0.12255635731E+03  0.14810655140E+04  0.14861652029E+04  0.50400001928E-02 0. -1.
       -1    1    3    3    0  502  0.10577948822E+02 -0.12255635731E+03 -0.86025543162E+03  0.86900596164E+03  0.50400001928E-02 0.  1.
</event>
<event>
 5   0  0.4005462E-05  0.2163804E+04  0.7818609E-02  0.8533647E-01
       -1   -1    0    0    0  501  0.00000000000E+00  0.00000000000E+00  0.11432626167E+04  0.11432626167E+04  0.50400001928E-02 0. -1.
        1   -1    0    0  501    0  0.00000000000E+00  0.00000000000E+00 -0.10238346212E+04  0.10238346212E+04  0.50400001928E-02 0.  1.
    10030    2    1    2    0    0  0.00000000000E+00  0.00000000000E+00  0.11942799549E+03  0.21670972380E+04  0.21638039173E+04 0.  0.
        4    1    3    3  502    0 -0.15357742585E+03 -0.98013163400E+03  0.49195654222E+03  0.11073693594E+04  0.12699999809E+01 0. -1.
       -4    1    3    3    0  502  0.15357742585E+03  0.98013163400E+03 -0.37252854672E+03  0.10597278786E+04  0.12699999809E+01 0.  1.
</event>
<event>
 5   0  0.4095451E-05  0.2305619E+04  0.7818609E-02  0.8475709E-01
        1   -1    0    0  501    0  0.00000000000E+00  0.00000000000E+00  0.25389689740E+04  0.25389689740E+04  0.50400001928E-02 0. -1.
       -1   -1    0    0    0  501  0.00000000000E+00  0.00000000000E+00 -0.52342883519E+03  0.52342883521E+03  0.50400001928E-02 0.  1.
    10030    2    1    2    0    0  0.00000000000E+00  0.00000000000E+00  0.20155401388E+04  0.30623978092E+04  0.23056188520E+04 0.  0.
        3    1    3    3  502    0 -0.47401239550E+03 -0.84460924054E+03  0.18382256214E+04  0.20777694689E+04  0.10100000352E+00 0. -1.
       -3    1    3    3    0  502  0.47401239550E+03  0.84460924054E+03  0.17731451737E+03  0.98462834032E+03  0.10100000352E+00 0.  1.
</event>
<event>
 5   0  0.9313463E-05  0.1674541E+04  0.7818609E-02  0.8776019E-01
       -2   -1    0    0    0  501  0.00000000000E+00  0.00000000000E+00  0.75048286199E+03  0.75048286199E+03  0.25500000920E-02 0. -1.
        2   -1    0    0  501    0  0.00000000000E+00  0.00000000000E+00 -0.93409487488E+03  0.93409487488E+03  0.25500000920E-02 0.  1.
    10030    2    1    2    0    0  0.00000000000E+00  0.00000000000E+00 -0.18361201289E+03  0.16845777369E+04  0.16745413642E+04 0.  0.
        1    1    3    3  502    0  0.64231355441E+03  0.45997697475E+03  0.18712222567E+03  0.81188684363E+03  0.50400001928E-02 0.  1.
       -1    1    3    3    0  502 -0.64231355441E+03 -0.45997697475E+03 -0.37073423857E+03  0.87269089325E+03  0.50400001928E-02 0. -1.
</event>
<event>
 5   0  0.9641157E-05  0.2299915E+04  0.7818609E-02  0.8477955E-01
        2   -1    0    0  501    0  0.00000000000E+00  0.00000000000E+00  0.15207772756E+04  0.15207772756E+04  0.25500000920E-02 0.  1.
       -2   -1    0    0    0  501  0.00000000000E+00  0.00000000000E+00 -0.86955691674E+03  0.86955691674E+03  0.25500000920E-02 0. -1.
    10030    2    1    2    0    0  0.00000000000E+00  0.00000000000E+00  0.65122035886E+03  0.23903341923E+04  0.22999151278E+04 0.  0.
        3    1    3    3  502    0  0.51113641750E+03  0.78249139442E+03  0.10219111920E+04  0.13848666774E+04  0.10100000352E+00 0.  1.
       -3    1    3    3    0  502 -0.51113641750E+03 -0.78249139442E+03 -0.37069083313E+03  0.10054675149E+04  0.10100000352E+00 0. -1.
</event>
<event>
 5   0  0.4095451E-05  0.2307298E+04  0.7818609E-02  0.8475049E-01
       -1   -1    0    0    0  501  0.00000000000E+00  0.00000000000E+00  0.10686855809E+04  0.10686855809E+04  0.50400001928E-02 0.  1.
        1   -1    0    0  501    0  0.00000000000E+00  0.00000000000E+00 -0.12453668363E+04  0.12453668363E+04  0.50400001928E-02 0. -1.
    10030    2    1    2    0    0  0.00000000000E+00  0.00000000000E+00 -0.17668125540E+03  0.23140524172E+04  0.23072976235E+04 0.  0.
        3    1    3    3  502    0  0.50714036012E+03 -0.49144520755E+03  0.82657773074E+03  0.10871708661E+04  0.10100000352E+00 0.  1.
       -3    1    3    3    0  502 -0.50714036012E+03  0.49144520755E+03 -0.10032589861E+04  0.12268815511E+04  0.10100000352E+00 0. -1.
</event>
<event>
 5   0  0.3261500E-05  0.1982363E+04  0.7818609E-02  0.8614911E-01
        4   -1    0    0  501    0  0.00000000000E+00  0.00000000000E+00  0.87213809373E+03  0.87213901841E+03  0.12699999809E+01 0. -1.
       -4   -1    0    0    0  501  0.00000000000E+00  0.00000000000E+00 -0.11264719471E+04  0.11264726630E+04  0.12699999809E+01 0.  1.
    10030    2    1    2    0    0  0.00000000000E+00  0.00000000000E+00 -0.25433385335E+03  0.19986116814E+04  0.19823629698E+04 0.  0.
        5    1    3    3  502    0 -0.89657372238E+03 -0.34187189068E+03 -0.37759334545E+03  0.10311739203E+04  0.46999998093E+01 0.  1.
       -5    1    3    3    0  502  0.89657372238E+03  0.34187189068E+03  0.12325949210E+03  0.96743776114E+03  0.46999998093E+01 0. -1.
</event>
<event>
 5   0  0.4005462E-05  0.2278898E+04  0.7818609E-02  0.8486288E-01
        1   -1    0    0  501    0  0.00000000000E+00  0.00000000000E+00  0.20342426948E+04  0.20342426948E+04  0.50400001928E-02 0.  1.
       -1   -1    0    0    0  501  0.00000000000E+00  0.00000000000E+00 -0.63824438816E+03  0.63824438818E+03  0.50400001928E-02 0. -1.
    10030    2    1    2    0    0  0.00000000000E+00  0.00000000000E+00  0.13959983066E+04  0.26724870830E+04  0.22788979654E+04 0.  0.
        4    1    3    3  502    0 -0.76071654299E+03 -0.75723896540E+03  0.24953618436E+03  0.11019847684E+04  0.12699999809E+01 0. -1.
       -4    1    3    3    0  502  0.76071654299E+03  0.75723896540E+03  0.11464621223E+04  0.15705023146E+04  0.12699999809E+01 0.  1.
</event>
<event>
 5   0  0.3885219E-05  0.2351570E+04  0.7818609E-02  0.8457861E-01
       -1   -1    0    0    0  501  0.00000000000E+00  0.00000000000E+00  0.24926192255E+04  0.24926192255E+04  0.50400001928E-02 0. -1.
        1   -1    0    0  501    0  0.00000000000E+00  0.00000000000E+00 -0.55462561582E+03  0.55462561584E+03  0.50400001928E-02 0.  1.
    10030    2    1    2    0    0  0.00000000000E+00  0.00000000000E+00  0.19379936097E+04  0.30472448413E+04  0.23515700908E+04 0.  0.
        2    1    3    3  502    0 -0.50213279977E+03 -0.75521879976E+03  0.19386909749E+04  0.21403306941E+04  0.25500000920E-02 0.  1.
       -2    1    3    3    0  502  0.50213279977E+03  0.75521879976E+03 -0.69736519868E+00  0.90691414722E+03  0.25500000920E-02 0. -1.
</event>
<event>
 5   0  0.4139830E-05  0.2309475E+04  0.7818609E-02  0.8474194E-01
       -1   -1    0    0    0  501  0.00000000000E+00  0.00000000000E+00  0.85016048350E+03  0.85016048352E+03  0.50400001928E-02 0. -1.
        1   -1    0    0  501    0  0.00000000000E+00  0.00000000000E+00 -0.15684324221E+04  0.15684324221E+04  0.50400001928E-02 0.  1.
    10030    2    1    2    0    0  0.00000000000E+00  0.00000000000E+00 -0.71827193864E+03  0.24185929057E+04  0.23094754958E+04 0.  0.
        1    1    3    3  502    0  0.87020796191E+03  0.37176593721E+02 -0.11530956588E+04  0.14450860163E+04  0.50400001928E-02 0.  1.
       -1    1    3    3    0  502 -0.87020796191E+03 -0.37176593721E+02  0.43482372014E+03  0.97350688940E+03  0.50400001928E-02 0. -1.
</event>
<event>
 5   0  0.4295775E-05  0.2351578E+04  0.7818609E-02  0.8457858E-01
        1   -1    0    0  501    0  0.00000000000E+00  0.00000000000E+00  0.15519400350E+04  0.15519400350E+04  0.50400001928E-02 0. -1.
       -1   -1    0    0    0  501  0.00000000000E+00  0.00000000000E+00 -0.89080774575E+03  0.89080774577E+03  0.50400001928E-02 0.  1.
    10030    2    1    2    0    0  0.00000000000E+00  0.00000000000E+00  0.66113228920E+03  0.24427477807E+04  0.23515783671E+04 0.  0.
        5    1    3    3  502    0  0.17737978196E+03  0.10903062535E+04 -0.87823062322E+02  0.11081364058E+04  0.46999998093E+01 0.  1.
       -5    1    3    3    0  502 -0.17737978196E+03 -0.10903062535E+04  0.74895535153E+03  0.13346113749E+04  0.46999998093E+01 0. -1.
</event>
<event>
 5   0  0.9483073E-05  0.2275628E+04  0.7818609E-02  0.8487593E-01
        2   -1    0    0  501    0  0.00000000000E+00  0.00000000000E+00  0.14008336165E+04  0.14008336166E+04  0.25500000920E-02 0.  1.
       -2   -1    0    0    0  501  0.00000000000E+00  0.00000000000E+00 -0.92417876145E+03  0.92417876145E+03  0.25500000920E-02 0. -1.
    10030    2    1    2    0    0  0.00000000000E+00  0.00000000000E+00  0.47665485510E+03  0.23250123780E+04  0.22756279808E+04 0.  0.
        5    1    3    3  502    0  0.98123945963E+02  0.11287079975E+03  0.13907371111E+04  0.13987637143E+04  0.46999998093E+01 0.  1.
       -5    1    3    3    0  502 -0.98123945963E+02 -0.11287079975E+03 -0.91408225602E+03  0.92624866369E+03  0.46999998093E+01 0. -1.
</event>
<event>
 5   0  0.9312074E-05  0.2307229E+04  0.7818609E-02  0.8475076E-01
        2   -1    0    0  501    0  0.00000000000E+00  0.00000000000E+00  0.14407620567E+04  0.14407620567E+04  0.25500000920E-02 0. -1.
       -2   -1    0    0    0  501  0.00000000000E+00  0.00000000000E+00 -0.92369597159E+03  0.92369597159E+03  0.25500000920E-02 0.  1.
    10030    2    1    2    0    0  0.00000000000E+00  0.00000000000E+00  0.51706608510E+03  0.23644580283E+04  0.23072287340E+04 0.  0.
        4    1    3    3  502    0 -0.61147787164E+03 -0.19230759273E+03  0.12414572335E+04  0.13971775382E+04  0.12699999809E+01 0. -1.
       -4    1    3    3    0  502  0.61147787164E+03  0.19230759273E+03 -0.72439114840E+03  0.96728049009E+03  0.12699999809E+01 0.  1.
</event>
<event>
 5   0  0.4295775E-05  0.2315738E+04  0.7818609E-02  0.8471742E-01
        1   -1    0    0  501    0  0.00000000000E+00  0.00000000000E+00  0.12712459302E+04  0.12712459302E+04  0.50400001928E-02 0.  1.
       -1   -1    0    0    0  501  0.00000000000E+00  0.00000000000E+00 -0.10546036033E+04  0.10546036033E+04  0.50400001928E-02 0. -1.
    10030    2    1    2    0    0  0.00000000000E+00  0.00000000000E+00  0.21664232689E+03  0.23258495336E+04  0.23157379288E+04 0.  0.
        5    1    3    3  502    0  0.10642714667E+02 -0.86614369724E+03 -0.66335672664E+03  0.10910464740E+04  0.46999998093E+01 0. -1.
       -5    1    3    3    0  502 -0.10642714667E+02  0.86614369724E+03  0.87999905354E+03  0.12348030596E+04  0.46999998093E+01 0.  1.
</event>
<event>
 5   0  0.3261500E-05  0.2287282E+04  0.7818609E-02  0.8482952E-01
        3   -1    0    0  501    0  0.00000000000E+00  0.00000000000E+00  0.62230780655E+03  0.62230781475E+03  0.10100000352E+00 0. -1.
       -3   -1    0    0    0  501  0.00000000000E+00  0.00000000000E+00 -0.21017173232E+04  0.21017173256E+04  0.10100000352E+00 0.  1.
    10030    2    1    2    0    0  0.00000000000E+00  0.00000000000E+00 -0.14794095166E+04  0.27240251404E+04  0.22872823279E+04 0.  0.
        4    1    3    3  502    0  0.76883688017E+03 -0.39630022852E+03 -0.16307262636E+04  0.18459235573E+04  0.12699999809E+01 0.  1.
       -4    1    3    3    0  502 -0.76883688017E+03  0.39630022852E+03  0.15131674700E+03  0.87810158311E+03  0.12699999809E+01 0. -1.
</event>
<event>
 5   0  0.9313463E-05  0.2325675E+04  0.7818609E-02  0.8467866E-01
        2   -1    0    0  501    0  0.00000000000E+00  0.00000000000E+00  0.17582791687E+04  0.17582791687E+04  0.25500000920E-02 0. -1.
       -2   -1    0    0    0  501  0.00000000000E+00  0.00000000000E+00 -0.76904245518E+03  0.76904245518E+03  0.25500000920E-02 0.  1.
    10030    2    1    2    0    0  0.00000000000E+00  0.00000000000E+00  0.98923671357E+03  0.25273216239E+04  0.23256752386E+04 0.  0.
        1    1    3    3  502    0 -0.28070064681E+03  0.87779592699E+03 -0.27600206020E+03  0.96202686024E+03  0.50400001928E-02 0.  1.
       -1    1    3    3    0  502  0.28070064681E+03 -0.87779592699E+03  0.12652387738E+04  0.15652947637E+04  0.50400001928E-02 0. -1.
</event>
<event>
 5   0  0.9312074E-05  0.2301575E+04  0.7818609E-02  0.8477300E-01
        2   -1    0    0  501    0  0.00000000000E+00  0.00000000000E+00  0.11600598058E+04  0.11600598059E+04  0.25500000920E-02 0. -1.
       -2   -1    0    0    0  501  0.00000000000E+00  0.00000000000E+00 -0.11415895604E+04  0.11415895605E+04  0.25500000920E-02 0.  1.
    10030    2    1    2    0    0  0.00000000000E+00  0.00000000000E+00  0.18470245400E+02  0.23016493663E+04  0.23015752552E+04 0.  0.
        4    1    3    3  502    0 -0.85960083583E+03  0.69974350472E+03 -0.30021947561E+03  0.11483413760E+04  0.12699999809E+01 0. -1.
       -4    1    3    3    0  502  0.85960083583E+03 -0.69974350472E+03  0.31868972101E+03  0.11533079903E+04  0.12699999809E+01 0.  1.
</event>
<event>
 5   0  0.9312074E-05  0.2313492E+04  0.7818609E-02  0.8472620E-01
       -2   -1    0    0    0  501  0.00000000000E+00  0.00000000000E+00  0.10784980943E+04  0.10784980943E+04  0.25500000920E-02 0. -1.
        2   -1    0    0  501    0  0.00000000000E+00  0.00000000000E+00 -0.12406710990E+04  0.12406710990E+04  0.25500000920E-02 0.  1.
    10030    2    1    2    0    0  0.00000000000E+00  0.00000000000E+00 -0.16217300468E+03  0.23191691934E+04  0.23134920929E+04 0.  0.
        4    1    3    3  502    0 -0.60620274891E+03 -0.95175853421E+03  0.17396606891E+03  0.11417494849E+04  0.12699999809E+01 0. -1.
       -4    1    3    3    0  502  0.60620274891E+03  0.95175853421E+03 -0.33613907359E+03  0.11774197085E+04  0.12699999809E+01 0.  1.
</event>
<event>
 5   0  0.4005462E-05  0.2301635E+04  0.7818609E-02  0.8477277E-01
       -1   -1    0    0    0  501  0.00000000000E+00  0.00000000000E+00  0.21149215042E+04  0.21149215042E+04  0.50400001928E-02 0.  1.
        1   -1    0    0  501    0  0.00000000000E+00  0.00000000000E+00 -0.62620784095E+03  0.62620784097E+03  0.50400001928E-02 0. -1.
    10030    2    1    2    0    0  0.00000000000E+00  0.00000000000E+00  0.14887136633E+04  0.27411293452E+04  0.23016345748E+04 0.  0.
        4    1    3    3  502    0  0.11507525020E+03  0.49780287304E+03  0.19724376415E+04  0.20375381901E+04  0.12699999809E+01 0.  1.
       -4    1    3    3    0  502 -0.11507525020E+03 -0.49780287304E+03 -0.48372397818E+03  0.70359115513E+03  0.12699999809E+01 0. -1.
</event>
<event>
 5   0  0.4095451E-05  0.1721032E+04  0.7818609E-02  0.8749459E-01
       -1   -1    0    0    0  501  0.00000000000E+00  0.00000000000E+00  0.35597740000E+03  0.35597740004E+03  0.50400001928E-02 0. -1.
        1   -1    0    0  501    0  0.00000000000E+00  0.00000000000E+00 -0.20801543360E+04  0.20801543360E+04  0.50400001928E-02 0.  1.
    10030    2    1    2    0    0  0.00000000000E+00  0.00000000000E+00 -0.17241769360E+04  0.24361317361E+04  0.17210321696E+04 0.  0.
        3    1    3    3  502    0 -0.27782294257E+03 -0.23488400937E+03  0.24176302972E+03  0.43681284095E+03  0.10100000352E+00 0. -1.
       -3    1    3    3    0  502  0.27782294257E+03  0.23488400937E+03 -0.19659399657E+04  0.19993188951E+04  0.10100000352E+00 0.  1.
</event>
<event>
 5   0  0.4095451E-05  0.2327361E+04  0.7818609E-02  0.8467211E-01
       -1   -1    0    0    0  501  0.00000000000E+00  0.00000000000E+00  0.58101598872E+03  0.58101598874E+03  0.50400001928E-02 0.  1.
        1   -1    0    0  501    0  0.00000000000E+00  0.00000000000E+00 -0.23306617634E+04  0.23306617634E+04  0.50400001928E-02 0. -1.
    10030    2    1    2    0    0  0.00000000000E+00  0.00000000000E+00 -0.17496457747E+04  0.29116777522E+04  0.23273605212E+04 0.  0.
        3    1    3    3  502    0 -0.32254456702E+03  0.14455830998E+03 -0.22618801464E+04  0.22893304501E+04  0.10100000352E+00 0. -1.
       -3    1    3    3    0  502  0.32254456702E+03 -0.14455830998E+03  0.51223437169E+03  0.62234730211E+03  0.10100000352E+00 0.  1.
</event>
<event>
 5   0  0.9312074E-05  0.2255504E+04  0.7818609E-02  0.8495675E-01
        2   -1    0    0  501    0  0.00000000000E+00  0.00000000000E+00  0.14643892302E+04  0.14643892302E+04  0.25500000920E-02 0. -1.
       -2   -1    0    0    0  501  0.00000000000E+00  0.00000000000E+00 -0.86850203955E+03  0.86850203955E+03  0.25500000920E-02 0.  1.
    10030    2    1    2    0    0  0.00000000000E+00  0.00000000000E+00  0.59588719065E+03  0.23328912697E+04  0.22555044076E+04 0.  0.
        4    1    3    3  502    0 -0.10964542382E+04 -0.26382981792E+03  0.30033617806E+03  0.11670567690E+04  0.12699999809E+01 0.  1.
       -4    1    3    3    0  502  0.10964542382E+04  0.26382981792E+03  0.29555101259E+03  0.11658345008E+04  0.12699999809E+01 0. -1.
</event>
<event>
 5   0  0.4005462E-05  0.2326743E+04  0.7818609E-02  0.8467451E-01
       -1   -1    0    0    0  501  0.00000000000E+00  0.00000000000E+00  0.11108207345E+04  0.11108207345E+04  0.50400001928E-02 0. -1.
        1   -1    0    0  501    0  0.00000000000E+00  0.00000000000E+00 -0.12184086573E+04  0.12184086573E+04  0.50400001928E-02 0.  1.
    10030    2    1    2    0    0  0.00000000000E+00  0.00000000000E+00 -0.10758792280E+03  0.23292293918E+04  0.23267433031E+04 0.  0.
        4    1    3    3  502    0  0.72039536777E+03  0.49936937137E+03 -0.81952480481E+03  0.11999840722E+04  0.12699999809E+01 0.  1.
       -4    1    3    3    0  502 -0.72039536777E+03 -0.49936937137E+03  0.71193688200E+03  0.11292453196E+04  0.12699999809E+01 0. -1.
</event>
<event>
 5   0  0.9313463E-05  0.2095708E+04  0.7818609E-02  0.8563136E-01
       -2   -1    0    0    0  501  0.00000000000E+00  0.00000000000E+00  0.14321930346E+04  0.14321930346E+04  0.25500000920E-02 0. -1.
        2   -1    0    0  501    0  0.00000000000E+00  0.00000000000E+00 -0.76665525460E+03  0.76665525461E+03  0.25500000920E-02 0.  1.
    10030    2    1    2    0    0  0.00000000000E+00  0.00000000000E+00  0.66553777996E+03  0.21988482892E+04  0.20957082961E+04 0.  0.
        1    1    3    3  502    0  0.98837863857E+03  0.24937144527E+03  0.78088618787E+02  0.10223386344E+04  0.50400001928E-02 0.  1.
       -1    1    3    3    0  502 -0.98837863857E+03 -0.24937144527E+03  0.58744916117E+03  0.11765096548E+04  0.50400001928E-02 0. -1.
</event>
<event>
 5   0  0.4295775E-05  0.2270287E+04  0.7818609E-02  0.8489730E-01
        1   -1    0    0  501    0  0.00000000000E+00  0.00000000000E+00  0.18071629471E+04  0.18071629471E+04  0.50400001928E-02 0. -1.
       -1   -1    0    0    0  501  0.00000000000E+00  0.00000000000E+00 -0.71302404140E+03  0.71302404141E+03  0.50400001928E-02 0.  1.
    10030    2    1    2    0    0  0.00000000000E+00  0.00000000000E+00  0.10941389057E+04  0.25201869885E+04  0.22702868788E+04 0.  0.
        5    1    3    3  502    0 -0.24305966707E+03 -0.11069448310E+04  0.47578507528E+03  0.12291453895E+04  0.46999998093E+01 0. -1.
       -5    1    3    3    0  502  0.24305966707E+03  0.11069448310E+04  0.61835383039E+03  0.12910415990E+04  0.46999998093E+01 0.  1.
</event>
<event>
 5   0  0.9641157E-05  0.2425941E+04  0.7818609E-02  0.8429855E-01
       -2   -1    0    0    0  501  0.00000000000E+00  0.00000000000E+00  0.13770095848E+04  0.13770095848E+04  0.25500000920E-02 0. -1.
        2   -1    0    0  501    0  0.00000000000E+00  0.00000000000E+00 -0.10684729455E+04  0.10684729455E+04  0.25500000920E-02 0.  1.
    10030    2    1    2    0    0  0.00000000000E+00  0.00000000000E+00  0.30853663934E+03  0.24454825303E+04  0.24259410438E+04 0.  0.
        3    1    3    3  502    0 -0.70352296267E+03  0.96681290584E+03 -0.51398966351E+02  0.11967930556E+04  0.10100000352E+00 0.  1.
       -3    1    3    3    0  502  0.70352296267E+03 -0.96681290584E+03  0.35993560569E+03  0.12486894747E+04  0.10100000352E+00 0. -1.
</event>
<event>
 5   0  0.9313463E-05  0.2226714E+04  0.7818609E-02  0.8507391E-01
        2   -1    0    0  501    0  0.00000000000E+00  0.00000000000E+00  0.68054882059E+03  0.68054882060E+03  0.25500000920E-02 0. -1.
       -2   -1    0    0    0  501  0.00000000000E+00  0.00000000000E+00 -0.18214184150E+04  0.18214184150E+04  0.25500000920E-02 0.  1.
    10030    2    1    2    0    0  0.00000000000E+00  0.00000000000E+00 -0.11408695944E+04  0.25019672356E+04  0.22267143096E+04 0.  0.
        1    1    3    3  502    0  0.62243799602E+02 -0.90302134985E+03 -0.12988298763E+04  0.15831237780E+04  0.50400001928E-02 0.  1.
       -1    1    3    3    0  502 -0.62243799602E+02  0.90302134985E+03  0.15796028190E+03  0.91884345759E+03  0.50400001928E-02 0. -1.
</event>
<event>
 5   0  0.4295775E-05  0.2266714E+04  0.7818609E-02  0.8491162E-01
       -1   -1    0    0    0  501  0.00000000000E+00  0.00000000000E+00  0.79751624315E+03  0.79751624316E+03  0.50400001928E-02 0. -1.
        1   -1    0    0  501    0  0.00000000000E+00  0.00000000000E+00 -0.16106232627E+04  0.16106232627E+04  0.50400001928E-02 0.  1.
    10030    2    1    2    0    0  0.00000000000E+00  0.00000000000E+00 -0.81310701951E+03  0.24081395058E+04  0.22667141095E+04 0.  0.
        5    1    3    3  502    0  0.81895691013E+03  0.10973518423E+03  0.41756703298E+03  0.92580589129E+03  0.46999998093E+01 0. -1.
       -5    1    3    3    0  502 -0.81895691013E+03 -0.10973518423E+03 -0.12306740525E+04  0.14823336145E+04  0.46999998093E+01 0.  1.
</event>
<event>
 5   0  0.3885219E-05  0.2315441E+04  0.7818609E-02  0.8471858E-01
        1   -1    0    0  501    0  0.00000000000E+00  0.00000000000E+00  0.12751943998E+04  0.12751943998E+04  0.50400001928E-02 0.  1.
       -1   -1    0    0    0  501  0.00000000000E+00  0.00000000000E+00 -0.10510688025E+04  0.10510688025E+04  0.50400001928E-02 0. -1.
    10030    2    1    2    0    0  0.00000000000E+00  0.00000000000E+00  0.22412559735E+03  0.23262632023E+04  0.23154412545E+04 0.  0.
        2    1    3    3  502    0 -0.40694001864E+02 -0.60597357402E+03  0.11022946513E+04  0.12585362421E+04  0.25500000920E-02 0.  1.
       -2    1    3    3    0  502  0.40694001864E+02  0.60597357402E+03 -0.87816905399E+03  0.10677269602E+04  0.25500000920E-02 0. -1.
</event>
<event>
 5   0  0.9535394E-05  0.2237510E+04  0.7818609E-02  0.8502976E-01
        2   -1    0    0  501    0  0.00000000000E+00  0.00000000000E+00  0.39833385308E+03  0.39833385309E+03  0.25500000920E-02 0.  1.
       -2   -1    0    0    0  501  0.00000000000E+00  0.00000000000E+00 -0.31421209146E+04  0.31421209146E+04  0.25500000920E-02 0. -1.
    10030    2    1    2    0    0  0.00000000000E+00  0.00000000000E+00 -0.27437870616E+04  0.35404547677E+04  0.22375103403E+04 0.  0.
        2    1    3    3  502    0 -0.60445544717E+03 -0.31196616300E+03  0.33543990190E+02  0.68103926007E+03  0.25500000920E-02 0.  1.
       -2    1    3    3    0  502  0.60445544717E+03  0.31196616300E+03 -0.27773310517E+04  0.28594155077E+04  0.25500000920E-02 0. -1.
</event>
<event>
 5   0  0.9535394E-05  0.1507651E+04  0.7818609E-02  0.8879381E-01
        2   -1    0    0  501    0  0.00000000000E+00  0.00000000000E+00  0.83002384694E+03  0.83002384694E+03  0.25500000920E-02 0.  1.
       -2   -1    0    0    0  501  0.00000000000E+00  0.00000000000E+00 -0.68462262341E+03  0.68462262341E+03  0.25500000920E-02 0. -1.
    10030    2    1    2    0    0  0.00000000000E+00  0.00000000000E+00  0.14540122353E+03  0.15146464704E+04  0.15076512907E+04 0.  0.
        2    1    3    3  502    0 -0.16430524950E+03 -0.43921954381E+03 -0.52024378254E+03  0.70040246713E+03  0.25500000920E-02 0. -1.
       -2    1    3    3    0  502  0.16430524950E+03  0.43921954381E+03  0.66564500607E+03  0.81424400323E+03  0.25500000920E-02 0.  1.
</event>
<event>
 5   0  0.4095451E-05  0.2296169E+04  0.7818609E-02  0.8479433E-01
        1   -1    0    0  501    0  0.00000000000E+00  0.00000000000E+00  0.20922354313E+04  0.20922354313E+04  0.50400001928E-02 0.  1.
       -1   -1    0    0    0  501  0.00000000000E+00  0.00000000000E+00 -0.62999495664E+03  0.62999495666E+03  0.50400001928E-02 0. -1.
    10030    2    1    2    0    0  0.00000000000E+00  0.00000000000E+00  0.14622404747E+04  0.27222303880E+04  0.22961687829E+04 0.  0.
        3    1    3    3  502    0  0.65265675024E+03 -0.94167617205E+03  0.81810230974E+03  0.14078374359E+04  0.10100000352E+00 0.  1.
       -3    1    3    3    0  502 -0.65265675024E+03  0.94167617205E+03  0.64413816493E+03  0.13143929520E+04  0.10100000352E+00 0. -1.
</event>
<event>
 5   0  0.3885219E-05  0.2188293E+04  0.7818609E-02  0.8523317E-01
       -1   -1    0    0    0  501  0.00000000000E+00  0.00000000000E+00  0.98703144479E+03  0.98703144480E+03  0.50400001928E-02 0. -1.
        1   -1    0    0  501    0  0.00000000000E+00  0.00000000000E+00 -0.12128861579E+04  0.12128861579E+04  0.50400001928E-02 0.  1.
    10030    2    1    2    0    0  0.00000000000E+00  0.00000000000E+00 -0.22585471313E+03  0.21999176027E+04  0.21882931950E+04 0.  0.
        2    1    3    3  502    0 -0.14837780328E+03 -0.19593384745E+02  0.97669224639E+03  0.98809291941E+03  0.25500000920E-02 0. -1.
       -2    1    3    3    0  502  0.14837780328E+03  0.19593384745E+02 -0.12025469595E+04  0.12118246833E+04  0.25500000920E-02 0.  1.
</event>
<event>
 5   0  0.9313463E-05  0.2349930E+04  0.7818609E-02  0.8458490E-01
       -2   -1    0    0    0  501  0.00000000000E+00  0.00000000000E+00  0.58236256882E+03  0.58236256882E+03  0.25500000920E-02 0.  1.
        2   -1    0    0  501    0  0.00000000000E+00  0.00000000000E+00 -0.23705906626E+04  0.23705906626E+04  0.25500000920E-02 0. -1.
    10030    2    1    2    0    0  0.00000000000E+00  0.00000000000E+00 -0.17882280937E+04  0.29529532314E+04  0.23499304397E+04 0.  0.
        1    1    3    3  502    0  0.99333584978E+03 -0.43769174058E+03 -0.32898301862E+03  0.11342486486E+04  0.50400001928E-02 0.  1.
       -1    1    3    3    0  502 -0.99333584978E+03  0.43769174058E+03 -0.14592450751E+04  0.18187045828E+04  0.50400001928E-02 0. -1.
</event>
<event>
 5   0  0.4005462E-05  0.2278197E+04  0.7818609E-02  0.8486568E-01
        1   -1    0    0  501    0  0.00000000000E+00  0.00000000000E+00  0.17700700520E+04  0.17700700520E+04  0.50400001928E-02 0.  1.
       -1   -1    0    0    0  501  0.00000000000E+00  0.00000000000E+00 -0.73304757790E+03  0.73304757792E+03  0.50400001928E-02 0. -1.
    10030    2    1    2    0    0  0.00000000000E+00  0.00000000000E+00  0.10370224741E+04  0.25031176300E+04  0.22781971507E+04 0.  0.
        4    1    3    3  502    0  0.22109760196E+03 -0.76721951593E+03 -0.37412212374E+03  0.88174764620E+03  0.12699999809E+01 0. -1.
       -4    1    3    3    0  502 -0.22109760196E+03  0.76721951593E+03  0.14111445979E+04  0.16213699838E+04  0.12699999809E+01 0.  1.
</event>
<event>
 5   0  0.9313463E-05  0.2288519E+04  0.7818609E-02  0.8482462E-01
        2   -1    0    0  501    0  0.00000000000E+00  0.00000000000E+00  0.13267571766E+04  0.13267571766E+04  0.25500000920E-02 0. -1.
       -2   -1    0    0    0  501  0.00000000000E+00  0.00000000000E+00 -0.98686488027E+03  0.98686488027E+03  0.25500000920E-02 0.  1.
    10030    2    1    2    0    0  0.00000000000E+00  0.00000000000E+00  0.33989229637E+03  0.23136220569E+04  0.22885192263E+04 0.  0.
        1    1    3    3  502    0  0.35418251246E+03 -0.10504388352E+04 -0.11682544747E+03  0.11146816513E+04  0.50400001928E-02 0. -1.
       -1    1    3    3    0  502 -0.35418251246E+03  0.10504388352E+04  0.45671774385E+03  0.11989404056E+04  0.50400001928E-02 0.  1.
</event>
<event>
 5   0  0.4139830E-05  0.2284460E+04  0.7818609E-02  0.8484074E-01
       -1   -1    0    0    0  501  0.00000000000E+00  0.00000000000E+00  0.71466052007E+03  0.71466052008E+03  0.50400001928E-02 0.  1.
        1   -1    0    0  501    0  0.00000000000E+00  0.00000000000E+00 -0.18256074382E+04  0.18256074382E+04  0.50400001928E-02 0. -1.
    10030    2    1    2    0    0  0.00000000000E+00  0.00000000000E+00 -0.11109469181E+04  0.25402679583E+04  0.22844601649E+04 0.  0.
        1    1    3    3  502    0 -0.91189848855E+02 -0.78332221988E+03  0.36335919936E+03  0.86829672145E+03  0.50400001928E-02 0.  1.
       -1    1    3    3    0  502  0.91189848855E+02  0.78332221988E+03 -0.14743061175E+04  0.16719712368E+04  0.50400001928E-02 0. -1.
</event>
<event>
 5   0  0.9312074E-05  0.2042121E+04  0.7818609E-02  0.8587177E-01
        2   -1    0    0  501    0  0.00000000000E+00  0.00000000000E+00  0.92203538919E+03  0.92203538920E+03  0.25500000920E-02 0. -1.
       -2   -1    0    0    0  501  0.00000000000E+00  0.00000000000E+00 -0.11307208740E+04  0.11307208740E+04  0.25500000920E-02 0.  1.
    10030    2    1    2    0    0  0.00000000000E+00  0.00000000000E+00 -0.20868548483E+03  0.20527562632E+04  0.20421211141E+04 0.  0.
        4    1    3    3  502    0 -0.68276806944E+03  0.32339585472E+03 -0.79480125615E+03  0.10965709121E+04  0.12699999809E+01 0.  1.
       -4    1    3    3    0  502  0.68276806944E+03 -0.32339585472E+03  0.58611577132E+03  0.95618535117E+03  0.12699999809E+01 0. -1.
</event>
<event>
 5   0  0.3261500E-05  0.2321497E+04  0.7818609E-02  0.8469493E-01
       -3   -1    0    0    0  501  0.00000000000E+00  0.00000000000E+00  0.19403659571E+04  0.19403659598E+04  0.10100000352E+00 0. -1.
        3   -1    0    0  501    0  0.00000000000E+00  0.00000000000E+00 -0.69437282452E+03  0.69437283187E+03  0.10100000352E+00 0.  1.
    10030    2    1    2    0    0  0.00000000000E+00  0.00000000000E+00  0.12459931326E+04  0.26347387916E+04  0.23214972784E+04 0.  0.
        4    1    3    3  502    0  0.16740036215E+03 -0.10416407253E+04  0.11723517441E+04  0.15771647050E+04  0.12699999809E+01 0. -1.
       -4    1    3    3    0  502 -0.16740036215E+03  0.10416407253E+04  0.73641388512E+02  0.10575740867E+04  0.12699999809E+01 0.  1.
</event>
<event>
 5   0  0.9641157E-05  0.2272127E+04  0.7818609E-02  0.8488993E-01
        2   -1    0    0  501    0  0.00000000000E+00  0.00000000000E+00  0.14720626981E+04  0.14720626981E+04  0.25500000920E-02 0. -1.
       -2   -1    0    0    0  501  0.00000000000E+00  0.00000000000E+00 -0.87675606153E+03  0.87675606154E+03  0.25500000920E-02 0.  1.
    10030    2    1    2    0    0  0.00000000000E+00  0.00000000000E+00  0.59530663657E+03  0.23488187596E+04  0.22721266633E+04 0.  0.
        3    1    3    3  502    0 -0.97633469403E+03 -0.54585117586E+03  0.92310895218E+02  0.11223654719E+04  0.10100000352E+00 0. -1.
       -3    1    3    3    0  502  0.97633469403E+03  0.54585117586E+03  0.50299574135E+03  0.12264532877E+04  0.10100000352E+00 0.  1.
</event>
<event>
 5   0  0.9535394E-05  0.2257823E+04  0.7818609E-02  0.8494739E-01
        2   -1    0    0  501    0  0.00000000000E+00  0.00000000000E+00  0.94508690236E+03  0.94508690237E+03  0.25500000920E-02 0.  1.
       -2   -1    0    0    0  501  0.00000000000E+00  0.00000000000E+00 -0.13484905900E+04  0.13484905900E+04  0.25500000920E-02 0. -1.
    10030    2    1    2    0    0  0.00000000000E+00  0.00000000000E+00 -0.40340368764E+03  0.22935774924E+04  0.22578226632E+04 0.  0.
        2    1    3    3  502    0 -0.39469499980E+03  0.10128104099E+04  0.10787277510E+03  0.10923395099E+04  0.25500000920E-02 0.  1.
       -2    1    3    3    0  502  0.39469499980E+03 -0.10128104099E+04 -0.51127646274E+03  0.12012379825E+04  0.25500000920E-02 0. -1.
</event>
<event>
 5   0  0.9313463E-05  0.2243274E+04  0.7818609E-02  0.8500629E-01
        2   -1    0    0  501    0  0.00000000000E+00  0.00000000000E+00  0.12059977097E+04  0.12059977097E+04  0.25500000920E-02 0.  1.
       -2   -1    0    0    0  501  0.00000000000E+00  0.00000000000E+00 -0.10431772732E+04  0.10431772732E+04  0.25500000920E-02 0. -1.
    10030    2    1    2    0    0  0.00000000000E+00  0.00000000000E+00  0.16282043653E+03  0.22491749829E+04  0.22432738596E+04 0.  0.
        1    1    3    3  502    0  0.70261320543E+03 -0.87239882834E+03  0.13921924156E+03  0.11287723550E+04  0.50400001928E-02 0.  1.
       -1    1    3    3    0  502 -0.70261320543E+03  0.87239882834E+03  0.23601194974E+02  0.11204026279E+04  0.50400001928E-02 0. -1.
</event>
<event>
 5   0  0.4005462E-05  0.2311649E+04  0.7818609E-02  0.8473342E-01
        1   -1    0    0  501    0  0.00000000000E+00  0.00000000000E+00  0.14617648748E+04  0.14617648749E+04  0.50400001928E-02 0. -1.
       -1   -1    0    0    0  501  0.00000000000E+00  0.00000000000E+00 -0.91391610367E+03  0.91391610369E+03  0.50400001928E-02 0.  1.
    10030    2    1    2    0    0  0.00000000000E+00  0.00000000000E+00  0.54784877117E+03  0.23756809785E+04  0.23116491593E+04 0.  0.
        4    1    3    3  502    0 -0.31613071739E+02  0.74524111633E+03 -0.63345066273E+03  0.97859341035E+03  0.12699999809E+01 0.  1.
       -4    1    3    3    0  502  0.31613071739E+02 -0.74524111633E+03  0.11812994339E+04  0.13970875682E+04  0.12699999809E+01 0. -1.
</event>
<event>
 5   0  0.9535394E-05  0.2220425E+04  0.7818609E-02  0.8509975E-01
       -2   -1    0    0    0  501  0.00000000000E+00  0.00000000000E+00  0.13526427858E+04  0.13526427858E+04  0.25500000920E-02 0.  1.
        2   -1    0    0  501    0  0.00000000000E+00  0.00000000000E+00 -0.91123241566E+03  0.91123241566E+03  0.25500000920E-02 0. -1.
    10030    2    1    2    0    0  0.00000000000E+00  0.00000000000E+00  0.44141037016E+03  0.22638752015E+04  0.22204251424E+04 0.  0.
        2    1    3    3  502    0  0.72696663388E+03 -0.20000564536E+03 -0.61015807885E+03  0.96993588765E+03  0.25500000920E-02 0. -1.
       -2    1    3    3    0  502 -0.72696663388E+03  0.20000564536E+03  0.10515684490E+04  0.12939393138E+04  0.25500000920E-02 0.  1.
</event>
<event>
 5   0  0.4095451E-05  0.1607031E+04  0.7818609E-02  0.8816240E-01
       -1   -1    0    0    0  501  0.00000000000E+00  0.00000000000E+00  0.57962666089E+03  0.57962666091E+03  0.50400001928E-02 0. -1.
        1   -1    0    0  501    0  0.00000000000E+00  0.00000000000E+00 -0.11138839072E+04  0.11138839072E+04  0.50400001928E-02 0.  1.
    10030    2    1    2    0    0  0.00000000000E+00  0.00000000000E+00 -0.53425724633E+03  0.16935105681E+04  0.16070305657E+04 0.  0.
        3    1    3    3  502    0 -0.79380791758E+03 -0.97799601859E+02 -0.18590271919E+03  0.82113068591E+03  0.10100000352E+00 0.  1.
       -3    1    3    3    0  502  0.79380791758E+03  0.97799601859E+02 -0.34835452714E+03  0.87237988223E+03  0.10100000352E+00 0. -1.
</event>
<event>
 5   0  0.4005462E-05  0.2303254E+04  0.7818609E-02  0.8476639E-01
        1   -1    0    0  501    0  0.00000000000E+00  0.00000000000E+00  0.15446724587E+04  0.15446724587E+04  0.50400001928E-02 0.  1.
       -1   -1    0    0    0  501  0.00000000000E+00  0.00000000000E+00 -0.85859295262E+03  0.85859295264E+03  0.50400001928E-02 0. -1.
    10030    2    1    2    0    0  0.00000000000E+00  0.00000000000E+00  0.68607950611E+03  0.24032654114E+04  0.23032541216E+04 0.  0.
        4    1    3    3  502    0  0.63005006289E+03  0.36945427527E+03  0.12720858083E+04  0.14668549553E+04  0.12699999809E+01 0.  1.
       -4    1    3    3    0  502 -0.63005006289E+03 -0.36945427527E+03 -0.58600630216E+03  0.93641045612E+03  0.12699999809E+01 0. -1.
</event>
<event>
 5   0  0.3885219E-05  0.2281101E+04  0.7818609E-02  0.8485410E-01
        1   -1    0    0  501    0  0.00000000000E+00  0.00000000000E+00  0.75675129115E+03  0.75675129117E+03  0.50400001928E-02 0.  1.
       -1   -1    0    0    0  501  0.00000000000E+00  0.00000000000E+00 -0.17190005283E+04  0.17190005283E+04  0.50400001928E-02 0. -1.
    10030    2    1    2    0    0  0.00000000000E+00  0.00000000000E+00 -0.96224923716E+03  0.24757518195E+04  0.22811013737E+04 0.  0.
        2    1    3    3  502    0  0.80408268746E+03 -0.76059740365E+03 -0.18231622028E+03  0.11217381971E+04  0.25500000920E-02 0.  1.
       -2    1    3    3    0  502 -0.80408268746E+03  0.76059740365E+03 -0.77993301688E+03  0.13540136224E+04  0.25500000920E-02 0. -1.
</event>
<event>
 5   0  0.4295775E-05  0.1740105E+04  0.7818609E-02  0.8738816E-01
        1   -1    0    0  501    0  0.00000000000E+00  0.00000000000E+00  0.93368933267E+03  0.93368933268E+03  0.50400001928E-02 0. -1.
       -1   -1    0    0    0  501  0.00000000000E+00  0.00000000000E+00 -0.81075319287E+03  0.81075319289E+03  0.50400001928E-02 0.  1.
    10030    2    1    2    0    0  0.00000000000E+00  0.00000000000E+00  0.12293613980E+03  0.17444425256E+04  0.17401052930E+04 0.  0.
        5    1    3    3  502    0  0.27410545274E+03  0.23678074768E+03 -0.73156028051E+03  0.81633415690E+03  0.46999998093E+01 0.  1.
       -5    1    3    3    0  502 -0.27410545274E+03 -0.23678074768E+03  0.85449642031E+03  0.92810836868E+03  0.46999998093E+01 0. -1.
</event>
<event>
 5   0  0.9641157E-05  0.2096282E+04  0.7818609E-02  0.8562883E-01
       -2   -1    0    0    0  501  0.00000000000E+00  0.00000000000E+00  0.98139712341E+03  0.98139712342E+03  0.25500000920E-02 0.  1.
        2   -1    0    0  501    0  0.00000000000E+00  0.00000000000E+00 -0.11194239925E+04  0.11194239925E+04  0.25500000920E-02 0. -1.
    10030    2    1    2    0    0  0.00000000000E+00  0.00000000000E+00 -0.13802686913E+03  0.21008211160E+04  0.20962819335E+04 0.  0.
        3    1    3    3  502    0  0.54279031603E+03  0.89599637550E+03 -0.10327289170E+03  0.10526614520E+04  0.10100000352E+00 0.  1.
       -3    1    3    3    0  502 -0.54279031603E+03 -0.89599637550E+03 -0.34753977429E+02  0.10481596640E+04  0.10100000352E+00 0. -1.
</event>
<event>
 5   0  0.9312074E-05  0.2307665E+04  0.7818609E-02  0.8474905E-01
        2   -1    0    0  501    0  0.00000000000E+00  0.00000000000E+00  0.12410254740E+04  0.12410254740E+04  0.25500000920E-02 0.  1.
       -2   -1    0    0    0  501  0.00000000000E+00  0.00000000000E+00 -0.10727659743E+04  0.10727659743E+04  0.25500000920E-02 0. -1.
    10030    2    1    2    0    0  0.00000000000E+00  0.00000000000E+00  0.16825949968E+03  0.23137914483E+04  0.23076654019E+04 0.  0.
        4    1    3    3  502    0  0.75902643449E+02 -0.14291919281E+03 -0.10613307551E+04  0.10735975463E+04  0.12699999809E+01 0. -1.
       -4    1    3    3    0  502 -0.75902643449E+02  0.14291919281E+03  0.12295902548E+04  0.12401939020E+04  0.12699999809E+01 0.  1.
</event>
<event>
 5   0  0.9483073E-05  0.2249218E+04  0.7818609E-02  0.8498217E-01
        2   -1    0    0  501    0  0.00000000000E+00  0.00000000000E+00  0.12056441289E+04  0.12056441289E+04  0.25500000920E-02 0.  1.
       -2   -1    0    0    0  501  0.00000000000E+00  0.00000000000E+00 -0.10490208773E+04  0.10490208773E+04  0.25500000920E-02 0. -1.
    10030    2    1    2    0    0  0.00000000000E+00  0.00000000000E+00  0.15662325167E+03  0.22546650062E+04  0.22492184081E+04 0.  0.
        5    1    3    3  502    0  0.88164616265E+03 -0.68433970117E+03  0.21685988049E+03  0.11369569387E+04  0.46999998093E+01 0. -1.
       -5    1    3    3    0  502 -0.88164616265E+03  0.68433970117E+03 -0.60236628820E+02  0.11177080675E+04  0.46999998093E+01 0.  1.
</event>
<event>
 5   0  0.3885219E-05  0.2238625E+04  0.7818609E-02  0.8502521E-01
        1   -1    0    0  501    0  0.00000000000E+00  0.00000000000E+00  0.10762796018E+04  0.10762796018E+04  0.50400001928E-02 0. -1.
       -1   -1    0    0    0  501  0.00000000000E+00  0.00000000000E+00 -0.11640658395E+04  0.11640658395E+04  0.50400001928E-02 0.  1.
    10030    2    1    2    0    0  0.00000000000E+00  0.00000000000E+00 -0.87786237665E+02  0.22403454413E+04  0.22386248621E+04 0.  0.
        2    1    3    3  502    0  0.53965526223E+03  0.74774869279E+03 -0.67881308716E+03  0.11450515783E+04  0.25500000920E-02 0.  1.
       -2    1    3    3    0  502 -0.53965526223E+03 -0.74774869279E+03  0.59102684949E+03  0.10952938631E+04  0.25500000920E-02 0. -1.
</event>
<event>
 5   0  0.3885219E-05  0.2305248E+04  0.7818609E-02  0.8475855E-01
       -1   -1    0    0    0  501  0.00000000000E+00  0.00000000000E+00  0.72665568244E+03  0.72665568246E+03  0.50400001928E-02 0. -1.
        1   -1    0    0  501    0  0.00000000000E+00  0.00000000000E+00 -0.18282960837E+04  0.18282960837E+04  0.50400001928E-02 0.  1.
    10030    2    1    2    0    0  0.00000000000E+00  0.00000000000E+00 -0.11016404012E+04  0.25549517661E+04  0.23052476990E+04 0.  0.
        2    1    3    3  502    0  0.44955095297E+02  0.10298538166E+04  0.20713911467E+02  0.10310426326E+04  0.25500000920E-02 0.  1.
       -2    1    3    3    0  502 -0.44955095297E+02 -0.10298538166E+04 -0.11223543127E+04  0.15239091336E+04  0.25500000920E-02 0. -1.
</event>
<event>
 5   0  0.3261500E-05  0.2121829E+04  0.7818609E-02  0.8551688E-01
        3   -1    0    0  501    0  0.00000000000E+00  0.00000000000E+00  0.18409492764E+04  0.18409492792E+04  0.10100000352E+00 0. -1.
       -3   -1    0    0    0  501  0.00000000000E+00  0.00000000000E+00 -0.61139088127E+03  0.61139088961E+03  0.10100000352E+00 0.  1.
    10030    2    1    2    0    0  0.00000000000E+00  0.00000000000E+00  0.12295583952E+04  0.24523401688E+04  0.21218290356E+04 0.  0.
        1    1    3    3  502    0 -0.87629597954E+03 -0.58350624630E+03  0.46335416409E+03  0.11502483491E+04  0.50400001928E-02 0.  1.
       -1    1    3    3    0  502  0.87629597954E+03  0.58350624630E+03  0.76620423109E+03  0.13020918197E+04  0.50400001928E-02 0. -1.
</event>
<event>
 5   0  0.3261500E-05  0.2286446E+04  0.7818609E-02  0.8483285E-01
       -3   -1    0    0    0  501  0.00000000000E+00  0.00000000000E+00  0.95179660252E+03  0.95179660788E+03  0.10100000352E+00 0.  1.
        3   -1    0    0  501    0  0.00000000000E+00  0.00000000000E+00 -0.13731490835E+04  0.13731490872E+04  0.10100000352E+00 0. -1.
    10030    2    1    2    0    0  0.00000000000E+00  0.00000000000E+00 -0.42135248100E+03  0.23249456951E+04  0.22864458384E+04 0.  0.
        4    1    3    3  502    0  0.10600592476E+04  0.41838967891E+03 -0.30265092658E+03  0.11791415217E+04  0.12699999809E+01 0.  1.
       -4    1    3    3    0  502 -0.10600592476E+04 -0.41838967891E+03 -0.11870155441E+03  0.11458041734E+04  0.12699999809E+01 0. -1.
</event>
<event>
 5   0  0.4005462E-05  0.2319499E+04  0.7818609E-02  0.8470272E-01
       -1   -1    0    0    0  501  0.00000000000E+00  0.00000000000E+00  0.97758432928E+03  0.97758432929E+03  0.50400001928E-02 0.  1.
        1   -1    0    0  501    0  0.00000000000E+00  0.00000000000E+00 -0.13758600410E+04  0.13758600410E+04  0.50400001928E-02 0. -1.
    10030    2    1    2    0    0  0.00000000000E+00  0.00000000000E+00 -0.39827571169E+03  0.23534443703E+04  0.23194992695E+04 0.  0.
        4    1    3    3  502    0 -0.57874832747E+02 -0.75752200429E+03  0.68994414149E+03  0.10262619619E+04  0.12699999809E+01 0.  1.
       -4    1    3    3    0  502  0.57874832747E+02  0.75752200429E+03 -0.10882198532E+04  0.13271824083E+04  0.12699999809E+01 0. -1.
</event>
<event>
 5   0  0.4139830E-05  0.2272184E+04  0.7818609E-02  0.8488970E-01
       -1   -1    0    0    0  501  0.00000000000E+00  0.00000000000E+00  0.64392352638E+03  0.64392352640E+03  0.50400001928E-02 0. -1.
        1   -1    0    0  501    0  0.00000000000E+00  0.00000000000E+00 -0.20044384749E+04  0.20044384749E+04  0.50400001928E-02 0.  1.
    10030    2    1    2    0    0  0.00000000000E+00  0.00000000000E+00 -0.13605149485E+04  0.26483620013E+04  0.22721840517E+04 0.  0.
        1    1    3    3  502    0 -0.10140858869E+04  0.11301643902E+03 -0.97989056502E+02  0.10250584162E+04  0.50400001928E-02 0.  1.
       -1    1    3    3    0  502  0.10140858869E+04 -0.11301643902E+03 -0.12625258920E+04  0.16233035851E+04  0.50400001928E-02 0. -1.
</event>
<event>
 5   0  0.9312074E-05  0.2360706E+04  0.7818609E-02  0.8454363E-01
       -2   -1    0    0    0  501  0.00000000000E+00  0.00000000000E+00  0.74951975822E+03  0.74951975823E+03  0.25500000920E-02 0.  1.
        2   -1    0    0  501    0  0.00000000000E+00  0.00000000000E+00 -0.18588350829E+04  0.18588350829E+04  0.25500000920E-02 0. -1.
    10030    2    1    2    0    0  0.00000000000E+00  0.00000000000E+00 -0.11093153247E+04  0.26083548411E+04  0.23607063536E+04 0.  0.
        4    1    3    3  502    0  0.88460665482E+03  0.20362044750E+03  0.27897186878E+03  0.94964053034E+03  0.12699999809E+01 0.  1.
       -4    1    3    3    0  502 -0.88460665482E+03 -0.20362044750E+03 -0.13882871935E+04  0.16587143108E+04  0.12699999809E+01 0. -1.
</event>
<event>
 5   0  0.9483073E-05  0.2330952E+04  0.7818609E-02  0.8465816E-01
       -2   -1    0    0    0  501  0.00000000000E+00  0.00000000000E+00  0.77673838248E+03  0.77673838249E+03  0.25500000920E-02 0. -1.
        2   -1    0    0  501    0  0.00000000000E+00  0.00000000000E+00 -0.17487670337E+04  0.17487670337E+04  0.25500000920E-02 0.  1.
    10030    2    1    2    0    0  0.00000000000E+00  0.00000000000E+00 -0.97202865122E+03  0.25255054162E+04  0.23309521463E+04 0.  0.
        5    1    3    3  502    0  0.11596319835E+04 -0.11051859892E+03 -0.44618037524E+03  0.12474212260E+04  0.46999998093E+01 0.  1.
       -5    1    3    3    0  502 -0.11596319835E+04  0.11051859892E+03 -0.52584827599E+03  0.12780841902E+04  0.46999998093E+01 0. -1.
</event>
<event>
 5   0  0.4295775E-05  0.2369656E+04  0.7818609E-02  0.8450952E-01
       -1   -1    0    0    0  501  0.00000000000E+00  0.00000000000E+00  0.84409745343E+03  0.84409745344E+03  0.50400001928E-02 0. -1.
        1   -1    0    0  501    0  0.00000000000E+00  0.00000000000E+00 -0.16630986537E+04  0.16630986537E+04  0.50400001928E-02 0.  1.
    10030    2    1    2    0    0  0.00000000000E+00  0.00000000000E+00 -0.81900120031E+03  0.25071961072E+04  0.23696559568E+04 0.  0.
        5    1    3    3  502    0 -0.29926253519E+03 -0.84146467783E+03 -0.12332626803E+04  0.15226883455E+04  0.46999998093E+01 0.  1.
       -5    1    3    3    0  502  0.29926253519E+03  0.84146467783E+03  0.41426147997E+03  0.98450776167E+03  0.46999998093E+01 0. -1.
</event>
<event>
 5   0  0.9313463E-05  0.2496902E+04  0.7818609E-02  0.8404090E-01
       -2   -1    0    0    0  501  0.00000000000E+00  0.00000000000E+00  0.85162816338E+03  0.85162816339E+03  0.25500000920E-02 0. -1.
        2   -1    0    0  501    0  0.00000000000E+00  0.00000000000E+00 -0.18301760963E+04  0.18301760963E+04  0.25500000920E-02 0.  1.
    10030    2    1    2    0    0  0.00000000000E+00  0.00000000000E+00 -0.97854793289E+03  0.26818042597E+04  0.24969016861E+04 0.  0.
        1    1    3    3  502    0  0.11671931489E+04 -0.46439520554E+02 -0.96250732621E+03  0.15135774936E+04  0.50400001928E-02 0.  1.
       -1    1    3    3    0  502 -0.11671931489E+04  0.46439520554E+02 -0.16040606684E+02  0.11682267661E+04  0.50400001928E-02 0. -1.
</event>
<event>
 5   0  0.9535394E-05  0.2306604E+04  0.7818609E-02  0.8475322E-01
        2   -1    0    0  501    0  0.00000000000E+00  0.00000000000E+00  0.14446145419E+04  0.14446145419E+04  0.25500000920E-02 0.  1.
       -2   -1    0    0    0  501  0.00000000000E+00  0.00000000000E+00 -0.92073351409E+03  0.92073351410E+03  0.25500000920E-02 0. -1.
    10030    2    1    2    0    0  0.00000000000E+00  0.00000000000E+00  0.52388102785E+03  0.23653480560E+04  0.23066035843E+04 0.  0.
        2    1    3    3  502    0 -0.10366226896E+04  0.19586340907E+03 -0.21592749519E+03  0.10768350657E+04  0.25500000920E-02 0. -1.
       -2    1    3    3    0  502  0.10366226896E+04 -0.19586340907E+03  0.73980852304E+03  0.12885129903E+04  0.25500000920E-02 0.  1.
</event>
<event>
 5   0  0.9535394E-05  0.1827977E+04  0.7818609E-02  0.8691562E-01
        2   -1    0    0  501    0  0.00000000000E+00  0.00000000000E+00  0.12787691941E+04  0.12787691941E+04  0.25500000920E-02 0. -1.
       -2   -1    0    0    0  501  0.00000000000E+00  0.00000000000E+00 -0.65326488182E+03  0.65326488182E+03  0.25500000920E-02 0.  1.
    10030    2    1    2    0    0  0.00000000000E+00  0.00000000000E+00  0.62550431232E+03  0.19320340760E+04  0.18279770310E+04 0.  0.
        2    1    3    3  502    0 -0.52817312549E+03  0.54187363473E+03 -0.22905049670E+03  0.79060610708E+03  0.25500000920E-02 0.  1.
       -2    1    3    3    0  502  0.52817312549E+03 -0.54187363473E+03  0.85455480902E+03  0.11414279689E+04  0.25500000920E-02 0. -1.
</event>
<event>
 5   0  0.4005462E-05  0.2351419E+04  0.7818609E-02  0.8457919E-01
        1   -1    0    0  501    0  0.00000000000E+00  0.00000000000E+00  0.84995010680E+03  0.84995010682E+03  0.50400001928E-02 0.  1.
       -1   -1    0    0    0  501  0.00000000000E+00  0.00000000000E+00 -0.16263218246E+04  0.16263218246E+04  0.50400001928E-02 0. -1.
    10030    2    1    2    0    0  0.00000000000E+00  0.00000000000E+00 -0.77637171782E+03  0.24762719314E+04  0.23514186429E+04 0.  0.
        4    1    3    3  502    0  0.33174258944E+03  0.71688394473E+03  0.52886456998E+03  0.95061826310E+03  0.12699999809E+01 0.  1.
       -4    1    3    3    0  502 -0.33174258944E+03 -0.71688394473E+03 -0.13052362878E+04  0.15256536683E+04  0.12699999809E+01 0. -1.
</event>
<event>
 5   0  0.4139830E-05  0.2320404E+04  0.7818609E-02  0.8469919E-01
        1   -1    0    0  501    0  0.00000000000E+00  0.00000000000E+00  0.12779803643E+04  0.12779803643E+04  0.50400001928E-02 0.  1.
       -1   -1    0    0    0  501  0.00000000000E+00  0.00000000000E+00 -0.10532780464E+04  0.10532780464E+04  0.50400001928E-02 0. -1.
    10030    2    1    2    0    0  0.00000000000E+00  0.00000000000E+00  0.22470231793E+03  0.23312584107E+04  0.23204039834E+04 0.  0.
        1    1    3    3  502    0  0.87695038272E+02 -0.14075435334E+03  0.12660111324E+04  0.12768266895E+04  0.50400001928E-02 0.  1.
       -1    1    3    3    0  502 -0.87695038272E+02  0.14075435334E+03 -0.10413088144E+04  0.10544317212E+04  0.50400001928E-02 0. -1.
</event>
<event>
 5   0  0.9483073E-05  0.2268070E+04  0.7818609E-02  0.8490618E-01
        2   -1    0    0  501    0  0.00000000000E+00  0.00000000000E+00  0.15473197936E+04  0.15473197936E+04  0.25500000920E-02 0. -1.
       -2   -1    0    0    0  501  0.00000000000E+00  0.00000000000E+00 -0.83113753551E+03  0.83113753552E+03  0.25500000920E-02 0.  1.
    10030    2    1    2    0    0  0.00000000000E+00  0.00000000000E+00  0.71618225809E+03  0.23784573291E+04  0.22680701576E+04 0.  0.
        5    1    3    3  502    0 -0.69989831704E+03  0.52082113956E+03  0.11178532629E+04  0.14180022288E+04  0.46999998093E+01 0. -1.
       -5    1    3    3    0  502  0.69989831704E+03 -0.52082113956E+03 -0.40167100479E+03  0.96045510030E+03  0.46999998093E+01 0.  1.
</event>
<event>
 5   0  0.4295775E-05  0.2198795E+04  0.7818609E-02  0.8518930E-01
       -1   -1    0    0    0  501  0.00000000000E+00  0.00000000000E+00  0.92910528268E+03  0.92910528269E+03  0.50400001928E-02 0. -1.
        1   -1    0    0  501    0  0.00000000000E+00  0.00000000000E+00 -0.13009016805E+04  0.13009016805E+04  0.50400001928E-02 0.  1.
    10030    2    1    2    0    0  0.00000000000E+00  0.00000000000E+00 -0.37179639780E+03  0.22300069632E+04  0.21987947822E+04 0.  0.
        5    1    3    3  502    0 -0.87816083311E+03 -0.11614787962E+03  0.47449451887E+03  0.10048999538E+04  0.46999998093E+01 0. -1.
       -5    1    3    3    0  502  0.87816083311E+03  0.11614787962E+03 -0.84629091666E+03  0.12251070094E+04  0.46999998093E+01 0.  1.
</event>
<event>
 5   0  0.9535394E-05  0.2361379E+04  0.7818609E-02  0.8454106E-01
        2   -1    0    0  501    0  0.00000000000E+00  0.00000000000E+00  0.23702312106E+04  0.23702312106E+04  0.25500000920E-02 0.  1.
       -2   -1    0    0    0  501  0.00000000000E+00  0.00000000000E+00 -0.58813991531E+03  0.58813991531E+03  0.25500000920E-02 0. -1.
    10030    2    1    2    0    0  0.00000000000E+00  0.00000000000E+00  0.17820912953E+04  0.29583711259E+04  0.23613789052E+04 0.  0.
        2    1    3    3  502    0  0.22355557823E+03  0.47549722345E+03 -0.43359697421E+03  0.68123493901E+03  0.25500000920E-02 0. -1.
       -2    1    3    3    0  502 -0.22355557823E+03 -0.47549722345E+03  0.22156882695E+04  0.22771361869E+04  0.25500000920E-02 0.  1.
</event>
<event>
 5   0  0.9312074E-05  0.2327852E+04  0.7818609E-02  0.8467020E-01
       -2   -1    0    0    0  501  0.00000000000E+00  0.00000000000E+00  0.89901702107E+03  0.89901702108E+03  0.25500000920E-02 0.  1.
        2   -1    0    0  501    0  0.00000000000E+00  0.00000000000E+00 -0.15068947777E+04  0.15068947777E+04  0.25500000920E-02 0. -1.
    10030    2    1    2    0    0  0.00000000000E+00  0.00000000000E+00 -0.60787775667E+03  0.24059117988E+04  0.23278522755E+04 0.  0.
        4    1    3    3  502    0 -0.32149580442E+03 -0.11031579360E+04 -0.11223188693E+03  0.11545192045E+04  0.12699999809E+01 0.  1.
       -4    1    3    3    0  502  0.32149580442E+03  0.11031579360E+04 -0.49564586975E+03  0.12513925944E+04  0.12699999809E+01 0. -1.
</event>
<event>
 5   0  0.4005462E-05  0.2303372E+04  0.7818609E-02  0.8476593E-01
       -1   -1    0    0    0  501  0.00000000000E+00  0.00000000000E+00  0.98060488781E+03  0.98060488782E+03  0.50400001928E-02 0. -1.
        1   -1    0    0  501    0  0.00000000000E+00  0.00000000000E+00 -0.13526143465E+04  0.13526143466E+04  0.50400001928E-02 0.  1.
    10030    2    1    2    0    0  0.00000000000E+00  0.00000000000E+00 -0.37200945874E+03  0.23332192344E+04  0.23033716501E+04 0.  0.
        4    1    3    3  502    0 -0.56537542787E+03 -0.93950438567E+03  0.17078204897E+03  0.11097233828E+04  0.12699999809E+01 0.  1.
       -4    1    3    3    0  502  0.56537542787E+03  0.93950438567E+03 -0.54279150771E+03  0.12234958516E+04  0.12699999809E+01 0. -1.
</event>
<event>
 5   0  0.9483073E-05  0.2313687E+04  0.7818609E-02  0.8472544E-01
        2   -1    0    0  501    0  0.00000000000E+00  0.00000000000E+00  0.12232510252E+04  0.12232510252E+04  0.25500000920E-02 0.  1.
       -2   -1    0    0    0  501  0.00000000000E+00  0.00000000000E+00 -0.10940410205E+04  0.10940410205E+04  0.25500000920E-02 0. -1.
    10030    2    1    2    0    0  0.00000000000E+00  0.00000000000E+00  0.12921000475E+03  0.23172920457E+04  0.23136869278E+04 0.  0.
        5    1    3    3  502    0 -0.41334371677E+03  0.82468864238E+03  0.76376170986E+03  0.11976303372E+04  0.46999998093E+01 0.  1.
       -5    1    3    3    0  502  0.41334371677E+03 -0.82468864238E+03 -0.63455170511E+03  0.11196617085E+04  0.46999998093E+01 0. -1.
</event>
<event>
 5   0  0.9641157E-05  0.2347547E+04  0.7818609E-02  0.8459406E-01
        2   -1    0    0  501    0  0.00000000000E+00  0.00000000000E+00  0.22820029997E+04  0.22820029997E+04  0.25500000920E-02 0. -1.
       -2   -1    0    0    0  501  0.00000000000E+00  0.00000000000E+00 -0.60374349145E+03  0.60374349146E+03  0.25500000920E-02 0.  1.
    10030    2    1    2    0    0  0.00000000000E+00  0.00000000000E+00  0.16782595082E+04  0.28857464911E+04  0.23475471953E+04 0.  0.
        3    1    3    3  502    0 -0.10241857209E+04 -0.46960931310E+03  0.12435828164E+04  0.16780904414E+04  0.10100000352E+00 0. -1.
       -3    1    3    3    0  502  0.10241857209E+04  0.46960931310E+03  0.43467669180E+03  0.12076560498E+04  0.10100000352E+00 0.  1.
</event>
<event>
 5   0  0.9312074E-05  0.2064947E+04  0.7818609E-02  0.8576844E-01
       -2   -1    0    0    0  501  0.00000000000E+00  0.00000000000E+00  0.88706845893E+03  0.88706845893E+03  0.25500000920E-02 0. -1.
        2   -1    0    0  501    0  0.00000000000E+00  0.00000000000E+00 -0.12017123955E+04  0.12017123955E+04  0.25500000920E-02 0.  1.
    10030    2    1    2    0    0  0.00000000000E+00  0.00000000000E+00 -0.31464393654E+03  0.20887808544E+04  0.20649466460E+04 0.  0.
        4    1    3    3  502    0 -0.89867883869E+03 -0.21026250614E+03  0.31079983924E+03  0.97387480179E+03  0.12699999809E+01 0. -1.
       -4    1    3    3    0  502  0.89867883869E+03  0.21026250614E+03 -0.62544377578E+03  0.11149060526E+04  0.12699999809E+01 0.  1.
</event>
<event>
 5   0  0.3885219E-05  0.2483612E+04  0.7818609E-02  0.8408847E-01
        1   -1    0    0  501    0  0.00000000000E+00  0.00000000000E+00  0.94542900252E+03  0.94542900253E+03  0.50400001928E-02 0.  1.
       -1   -1    0    0    0  501  0.00000000000E+00  0.00000000000E+00 -0.16310920665E+04  0.16310920665E+04  0.50400001928E-02 0. -1.
    10030    2    1    2    0    0  0.00000000000E+00  0.00000000000E+00 -0.68566306395E+03  0.25765210690E+04  0.24836116810E+04 0.  0.
        2    1    3    3  502    0  0.87900691009E+03  0.86598831703E+03 -0.19799187863E+03  0.12497158466E+04  0.25500000920E-02 0.  1.
       -2    1    3    3    0  502 -0.87900691009E+03 -0.86598831703E+03 -0.48767118532E+03  0.13268052224E+04  0.25500000920E-02 0. -1.
</event>
<event>
 5   0  0.9483073E-05  0.2151215E+04  0.7818609E-02  0.8539012E-01
        2   -1    0    0  501    0  0.00000000000E+00  0.00000000000E+00  0.12657035856E+04  0.12657035856E+04  0.25500000920E-02 0. -1.
       -2   -1    0    0    0  501  0.00000000000E+00  0.00000000000E+00 -0.91406223297E+03  0.91406223298E+03  0.25500000920E-02 0.  1.
    10030    2    1    2    0    0  0.00000000000E+00  0.00000000000E+00  0.35164135264E+03  0.21797658186E+04  0.21512153270E+04 0.  0.
        5    1    3    3  502    0  0.70093996498E+03 -0.81164222683E+03  0.92081152981E+02  0.10763739906E+04  0.46999998093E+01 0. -1.
       -5    1    3    3    0  502 -0.70093996498E+03  0.81164222683E+03  0.25956019966E+03  0.11033918280E+04  0.46999998093E+01 0.  1.
</event>
<event>
 5   0  0.4095451E-05  0.2318363E+04  0.7818609E-02  0.8470716E-01
       -1   -1    0    0    0  501  0.00000000000E+00  0.00000000000E+00  0.97927671513E+03  0.97927671514E+03  0.50400001928E-02 0.  1.
        1   -1    0    0  501    0  0.00000000000E+00  0.00000000000E+00 -0.13721364372E+04  0.13721364372E+04  0.50400001928E-02 0. -1.
    10030    2    1    2    0    0  0.00000000000E+00  0.00000000000E+00 -0.39285972210E+03  0.23514131524E+04  0.23183625799E+04 0.  0.
        3    1    3    3  502    0 -0.88075399570E+03 -0.56896280200E+03 -0.69769707488E+03  0.12594552352E+04  0.10100000352E+00 0.  1.
       -3    1    3    3    0  502  0.88075399570E+03  0.56896280200E+03  0.30483735278E+03  0.10919579172E+04  0.10100000352E+00 0. -1.
</event>
<event>
 5   0  0.9312074E-05  0.1944356E+04  0.7818609E-02  0.8633087E-01
        2   -1    0    0  501    0  0.00000000000E+00  0.00000000000E+00  0.59018730728E+03  0.59018730728E+03  0.25500000920E-02 0. -1.
       -2   -1    0    0    0  501  0.00000000000E+00  0.00000000000E+00 -0.16014067285E+04  0.16014067285E+04  0.25500000920E-02 0.  1.
    10030    2    1    2    0    0  0.00000000000E+00  0.00000000000E+00 -0.10112194212E+04  0.21915940358E+04  0.19443558573E+04 0.  0.
        4    1    3    3  502    0  0.18733551115E+03  0.54577729094E+03  0.37628581438E+03  0.68888320639E+03  0.12699999809E+01 0. -1.
       -4    1    3    3    0  502 -0.18733551115E+03 -0.54577729094E+03 -0.13875052356E+04  0.15027108294E+04  0.12699999809E+01 0.  1.
</event>
<event>
 5   0  0.4139830E-05  0.2288914E+04  0.7818609E-02  0.8482305E-01
        1   -1    0    0  501    0  0.00000000000E+00  0.00000000000E+00  0.20325111519E+04  0.20325111519E+04  0.50400001928E-02 0.  1.
       -1   -1    0    0    0  501  0.00000000000E+00  0.00000000000E+00 -0.64441537579E+03  0.64441537581E+03  0.50400001928E-02 0. -1.
    10030    2    1    2    0    0  0.00000000000E+00  0.00000000000E+00  0.13880957761E+04  0.26769265277E+04  0.22889136618E+04 0.  0.
        1    1    3    3  502    0  0.16839754507E+03  0.20746974983E+03  0.19955174221E+04  0.20133283916E+04  0.50400001928E-02 0.  1.
       -1    1    3    3    0  502 -0.16839754507E+03 -0.20746974983E+03 -0.60742164599E+03  0.66359813616E+03  0.50400001928E-02 0. -1.
</event>
<event>
 5   0  0.9483073E-05  0.2215761E+04  0.7818609E-02  0.8511897E-01
        2   -1    0    0  501    0  0.00000000000E+00  0.00000000000E+00  0.20637847709E+04  0.20637847709E+04  0.25500000920E-02 0. -1.
       -2   -1    0    0    0  501  0.00000000000E+00  0.00000000000E+00 -0.59473222223E+03  0.59473222223E+03  0.25500000920E-02 0.  1.
    10030    2    1    2    0    0  0.00000000000E+00  0.00000000000E+00  0.14690525487E+04  0.26585169932E+04  0.22157610909E+04 0.  0.
        5    1    3    3  502    0  0.83216976147E+03 -0.73126361494E+03  0.74789911790E+03  0.13366481089E+04  0.46999998093E+01 0.  1.
       -5    1    3    3    0  502 -0.83216976147E+03  0.73126361494E+03  0.72115343082E+03  0.13218688843E+04  0.46999998093E+01 0. -1.
</event>
<event>
 5   0  0.4295775E-05  0.2295974E+04  0.7818609E-02  0.8479510E-01
        1   -1    0    0  501    0  0.00000000000E+00  0.00000000000E+00  0.12195858991E+04  0.12195858991E+04  0.50400001928E-02 0.  1.
       -1   -1    0    0    0  501  0.00000000000E+00  0.00000000000E+00 -0.10805915904E+04  0.10805915904E+04  0.50400001928E-02 0. -1.
    10030    2    1    2    0    0  0.00000000000E+00  0.00000000000E+00  0.13899430869E+03  0.23001774895E+04  0.22959740995E+04 0.  0.
        5    1    3    3  502    0 -0.16635166818E+02 -0.10958841316E+04  0.41160940534E+03  0.11707617824E+04  0.46999998093E+01 0.  1.
       -5    1    3    3    0  502  0.16635166818E+02  0.10958841316E+04 -0.27261509666E+03  0.11294157071E+04  0.46999998093E+01 0. -1.
</event>
<event>
 5   0  0.4295775E-05  0.2252521E+04  0.7818609E-02  0.8496880E-01
       -1   -1    0    0    0  501  0.00000000000E+00  0.00000000000E+00  0.10083250144E+04  0.10083250144E+04  0.50400001928E-02 0. -1.
        1   -1    0    0  501    0  0.00000000000E+00  0.00000000000E+00 -0.12579900921E+04  0.12579900921E+04  0.50400001928E-02 0.  1.
    10030    2    1    2    0    0  0.00000000000E+00  0.00000000000E+00 -0.24966507769E+03  0.22663151065E+04  0.22525211455E+04 0.  0.
        5    1    3    3  502    0  0.18190827212E+03 -0.95358360585E+03 -0.69931818660E+03  0.11964448708E+04  0.46999998093E+01 0.  1.
       -5    1    3    3    0  502 -0.18190827212E+03  0.95358360585E+03  0.44965310891E+03  0.10698702357E+04  0.46999998093E+01 0. -1.
</event>
<event>
 5   0  0.9483073E-05  0.2295113E+04  0.7818609E-02  0.8479851E-01
       -2   -1    0    0    0  501  0.00000000000E+00  0.00000000000E+00  0.48810209124E+03  0.48810209125E+03  0.25500000920E-02 0. -1.
        2   -1    0    0  501    0  0.00000000000E+00  0.00000000000E+00 -0.26979720329E+04  0.26979720329E+04  0.25500000920E-02 0.  1.
    10030    2    1    2    0    0  0.00000000000E+00  0.00000000000E+00 -0.22098699417E+04  0.31860741242E+04  0.22951128873E+04 0.  0.
        5    1    3    3  502    0  0.36628001486E+03 -0.10868685392E+04 -0.10526341005E+04  0.15567610318E+04  0.46999998093E+01 0.  1.
       -5    1    3    3    0  502 -0.36628001486E+03  0.10868685392E+04 -0.11572358412E+04  0.16293130923E+04  0.46999998093E+01 0. -1.
</event>
<event>
 5   0  0.4005462E-05  0.2363019E+04  0.7818609E-02  0.8453480E-01
        1   -1    0    0  501    0  0.00000000000E+00  0.00000000000E+00  0.21170965571E+04  0.21170965571E+04  0.50400001928E-02 0.  1.
       -1   -1    0    0    0  501  0.00000000000E+00  0.00000000000E+00 -0.65937707232E+03  0.65937707234E+03  0.50400001928E-02 0. -1.
    10030    2    1    2    0    0  0.00000000000E+00  0.00000000000E+00  0.14577194848E+04  0.27764736294E+04  0.23630191956E+04 0.  0.
        4    1    3    3  502    0  0.51149220253E+03 -0.49648626390E+03  0.18359773634E+04  0.19695018089E+04  0.12699999809E+01 0.  1.
       -4    1    3    3    0  502 -0.51149220253E+03  0.49648626390E+03 -0.37825787863E+03  0.80697182053E+03  0.12699999809E+01 0. -1.
</event>
<event>
 5   0  0.4005462E-05  0.2267884E+04  0.7818609E-02  0.8490693E-01
        1   -1    0    0  501    0  0.00000000000E+00  0.00000000000E+00  0.12273203271E+04  0.12273203272E+04  0.50400001928E-02 0.  1.
       -1   -1    0    0    0  501  0.00000000000E+00  0.00000000000E+00 -0.10476683149E+04  0.10476683150E+04  0.50400001928E-02 0. -1.
    10030    2    1    2    0    0  0.00000000000E+00  0.00000000000E+00  0.17965201220E+03  0.22749886421E+04  0.22678841408E+04 0.  0.
        4    1    3    3  502    0 -0.28049665078E+03  0.10975240261E+04  0.14083455828E+03  0.11415223803E+04  0.12699999809E+01 0. -1.
       -4    1    3    3    0  502  0.28049665078E+03 -0.10975240261E+04  0.38817453921E+02  0.11334662618E+04  0.12699999809E+01 0.  1.
</event>
<event>
 5   0  0.4295775E-05  0.2402813E+04  0.7818609E-02  0.8438451E-01
       -1   -1    0    0    0  501  0.00000000000E+00  0.00000000000E+00  0.14433791113E+04  0.14433791113E+04  0.50400001928E-02 0. -1.
        1   -1    0    0  501    0  0.00000000000E+00  0.00000000000E+00 -0.99999862803E+03  0.99999862804E+03  0.50400001928E-02 0.  1.
    10030    2    1    2    0    0  0.00000000000E+00  0.00000000000E+00  0.44338048324E+03  0.24433777393E+04  0.24028126278E+04 0.  0.
        5    1    3    3  502    0 -0.10927052913E+04 -0.58177488543E+02 -0.28263170112E+03  0.11301735452E+04  0.46999998093E+01 0.  1.
       -5    1    3    3    0  502  0.10927052913E+04  0.58177488543E+02  0.72601218436E+03  0.13132041942E+04  0.46999998093E+01 0. -1.
</event>
<event>
 5   0  0.4005462E-05  0.2346881E+04  0.7818609E-02  0.8459662E-01
        1   -1    0    0  501    0  0.00000000000E+00  0.00000000000E+00  0.10243627884E+04  0.10243627884E+04  0.50400001928E-02 0.  1.
       -1   -1    0    0    0  501  0.00000000000E+00  0.00000000000E+00 -0.13442142920E+04  0.13442142920E+04  0.50400001928E-02 0. -1.
    10030    2    1    2    0    0  0.00000000000E+00  0.00000000000E+00 -0.31985150365E+03  0.23685770804E+04  0.23468814204E+04 0.  0.
        4    1    3    3  502    0 -0.54603176085E+03 -0.48320500262E+03 -0.10878401334E+04  0.13095936496E+04  0.12699999809E+01 0. -1.
       -4    1    3    3    0  502  0.54603176085E+03  0.48320500262E+03  0.76798862972E+03  0.10589834308E+04  0.12699999809E+01 0.  1.
</event>
<event>
 5   0  0.4005462E-05  0.2303515E+04  0.7818609E-02  0.8476536E-01
        1   -1    0    0  501    0  0.00000000000E+00  0.00000000000E+00  0.29714005240E+04  0.29714005240E+04  0.50400001928E-02 0. -1.
       -1   -1    0    0    0  501  0.00000000000E+00  0.00000000000E+00 -0.44643779919E+03  0.44643779922E+03  0.50400001928E-02 0.  1.
    10030    2    1    2    0    0  0.00000000000E+00  0.00000000000E+00  0.25249627248E+04  0.34178383232E+04  0.23035151491E+04 0.  0.
        4    1    3    3  502    0  0.91817363428E+03  0.43030676449E+03  0.20729087709E+04  0.23076306289E+04  0.12699999809E+01 0. -1.
       -4    1    3    3    0  502 -0.91817363428E+03 -0.43030676449E+03  0.45205395387E+03  0.11102076942E+04  0.12699999809E+01 0.  1.
</event>
<event>
 5   0  0.4005462E-05  0.2409980E+04  0.7818609E-02  0.8435776E-01
        1   -1    0    0  501    0  0.00000000000E+00  0.00000000000E+00  0.71970892904E+03  0.71970892906E+03  0.50400001928E-02 0.  1.
       -1   -1    0    0    0  501  0.00000000000E+00  0.00000000000E+00 -0.20174843006E+04  0.20174843006E+04  0.50400001928E-02 0. -1.
    10030    2    1    2    0    0  0.00000000000E+00  0.00000000000E+00 -0.12977753715E+04  0.27371932296E+04  0.24099804691E+04 0.  0.
        4    1    3    3  502    0  0.13263465835E+03  0.81730143947E+03  0.34543448124E+03  0.89716229818E+03  0.12699999809E+01 0.  1.
       -4    1    3    3    0  502 -0.13263465835E+03 -0.81730143947E+03 -0.16432098528E+04  0.18400309315E+04  0.12699999809E+01 0. -1.
</event>
<event>
 5   0  0.4139830E-05  0.2285337E+04  0.7818609E-02  0.8483725E-01
       -1   -1    0    0    0  501  0.00000000000E+00  0.00000000000E+00  0.74140072316E+03  0.74140072318E+03  0.50400001928E-02 0.  1.
        1   -1    0    0  501    0  0.00000000000E+00  0.00000000000E+00 -0.17611144598E+04  0.17611144598E+04  0.50400001928E-02 0. -1.
    10030    2    1    2    0    0  0.00000000000E+00  0.00000000000E+00 -0.10197137366E+04  0.25025151830E+04  0.22853372041E+04 0.  0.
        1    1    3    3  502    0  0.53766025009E+03 -0.70919179293E+03 -0.12946664577E+04  0.15710483062E+04  0.50400001928E-02 0. -1.
       -1    1    3    3    0  502 -0.53766025009E+03  0.70919179293E+03  0.27495272106E+03  0.93146687678E+03  0.50400001928E-02 0.  1.
</event>
<event>
 5   0  0.9535394E-05  0.2073734E+04  0.7818609E-02  0.8572903E-01
       -2   -1    0    0    0  501  0.00000000000E+00  0.00000000000E+00  0.61839182458E+03  0.61839182459E+03  0.25500000920E-02 0.  1.
        2   -1    0    0  501    0  0.00000000000E+00  0.00000000000E+00 -0.17385301331E+04  0.17385301331E+04  0.25500000920E-02 0. -1.
    10030    2    1    2    0    0  0.00000000000E+00  0.00000000000E+00 -0.11201383085E+04  0.23569219577E+04  0.20737336580E+04 0.  0.
        2    1    3    3  502    0  0.48300735823E+03  0.80685708538E+03 -0.63640572793E+02  0.94253094742E+03  0.25500000920E-02 0.  1.
       -2    1    3    3    0  502 -0.48300735823E+03 -0.80685708538E+03 -0.10564977357E+04  0.14143910102E+04  0.25500000920E-02 0. -1.
</event>
<event>
 5   0  0.4139830E-05  0.2153197E+04  0.7818609E-02  0.8538165E-01
        1   -1    0    0  501    0  0.00000000000E+00  0.00000000000E+00  0.10985243764E+04  0.10985243765E+04  0.50400001928E-02 0.  1.
       -1   -1    0    0    0  501  0.00000000000E+00  0.00000000000E+00 -0.10551098803E+04  0.10551098803E+04  0.50400001928E-02 0. -1.
    10030    2    1    2    0    0  0.00000000000E+00  0.00000000000E+00  0.43414496122E+02  0.21536342568E+04  0.21531966221E+04 0.  0.
        1    1    3    3  502    0  0.77730499958E+03  0.28649139847E+03 -0.66602507233E+03  0.10629533295E+04  0.50400001928E-02 0. -1.
       -1    1    3    3    0  502 -0.77730499958E+03 -0.28649139847E+03  0.70943956846E+03  0.10906809273E+04  0.50400001928E-02 0.  1.
</event>
<event>
 5   0  0.4005462E-05  0.2257505E+04  0.7818609E-02  0.8494867E-01
        1   -1    0    0  501    0  0.00000000000E+00  0.00000000000E+00  0.13907138493E+04  0.13907138493E+04  0.50400001928E-02 0.  1.
       -1   -1    0    0    0  501  0.00000000000E+00  0.00000000000E+00 -0.91613555201E+03  0.91613555203E+03  0.50400001928E-02 0. -1.
    10030    2    1    2    0    0  0.00000000000E+00  0.00000000000E+00  0.47457829732E+03  0.23068494014E+04  0.22575051717E+04 0.  0.
        4    1    3    3  502    0 -0.88405228017E+03  0.17867523637E+03  0.93080437108E+03  0.12960986322E+04  0.12699999809E+01 0.  1.
       -4    1    3    3    0  502  0.88405228017E+03 -0.17867523637E+03 -0.45622607376E+03  0.10107507692E+04  0.12699999809E+01 0. -1.
</event>
<event>
 5   0  0.9483073E-05  0.2271038E+04  0.7818609E-02  0.8489429E-01
        2   -1    0    0  501    0  0.00000000000E+00  0.00000000000E+00  0.12136475942E+04  0.12136475942E+04  0.25500000920E-02 0. -1.
       -2   -1    0    0    0  501  0.00000000000E+00  0.00000000000E+00 -0.10624200771E+04  0.10624200771E+04  0.25500000920E-02 0.  1.
    10030    2    1    2    0    0  0.00000000000E+00  0.00000000000E+00  0.15122751709E+03  0.22760676714E+04  0.22710381509E+04 0.  0.
        5    1    3    3  502    0 -0.38062046831E+03 -0.81432028110E+01 -0.99654196197E+03  0.10667971806E+04  0.46999998093E+01 0.  1.
       -5    1    3    3    0  502  0.38062046831E+03  0.81432028110E+01  0.11477694791E+04  0.12092704907E+04  0.46999998093E+01 0. -1.
</event>
<event>
 5   0  0.3885219E-05  0.2249658E+04  0.7818609E-02  0.8498039E-01
        1   -1    0    0  501    0  0.00000000000E+00  0.00000000000E+00  0.11227664811E+04  0.11227664812E+04  0.50400001928E-02 0. -1.
       -1   -1    0    0    0  501  0.00000000000E+00  0.00000000000E+00 -0.11268956175E+04  0.11268956175E+04  0.50400001928E-02 0.  1.
    10030    2    1    2    0    0  0.00000000000E+00  0.00000000000E+00 -0.41291363729E+01  0.22496620987E+04  0.22496583093E+04 0.  0.
        2    1    3    3  502    0 -0.10070573987E+04  0.40841512799E+03 -0.29236336242E+03  0.11253638775E+04  0.25500000920E-02 0.  1.
       -2    1    3    3    0  502  0.10070573987E+04 -0.40841512799E+03  0.28823422605E+03  0.11242982212E+04  0.25500000920E-02 0. -1.
</event>
<event>
 5   0  0.4095451E-05  0.2285940E+04  0.7818609E-02  0.8483485E-01
       -1   -1    0    0    0  501  0.00000000000E+00  0.00000000000E+00  0.75960955839E+03  0.75960955841E+03  0.50400001928E-02 0. -1.
        1   -1    0    0  501    0  0.00000000000E+00  0.00000000000E+00 -0.17198055020E+04  0.17198055020E+04  0.50400001928E-02 0.  1.
    10030    2    1    2    0    0  0.00000000000E+00  0.00000000000E+00 -0.96019594359E+03  0.24794150604E+04  0.22859402424E+04 0.  0.
        3    1    3    3  502    0  0.87816017136E+03 -0.13055970325E+03  0.30066698421E+03  0.93734292992E+03  0.10100000352E+00 0. -1.
       -3    1    3    3    0  502 -0.87816017136E+03  0.13055970325E+03 -0.12608629278E+04  0.15420721305E+04  0.10100000352E+00 0.  1.
</event>
<event>
 5   0  0.4005462E-05  0.2094599E+04  0.7818609E-02  0.8563626E-01
        1   -1    0    0  501    0  0.00000000000E+00  0.00000000000E+00  0.11423635182E+04  0.11423635182E+04  0.50400001928E-02 0.  1.
       -1   -1    0    0    0  501  0.00000000000E+00  0.00000000000E+00 -0.96014630084E+03  0.96014630085E+03  0.50400001928E-02 0. -1.
    10030    2    1    2    0    0  0.00000000000E+00  0.00000000000E+00  0.18221721738E+03  0.21025098191E+04  0.20945988697E+04 0.  0.
        4    1    3    3  502    0  0.80267655874E+02 -0.44869679081E+03 -0.85535383186E+03  0.96922829986E+03  0.12699999809E+01 0. -1.
       -4    1    3    3    0  502 -0.80267655874E+02  0.44869679081E+03  0.10375710492E+04  0.11332815192E+04  0.12699999809E+01 0.  1.
</event>
<event>
 5   0  0.4005462E-05  0.2268597E+04  0.7818609E-02  0.8490407E-01
       -1   -1    0    0    0  501  0.00000000000E+00  0.00000000000E+00  0.68555824578E+03  0.68555824580E+03  0.50400001928E-02 0. -1.
        1   -1    0    0  501    0  0.00000000000E+00  0.00000000000E+00 -0.18767673571E+04  0.18767673571E+04  0.50400001928E-02 0.  1.
    10030    2    1    2    0    0  0.00000000000E+00  0.00000000000E+00 -0.11912091113E+04  0.25623256029E+04  0.22685972204E+04 0.  0.
        4    1    3    3  502    0  0.12643865282E+03  0.99459649115E+03  0.35744237226E+01  0.10026082498E+04  0.12699999809E+01 0. -1.
       -4    1    3    3    0  502 -0.12643865282E+03 -0.99459649115E+03 -0.11947835350E+04  0.15597173531E+04  0.12699999809E+01 0.  1.
</event>
<event>
 5   0  0.9312074E-05  0.2268439E+04  0.7818609E-02  0.8490470E-01
        2   -1    0    0  501    0  0.00000000000E+00  0.00000000000E+00  0.12189792983E+04  0.12189792983E+04  0.25500000920E-02 0.  1.
       -2   -1    0    0    0  501  0.00000000000E+00  0.00000000000E+00 -0.10553536904E+04  0.10553536904E+04  0.25500000920E-02 0. -1.
    10030    2    1    2    0    0  0.00000000000E+00  0.00000000000E+00  0.16362560783E+03  0.22743329887E+04  0.22684393763E+04 0.  0.
        4    1    3    3  502    0  0.47227505194E+03  0.97321172241E+03 -0.26005389649E+03  0.11125710869E+04  0.12699999809E+01 0. -1.
       -4    1    3    3    0  502 -0.47227505194E+03 -0.97321172241E+03  0.42367950432E+03  0.11617619019E+04  0.12699999809E+01 0.  1.
</event>
<event>
 5   0  0.3261500E-05  0.2179513E+04  0.7818609E-02  0.8527004E-01
       -3   -1    0    0    0  501  0.00000000000E+00  0.00000000000E+00  0.13108250217E+04  0.13108250256E+04  0.10100000352E+00 0.  1.
        3   -1    0    0  501    0  0.00000000000E+00  0.00000000000E+00 -0.90597108874E+03  0.90597109437E+03  0.10100000352E+00 0. -1.
    10030    2    1    2    0    0  0.00000000000E+00  0.00000000000E+00  0.40485393297E+03  0.22167961200E+04  0.21795133242E+04 0.  0.
        1    1    3    3  502    0  0.10001045496E+04  0.37574319629E+03  0.42099243085E+03  0.11483147159E+04  0.50400001928E-02 0.  1.
       -1    1    3    3    0  502 -0.10001045496E+04 -0.37574319629E+03 -0.16138497881E+02  0.10684814041E+04  0.50400001928E-02 0. -1.
</event>
<event>
 5   0  0.4095451E-05  0.2301371E+04  0.7818609E-02  0.8477381E-01
       -1   -1    0    0    0  501  0.00000000000E+00  0.00000000000E+00  0.66052117569E+03  0.66052117571E+03  0.50400001928E-02 0.  1.
        1   -1    0    0  501    0  0.00000000000E+00  0.00000000000E+00 -0.20045946683E+04  0.20045946683E+04  0.50400001928E-02 0. -1.
    10030    2    1    2    0    0  0.00000000000E+00  0.00000000000E+00 -0.13440734926E+04  0.26651158440E+04  0.23013710932E+04 0.  0.
        3    1    3    3  502    0  0.10882835162E+04  0.28762655509E+03 -0.94848763018E+03  0.14719778672E+04  0.10100000352E+00 0.  1.
       -3    1    3    3    0  502 -0.10882835162E+04 -0.28762655509E+03 -0.39558586243E+03  0.11931379768E+04  0.10100000352E+00 0. -1.
</event>
<event>
 5   0  0.9535394E-05  0.2268738E+04  0.7818609E-02  0.8490350E-01
        2   -1    0    0  501    0  0.00000000000E+00  0.00000000000E+00  0.24749726523E+04  0.24749726523E+04  0.25500000920E-02 0.  1.
       -2   -1    0    0    0  501  0.00000000000E+00  0.00000000000E+00 -0.51992214260E+03  0.51992214261E+03  0.25500000920E-02 0. -1.
    10030    2    1    2    0    0  0.00000000000E+00  0.00000000000E+00  0.19550505097E+04  0.29948947949E+04  0.22687380495E+04 0.  0.
        2    1    3    3  502    0 -0.54782506138E+03 -0.60447980678E+03  0.20180265685E+04  0.21766808140E+04  0.25500000920E-02 0.  1.
       -2    1    3    3    0  502  0.54782506138E+03  0.60447980678E+03 -0.62976058772E+02  0.81821398098E+03  0.25500000920E-02 0. -1.
</event>
<event>
 5   0  0.9483073E-05  0.2381132E+04  0.7818609E-02  0.8446601E-01
        2   -1    0    0  501    0  0.00000000000E+00  0.00000000000E+00  0.17126893520E+04  0.17126893520E+04  0.25500000920E-02 0.  1.
       -2   -1    0    0    0  501  0.00000000000E+00  0.00000000000E+00 -0.82761501111E+03  0.82761501111E+03  0.25500000920E-02 0. -1.
    10030    2    1    2    0    0  0.00000000000E+00  0.00000000000E+00  0.88507434085E+03  0.25403043631E+04  0.23811320140E+04 0.  0.
        5    1    3    3  502    0  0.25768492197E+03 -0.10409954893E+04 -0.10908810911E+03  0.10779589201E+04  0.46999998093E+01 0. -1.
       -5    1    3    3    0  502 -0.25768492197E+03  0.10409954893E+04  0.99416244996E+03  0.14623454430E+04  0.46999998093E+01 0.  1.
</event>
<event>
 5   0  0.9641157E-05  0.2350345E+04  0.7818609E-02  0.8458331E-01
        2   -1    0    0  501    0  0.00000000000E+00  0.00000000000E+00  0.14695664983E+04  0.14695664983E+04  0.25500000920E-02 0. -1.
       -2   -1    0    0    0  501  0.00000000000E+00  0.00000000000E+00 -0.93975373989E+03  0.93975373989E+03  0.25500000920E-02 0.  1.
    10030    2    1    2    0    0  0.00000000000E+00  0.00000000000E+00  0.52981275839E+03  0.24093202382E+04  0.23503451770E+04 0.  0.
        3    1    3    3  502    0 -0.15821781598E+03 -0.11329055598E+04  0.54096411155E+03  0.12653655854E+04  0.10100000352E+00 0. -1.
       -3    1    3    3    0  502  0.15821781598E+03  0.11329055598E+04 -0.11151353158E+02  0.11439546527E+04  0.10100000352E+00 0.  1.
</event>
<event>
 5   0  0.3885219E-05  0.1943905E+04  0.7818609E-02  0.8633306E-01
       -1   -1    0    0    0  501  0.00000000000E+00  0.00000000000E+00  0.17728279121E+04  0.17728279121E+04  0.50400001928E-02 0. -1.
        1   -1    0    0  501    0  0.00000000000E+00  0.00000000000E+00 -0.53287256202E+03  0.53287256204E+03  0.50400001928E-02 0.  1.
    10030    2    1    2    0    0  0.00000000000E+00  0.00000000000E+00  0.12399553501E+04  0.23057004741E+04  0.19439046803E+04 0.  0.
        2    1    3    3  502    0  0.33297826403E+03  0.63338873914E+03 -0.16019191134E+03  0.73329207527E+03  0.25500000920E-02 0.  1.
       -2    1    3    3    0  502 -0.33297826403E+03 -0.63338873914E+03  0.14001472614E+04  0.15724083989E+04  0.25500000920E-02 0. -1.
</event>
<event>
 5   0  0.9641157E-05  0.2323058E+04  0.7818609E-02  0.8468885E-01
        2   -1    0    0  501    0  0.00000000000E+00  0.00000000000E+00  0.24423700846E+04  0.24423700846E+04  0.25500000920E-02 0.  1.
       -2   -1    0    0    0  501  0.00000000000E+00  0.00000000000E+00 -0.55239364731E+03  0.55239364731E+03  0.25500000920E-02 0. -1.
    10030    2    1    2    0    0  0.00000000000E+00  0.00000000000E+00  0.18899764373E+04  0.29947637319E+04  0.23230580872E+04 0.  0.
        3    1    3    3  502    0  0.80673194312E+03 -0.49478014552E+03  0.76820692396E+02  0.94948683479E+03  0.10100000352E+00 0. -1.
       -3    1    3    3    0  502 -0.80673194312E+03  0.49478014552E+03  0.18131557449E+04  0.20452768971E+04  0.10100000352E+00 0.  1.
</event>
<event>
 5   0  0.4295775E-05  0.2363127E+04  0.7818609E-02  0.8453439E-01
        1   -1    0    0  501    0  0.00000000000E+00  0.00000000000E+00  0.18949475441E+04  0.18949475441E+04  0.50400001928E-02 0.  1.
       -1   -1    0    0    0  501  0.00000000000E+00  0.00000000000E+00 -0.73674447795E+03  0.73674447797E+03  0.50400001928E-02 0. -1.
    10030    2    1    2    0    0  0.00000000000E+00  0.00000000000E+00  0.11582030662E+04  0.26316920221E+04  0.23631268600E+04 0.  0.
        5    1    3    3  502    0  0.10985329727E+03  0.60907224979E+02  0.18874806663E+04  0.18916613842E+04  0.46999998093E+01 0.  1.
       -5    1    3    3    0  502 -0.10985329727E+03 -0.60907224979E+02 -0.72927760011E+03  0.74003063787E+03  0.46999998093E+01 0. -1.
</event>
<event>
 5   0  0.4095451E-05  0.2314247E+04  0.7818609E-02  0.8472325E-01
       -1   -1    0    0    0  501  0.00000000000E+00  0.00000000000E+00  0.76150839335E+03  0.76150839337E+03  0.50400001928E-02 0.  1.
        1   -1    0    0  501    0  0.00000000000E+00  0.00000000000E+00 -0.17582664791E+04  0.17582664791E+04  0.50400001928E-02 0. -1.
    10030    2    1    2    0    0  0.00000000000E+00  0.00000000000E+00 -0.99675808578E+03  0.25197748725E+04  0.23142469027E+04 0.  0.
        3    1    3    3  502    0 -0.34665911333E+03 -0.17893722315E+03 -0.16845041501E+04  0.17290880003E+04  0.10100000352E+00 0. -1.
       -3    1    3    3    0  502  0.34665911333E+03  0.17893722315E+03  0.68774606435E+03  0.79068687223E+03  0.10100000352E+00 0.  1.
</event>
<event>
 5   0  0.4005462E-05  0.2312830E+04  0.7818609E-02  0.8472880E-01
        1   -1    0    0  501    0  0.00000000000E+00  0.00000000000E+00  0.91286348751E+03  0.91286348752E+03  0.50400001928E-02 0.  1.
       -1   -1    0    0    0  501  0.00000000000E+00  0.00000000000E+00 -0.14649453045E+04  0.14649453045E+04  0.50400001928E-02 0. -1.
    10030    2    1    2    0    0  0.00000000000E+00  0.00000000000E+00 -0.55208181696E+03  0.23778087920E+04  0.23128295049E+04 0.  0.
        4    1    3    3  502    0 -0.94810314915E+03  0.32934440550E+03 -0.86657051722E+03  0.13260140999E+04  0.12699999809E+01 0. -1.
       -4    1    3    3    0  502  0.94810314915E+03 -0.32934440550E+03  0.31448870026E+03  0.10517946921E+04  0.12699999809E+01 0.  1.
</event>
<event>
 5   0  0.9312074E-05  0.2318608E+04  0.7818609E-02  0.8470620E-01
       -2   -1    0    0    0  501  0.00000000000E+00  0.00000000000E+00  0.60110624724E+03  0.60110624725E+03  0.25500000920E-02 0.  1.
        2   -1    0    0  501    0  0.00000000000E+00  0.00000000000E+00 -0.22358540527E+04  0.22358540527E+04  0.25500000920E-02 0. -1.
    10030    2    1    2    0    0  0.00000000000E+00  0.00000000000E+00 -0.16347478055E+04  0.28369603000E+04  0.23186080644E+04 0.  0.
        4    1    3    3  502    0  0.25193795334E+03 -0.10487106775E+04 -0.29722712604E+03  0.11187548413E+04  0.12699999809E+01 0.  1.
       -4    1    3    3    0  502 -0.25193795334E+03  0.10487106775E+04 -0.13375206795E+04  0.17182054587E+04  0.12699999809E+01 0. -1.
</event>
<event>
 5   0  0.4005462E-05  0.2271574E+04  0.7818609E-02  0.8489214E-01
       -1   -1    0    0    0  501  0.00000000000E+00  0.00000000000E+00  0.61769122115E+03  0.61769122117E+03  0.50400001928E-02 0. -1.
        1   -1    0    0  501    0  0.00000000000E+00  0.00000000000E+00 -0.20884416369E+04  0.20884416369E+04  0.50400001928E-02 0.  1.
    10030    2    1    2    0    0  0.00000000000E+00  0.00000000000E+00 -0.14707504158E+04  0.27061328581E+04  0.22715739610E+04 0.  0.
        4    1    3    3  502    0  0.75034011406E+02 -0.90348066875E+03 -0.15504415495E+04  0.17960451088E+04  0.12699999809E+01 0.  1.
       -4    1    3    3    0  502 -0.75034011406E+02  0.90348066875E+03  0.79691133711E+02  0.91008774927E+03  0.12699999809E+01 0. -1.
</event>
<event>
 5   0  0.3261500E-05  0.2347908E+04  0.7818609E-02  0.8459268E-01
        4   -1    0    0  501    0  0.00000000000E+00  0.00000000000E+00  0.12743875991E+04  0.12743882319E+04  0.12699999809E+01 0.  1.
       -4   -1    0    0    0  501  0.00000000000E+00  0.00000000000E+00 -0.10814342490E+04  0.10814349948E+04  0.12699999809E+01 0. -1.
    10030    2    1    2    0    0  0.00000000000E+00  0.00000000000E+00  0.19295335005E+03  0.23558232267E+04  0.23479080221E+04 0.  0.
        4    1    3    3  502    0  0.78484368002E+03 -0.86546504898E+03 -0.18614215113E+02  0.11684851112E+04  0.12699999809E+01 0. -1.
       -4    1    3    3    0  502 -0.78484368002E+03  0.86546504898E+03  0.21156756516E+03  0.11873381155E+04  0.12699999809E+01 0.  1.
</event>
<event>
 5   0  0.4095451E-05  0.2360134E+04  0.7818609E-02  0.8454582E-01
        1   -1    0    0  501    0  0.00000000000E+00  0.00000000000E+00  0.14339710289E+04  0.14339710289E+04  0.50400001928E-02 0. -1.
       -1   -1    0    0    0  501  0.00000000000E+00  0.00000000000E+00 -0.97111971494E+03  0.97111971495E+03  0.50400001928E-02 0.  1.
    10030    2    1    2    0    0  0.00000000000E+00  0.00000000000E+00  0.46285131393E+03  0.24050907438E+04  0.23601335020E+04 0.  0.
        3    1    3    3  502    0 -0.47837872534E+02 -0.10211717396E+04 -0.36927505001E+03  0.10869426188E+04  0.10100000352E+00 0. -1.
       -3    1    3    3    0  502  0.47837872534E+02  0.10211717396E+04  0.83212636394E+03  0.13181481250E+04  0.10100000352E+00 0.  1.
</event>
<event>
 5   0  0.9535394E-05  0.2064733E+04  0.7818609E-02  0.8576940E-01
        2   -1    0    0  501    0  0.00000000000E+00  0.00000000000E+00  0.11499579125E+04  0.11499579125E+04  0.25500000920E-02 0. -1.
       -2   -1    0    0    0  501  0.00000000000E+00  0.00000000000E+00 -0.92679975531E+03  0.92679975531E+03  0.25500000920E-02 0.  1.
    10030    2    1    2    0    0  0.00000000000E+00  0.00000000000E+00  0.22315815723E+03  0.20767576678E+04  0.20647331178E+04 0.  0.
        2    1    3    3  502    0 -0.18990164063E+03  0.13040653219E+03  0.11237757925E+04  0.11471445108E+04  0.25500000920E-02 0. -1.
       -2    1    3    3    0  502  0.18990164063E+03 -0.13040653219E+03 -0.90061763530E+03  0.92961315706E+03  0.25500000920E-02 0.  1.
</event>
<event>
 5   0  0.9312074E-05  0.2356639E+04  0.7818609E-02  0.8455918E-01
        2   -1    0    0  501    0  0.00000000000E+00  0.00000000000E+00  0.15395382799E+04  0.15395382799E+04  0.25500000920E-02 0. -1.
       -2   -1    0    0    0  501  0.00000000000E+00  0.00000000000E+00 -0.90185252247E+03  0.90185252247E+03  0.25500000920E-02 0.  1.
    10030    2    1    2    0    0  0.00000000000E+00  0.00000000000E+00  0.63768575738E+03  0.24413908023E+04  0.23566386920E+04 0.  0.
        4    1    3    3  502    0  0.87179175967E+03  0.10967771762E+03 -0.49449361387E+03  0.10082537483E+04  0.12699999809E+01 0.  1.
       -4    1    3    3    0  502 -0.87179175967E+03 -0.10967771762E+03  0.11321793712E+04  0.14331370540E+04  0.12699999809E+01 0. -1.
</event>
<event>
 5   0  0.9535394E-05  0.2433558E+04  0.7818609E-02  0.8427046E-01
        2   -1    0    0  501    0  0.00000000000E+00  0.00000000000E+00  0.16855171474E+04  0.16855171474E+04  0.25500000920E-02 0. -1.
       -2   -1    0    0    0  501  0.00000000000E+00  0.00000000000E+00 -0.87839579272E+03  0.87839579273E+03  0.25500000920E-02 0.  1.
    10030    2    1    2    0    0  0.00000000000E+00  0.00000000000E+00  0.80712135468E+03  0.25639129401E+04  0.24335580296E+04 0.  0.
        2    1    3    3  502    0  0.66733288040E+03 -0.86267069681E+03  0.97191732770E+03  0.14608754897E+04  0.25500000920E-02 0.  1.
       -2    1    3    3    0  502 -0.66733288040E+03  0.86267069681E+03 -0.16479597302E+03  0.11030374505E+04  0.25500000920E-02 0. -1.
</event>
<event>
 5   0  0.4005462E-05  0.2317338E+04  0.7818609E-02  0.8471116E-01
        1   -1    0    0  501    0  0.00000000000E+00  0.00000000000E+00  0.11866370925E+04  0.11866370925E+04  0.50400001928E-02 0.  1.
       -1   -1    0    0    0  501  0.00000000000E+00  0.00000000000E+00 -0.11313598595E+04  0.11313598595E+04  0.50400001928E-02 0. -1.
    10030    2    1    2    0    0  0.00000000000E+00  0.00000000000E+00  0.55277233031E+02  0.23179969520E+04  0.23173377606E+04 0.  0.
        4    1    3    3  502    0 -0.17377260784E+03  0.93145092637E+03 -0.63942004445E+03  0.11430911397E+04  0.12699999809E+01 0. -1.
       -4    1    3    3    0  502  0.17377260784E+03 -0.93145092637E+03  0.69469727748E+03  0.11749058123E+04  0.12699999809E+01 0.  1.
</event>
<event>
 5   0  0.9483073E-05  0.2340564E+04  0.7818609E-02  0.8462097E-01
        2   -1    0    0  501    0  0.00000000000E+00  0.00000000000E+00  0.10960961177E+04  0.10960961177E+04  0.25500000920E-02 0. -1.
       -2   -1    0    0    0  501  0.00000000000E+00  0.00000000000E+00 -0.12494892239E+04  0.12494892239E+04  0.25500000920E-02 0.  1.
    10030    2    1    2    0    0  0.00000000000E+00  0.00000000000E+00 -0.15339310624E+03  0.23455853416E+04  0.23405642802E+04 0.  0.
        5    1    3    3  502    0 -0.37046103703E+03 -0.83848803097E+03 -0.80574232724E+03  0.12204697235E+04  0.46999998093E+01 0.  1.
       -5    1    3    3    0  502  0.37046103703E+03  0.83848803097E+03  0.65234922101E+03  0.11251156181E+04  0.46999998093E+01 0. -1.
</event>
<event>
 5   0  0.3885219E-05  0.2300591E+04  0.7818609E-02  0.8477688E-01
       -1   -1    0    0    0  501  0.00000000000E+00  0.00000000000E+00  0.87369362763E+03  0.87369362764E+03  0.50400001928E-02 0.  1.
        1   -1    0    0  501    0  0.00000000000E+00  0.00000000000E+00 -0.15144662266E+04  0.15144662266E+04  0.50400001928E-02 0. -1.
    10030    2    1    2    0    0  0.00000000000E+00  0.00000000000E+00 -0.64077259901E+03  0.23881598543E+04  0.23005907863E+04 0.  0.
        2    1    3    3  502    0 -0.17343304110E+03 -0.92013290667E+02  0.85617274791E+03  0.87839469470E+03  0.25500000920E-02 0.  1.
       -2    1    3    3    0  502  0.17343304110E+03  0.92013290667E+02 -0.14969453469E+04  0.15097651596E+04  0.25500000920E-02 0. -1.
</event>
<event>
 5   0  0.4139830E-05  0.2368306E+04  0.7818609E-02  0.8451465E-01
       -1   -1    0    0    0  501  0.00000000000E+00  0.00000000000E+00  0.10291900295E+04  0.10291900295E+04  0.50400001928E-02 0. -1.
        1   -1    0    0  501    0  0.00000000000E+00  0.00000000000E+00 -0.13624489087E+04  0.13624489087E+04  0.50400001928E-02 0.  1.
    10030    2    1    2    0    0  0.00000000000E+00  0.00000000000E+00 -0.33325887928E+03  0.23916389382E+04  0.23683064266E+04 0.  0.
        1    1    3    3  502    0 -0.10165775630E+04  0.60682319456E+03 -0.19040928710E+03  0.11991330317E+04  0.50400001928E-02 0. -1.
       -1    1    3    3    0  502  0.10165775630E+04 -0.60682319456E+03 -0.14284959217E+03  0.11925059065E+04  0.50400001928E-02 0.  1.
</event>
<event>
 5   0  0.4295775E-05  0.2280113E+04  0.7818609E-02  0.8485804E-01
        1   -1    0    0  501    0  0.00000000000E+00  0.00000000000E+00  0.14493211905E+04  0.14493211905E+04  0.50400001928E-02 0. -1.
       -1   -1    0    0    0  501  0.00000000000E+00  0.00000000000E+00 -0.89678444667E+03  0.89678444669E+03  0.50400001928E-02 0.  1.
    10030    2    1    2    0    0  0.00000000000E+00  0.00000000000E+00  0.55253674380E+03  0.23461056372E+04  0.22801128936E+04 0.  0.
        5    1    3    3  502    0 -0.99451078205E+03 -0.41910880017E+02  0.84814064171E+03  0.13077357744E+04  0.46999998093E+01 0. -1.
       -5    1    3    3    0  502  0.99451078205E+03  0.41910880017E+02 -0.29560389791E+03  0.10383698628E+04  0.46999998093E+01 0.  1.
</event>
<event>
 5   0  0.4005462E-05  0.2353230E+04  0.7818609E-02  0.8457224E-01
        1   -1    0    0  501    0  0.00000000000E+00  0.00000000000E+00  0.17971655055E+04  0.17971655055E+04  0.50400001928E-02 0. -1.
       -1   -1    0    0    0  501  0.00000000000E+00  0.00000000000E+00 -0.77033676767E+03  0.77033676768E+03  0.50400001928E-02 0.  1.
    10030    2    1    2    0    0  0.00000000000E+00  0.00000000000E+00  0.10268287378E+04  0.25675022731E+04  0.23532298370E+04 0.  0.
        4    1    3    3  502    0  0.93105724650E+03 -0.25238911031E+03  0.12484428858E+04  0.15777132538E+04  0.12699999809E+01 0. -1.
       -4    1    3    3    0  502 -0.93105724650E+03  0.25238911031E+03 -0.22161414803E+03  0.98978901932E+03  0.12699999809E+01 0.  1.
</event>
<event>
 5   0  0.9313463E-05  0.2301067E+04  0.7818609E-02  0.8477501E-01
       -2   -1    0    0    0  501  0.00000000000E+00  0.00000000000E+00  0.10152337032E+04  0.10152337032E+04  0.25500000920E-02 0. -1.
        2   -1    0    0  501    0  0.00000000000E+00  0.00000000000E+00 -0.13038646081E+04  0.13038646081E+04  0.25500000920E-02 0.  1.
    10030    2    1    2    0    0  0.00000000000E+00  0.00000000000E+00 -0.28863090487E+03  0.23190983113E+04  0.23010669652E+04 0.  0.
        1    1    3    3  502    0  0.51360894270E+03 -0.57095617391E+03 -0.10077329201E+04  0.12670085780E+04  0.50400001928E-02 0.  1.
       -1    1    3    3    0  502 -0.51360894270E+03  0.57095617391E+03  0.71910201523E+03  0.10520897333E+04  0.50400001928E-02 0. -1.
</event>
<event>
 5   0  0.4139830E-05  0.2227796E+04  0.7818609E-02  0.8506947E-01
       -1   -1    0    0    0  501  0.00000000000E+00  0.00000000000E+00  0.85413406813E+03  0.85413406814E+03  0.50400001928E-02 0. -1.
        1   -1    0    0  501    0  0.00000000000E+00  0.00000000000E+00 -0.14526631163E+04  0.14526631163E+04  0.50400001928E-02 0.  1.
    10030    2    1    2    0    0  0.00000000000E+00  0.00000000000E+00 -0.59852904818E+03  0.23067971845E+04  0.22277962718E+04 0.  0.
        1    1    3    3  502    0  0.26152852463E+03  0.10095750014E+04  0.10593074973E+03  0.10482653177E+04  0.50400001928E-02 0.  1.
       -1    1    3    3    0  502 -0.26152852463E+03 -0.10095750014E+04 -0.70445979791E+03  0.12585318667E+04  0.50400001928E-02 0. -1.
</event>
<event>
 5   0  0.9641157E-05  0.1507594E+04  0.7818609E-02  0.8879419E-01
       -2   -1    0    0    0  501  0.00000000000E+00  0.00000000000E+00  0.38510087948E+03  0.38510087948E+03  0.25500000920E-02 0.  1.
        2   -1    0    0  501    0  0.00000000000E+00  0.00000000000E+00 -0.14754833563E+04  0.14754833563E+04  0.25500000920E-02 0. -1.
    10030    2    1    2    0    0  0.00000000000E+00  0.00000000000E+00 -0.10903824768E+04  0.18605842358E+04  0.15075940278E+04 0.  0.
        3    1    3    3  502    0  0.68793384815E+03  0.27910761599E+03 -0.38401460263E+03  0.83583566924E+03  0.10100000352E+00 0.  1.
       -3    1    3    3    0  502 -0.68793384815E+03 -0.27910761599E+03 -0.70636787417E+03  0.10247485665E+04  0.10100000352E+00 0. -1.
</event>
<event>
 5   0  0.9313463E-05  0.2270834E+04  0.7818609E-02  0.8489510E-01
        2   -1    0    0  501    0  0.00000000000E+00  0.00000000000E+00  0.18125686572E+04  0.18125686572E+04  0.25500000920E-02 0.  1.
       -2   -1    0    0    0  501  0.00000000000E+00  0.00000000000E+00 -0.71124023998E+03  0.71124023999E+03  0.25500000920E-02 0. -1.
    10030    2    1    2    0    0  0.00000000000E+00  0.00000000000E+00  0.11013284172E+04  0.25238088972E+04  0.22708340025E+04 0.  0.
        1    1    3    3  502    0 -0.59705677408E+03  0.94754733216E+03  0.75813951601E+03  0.13524415935E+04  0.50400001928E-02 0.  1.
       -1    1    3    3    0  502  0.59705677408E+03 -0.94754733216E+03  0.34318890121E+03  0.11713673037E+04  0.50400001928E-02 0. -1.
</event>
<event>
 5   0  0.9313463E-05  0.2287234E+04  0.7818609E-02  0.8482972E-01
       -2   -1    0    0    0  501  0.00000000000E+00  0.00000000000E+00  0.74193703028E+03  0.74193703028E+03  0.25500000920E-02 0.  1.
        2   -1    0    0  501    0  0.00000000000E+00  0.00000000000E+00 -0.17627632298E+04  0.17627632298E+04  0.25500000920E-02 0. -1.
    10030    2    1    2    0    0  0.00000000000E+00  0.00000000000E+00 -0.10208261995E+04  0.25047002601E+04  0.22872335393E+04 0.  0.
        1    1    3    3  502    0 -0.95362254430E+03 -0.54326377727E+03 -0.86242220595E+03  0.13958164457E+04  0.50400001928E-02 0. -1.
       -1    1    3    3    0  502  0.95362254430E+03  0.54326377727E+03 -0.15840399360E+03  0.11088838144E+04  0.50400001928E-02 0.  1.
</event>
<event>
 5   0  0.9483073E-05  0.2333854E+04  0.7818609E-02  0.8464691E-01
       -2   -1    0    0    0  501  0.00000000000E+00  0.00000000000E+00  0.70396861922E+03  0.70396861922E+03  0.25500000920E-02 0.  1.
        2   -1    0    0  501    0  0.00000000000E+00  0.00000000000E+00 -0.19343461516E+04  0.19343461516E+04  0.25500000920E-02 0. -1.
    10030    2    1    2    0    0  0.00000000000E+00  0.00000000000E+00 -0.12303775324E+04  0.26383147708E+04  0.23338543137E+04 0.  0.
        5    1    3    3  502    0  0.47786209847E+03  0.51650616904E+03  0.43714549952E+03  0.82840152436E+03  0.46999998093E+01 0.  1.
       -5    1    3    3    0  502 -0.47786209847E+03 -0.51650616904E+03 -0.16675230319E+04  0.18099132465E+04  0.46999998093E+01 0. -1.
</event>
<event>
 5   0  0.4295775E-05  0.2306724E+04  0.7818609E-02  0.8475275E-01
       -1   -1    0    0    0  501  0.00000000000E+00  0.00000000000E+00  0.96977843957E+03  0.96977843959E+03  0.50400001928E-02 0.  1.
        1   -1    0    0  501    0  0.00000000000E+00  0.00000000000E+00 -0.13716983762E+04  0.13716983762E+04  0.50400001928E-02 0. -1.
    10030    2    1    2    0    0  0.00000000000E+00  0.00000000000E+00 -0.40191993659E+03  0.23414768158E+04  0.23067236599E+04 0.  0.
        5    1    3    3  502    0 -0.68760675460E+03 -0.88193787780E+02 -0.11366065280E+04  0.13313443141E+04  0.46999998093E+01 0. -1.
       -5    1    3    3    0  502  0.68760675460E+03  0.88193787780E+02  0.73468659146E+03  0.10101325016E+04  0.46999998093E+01 0.  1.
</event>
<event>
 5   0  0.9641157E-05  0.1860792E+04  0.7818609E-02  0.8674623E-01
        2   -1    0    0  501    0  0.00000000000E+00  0.00000000000E+00  0.15557494025E+04  0.15557494025E+04  0.25500000920E-02 0.  1.
       -2   -1    0    0    0  501  0.00000000000E+00  0.00000000000E+00 -0.55641123734E+03  0.55641123735E+03  0.25500000920E-02 0. -1.
    10030    2    1    2    0    0  0.00000000000E+00  0.00000000000E+00  0.99933816520E+03  0.21121606399E+04  0.18607917133E+04 0.  0.
        3    1    3    3  502    0 -0.44439316288E+03  0.14818994800E+03 -0.41278201823E+03  0.62436731871E+03  0.10100000352E+00 0. -1.
       -3    1    3    3    0  502  0.44439316288E+03 -0.14818994800E+03  0.14121201834E+04  0.14877933212E+04  0.10100000352E+00 0.  1.
</event>
<event>
 5   0  0.3885219E-05  0.2283903E+04  0.7818609E-02  0.8484295E-01
        1   -1    0    0  501    0  0.00000000000E+00  0.00000000000E+00  0.10627513198E+04  0.10627513199E+04  0.50400001928E-02 0.  1.
       -1   -1    0    0    0  501  0.00000000000E+00  0.00000000000E+00 -0.12270539155E+04  0.12270539156E+04  0.50400001928E-02 0. -1.
    10030    2    1    2    0    0  0.00000000000E+00  0.00000000000E+00 -0.16430259570E+03  0.22898052354E+04  0.22839029474E+04 0.  0.
        2    1    3    3  502    0  0.12688886641E+03  0.10538012410E+04  0.34019181933E+03  0.11145978261E+04  0.25500000920E-02 0.  1.
       -2    1    3    3    0  502 -0.12688886641E+03 -0.10538012410E+04 -0.50449441503E+03  0.11752074093E+04  0.25500000920E-02 0. -1.
</event>
<event>
 5   0  0.4139830E-05  0.2411248E+04  0.7818609E-02  0.8435304E-01
        1   -1    0    0  501    0  0.00000000000E+00  0.00000000000E+00  0.12550411024E+04  0.12550411024E+04  0.50400001928E-02 0. -1.
       -1   -1    0    0    0  501  0.00000000000E+00  0.00000000000E+00 -0.11581531502E+04  0.11581531502E+04  0.50400001928E-02 0.  1.
    10030    2    1    2    0    0  0.00000000000E+00  0.00000000000E+00  0.96887952155E+02  0.24131942526E+04  0.24112484786E+04 0.  0.
        1    1    3    3  502    0  0.82525397895E+03 -0.78942491510E+03 -0.33825361236E+03  0.11910715061E+04  0.50400001928E-02 0.  1.
       -1    1    3    3    0  502 -0.82525397895E+03  0.78942491510E+03  0.43514156451E+03  0.12221227465E+04  0.50400001928E-02 0. -1.
</event>
<event>
 5   0  0.4095451E-05  0.2163234E+04  0.7818609E-02  0.8533888E-01
       -1   -1    0    0    0  501  0.00000000000E+00  0.00000000000E+00  0.58239370942E+03  0.58239370944E+03  0.50400001928E-02 0.  1.
        1   -1    0    0  501    0  0.00000000000E+00  0.00000000000E+00 -0.20087712138E+04  0.20087712138E+04  0.50400001928E-02 0. -1.
    10030    2    1    2    0    0  0.00000000000E+00  0.00000000000E+00 -0.14263775044E+04  0.25911649233E+04  0.21632343550E+04 0.  0.
        3    1    3    3  502    0  0.66693661022E+03 -0.81019819250E+03 -0.10270773204E+04  0.14683709972E+04  0.10100000352E+00 0.  1.
       -3    1    3    3    0  502 -0.66693661022E+03  0.81019819250E+03 -0.39930018395E+03  0.11227939260E+04  0.10100000352E+00 0. -1.
</event>
<event>
 5   0  0.4095451E-05  0.2317283E+04  0.7818609E-02  0.8471138E-01
       -1   -1    0    0    0  501  0.00000000000E+00  0.00000000000E+00  0.10213288343E+04  0.10213288343E+04  0.50400001928E-02 0. -1.
        1   -1    0    0  501    0  0.00000000000E+00  0.00000000000E+00 -0.13144157170E+04  0.13144157170E+04  0.50400001928E-02 0.  1.
    10030    2    1    2    0    0  0.00000000000E+00  0.00000000000E+00 -0.29308688266E+03  0.23357445513E+04  0.23172834717E+04 0.  0.
        3    1    3    3  502    0  0.79493939266E+03 -0.64801666602E+03 -0.68990800721E+03  0.12360531162E+04  0.10100000352E+00 0.  1.
       -3    1    3    3    0  502 -0.79493939266E+03  0.64801666602E+03  0.39682112455E+03  0.10996914351E+04  0.10100000352E+00 0. -1.
</event>
<event>
 5   0  0.9535394E-05  0.2271548E+04  0.7818609E-02  0.8489224E-01
       -2   -1    0    0    0  501  0.00000000000E+00  0.00000000000E+00  0.10516684989E+04  0.10516684989E+04  0.25500000920E-02 0.  1.
        2   -1    0    0  501    0  0.00000000000E+00  0.00000000000E+00 -0.12266059254E+04  0.12266059254E+04  0.25500000920E-02 0. -1.
    10030    2    1    2    0    0  0.00000000000E+00  0.00000000000E+00 -0.17493742648E+03  0.22782744243E+04  0.22715482054E+04 0.  0.
        2    1    3    3  502    0 -0.86963973824E+03  0.47597615763E+03 -0.64332656580E+03  0.11818187878E+04  0.25500000920E-02 0.  1.
       -2    1    3    3    0  502  0.86963973824E+03 -0.47597615763E+03  0.46838913932E+03  0.10964556365E+04  0.25500000920E-02 0. -1.
</event>
<event>
 5   0  0.4295775E-05  0.2261235E+04  0.7818609E-02  0.8493365E-01
        1   -1    0    0  501    0  0.00000000000E+00  0.00000000000E+00  0.19176814313E+04  0.19176814313E+04  0.50400001928E-02 0.  1.
       -1   -1    0    0    0  501  0.00000000000E+00  0.00000000000E+00 -0.66658379499E+03  0.66658379501E+03  0.50400001928E-02 0. -1.
    10030    2    1    2    0    0  0.00000000000E+00  0.00000000000E+00  0.12510976363E+04  0.25842652264E+04  0.22612345001E+04 0.  0.
        5    1    3    3  502    0 -0.66090272758E+03  0.26255648839E+03 -0.37895908998E+03  0.80582901835E+03  0.46999998093E+01 0. -1.
       -5    1    3    3    0  502  0.66090272758E+03 -0.26255648839E+03  0.16300567263E+04  0.17784362080E+04  0.46999998093E+01 0.  1.
</event>
<event>
 5   0  0.9483073E-05  0.1930396E+04  0.7818609E-02  0.8639872E-01
        2   -1    0    0  501    0  0.00000000000E+00  0.00000000000E+00  0.86901068119E+03  0.86901068119E+03  0.25500000920E-02 0.  1.
       -2   -1    0    0    0  501  0.00000000000E+00  0.00000000000E+00 -0.10720320344E+04  0.10720320344E+04  0.25500000920E-02 0. -1.
    10030    2    1    2    0    0  0.00000000000E+00  0.00000000000E+00 -0.20302135321E+03  0.19410427156E+04  0.19303961132E+04 0.  0.
        5    1    3    3  502    0 -0.10253138226E+03 -0.91637696373E+02  0.85909853453E+03  0.87004743191E+03  0.46999998093E+01 0.  1.
       -5    1    3    3    0  502  0.10253138226E+03  0.91637696373E+02 -0.10621198877E+04  0.10709952837E+04  0.46999998093E+01 0. -1.
</event>
<event>
 5   0  0.3885219E-05  0.2302943E+04  0.7818609E-02  0.8476762E-01
        1   -1    0    0  501    0  0.00000000000E+00  0.00000000000E+00  0.12362419576E+04  0.12362419577E+04  0.50400001928E-02 0.  1.
       -1   -1    0    0    0  501  0.00000000000E+00  0.00000000000E+00 -0.10725139239E+04  0.10725139239E+04  0.50400001928E-02 0. -1.
    10030    2    1    2    0    0  0.00000000000E+00  0.00000000000E+00  0.16372803376E+03  0.23087558816E+04  0.23029430847E+04 0.  0.
        2    1    3    3  502    0  0.13865112691E+02 -0.18945203608E+03  0.12204252695E+04  0.12351202993E+04  0.25500000920E-02 0.  1.
       -2    1    3    3    0  502 -0.13865112691E+02  0.18945203608E+03 -0.10566972358E+04  0.10736355822E+04  0.25500000920E-02 0. -1.
</event>
<event>
 5   0  0.3885219E-05  0.2285477E+04  0.7818609E-02  0.8483670E-01
       -1   -1    0    0    0  501  0.00000000000E+00  0.00000000000E+00  0.11153212734E+04  0.11153212735E+04  0.50400001928E-02 0.  1.
        1   -1    0    0  501    0  0.00000000000E+00  0.00000000000E+00 -0.11708294175E+04  0.11708294175E+04  0.50400001928E-02 0. -1.
    10030    2    1    2    0    0  0.00000000000E+00  0.00000000000E+00 -0.55508144086E+02  0.22861506910E+04  0.22854767179E+04 0.  0.
        2    1    3    3  502    0 -0.53196450562E+03 -0.87144403061E+03  0.48567111800E+03  0.11306092909E+04  0.25500000920E-02 0.  1.
       -2    1    3    3    0  502  0.53196450562E+03  0.87144403061E+03 -0.54117926208E+03  0.11555414001E+04  0.25500000920E-02 0. -1.
</event>
<event>
 5   0  0.4139830E-05  0.2299262E+04  0.7818609E-02  0.8478212E-01
       -1   -1    0    0    0  501  0.00000000000E+00  0.00000000000E+00  0.12421826481E+04  0.12421826481E+04  0.50400001928E-02 0. -1.
        1   -1    0    0  501    0  0.00000000000E+00  0.00000000000E+00 -0.10639748751E+04  0.10639748751E+04  0.50400001928E-02 0.  1.
    10030    2    1    2    0    0  0.00000000000E+00  0.00000000000E+00  0.17820777300E+03  0.23061575232E+04  0.22992617318E+04 0.  0.
        1    1    3    3  502    0  0.44002751860E+03 -0.83193315433E+03  0.75132196781E+03  0.12042515060E+04  0.50400001928E-02 0. -1.
       -1    1    3    3    0  502 -0.44002751860E+03  0.83193315433E+03 -0.57311419481E+03  0.11019060172E+04  0.50400001928E-02 0.  1.
</event>
<event>
 5   0  0.3885219E-05  0.1704288E+04  0.7818609E-02  0.8758922E-01
       -1   -1    0    0    0  501  0.00000000000E+00  0.00000000000E+00  0.61471946832E+03  0.61471946834E+03  0.50400001928E-02 0. -1.
        1   -1    0    0  501    0  0.00000000000E+00  0.00000000000E+00 -0.11812702505E+04  0.11812702505E+04  0.50400001928E-02 0.  1.
    10030    2    1    2    0    0  0.00000000000E+00  0.00000000000E+00 -0.56655078222E+03  0.17959897189E+04  0.17042884971E+04 0.  0.
        2    1    3    3  502    0 -0.79851303131E+03  0.60467710896E+01 -0.59675428908E+03  0.99688279459E+03  0.25500000920E-02 0.  1.
       -2    1    3    3    0  502  0.79851303131E+03 -0.60467710896E+01  0.30203506861E+02  0.79910692429E+03  0.25500000920E-02 0. -1.
</event>
<event>
 5   0  0.9313463E-05  0.2305358E+04  0.7818609E-02  0.8475812E-01
       -2   -1    0    0    0  501  0.00000000000E+00  0.00000000000E+00  0.84761630514E+03  0.84761630514E+03  0.25500000920E-02 0. -1.
        2   -1    0    0  501    0  0.00000000000E+00  0.00000000000E+00 -0.15675354475E+04  0.15675354475E+04  0.25500000920E-02 0.  1.
    10030    2    1    2    0    0  0.00000000000E+00  0.00000000000E+00 -0.71991914235E+03  0.24151517526E+04  0.23053577633E+04 0.  0.
        1    1    3    3  502    0  0.22182250370E+03  0.70156583959E+03  0.56957939382E+03  0.93049478038E+03  0.50400001928E-02 0. -1.
       -1    1    3    3    0  502 -0.22182250370E+03 -0.70156583959E+03 -0.12894985362E+04  0.14846569723E+04  0.50400001928E-02 0.  1.
</event>
<event>
 5   0  0.9313463E-05  0.2256511E+04  0.7818609E-02  0.8495268E-01
       -2   -1    0    0    0  501  0.00000000000E+00  0.00000000000E+00  0.13941653631E+04  0.13941653631E+04  0.25500000920E-02 0.  1.
        2   -1    0    0  501    0  0.00000000000E+00  0.00000000000E+00 -0.91306292031E+03  0.91306292032E+03  0.25500000920E-02 0. -1.
    10030    2    1    2    0    0  0.00000000000E+00  0.00000000000E+00  0.48110244277E+03  0.23072282834E+04  0.22565111990E+04 0.  0.
        1    1    3    3  502    0  0.13194681367E+03  0.11121091847E+04  0.38061137531E+03  0.11828194365E+04  0.50400001928E-02 0.  1.
       -1    1    3    3    0  502 -0.13194681367E+03 -0.11121091847E+04  0.10049106746E+03  0.11244088469E+04  0.50400001928E-02 0. -1.
</event>
<event>
 5   0  0.3261500E-05  0.1942421E+04  0.7818609E-02  0.8634024E-01
       -3   -1    0    0    0  501  0.00000000000E+00  0.00000000000E+00  0.15688971764E+04  0.15688971797E+04  0.10100000352E+00 0. -1.
        3   -1    0    0  501    0  0.00000000000E+00  0.00000000000E+00 -0.60121811416E+03  0.60121812264E+03  0.10100000352E+00 0.  1.
    10030    2    1    2    0    0  0.00000000000E+00  0.00000000000E+00  0.96767906226E+03  0.21701153023E+04  0.19424205667E+04 0.  0.
        1    1    3    3  502    0  0.70662039227E+03  0.66310890917E+03  0.41123203542E+03  0.10526811441E+04  0.50400001928E-02 0.  1.
       -1    1    3    3    0  502 -0.70662039227E+03 -0.66310890917E+03  0.55644702684E+03  0.11174341582E+04  0.50400001928E-02 0. -1.
</event>
<event>
 5   0  0.4005462E-05  0.2292619E+04  0.7818609E-02  0.8480837E-01
       -1   -1    0    0    0  501  0.00000000000E+00  0.00000000000E+00  0.51222028051E+03  0.51222028053E+03  0.50400001928E-02 0. -1.
        1   -1    0    0  501    0  0.00000000000E+00  0.00000000000E+00 -0.25653521786E+04  0.25653521786E+04  0.50400001928E-02 0.  1.
    10030    2    1    2    0    0  0.00000000000E+00  0.00000000000E+00 -0.20531318981E+04  0.30775724591E+04  0.22926189501E+04 0.  0.
        4    1    3    3  502    0 -0.42229439584E+03  0.10653730290E+04 -0.10613528890E+04  0.15619935389E+04  0.12699999809E+01 0.  1.
       -4    1    3    3    0  502  0.42229439584E+03 -0.10653730290E+04 -0.99177900905E+03  0.15155789202E+04  0.12699999809E+01 0. -1.
</event>
<event>
 5   0  0.9483073E-05  0.1975213E+04  0.7818609E-02  0.8618298E-01
       -2   -1    0    0    0  501  0.00000000000E+00  0.00000000000E+00  0.73205902059E+03  0.73205902060E+03  0.25500000920E-02 0. -1.
        2   -1    0    0  501    0  0.00000000000E+00  0.00000000000E+00 -0.13323606648E+04  0.13323606648E+04  0.25500000920E-02 0.  1.
    10030    2    1    2    0    0  0.00000000000E+00  0.00000000000E+00 -0.60030164421E+03  0.20644196854E+04  0.19752130451E+04 0.  0.
        5    1    3    3  502    0 -0.34085572115E+03 -0.45244005749E+03  0.54537246957E+03  0.78634461200E+03  0.46999998093E+01 0. -1.
       -5    1    3    3    0  502  0.34085572115E+03  0.45244005749E+03 -0.11456741138E+04  0.12780750734E+04  0.46999998093E+01 0.  1.
</event>
<event>
 5   0  0.4295775E-05  0.2268033E+04  0.7818609E-02  0.8490633E-01
        1   -1    0    0  501    0  0.00000000000E+00  0.00000000000E+00  0.92654613030E+03  0.92654613031E+03  0.50400001928E-02 0. -1.
       -1   -1    0    0    0  501  0.00000000000E+00  0.00000000000E+00 -0.13879430205E+04  0.13879430205E+04  0.50400001928E-02 0.  1.
    10030    2    1    2    0    0  0.00000000000E+00  0.00000000000E+00 -0.46139689024E+03  0.23144891509E+04  0.22680328347E+04 0.  0.
        5    1    3    3  502    0 -0.44011306916E+03 -0.83406730645E+03 -0.87336249435E+03  0.12853606194E+04  0.46999998093E+01 0.  1.
       -5    1    3    3    0  502  0.44011306916E+03  0.83406730645E+03  0.41196560410E+03  0.10291285315E+04  0.46999998093E+01 0. -1.
</event>
<event>
 5   0  0.3885219E-05  0.2030854E+04  0.7818609E-02  0.8592330E-01
       -1   -1    0    0    0  501  0.00000000000E+00  0.00000000000E+00  0.73689484970E+03  0.73689484971E+03  0.50400001928E-02 0. -1.
        1   -1    0    0  501    0  0.00000000000E+00  0.00000000000E+00 -0.13992384292E+04  0.13992384292E+04  0.50400001928E-02 0.  1.
    10030    2    1    2    0    0  0.00000000000E+00  0.00000000000E+00 -0.66234357951E+03  0.21361332789E+04  0.20308536058E+04 0.  0.
        2    1    3    3  502    0  0.67231163260E+03  0.10636789153E+03  0.46139830535E+03  0.82231712609E+03  0.25500000920E-02 0. -1.
       -2    1    3    3    0  502 -0.67231163260E+03 -0.10636789153E+03 -0.11237418849E+04  0.13138161528E+04  0.25500000920E-02 0.  1.
</event>
<event>
 5   0  0.9483073E-05  0.2345873E+04  0.7818609E-02  0.8460050E-01
       -2   -1    0    0    0  501  0.00000000000E+00  0.00000000000E+00  0.95940979379E+03  0.95940979379E+03  0.25500000920E-02 0. -1.
        2   -1    0    0  501    0  0.00000000000E+00  0.00000000000E+00 -0.14339858558E+04  0.14339858558E+04  0.25500000920E-02 0.  1.
    10030    2    1    2    0    0  0.00000000000E+00  0.00000000000E+00 -0.47457606200E+03  0.23933956496E+04  0.23458730351E+04 0.  0.
        5    1    3    3  502    0  0.65153837795E+03 -0.21677339451E+03  0.73290435068E+03  0.10043225775E+04  0.46999998093E+01 0. -1.
       -5    1    3    3    0  502 -0.65153837795E+03  0.21677339451E+03 -0.12074804127E+04  0.13890730721E+04  0.46999998093E+01 0.  1.
</event>
<event>
 5   0  0.9313463E-05  0.2290147E+04  0.7818609E-02  0.8481816E-01
        2   -1    0    0  501    0  0.00000000000E+00  0.00000000000E+00  0.14784130831E+04  0.14784130831E+04  0.25500000920E-02 0. -1.
       -2   -1    0    0    0  501  0.00000000000E+00  0.00000000000E+00 -0.88689247020E+03  0.88689247020E+03  0.25500000920E-02 0.  1.
    10030    2    1    2    0    0  0.00000000000E+00  0.00000000000E+00  0.59152061291E+03  0.23653055533E+04  0.22901470968E+04 0.  0.
        1    1    3    3  502    0  0.22046421524E+03  0.98331270952E+03 -0.26585453503E+03  0.10422029499E+04  0.50400001928E-02 0.  1.
       -1    1    3    3    0  502 -0.22046421524E+03 -0.98331270952E+03  0.85737514794E+03  0.13231026034E+04  0.50400001928E-02 0. -1.
</event>
<event>
 5   0  0.3885219E-05  0.2233669E+04  0.7818609E-02  0.8504544E-01
        1   -1    0    0  501    0  0.00000000000E+00  0.00000000000E+00  0.10707548125E+04  0.10707548125E+04  0.50400001928E-02 0. -1.
       -1   -1    0    0    0  501  0.00000000000E+00  0.00000000000E+00 -0.11648970012E+04  0.11648970012E+04  0.50400001928E-02 0.  1.
    10030    2    1    2    0    0  0.00000000000E+00  0.00000000000E+00 -0.94142188743E+02  0.22356518137E+04  0.22336687938E+04 0.  0.
        2    1    3    3  502    0 -0.64901601096E+03  0.89347706983E+03  0.11979828269E+03  0.11107991202E+04  0.25500000920E-02 0.  1.
       -2    1    3    3    0  502  0.64901601096E+03 -0.89347706983E+03 -0.21394047143E+03  0.11248526935E+04  0.25500000920E-02 0. -1.
</event>
<event>
 5   0  0.4295775E-05  0.2356895E+04  0.7818609E-02  0.8455820E-01
        1   -1    0    0  501    0  0.00000000000E+00  0.00000000000E+00  0.77501679903E+03  0.77501679904E+03  0.50400001928E-02 0.  1.
       -1   -1    0    0    0  501  0.00000000000E+00  0.00000000000E+00 -0.17918811874E+04  0.17918811874E+04  0.50400001928E-02 0. -1.
    10030    2    1    2    0    0  0.00000000000E+00  0.00000000000E+00 -0.10168643883E+04  0.25668979864E+04  0.23568945858E+04 0.  0.
        5    1    3    3  502    0  0.10383896860E+04  0.25758575682E+03  0.29668242119E+02  0.10702830731E+04  0.46999998093E+01 0.  1.
       -5    1    3    3    0  502 -0.10383896860E+04 -0.25758575682E+03 -0.10465326305E+04  0.14966149133E+04  0.46999998093E+01 0. -1.
</event>
<event>
 5   0  0.4095451E-05  0.2291778E+04  0.7818609E-02  0.8481170E-01
       -1   -1    0    0    0  501  0.00000000000E+00  0.00000000000E+00  0.71978690522E+03  0.71978690524E+03  0.50400001928E-02 0.  1.
        1   -1    0    0  501    0  0.00000000000E+00  0.00000000000E+00 -0.18242362071E+04  0.18242362071E+04  0.50400001928E-02 0. -1.
    10030    2    1    2    0    0  0.00000000000E+00  0.00000000000E+00 -0.11044493019E+04  0.25440231124E+04  0.22917777676E+04 0.  0.
        3    1    3    3  502    0  0.20855363265E+03  0.81780295934E+03  0.30817627955E+03  0.89848145639E+03  0.10100000352E+00 0.  1.
       -3    1    3    3    0  502 -0.20855363265E+03 -0.81780295934E+03 -0.14126255815E+04  0.16455416560E+04  0.10100000352E+00 0. -1.
</event>
<event>
 5   0  0.4095451E-05  0.2370710E+04  0.7818609E-02  0.8450552E-01
        1   -1    0    0  501    0  0.00000000000E+00  0.00000000000E+00  0.12491541517E+04  0.12491541517E+04  0.50400001928E-02 0.  1.
       -1   -1    0    0    0  501  0.00000000000E+00  0.00000000000E+00 -0.11248139437E+04  0.11248139437E+04  0.50400001928E-02 0. -1.
    10030    2    1    2    0    0  0.00000000000E+00  0.00000000000E+00  0.12434020803E+03  0.23739680954E+04  0.23707096049E+04 0.  0.
        3    1    3    3  502    0  0.29243916678E+03  0.33078641331E+03 -0.10393990272E+04  0.11292876805E+04  0.10100000352E+00 0. -1.
       -3    1    3    3    0  502 -0.29243916678E+03 -0.33078641331E+03  0.11637392352E+04  0.12446804149E+04  0.10100000352E+00 0.  1.
</event>
<event>
 5   0  0.4295775E-05  0.2391974E+04  0.7818609E-02  0.8442514E-01
       -1   -1    0    0    0  501  0.00000000000E+00  0.00000000000E+00  0.57116680578E+03  0.57116680580E+03  0.50400001928E-02 0. -1.
        1   -1    0    0  501    0  0.00000000000E+00  0.00000000000E+00 -0.25043208023E+04  0.25043208023E+04  0.50400001928E-02 0.  1.
    10030    2    1    2    0    0  0.00000000000E+00  0.00000000000E+00 -0.19331539965E+04  0.30754876081E+04  0.23919740077E+04 0.  0.
        5    1    3    3  502    0 -0.67247423048E+03  0.77066508917E+03 -0.17635535815E+04  0.20386980147E+04  0.46999998093E+01 0.  1.
       -5    1    3    3    0  502  0.67247423048E+03 -0.77066508917E+03 -0.16960041508E+03  0.10367895935E+04  0.46999998093E+01 0. -1.
</event>
<event>
 5   0  0.4005462E-05  0.2149083E+04  0.7818609E-02  0.8539925E-01
       -1   -1    0    0    0  501  0.00000000000E+00  0.00000000000E+00  0.74919687466E+03  0.74919687468E+03  0.50400001928E-02 0. -1.
        1   -1    0    0  501    0  0.00000000000E+00  0.00000000000E+00 -0.15411695565E+04  0.15411695565E+04  0.50400001928E-02 0.  1.
    10030    2    1    2    0    0  0.00000000000E+00  0.00000000000E+00 -0.79197268181E+03  0.22903664311E+04  0.21490829812E+04 0.  0.
        4    1    3    3  502    0  0.22116061326E+02 -0.11218875736E+03 -0.15346661138E+04  0.15389207683E+04  0.12699999809E+01 0.  1.
       -4    1    3    3    0  502 -0.22116061326E+02  0.11218875736E+03  0.74269343196E+03  0.75144566285E+03  0.12699999809E+01 0. -1.
</event>
<event>
 5   0  0.4295775E-05  0.2280314E+04  0.7818609E-02  0.8485724E-01
       -1   -1    0    0    0  501  0.00000000000E+00  0.00000000000E+00  0.86110615307E+03  0.86110615308E+03  0.50400001928E-02 0. -1.
        1   -1    0    0  501    0  0.00000000000E+00  0.00000000000E+00 -0.15096374023E+04  0.15096374024E+04  0.50400001928E-02 0.  1.
    10030    2    1    2    0    0  0.00000000000E+00  0.00000000000E+00 -0.64853124928E+03  0.23707435554E+04  0.22803140627E+04 0.  0.
        5    1    3    3  502    0  0.28547232743E+03 -0.70264554686E+03 -0.12093369242E+04  0.14274883889E+04  0.46999998093E+01 0.  1.
       -5    1    3    3    0  502 -0.28547232743E+03  0.70264554686E+03  0.56080567489E+03  0.94325516656E+03  0.46999998093E+01 0. -1.
</event>
<event>
 5   0  0.9312074E-05  0.2303877E+04  0.7818609E-02  0.8476394E-01
       -2   -1    0    0    0  501  0.00000000000E+00  0.00000000000E+00  0.14106713736E+04  0.14106713736E+04  0.25500000920E-02 0. -1.
        2   -1    0    0  501    0  0.00000000000E+00  0.00000000000E+00 -0.94066044958E+03  0.94066044958E+03  0.25500000920E-02 0.  1.
    10030    2    1    2    0    0  0.00000000000E+00  0.00000000000E+00  0.47001092405E+03  0.23513318232E+04  0.23038774000E+04 0.  0.
        4    1    3    3  502    0 -0.69069843309E+03 -0.35203900981E+03  0.11045913999E+04  0.13494886303E+04  0.12699999809E+01 0. -1.
       -4    1    3    3    0  502  0.69069843309E+03  0.35203900981E+03 -0.63458047581E+03  0.10018431929E+04  0.12699999809E+01 0.  1.
</event>
<event>
 5   0  0.4295775E-05  0.2305545E+04  0.7818609E-02  0.8475738E-01
       -1   -1    0    0    0  501  0.00000000000E+00  0.00000000000E+00  0.13059901844E+04  0.13059901845E+04  0.50400001928E-02 0. -1.
        1   -1    0    0  501    0  0.00000000000E+00  0.00000000000E+00 -0.10175298027E+04  0.10175298027E+04  0.50400001928E-02 0.  1.
    10030    2    1    2    0    0  0.00000000000E+00  0.00000000000E+00  0.28846038174E+03  0.23235199872E+04  0.23055445645E+04 0.  0.
        5    1    3    3  502    0  0.20307864281E+03  0.65343786888E+03 -0.79070954875E+03  0.10456890858E+04  0.46999998093E+01 0.  1.
       -5    1    3    3    0  502 -0.20307864281E+03 -0.65343786888E+03  0.10791699305E+04  0.12778309014E+04  0.46999998093E+01 0. -1.
</event>
<event>
 5   0  0.9641157E-05  0.2374727E+04  0.7818609E-02  0.8449026E-01
       -2   -1    0    0    0  501  0.00000000000E+00  0.00000000000E+00  0.79674732879E+03  0.79674732880E+03  0.25500000920E-02 0.  1.
        2   -1    0    0  501    0  0.00000000000E+00  0.00000000000E+00 -0.17694847737E+04  0.17694847737E+04  0.25500000920E-02 0. -1.
    10030    2    1    2    0    0  0.00000000000E+00  0.00000000000E+00 -0.97273744488E+03  0.25662321025E+04  0.23747271563E+04 0.  0.
        3    1    3    3  502    0  0.45788318854E+03 -0.66902583011E+03  0.45110360957E+03  0.92776454581E+03  0.10100000352E+00 0.  1.
       -3    1    3    3    0  502 -0.45788318854E+03  0.66902583011E+03 -0.14238410545E+04  0.16384675567E+04  0.10100000352E+00 0. -1.
</event>
<event>
 5   0  0.9641157E-05  0.2329717E+04  0.7818609E-02  0.8466295E-01
        2   -1    0    0  501    0  0.00000000000E+00  0.00000000000E+00  0.17527029392E+04  0.17527029392E+04  0.25500000920E-02 0.  1.
       -2   -1    0    0    0  501  0.00000000000E+00  0.00000000000E+00 -0.77417331309E+03  0.77417331309E+03  0.25500000920E-02 0. -1.
    10030    2    1    2    0    0  0.00000000000E+00  0.00000000000E+00  0.97852962613E+03  0.25268762523E+04  0.23297174432E+04 0.  0.
        3    1    3    3  502    0 -0.11155015260E+04  0.73867657779E+02  0.84421452850E+03  0.14008919536E+04  0.10100000352E+00 0. -1.
       -3    1    3    3    0  502  0.11155015260E+04 -0.73867657779E+02  0.13431509762E+03  0.11259842987E+04  0.10100000352E+00 0.  1.
</event>
<event>
 5   0  0.3885219E-05  0.2238009E+04  0.7818609E-02  0.8502772E-01
       -1   -1    0    0    0  501  0.00000000000E+00  0.00000000000E+00  0.56220136124E+03  0.56220136126E+03  0.50400001928E-02 0.  1.
        1   -1    0    0  501    0  0.00000000000E+00  0.00000000000E+00 -0.22272651862E+04  0.22272651862E+04  0.50400001928E-02 0. -1.
    10030    2    1    2    0    0  0.00000000000E+00  0.00000000000E+00 -0.16650638249E+04  0.27894665474E+04  0.22380094008E+04 0.  0.
        2    1    3    3  502    0  0.18102965102E+03  0.26987974120E+02 -0.22084816405E+04  0.22160530774E+04  0.25500000920E-02 0. -1.
       -2    1    3    3    0  502 -0.18102965102E+03 -0.26987974120E+02  0.54341781560E+03  0.57341347003E+03  0.25500000920E-02 0.  1.
</event>
<event>
 5   0  0.9483073E-05  0.2304597E+04  0.7818609E-02  0.8476111E-01
        2   -1    0    0  501    0  0.00000000000E+00  0.00000000000E+00  0.10012312213E+04  0.10012312213E+04  0.25500000920E-02 0. -1.
       -2   -1    0    0    0  501  0.00000000000E+00  0.00000000000E+00 -0.13261585467E+04  0.13261585467E+04  0.25500000920E-02 0.  1.
    10030    2    1    2    0    0  0.00000000000E+00  0.00000000000E+00 -0.32492732534E+03  0.23273897680E+04  0.23045965732E+04 0.  0.
        5    1    3    3  502    0  0.88014870450E+03  0.54886100394E+03  0.34435551401E+03  0.10929377630E+04  0.46999998093E+01 0. -1.
       -5    1    3    3    0  502 -0.88014870450E+03 -0.54886100394E+03 -0.66928283935E+03  0.12344520050E+04  0.46999998093E+01 0.  1.
</event>
<event>
 5   0  0.4295775E-05  0.2293928E+04  0.7818609E-02  0.8480319E-01
       -1   -1    0    0    0  501  0.00000000000E+00  0.00000000000E+00  0.70313593307E+03  0.70313593309E+03  0.50400001928E-02 0. -1.
        1   -1    0    0  501    0  0.00000000000E+00  0.00000000000E+00 -0.18709424487E+04  0.18709424487E+04  0.50400001928E-02 0.  1.
    10030    2    1    2    0    0  0.00000000000E+00  0.00000000000E+00 -0.11678065156E+04  0.25740783817E+04  0.22939283898E+04 0.  0.
        5    1    3    3  502    0  0.53827223096E+02 -0.73252520363E+02  0.69907654537E+03  0.70497759395E+03  0.46999998093E+01 0. -1.
       -5    1    3    3    0  502 -0.53827223096E+02  0.73252520363E+02 -0.18668830609E+04  0.18691007878E+04  0.46999998093E+01 0.  1.
</event>
<event>
 5   0  0.3885219E-05  0.2268575E+04  0.7818609E-02  0.8490416E-01
       -1   -1    0    0    0  501  0.00000000000E+00  0.00000000000E+00  0.72454349724E+03  0.72454349726E+03  0.50400001928E-02 0. -1.
        1   -1    0    0  501    0  0.00000000000E+00  0.00000000000E+00 -0.17757492955E+04  0.17757492955E+04  0.50400001928E-02 0.  1.
    10030    2    1    2    0    0  0.00000000000E+00  0.00000000000E+00 -0.10512057983E+04  0.25002927928E+04  0.22685745347E+04 0.  0.
        2    1    3    3  502    0 -0.68057163293E+03 -0.88694832506E+03 -0.73689410067E+03  0.13389802069E+04  0.25500000920E-02 0.  1.
       -2    1    3    3    0  502  0.68057163293E+03  0.88694832506E+03 -0.31431169760E+03  0.11613125859E+04  0.25500000920E-02 0. -1.
</event>
<event>
 5   0  0.9483073E-05  0.2246723E+04  0.7818609E-02  0.8499229E-01
       -2   -1    0    0    0  501  0.00000000000E+00  0.00000000000E+00  0.94890120671E+03  0.94890120671E+03  0.25500000920E-02 0.  1.
        2   -1    0    0  501    0  0.00000000000E+00  0.00000000000E+00 -0.13298966701E+04  0.13298966701E+04  0.25500000920E-02 0. -1.
    10030    2    1    2    0    0  0.00000000000E+00  0.00000000000E+00 -0.38099546343E+03  0.22787978769E+04  0.22467225508E+04 0.  0.
        5    1    3    3  502    0  0.10082723326E+04  0.47677386034E+03 -0.32654716590E+03  0.11621452371E+04  0.46999998093E+01 0. -1.
       -5    1    3    3    0  502 -0.10082723326E+04 -0.47677386034E+03 -0.54448297534E+02  0.11166526397E+04  0.46999998093E+01 0.  1.
</event>
<event>
 5   0  0.9313463E-05  0.1508175E+04  0.7818609E-02  0.8879035E-01
        2   -1    0    0  501    0  0.00000000000E+00  0.00000000000E+00  0.15226649631E+04  0.15226649631E+04  0.25500000920E-02 0.  1.
       -2   -1    0    0    0  501  0.00000000000E+00  0.00000000000E+00 -0.37345582895E+03  0.37345582896E+03  0.25500000920E-02 0. -1.
    10030    2    1    2    0    0  0.00000000000E+00  0.00000000000E+00  0.11492091341E+04  0.18961207920E+04  0.15081751967E+04 0.  0.
        1    1    3    3  502    0  0.65252934755E+03  0.23910209628E+01  0.99432344757E+02  0.66006594943E+03  0.50400001928E-02 0. -1.
       -1    1    3    3    0  502 -0.65252934755E+03 -0.23910209628E+01  0.10497767894E+04  0.12360548426E+04  0.50400001928E-02 0.  1.
</event>
<event>
 5   0  0.3885219E-05  0.2405415E+04  0.7818609E-02  0.8437479E-01
       -1   -1    0    0    0  501  0.00000000000E+00  0.00000000000E+00  0.12919066111E+04  0.12919066111E+04  0.50400001928E-02 0.  1.
        1   -1    0    0  501    0  0.00000000000E+00  0.00000000000E+00 -0.11196668712E+04  0.11196668712E+04  0.50400001928E-02 0. -1.
    10030    2    1    2    0    0  0.00000000000E+00  0.00000000000E+00  0.17223973985E+03  0.24115734823E+04  0.24054147527E+04 0.  0.
        2    1    3    3  502    0 -0.59041532967E+03  0.86457672465E+03  0.67959991912E+03  0.12481743566E+04  0.25500000920E-02 0.  1.
       -2    1    3    3    0  502  0.59041532967E+03 -0.86457672465E+03 -0.50736017928E+03  0.11633991258E+04  0.25500000920E-02 0. -1.
</event>
<event>
 5   0  0.9313463E-05  0.2284323E+04  0.7818609E-02  0.8484128E-01
        2   -1    0    0  501    0  0.00000000000E+00  0.00000000000E+00  0.18163547278E+04  0.18163547278E+04  0.25500000920E-02 0.  1.
       -2   -1    0    0    0  501  0.00000000000E+00  0.00000000000E+00 -0.71821462976E+03  0.71821462976E+03  0.25500000920E-02 0. -1.
    10030    2    1    2    0    0  0.00000000000E+00  0.00000000000E+00  0.10981400981E+04  0.25345693576E+04  0.22843226903E+04 0.  0.
        1    1    3    3  502    0  0.69909977924E+03  0.50773422855E+02 -0.45150386340E+03  0.83377105999E+03  0.50400001928E-02 0. -1.
       -1    1    3    3    0  502 -0.69909977924E+03 -0.50773422855E+02  0.15496439615E+04  0.17007982976E+04  0.50400001928E-02 0.  1.
</event>
<event>
 5   0  0.4005462E-05  0.2325047E+04  0.7818609E-02  0.8468110E-01
       -1   -1    0    0    0  501  0.00000000000E+00  0.00000000000E+00  0.12998294243E+04  0.12998294243E+04  0.50400001928E-02 0. -1.
        1   -1    0    0  501    0  0.00000000000E+00  0.00000000000E+00 -0.10397217742E+04  0.10397217743E+04  0.50400001928E-02 0.  1.
    10030    2    1    2    0    0  0.00000000000E+00  0.00000000000E+00  0.26010765007E+03  0.23395511986E+04  0.23250470578E+04 0.  0.
        4    1    3    3  502    0 -0.23570723107E+03  0.10993307182E+04  0.42748772341E+03  0.12028438358E+04  0.12699999809E+01 0. -1.
       -4    1    3    3    0  502  0.23570723107E+03 -0.10993307182E+04 -0.16738007334E+03  0.11367073628E+04  0.12699999809E+01 0.  1.
</event>
<event>
 5   0  0.9641157E-05  0.2268921E+04  0.7818609E-02  0.8490277E-01
       -2   -1    0    0    0  501  0.00000000000E+00  0.00000000000E+00  0.50255183571E+03  0.50255183571E+03  0.25500000920E-02 0. -1.
        2   -1    0    0  501    0  0.00000000000E+00  0.00000000000E+00 -0.25609300493E+04  0.25609300493E+04  0.25500000920E-02 0.  1.
    10030    2    1    2    0    0  0.00000000000E+00  0.00000000000E+00 -0.20583782136E+04  0.30634818851E+04  0.22689205340E+04 0.  0.
        3    1    3    3  502    0 -0.61808795490E+01 -0.88039028953E+03 -0.63187352502E+02  0.88267656414E+03  0.10100000352E+00 0. -1.
       -3    1    3    3    0  502  0.61808795490E+01  0.88039028953E+03 -0.19951908611E+04  0.21808053209E+04  0.10100000352E+00 0.  1.
</event>
<event>
 5   0  0.4005462E-05  0.1883466E+04  0.7818609E-02  0.8663130E-01
       -1   -1    0    0    0  501  0.00000000000E+00  0.00000000000E+00  0.72619686476E+03  0.72619686478E+03  0.50400001928E-02 0. -1.
        1   -1    0    0  501    0  0.00000000000E+00  0.00000000000E+00 -0.12212411470E+04  0.12212411470E+04  0.50400001928E-02 0.  1.
    10030    2    1    2    0    0  0.00000000000E+00  0.00000000000E+00 -0.49504428227E+03  0.19474380118E+04  0.18834664766E+04 0.  0.
        4    1    3    3  502    0 -0.27544598663E+03  0.20508939096E+03  0.65914632121E+03  0.74324130368E+03  0.12699999809E+01 0. -1.
       -4    1    3    3    0  502  0.27544598663E+03 -0.20508939096E+03 -0.11541906035E+04  0.12041967081E+04  0.12699999809E+01 0.  1.
</event>
<event>
 5   0  0.9641157E-05  0.2271788E+04  0.7818609E-02  0.8489129E-01
        2   -1    0    0  501    0  0.00000000000E+00  0.00000000000E+00  0.11467232126E+04  0.11467232126E+04  0.25500000920E-02 0. -1.
       -2   -1    0    0    0  501  0.00000000000E+00  0.00000000000E+00 -0.11251669417E+04  0.11251669417E+04  0.25500000920E-02 0.  1.
    10030    2    1    2    0    0  0.00000000000E+00  0.00000000000E+00  0.21556270927E+02  0.22718901542E+04  0.22717878863E+04 0.  0.
        3    1    3    3  502    0  0.88747984726E+03  0.13005810396E+03 -0.68618899570E+03  0.11293320759E+04  0.10100000352E+00 0.  1.
       -3    1    3    3    0  502 -0.88747984726E+03 -0.13005810396E+03  0.70774526663E+03  0.11425580783E+04  0.10100000352E+00 0. -1.
</event>
<event>
 5   0  0.9312074E-05  0.2256943E+04  0.7818609E-02  0.8495094E-01
        2   -1    0    0  501    0  0.00000000000E+00  0.00000000000E+00  0.68632382539E+03  0.68632382540E+03  0.25500000920E-02 0.  1.
       -2   -1    0    0    0  501  0.00000000000E+00  0.00000000000E+00 -0.18554617773E+04  0.18554617773E+04  0.25500000920E-02 0. -1.
    10030    2    1    2    0    0  0.00000000000E+00  0.00000000000E+00 -0.11691379519E+04  0.25417856027E+04  0.22569427329E+04 0.  0.
        4    1    3    3  502    0  0.12066668657E+02  0.10882810842E+04 -0.92044452308E+03  0.14253845291E+04  0.12699999809E+01 0.  1.
       -4    1    3    3    0  502 -0.12066668657E+02 -0.10882810842E+04 -0.24869342878E+03  0.11164010736E+04  0.12699999809E+01 0. -1.
</event>
<event>
 5   0  0.9535394E-05  0.2230300E+04  0.7818609E-02  0.8505921E-01
       -2   -1    0    0    0  501  0.00000000000E+00  0.00000000000E+00  0.83386745544E+03  0.83386745544E+03  0.25500000920E-02 0. -1.
        2   -1    0    0  501    0  0.00000000000E+00  0.00000000000E+00 -0.14913159898E+04  0.14913159898E+04  0.25500000920E-02 0.  1.
    10030    2    1    2    0    0  0.00000000000E+00  0.00000000000E+00 -0.65744853435E+03  0.23251834452E+04  0.22303003113E+04 0.  0.
        2    1    3    3  502    0 -0.10047052772E+02 -0.44622216577E+03  0.73668338520E+03  0.86134637315E+03  0.25500000920E-02 0. -1.
       -2    1    3    3    0  502  0.10047052772E+02  0.44622216577E+03 -0.13941319196E+04  0.14638370721E+04  0.25500000920E-02 0.  1.
</event>
<event>
 5   0  0.9535394E-05  0.2294654E+04  0.7818609E-02  0.8480032E-01
        2   -1    0    0  501    0  0.00000000000E+00  0.00000000000E+00  0.20460868242E+04  0.20460868242E+04  0.25500000920E-02 0. -1.
       -2   -1    0    0    0  501  0.00000000000E+00  0.00000000000E+00 -0.64335426778E+03  0.64335426778E+03  0.25500000920E-02 0.  1.
    10030    2    1    2    0    0  0.00000000000E+00  0.00000000000E+00  0.14027325565E+04  0.26894410920E+04  0.22946535169E+04 0.  0.
        2    1    3    3  502    0  0.29055751962E+03  0.11041291976E+04  0.83414284216E+03  0.14139728563E+04  0.25500000920E-02 0. -1.
       -2    1    3    3    0  502 -0.29055751962E+03 -0.11041291976E+04  0.56858971430E+03  0.12754682357E+04  0.25500000920E-02 0.  1.
</event>
<event>
 5   0  0.4005462E-05  0.2249708E+04  0.7818609E-02  0.8498019E-01
       -1   -1    0    0    0  501  0.00000000000E+00  0.00000000000E+00  0.60610560159E+03  0.60610560162E+03  0.50400001928E-02 0.  1.
        1   -1    0    0  501    0  0.00000000000E+00  0.00000000000E+00 -0.20875844549E+04  0.20875844549E+04  0.50400001928E-02 0. -1.
    10030    2    1    2    0    0  0.00000000000E+00  0.00000000000E+00 -0.14814788533E+04  0.26936900565E+04  0.22497080983E+04 0.  0.
        4    1    3    3  502    0 -0.56758647484E+03  0.94080739418E+03 -0.10291545452E+04  0.15054679173E+04  0.12699999809E+01 0.  1.
       -4    1    3    3    0  502  0.56758647484E+03 -0.94080739418E+03 -0.45232430808E+03  0.11882221391E+04  0.12699999809E+01 0. -1.
</event>
<event>
 5   0  0.9535394E-05  0.2264427E+04  0.7818609E-02  0.8492080E-01
       -2   -1    0    0    0  501  0.00000000000E+00  0.00000000000E+00  0.20128102417E+04  0.20128102417E+04  0.25500000920E-02 0.  1.
        2   -1    0    0  501    0  0.00000000000E+00  0.00000000000E+00 -0.63687469417E+03  0.63687469417E+03  0.25500000920E-02 0. -1.
    10030    2    1    2    0    0  0.00000000000E+00  0.00000000000E+00  0.13759355476E+04  0.26496849359E+04  0.22644274394E+04 0.  0.
        2    1    3    3  502    0  0.22267046513E+03 -0.10604614547E+04  0.10720630570E+04  0.15242965037E+04  0.25500000920E-02 0.  1.
       -2    1    3    3    0  502 -0.22267046513E+03  0.10604614547E+04  0.30387249054E+03  0.11253884322E+04  0.25500000920E-02 0. -1.
</event>
<event>
 5   0  0.9483073E-05  0.2293100E+04  0.7818609E-02  0.8480647E-01
       -2   -1    0    0    0  501  0.00000000000E+00  0.00000000000E+00  0.76732430494E+03  0.76732430495E+03  0.25500000920E-02 0. -1.
        2   -1    0    0  501    0  0.00000000000E+00  0.00000000000E+00 -0.17131954527E+04  0.17131954527E+04  0.25500000920E-02 0.  1.
    10030    2    1    2    0    0  0.00000000000E+00  0.00000000000E+00 -0.94587114777E+03  0.24805197577E+04  0.22930996577E+04 0.  0.
        5    1    3    3  502    0  0.68258997526E+03 -0.45812503592E+03  0.39160250928E+03  0.91059444218E+03  0.46999998093E+01 0. -1.
       -5    1    3    3    0  502 -0.68258997526E+03  0.45812503592E+03 -0.13374736570E+04  0.15699253155E+04  0.46999998093E+01 0.  1.
</event>
<event>
 5   0  0.9483073E-05  0.1920924E+04  0.7818609E-02  0.8644511E-01
        2   -1    0    0  501    0  0.00000000000E+00  0.00000000000E+00  0.63581348549E+03  0.63581348550E+03  0.25500000920E-02 0.  1.
       -2   -1    0    0    0  501  0.00000000000E+00  0.00000000000E+00 -0.14508770136E+04  0.14508770136E+04  0.25500000920E-02 0. -1.
    10030    2    1    2    0    0  0.00000000000E+00  0.00000000000E+00 -0.81506352810E+03  0.20866904991E+04  0.19209239142E+04 0.  0.
        5    1    3    3  502    0  0.11452298539E+03  0.94628061363E+03 -0.53561590971E+03  0.10933750531E+04  0.46999998093E+01 0. -1.
       -5    1    3    3    0  502 -0.11452298539E+03 -0.94628061363E+03 -0.27944761839E+03  0.99331544603E+03  0.46999998093E+01 0.  1.
</event>
<event>
 5   0  0.9641157E-05  0.2309622E+04  0.7818609E-02  0.8474137E-01
        2   -1    0    0  501    0  0.00000000000E+00  0.00000000000E+00  0.12688245292E+04  0.12688245292E+04  0.25500000920E-02 0.  1.
       -2   -1    0    0    0  501  0.00000000000E+00  0.00000000000E+00 -0.10510421283E+04  0.10510421283E+04  0.25500000920E-02 0. -1.
    10030    2    1    2    0    0  0.00000000000E+00  0.00000000000E+00  0.21778240088E+03  0.23198666575E+04  0.23096216432E+04 0.  0.
        3    1    3    3  502    0  0.55926649130E+03  0.12303790741E+03 -0.89838849250E+03  0.10653728120E+04  0.10100000352E+00 0. -1.
       -3    1    3    3    0  502 -0.55926649130E+03 -0.12303790741E+03  0.11161708934E+04  0.12544938455E+04  0.10100000352E+00 0.  1.
</event>
<event>
 5   0  0.4295775E-05  0.2243858E+04  0.7818609E-02  0.8500392E-01
        1   -1    0    0  501    0  0.00000000000E+00  0.00000000000E+00  0.17103640781E+04  0.17103640782E+04  0.50400001928E-02 0.  1.
       -1   -1    0    0    0  501  0.00000000000E+00  0.00000000000E+00 -0.73593973863E+03  0.73593973864E+03  0.50400001928E-02 0. -1.
    10030    2    1    2    0    0  0.00000000000E+00  0.00000000000E+00  0.97442433952E+03  0.24463038168E+04  0.22438581886E+04 0.  0.
        5    1    3    3  502    0 -0.15976048074E+03  0.59489223067E+03  0.15095142219E+04  0.16303605286E+04  0.46999998093E+01 0.  1.
       -5    1    3    3    0  502  0.15976048074E+03 -0.59489223067E+03 -0.53508988234E+03  0.81594328816E+03  0.46999998093E+01 0. -1.
</event>
<event>
 5   0  0.4139830E-05  0.2404447E+04  0.7818609E-02  0.8437841E-01
        1   -1    0    0  501    0  0.00000000000E+00  0.00000000000E+00  0.15997200017E+04  0.15997200017E+04  0.50400001928E-02 0.  1.
       -1   -1    0    0    0  501  0.00000000000E+00  0.00000000000E+00 -0.90349628542E+03  0.90349628543E+03  0.50400001928E-02 0. -1.
    10030    2    1    2    0    0  0.00000000000E+00  0.00000000000E+00  0.69622371626E+03  0.25032162871E+04  0.24044467798E+04 0.  0.
        1    1    3    3  502    0  0.11356900165E+03 -0.89480875143E+03 -0.47937180340E+03  0.10214587342E+04  0.50400001928E-02 0.  1.
       -1    1    3    3    0  502 -0.11356900165E+03  0.89480875143E+03  0.11755955197E+04  0.14817575529E+04  0.50400001928E-02 0. -1.
</event>
<event>
 5   0  0.9641157E-05  0.2324444E+04  0.7818609E-02  0.8468345E-01
       -2   -1    0    0    0  501  0.00000000000E+00  0.00000000000E+00  0.58691727210E+03  0.58691727210E+03  0.25500000920E-02 0.  1.
        2   -1    0    0  501    0  0.00000000000E+00  0.00000000000E+00 -0.23014490250E+04  0.23014490250E+04  0.25500000920E-02 0. -1.
    10030    2    1    2    0    0  0.00000000000E+00  0.00000000000E+00 -0.17145317529E+04  0.28883662971E+04  0.23244441776E+04 0.  0.
        3    1    3    3  502    0 -0.10428631294E+04  0.51290317136E+03 -0.84326222967E+03  0.14358705959E+04  0.10100000352E+00 0. -1.
       -3    1    3    3    0  502  0.10428631294E+04 -0.51290317136E+03 -0.87126952327E+03  0.14524957013E+04  0.10100000352E+00 0.  1.
</event>
<event>
 5   0  0.3885219E-05  0.2317333E+04  0.7818609E-02  0.8471118E-01
        1   -1    0    0  501    0  0.00000000000E+00  0.00000000000E+00  0.16632082015E+04  0.16632082015E+04  0.50400001928E-02 0.  1.
       -1   -1    0    0    0  501  0.00000000000E+00  0.00000000000E+00 -0.80717957449E+03  0.80717957451E+03  0.50400001928E-02 0. -1.
    10030    2    1    2    0    0  0.00000000000E+00  0.00000000000E+00  0.85602862704E+03  0.24703877760E+04  0.23173326808E+04 0.  0.
        2    1    3    3  502    0  0.60310222367E+03 -0.54768394585E+03  0.13063354207E+04  0.15395461111E+04  0.25500000920E-02 0.  1.
       -2    1    3    3    0  502 -0.60310222367E+03  0.54768394585E+03 -0.45030679370E+03  0.93084166494E+03  0.25500000920E-02 0. -1.
</event>
<event>
 5   0  0.9312074E-05  0.2650047E+04  0.7818609E-02  0.8351397E-01
       -2   -1    0    0    0  501  0.00000000000E+00  0.00000000000E+00  0.96449663211E+03  0.96449663212E+03  0.25500000920E-02 0. -1.
        2   -1    0    0  501    0  0.00000000000E+00  0.00000000000E+00 -0.18203148339E+04  0.18203148339E+04  0.25500000920E-02 0.  1.
    10030    2    1    2    0    0  0.00000000000E+00  0.00000000000E+00 -0.85581820177E+03  0.27848114660E+04  0.26500471895E+04 0.  0.
        4    1    3    3  502    0 -0.66466016948E+03  0.78646941103E+03  0.44839100375E+03  0.11231043498E+04  0.12699999809E+01 0.  1.
       -4    1    3    3    0  502  0.66466016948E+03 -0.78646941103E+03 -0.13042092055E+04  0.16617071162E+04  0.12699999809E+01 0. -1.
</event>
<event>
 5   0  0.4005462E-05  0.2432764E+04  0.7818609E-02  0.8427338E-01
        1   -1    0    0  501    0  0.00000000000E+00  0.00000000000E+00  0.12171659437E+04  0.12171659437E+04  0.50400001928E-02 0. -1.
       -1   -1    0    0    0  501  0.00000000000E+00  0.00000000000E+00 -0.12155986840E+04  0.12155986840E+04  0.50400001928E-02 0.  1.
    10030    2    1    2    0    0  0.00000000000E+00  0.00000000000E+00  0.15672596878E+01  0.24327646277E+04  0.24327641229E+04 0.  0.
        4    1    3    3  502    0 -0.90045685645E+03 -0.65312640952E+03 -0.49134150650E+03  0.12160652721E+04  0.12699999809E+01 0.  1.
       -4    1    3    3    0  502  0.90045685645E+03  0.65312640952E+03  0.49290876619E+03  0.12166993556E+04  0.12699999809E+01 0. -1.
</event>
<event>
 5   0  0.9312074E-05  0.2318810E+04  0.7818609E-02  0.8470541E-01
       -2   -1    0    0    0  501  0.00000000000E+00  0.00000000000E+00  0.65759912417E+03  0.65759912417E+03  0.25500000920E-02 0.  1.
        2   -1    0    0  501    0  0.00000000000E+00  0.00000000000E+00 -0.20441329464E+04  0.20441329464E+04  0.25500000920E-02 0. -1.
    10030    2    1    2    0    0  0.00000000000E+00  0.00000000000E+00 -0.13865338222E+04  0.27017320706E+04  0.23188100700E+04 0.  0.
        4    1    3    3  502    0 -0.98173642139E+02  0.40265805467E+02 -0.20384627020E+04  0.20412229666E+04  0.12699999809E+01 0. -1.
       -4    1    3    3    0  502  0.98173642139E+02 -0.40265805467E+02  0.65192887982E+03  0.66050910390E+03  0.12699999809E+01 0.  1.
</event>
<event>
 5   0  0.9313463E-05  0.1909553E+04  0.7818609E-02  0.8650116E-01
       -2   -1    0    0    0  501  0.00000000000E+00  0.00000000000E+00  0.69347458093E+03  0.69347458094E+03  0.25500000920E-02 0. -1.
        2   -1    0    0  501    0  0.00000000000E+00  0.00000000000E+00 -0.13145377682E+04  0.13145377682E+04  0.25500000920E-02 0.  1.
    10030    2    1    2    0    0  0.00000000000E+00  0.00000000000E+00 -0.62106318730E+03  0.20080123492E+04  0.19095533802E+04 0.  0.
        1    1    3    3  502    0 -0.66923335475E+03  0.54094126330E+03 -0.74551177781E+03  0.11385422892E+04  0.50400001928E-02 0.  1.
       -1    1    3    3    0  502  0.66923335475E+03 -0.54094126330E+03  0.12444859051E+03  0.86947005996E+03  0.50400001928E-02 0. -1.
</event>
<event>
 5   0  0.9535394E-05  0.2242980E+04  0.7818609E-02  0.8500749E-01
       -2   -1    0    0    0  501  0.00000000000E+00  0.00000000000E+00  0.15189076138E+04  0.15189076138E+04  0.25500000920E-02 0. -1.
        2   -1    0    0  501    0  0.00000000000E+00  0.00000000000E+00 -0.82805545592E+03  0.82805545593E+03  0.25500000920E-02 0.  1.
    10030    2    1    2    0    0  0.00000000000E+00  0.00000000000E+00  0.69085215783E+03  0.23469630697E+04  0.22429799256E+04 0.  0.
        2    1    3    3  502    0  0.89712739994E+03 -0.45102441808E+03 -0.17720831606E+03  0.10196388501E+04  0.25500000920E-02 0. -1.
       -2    1    3    3    0  502 -0.89712739994E+03  0.45102441808E+03  0.86806047389E+03  0.13273242195E+04  0.25500000920E-02 0.  1.
</event>
<event>
 5   0  0.4095451E-05  0.2334481E+04  0.7818609E-02  0.8464448E-01
       -1   -1    0    0    0  501  0.00000000000E+00  0.00000000000E+00  0.73534483316E+03  0.73534483317E+03  0.50400001928E-02 0. -1.
        1   -1    0    0  501    0  0.00000000000E+00  0.00000000000E+00 -0.18528048233E+04  0.18528048233E+04  0.50400001928E-02 0.  1.
    10030    2    1    2    0    0  0.00000000000E+00  0.00000000000E+00 -0.11174599901E+04  0.25881496565E+04  0.23344810590E+04 0.  0.
        3    1    3    3  502    0  0.78432737649E+03  0.86301915431E+03 -0.50353078685E+03  0.12702420075E+04  0.10100000352E+00 0.  1.
       -3    1    3    3    0  502 -0.78432737649E+03 -0.86301915431E+03 -0.61392920327E+03  0.13179076489E+04  0.10100000352E+00 0. -1.
</event>
<event>
 5   0  0.4139830E-05  0.2409131E+04  0.7818609E-02  0.8436093E-01
       -1   -1    0    0    0  501  0.00000000000E+00  0.00000000000E+00  0.88489156785E+03  0.88489156786E+03  0.50400001928E-02 0.  1.
        1   -1    0    0  501    0  0.00000000000E+00  0.00000000000E+00 -0.16397234694E+04  0.16397234694E+04  0.50400001928E-02 0. -1.
    10030    2    1    2    0    0  0.00000000000E+00  0.00000000000E+00 -0.75483190159E+03  0.25246150373E+04  0.24091305251E+04 0.  0.
        1    1    3    3  502    0 -0.18553022374E+03  0.27290049276E+03  0.83659960461E+03  0.89933032938E+03  0.50400001928E-02 0.  1.
       -1    1    3    3    0  502  0.18553022374E+03 -0.27290049276E+03 -0.15914315062E+04  0.16252847079E+04  0.50400001928E-02 0. -1.
</event>
<event>
 5   0  0.3885219E-05  0.2247963E+04  0.7818609E-02  0.8498726E-01
       -1   -1    0    0    0  501  0.00000000000E+00  0.00000000000E+00  0.86285865518E+03  0.86285865519E+03  0.50400001928E-02 0.  1.
        1   -1    0    0  501    0  0.00000000000E+00  0.00000000000E+00 -0.14641260990E+04  0.14641260990E+04  0.50400001928E-02 0. -1.
    10030    2    1    2    0    0  0.00000000000E+00  0.00000000000E+00 -0.60126744379E+03  0.23269847542E+04  0.22479625235E+04 0.  0.
        2    1    3    3  502    0 -0.23430203550E+03  0.17334119252E+03 -0.14243297861E+04  0.14538431664E+04  0.25500000920E-02 0. -1.
       -2    1    3    3    0  502  0.23430203550E+03 -0.17334119252E+03  0.82306234235E+03  0.87314158775E+03  0.25500000920E-02 0.  1.
</event>
<event>
 5   0  0.9535394E-05  0.1980531E+04  0.7818609E-02  0.8615777E-01
        2   -1    0    0  501    0  0.00000000000E+00  0.00000000000E+00  0.13846409027E+04  0.13846409027E+04  0.25500000920E-02 0. -1.
       -2   -1    0    0    0  501  0.00000000000E+00  0.00000000000E+00 -0.70821671112E+03  0.70821671113E+03  0.25500000920E-02 0.  1.
    10030    2    1    2    0    0  0.00000000000E+00  0.00000000000E+00  0.67642419158E+03  0.20928576138E+04  0.19805310664E+04 0.  0.
        2    1    3    3  502    0 -0.39938045359E+03 -0.41394319560E+03  0.11900139019E+04  0.13217362833E+04  0.25500000920E-02 0. -1.
       -2    1    3    3    0  502  0.39938045359E+03  0.41394319560E+03 -0.51358971029E+03  0.77112133054E+03  0.25500000920E-02 0.  1.
</event>
<event>
 5   0  0.9483073E-05  0.2268905E+04  0.7818609E-02  0.8490283E-01
       -2   -1    0    0    0  501  0.00000000000E+00  0.00000000000E+00  0.12325977559E+04  0.12325977559E+04  0.25500000920E-02 0. -1.
        2   -1    0    0  501    0  0.00000000000E+00  0.00000000000E+00 -0.10441220943E+04  0.10441220943E+04  0.25500000920E-02 0.  1.
    10030    2    1    2    0    0  0.00000000000E+00  0.00000000000E+00  0.18847566162E+03  0.22767198502E+04  0.22689050666E+04 0.  0.
        5    1    3    3  502    0 -0.58997728382E+03 -0.56113586757E+03 -0.69842841922E+03  0.10727399517E+04  0.46999998093E+01 0.  1.
       -5    1    3    3    0  502  0.58997728382E+03  0.56113586757E+03  0.88690408084E+03  0.12039798985E+04  0.46999998093E+01 0. -1.
</event>
<event>
 5   0  0.4139830E-05  0.2269197E+04  0.7818609E-02  0.8490166E-01
       -1   -1    0    0    0  501  0.00000000000E+00  0.00000000000E+00  0.69582570801E+03  0.69582570803E+03  0.50400001928E-02 0. -1.
        1   -1    0    0  501    0  0.00000000000E+00  0.00000000000E+00 -0.18500522759E+04  0.18500522759E+04  0.50400001928E-02 0.  1.
    10030    2    1    2    0    0  0.00000000000E+00  0.00000000000E+00 -0.11542265679E+04  0.25458779839E+04  0.22691971574E+04 0.  0.
        1    1    3    3  502    0 -0.15706827683E+03  0.65846066342E+03 -0.15986682810E+04  0.17360821298E+04  0.50400001928E-02 0.  1.
       -1    1    3    3    0  502  0.15706827683E+03 -0.65846066342E+03  0.44444171315E+03  0.80979585407E+03  0.50400001928E-02 0. -1.
</event>
<event>
 5   0  0.9313463E-05  0.2274452E+04  0.7818609E-02  0.8488063E-01
        2   -1    0    0  501    0  0.00000000000E+00  0.00000000000E+00  0.67515772894E+03  0.67515772894E+03  0.25500000920E-02 0. -1.
       -2   -1    0    0    0  501  0.00000000000E+00  0.00000000000E+00 -0.19155273588E+04  0.19155273588E+04  0.25500000920E-02 0.  1.
    10030    2    1    2    0    0  0.00000000000E+00  0.00000000000E+00 -0.12403696299E+04  0.25906850878E+04  0.22744521110E+04 0.  0.
        1    1    3    3  502    0  0.76369244834E+03 -0.48722326059E+03  0.16291487084E+03  0.92040964601E+03  0.50400001928E-02 0. -1.
       -1    1    3    3    0  502 -0.76369244834E+03  0.48722326059E+03 -0.14032845007E+04  0.16702754417E+04  0.50400001928E-02 0.  1.
</event>
<event>
 5   0  0.4139830E-05  0.2438124E+04  0.7818609E-02  0.8425367E-01
        1   -1    0    0  501    0  0.00000000000E+00  0.00000000000E+00  0.17373629684E+04  0.17373629684E+04  0.50400001928E-02 0. -1.
       -1   -1    0    0    0  501  0.00000000000E+00  0.00000000000E+00 -0.85538400039E+03  0.85538400040E+03  0.50400001928E-02 0.  1.
    10030    2    1    2    0    0  0.00000000000E+00  0.00000000000E+00  0.88197896802E+03  0.25927469688E+04  0.24381242676E+04 0.  0.
        1    1    3    3  502    0  0.91180735249E+03  0.13626881084E+02  0.13013301514E+04  0.15890369734E+04  0.50400001928E-02 0. -1.
       -1    1    3    3    0  502 -0.91180735249E+03 -0.13626881084E+02 -0.41935118334E+03  0.10037099954E+04  0.50400001928E-02 0.  1.
</event>
<event>
 5   0  0.9483073E-05  0.2338087E+04  0.7818609E-02  0.8463054E-01
       -2   -1    0    0    0  501  0.00000000000E+00  0.00000000000E+00  0.74565180131E+03  0.74565180131E+03  0.25500000920E-02 0. -1.
        2   -1    0    0  501    0  0.00000000000E+00  0.00000000000E+00 -0.18328427854E+04  0.18328427854E+04  0.25500000920E-02 0.  1.
    10030    2    1    2    0    0  0.00000000000E+00  0.00000000000E+00 -0.10871909841E+04  0.25784945867E+04  0.23380868457E+04 0.  0.
        5    1    3    3  502    0  0.28834973497E+03 -0.80956518335E+03 -0.14176120568E+04  0.16577657824E+04  0.46999998093E+01 0.  1.
       -5    1    3    3    0  502 -0.28834973497E+03  0.80956518335E+03  0.33042107272E+03  0.92072880429E+03  0.46999998093E+01 0. -1.
</event>
<event>
 5   0  0.9313463E-05  0.2038268E+04  0.7818609E-02  0.8588935E-01
        2   -1    0    0  501    0  0.00000000000E+00  0.00000000000E+00  0.15361659544E+04  0.15361659544E+04  0.25500000920E-02 0.  1.
       -2   -1    0    0    0  501  0.00000000000E+00  0.00000000000E+00 -0.67612110618E+03  0.67612110619E+03  0.25500000920E-02 0. -1.
    10030    2    1    2    0    0  0.00000000000E+00  0.00000000000E+00  0.86004484824E+03  0.22122870606E+04  0.20382681123E+04 0.  0.
        1    1    3    3  502    0  0.39466625473E+03 -0.58017101730E+03 -0.37218297096E+03  0.79427956403E+03  0.50400001928E-02 0. -1.
       -1    1    3    3    0  502 -0.39466625473E+03  0.58017101730E+03  0.12322278192E+04  0.14180074966E+04  0.50400001928E-02 0.  1.
</event>
<event>
 5   0  0.9483073E-05  0.1894529E+04  0.7818609E-02  0.8657584E-01
        2   -1    0    0  501    0  0.00000000000E+00  0.00000000000E+00  0.78715001027E+03  0.78715001027E+03  0.25500000920E-02 0. -1.
       -2   -1    0    0    0  501  0.00000000000E+00  0.00000000000E+00 -0.11399479867E+04  0.11399479867E+04  0.25500000920E-02 0.  1.
    10030    2    1    2    0    0  0.00000000000E+00  0.00000000000E+00 -0.35279797645E+03  0.19270979970E+04  0.18945290385E+04 0.  0.
        5    1    3    3  502    0  0.32618226320E+03  0.43798465008E+03  0.61089805712E+03  0.81941683454E+03  0.46999998093E+01 0. -1.
       -5    1    3    3    0  502 -0.32618226320E+03 -0.43798465008E+03 -0.96369603357E+03  0.11076811625E+04  0.46999998093E+01 0.  1.
</event>
<event>
 5   0  0.9483073E-05  0.2256810E+04  0.7818609E-02  0.8495148E-01
       -2   -1    0    0    0  501  0.00000000000E+00  0.00000000000E+00  0.77570131041E+03  0.77570131041E+03  0.25500000920E-02 0. -1.
        2   -1    0    0  501    0  0.00000000000E+00  0.00000000000E+00 -0.16414793258E+04  0.16414793258E+04  0.25500000920E-02 0.  1.
    10030    2    1    2    0    0  0.00000000000E+00  0.00000000000E+00 -0.86577801544E+03  0.24171806363E+04  0.22568098405E+04 0.  0.
        5    1    3    3  502    0  0.31872797482E+03 -0.36068976031E+03 -0.15259961661E+04  0.16001159377E+04  0.46999998093E+01 0.  1.
       -5    1    3    3    0  502 -0.31872797482E+03  0.36068976031E+03  0.66021815068E+03  0.81706469855E+03  0.46999998093E+01 0. -1.
</event>
<event>
 5   0  0.3885219E-05  0.1762852E+04  0.7818609E-02  0.8726308E-01
        1   -1    0    0  501    0  0.00000000000E+00  0.00000000000E+00  0.17700719680E+04  0.17700719680E+04  0.50400001928E-02 0.  1.
       -1   -1    0    0    0  501  0.00000000000E+00  0.00000000000E+00 -0.43891532499E+03  0.43891532502E+03  0.50400001928E-02 0. -1.
    10030    2    1    2    0    0  0.00000000000E+00  0.00000000000E+00  0.13311566430E+04  0.22089872930E+04  0.17628519088E+04 0.  0.
        2    1    3    3  502    0  0.50536017087E+03 -0.44068507895E+03 -0.51329483145E+02  0.67247822044E+03  0.25500000920E-02 0. -1.
       -2    1    3    3    0  502 -0.50536017087E+03  0.44068507895E+03  0.13824861261E+04  0.15365090725E+04  0.25500000920E-02 0.  1.
</event>
<event>
 5   0  0.9313463E-05  0.2319829E+04  0.7818609E-02  0.8470143E-01
        2   -1    0    0  501    0  0.00000000000E+00  0.00000000000E+00  0.14502196747E+04  0.14502196747E+04  0.25500000920E-02 0.  1.
       -2   -1    0    0    0  501  0.00000000000E+00  0.00000000000E+00 -0.92772302385E+03  0.92772302385E+03  0.25500000920E-02 0. -1.
    10030    2    1    2    0    0  0.00000000000E+00  0.00000000000E+00  0.52249665085E+03  0.23779426986E+04  0.23198294609E+04 0.  0.
        1    1    3    3  502    0 -0.89939742119E+03  0.38865010477E+03  0.89763685102E+03  0.13288026722E+04  0.50400001928E-02 0. -1.
       -1    1    3    3    0  502  0.89939742119E+03 -0.38865010477E+03 -0.37514020017E+03  0.10491400264E+04  0.50400001928E-02 0.  1.
</event>
<event>
 5   0  0.3885219E-05  0.1533691E+04  0.7818609E-02  0.8862353E-01
        1   -1    0    0  501    0  0.00000000000E+00  0.00000000000E+00  0.96321683229E+03  0.96321683230E+03  0.50400001928E-02 0. -1.
       -1   -1    0    0    0  501  0.00000000000E+00  0.00000000000E+00 -0.61050874664E+03  0.61050874666E+03  0.50400001928E-02 0.  1.
    10030    2    1    2    0    0  0.00000000000E+00  0.00000000000E+00  0.35270808565E+03  0.15737255790E+04  0.15336913654E+04 0.  0.
        2    1    3    3  502    0 -0.41984754885E+03  0.72960427197E+02 -0.47782766347E+03  0.64024562802E+03  0.25500000920E-02 0.  1.
       -2    1    3    3    0  502  0.41984754885E+03 -0.72960427197E+02  0.83053574913E+03  0.93347995094E+03  0.25500000920E-02 0. -1.
</event>
<event>
 5   0  0.9312074E-05  0.2265262E+04  0.7818609E-02  0.8491745E-01
        2   -1    0    0  501    0  0.00000000000E+00  0.00000000000E+00  0.13864538599E+04  0.13864538599E+04  0.25500000920E-02 0.  1.
       -2   -1    0    0    0  501  0.00000000000E+00  0.00000000000E+00 -0.92527650910E+03  0.92527650910E+03  0.25500000920E-02 0. -1.
    10030    2    1    2    0    0  0.00000000000E+00  0.00000000000E+00  0.46117735081E+03  0.23117303690E+04  0.22652621813E+04 0.  0.
        4    1    3    3  502    0 -0.20960072068E+03  0.92674249723E+03  0.85973120763E+03  0.12813756204E+04  0.12699999809E+01 0.  1.
       -4    1    3    3    0  502  0.20960072068E+03 -0.92674249723E+03 -0.39855385683E+03  0.10303547486E+04  0.12699999809E+01 0. -1.
</event>
<event>
 5   0  0.4095451E-05  0.2147717E+04  0.7818609E-02  0.8540510E-01
        1   -1    0    0  501    0  0.00000000000E+00  0.00000000000E+00  0.16805784302E+04  0.16805784302E+04  0.50400001928E-02 0.  1.
       -1   -1    0    0    0  501  0.00000000000E+00  0.00000000000E+00 -0.68617569356E+03  0.68617569358E+03  0.50400001928E-02 0. -1.
    10030    2    1    2    0    0  0.00000000000E+00  0.00000000000E+00  0.99440273664E+03  0.23667541238E+04  0.21477169925E+04 0.  0.
        3    1    3    3  502    0  0.68729613196E+03 -0.77021423141E+03  0.82329637878E+03  0.13203873950E+04  0.10100000352E+00 0.  1.
       -3    1    3    3    0  502 -0.68729613196E+03  0.77021423141E+03  0.17110635787E+03  0.10463667288E+04  0.10100000352E+00 0. -1.
</event>
<event>
 5   0  0.9641157E-05  0.2308419E+04  0.7818609E-02  0.8474609E-01
       -2   -1    0    0    0  501  0.00000000000E+00  0.00000000000E+00  0.78480623719E+03  0.78480623719E+03  0.25500000920E-02 0. -1.
        2   -1    0    0  501    0  0.00000000000E+00  0.00000000000E+00 -0.16974887363E+04  0.16974887363E+04  0.25500000920E-02 0.  1.
    10030    2    1    2    0    0  0.00000000000E+00  0.00000000000E+00 -0.91268249913E+03  0.24822949735E+04  0.23084191542E+04 0.  0.
        3    1    3    3  502    0  0.61984226347E+03  0.65781122007E+03 -0.12282398212E+04  0.15249567540E+04  0.10100000352E+00 0. -1.
       -3    1    3    3    0  502 -0.61984226347E+03 -0.65781122007E+03  0.31555732210E+03  0.95733821953E+03  0.10100000352E+00 0.  1.
</event>
<event>
 5   0  0.4005462E-05  0.2278942E+04  0.7818609E-02  0.8486271E-01
        1   -1    0    0  501    0  0.00000000000E+00  0.00000000000E+00  0.13662887665E+04  0.13662887665E+04  0.50400001928E-02 0. -1.
       -1   -1    0    0    0  501  0.00000000000E+00  0.00000000000E+00 -0.95030711922E+03  0.95030711924E+03  0.50400001928E-02 0.  1.
    10030    2    1    2    0    0  0.00000000000E+00  0.00000000000E+00  0.41598164724E+03  0.23165958857E+04  0.22789418086E+04 0.  0.
        4    1    3    3  502    0 -0.17137325548E+02  0.48447844679E+03 -0.84025017273E+03  0.97006959493E+03  0.12699999809E+01 0.  1.
       -4    1    3    3    0  502  0.17137325548E+02 -0.48447844679E+03  0.12562318200E+04  0.13465262908E+04  0.12699999809E+01 0. -1.
</event>
<event>
 5   0  0.9313463E-05  0.2348083E+04  0.7818609E-02  0.8459200E-01
       -2   -1    0    0    0  501  0.00000000000E+00  0.00000000000E+00  0.77131165783E+03  0.77131165784E+03  0.25500000920E-02 0. -1.
        2   -1    0    0  501    0  0.00000000000E+00  0.00000000000E+00 -0.17870508020E+04  0.17870508020E+04  0.25500000920E-02 0.  1.
    10030    2    1    2    0    0  0.00000000000E+00  0.00000000000E+00 -0.10157391442E+04  0.25583624598E+04  0.23480827215E+04 0.  0.
        1    1    3    3  502    0 -0.79157894918E+03 -0.86212227968E+03 -0.40729331672E+03  0.12392497342E+04  0.50400001928E-02 0. -1.
       -1    1    3    3    0  502  0.79157894918E+03  0.86212227968E+03 -0.60844582745E+03  0.13191127256E+04  0.50400001928E-02 0.  1.
</event>
<event>
 5   0  0.4295775E-05  0.2315964E+04  0.7818609E-02  0.8471653E-01
        1   -1    0    0  501    0  0.00000000000E+00  0.00000000000E+00  0.23440826643E+04  0.23440826643E+04  0.50400001928E-02 0. -1.
       -1   -1    0    0    0  501  0.00000000000E+00  0.00000000000E+00 -0.57204577829E+03  0.57204577831E+03  0.50400001928E-02 0.  1.
    10030    2    1    2    0    0  0.00000000000E+00  0.00000000000E+00  0.17720368860E+04  0.29161284426E+04  0.23159642416E+04 0.  0.
        5    1    3    3  502    0  0.38200461729E+03  0.61133106021E+03 -0.25505022123E+03  0.76467372007E+03  0.46999998093E+01 0.  1.
       -5    1    3    3    0  502 -0.38200461729E+03 -0.61133106021E+03  0.20270871072E+04  0.21514547225E+04  0.46999998093E+01 0. -1.
</event>
<event>
 5   0  0.4005462E-05  0.2315072E+04  0.7818609E-02  0.8472002E-01
       -1   -1    0    0    0  501  0.00000000000E+00  0.00000000000E+00  0.12773945859E+04  0.12773945859E+04  0.50400001928E-02 0.  1.
        1   -1    0    0  501    0  0.00000000000E+00  0.00000000000E+00 -0.10489233733E+04  0.10489233733E+04  0.50400001928E-02 0. -1.
    10030    2    1    2    0    0  0.00000000000E+00  0.00000000000E+00  0.22847121259E+03  0.23263179592E+04  0.23150715220E+04 0.  0.
        4    1    3    3  502    0  0.11535620855E+04  0.72366231160E+02  0.17735051277E+03  0.11693575902E+04  0.12699999809E+01 0.  1.
       -4    1    3    3    0  502 -0.11535620855E+04 -0.72366231160E+02  0.51120699821E+02  0.11569603690E+04  0.12699999809E+01 0. -1.
</event>
<event>
 5   0  0.9641157E-05  0.2286469E+04  0.7818609E-02  0.8483275E-01
       -2   -1    0    0    0  501  0.00000000000E+00  0.00000000000E+00  0.77290518436E+03  0.77290518436E+03  0.25500000920E-02 0.  1.
        2   -1    0    0  501    0  0.00000000000E+00  0.00000000000E+00 -0.16910027370E+04  0.16910027370E+04  0.25500000920E-02 0. -1.
    10030    2    1    2    0    0  0.00000000000E+00  0.00000000000E+00 -0.91809755264E+03  0.24639079214E+04  0.22864687028E+04 0.  0.
        3    1    3    3  502    0  0.37545169115E+03 -0.66454233173E+03  0.45812096672E+03  0.89019959188E+03  0.10100000352E+00 0.  1.
       -3    1    3    3    0  502 -0.37545169115E+03  0.66454233173E+03 -0.13762185194E+04  0.15737083295E+04  0.10100000352E+00 0. -1.
</event>
<event>
 5   0  0.4295775E-05  0.2158980E+04  0.7818609E-02  0.8535698E-01
        1   -1    0    0  501    0  0.00000000000E+00  0.00000000000E+00  0.17666556932E+04  0.17666556932E+04  0.50400001928E-02 0. -1.
       -1   -1    0    0    0  501  0.00000000000E+00  0.00000000000E+00 -0.65960728700E+03  0.65960728702E+03  0.50400001928E-02 0.  1.
    10030    2    1    2    0    0  0.00000000000E+00  0.00000000000E+00  0.11070484062E+04  0.24262629802E+04  0.21589802860E+04 0.  0.
        5    1    3    3  502    0  0.42629869572E+03  0.32130148569E+03 -0.50088071093E+03  0.73203059995E+03  0.46999998093E+01 0.  1.
       -5    1    3    3    0  502 -0.42629869572E+03 -0.32130148569E+03  0.16079291171E+04  0.16942323803E+04  0.46999998093E+01 0. -1.
</event>
<event>
 5   0  0.4095451E-05  0.2126731E+04  0.7818609E-02  0.8549559E-01
       -1   -1    0    0    0  501  0.00000000000E+00  0.00000000000E+00  0.95761348749E+03  0.95761348750E+03  0.50400001928E-02 0. -1.
        1   -1    0    0  501    0  0.00000000000E+00  0.00000000000E+00 -0.11807962847E+04  0.11807962847E+04  0.50400001928E-02 0.  1.
    10030    2    1    2    0    0  0.00000000000E+00  0.00000000000E+00 -0.22318279722E+03  0.21384097722E+04  0.21267312461E+04 0.  0.
        3    1    3    3  502    0  0.74464049903E+03 -0.59101512923E+03  0.36742584258E+03  0.10192105355E+04  0.10100000352E+00 0. -1.
       -3    1    3    3    0  502 -0.74464049903E+03  0.59101512923E+03 -0.59060863980E+03  0.11191992367E+04  0.10100000352E+00 0.  1.
</event>
<event>
 5   0  0.3885219E-05  0.2313976E+04  0.7818609E-02  0.8472431E-01
        1   -1    0    0  501    0  0.00000000000E+00  0.00000000000E+00  0.17403094680E+04  0.17403094680E+04  0.50400001928E-02 0.  1.
       -1   -1    0    0    0  501  0.00000000000E+00  0.00000000000E+00 -0.76918569200E+03  0.76918569202E+03  0.50400001928E-02 0. -1.
    10030    2    1    2    0    0  0.00000000000E+00  0.00000000000E+00  0.97112377599E+03  0.25094951600E+04  0.23139759225E+04 0.  0.
        2    1    3    3  502    0 -0.30478875753E+03 -0.71290703348E+03  0.14168952450E+04  0.16151547172E+04  0.25500000920E-02 0.  1.
       -2    1    3    3    0  502  0.30478875753E+03  0.71290703348E+03 -0.44577146901E+03  0.89434044284E+03  0.25500000920E-02 0. -1.
</event>
<event>
 5   0  0.9535394E-05  0.2324211E+04  0.7818609E-02  0.8468436E-01
       -2   -1    0    0    0  501  0.00000000000E+00  0.00000000000E+00  0.75813255186E+03  0.75813255186E+03  0.25500000920E-02 0.  1.
        2   -1    0    0  501    0  0.00000000000E+00  0.00000000000E+00 -0.17813361863E+04  0.17813361863E+04  0.25500000920E-02 0. -1.
    10030    2    1    2    0    0  0.00000000000E+00  0.00000000000E+00 -0.10232036344E+04  0.25394687381E+04  0.23242107896E+04 0.  0.
        2    1    3    3  502    0  0.45230060796E+03 -0.46667889696E+03 -0.15642187203E+04  0.16938551408E+04  0.25500000920E-02 0. -1.
       -2    1    3    3    0  502 -0.45230060796E+03  0.46667889696E+03  0.54101508594E+03  0.84561359736E+03  0.25500000920E-02 0.  1.
</event>
<event>
 5   0  0.3885219E-05  0.1785831E+04  0.7818609E-02  0.8713871E-01
       -1   -1    0    0    0  501  0.00000000000E+00  0.00000000000E+00  0.49640609202E+03  0.49640609204E+03  0.50400001928E-02 0.  1.
        1   -1    0    0  501    0  0.00000000000E+00  0.00000000000E+00 -0.16061405985E+04  0.16061405985E+04  0.50400001928E-02 0. -1.
    10030    2    1    2    0    0  0.00000000000E+00  0.00000000000E+00 -0.11097345065E+04  0.21025466906E+04  0.17858308742E+04 0.  0.
        2    1    3    3  502    0 -0.71495610767E+03 -0.26527872262E+03 -0.11017494036E+04  0.13399204398E+04  0.25500000920E-02 0. -1.
       -2    1    3    3    0  502  0.71495610767E+03  0.26527872262E+03 -0.79851029218E+01  0.76262625082E+03  0.25500000920E-02 0.  1.
</event>
<event>
 5   0  0.3885219E-05  0.2298514E+04  0.7818609E-02  0.8478507E-01
       -1   -1    0    0    0  501  0.00000000000E+00  0.00000000000E+00  0.96492307486E+03  0.96492307488E+03  0.50400001928E-02 0. -1.
        1   -1    0    0  501    0  0.00000000000E+00  0.00000000000E+00 -0.13688048652E+04  0.13688048652E+04  0.50400001928E-02 0.  1.
    10030    2    1    2    0    0  0.00000000000E+00  0.00000000000E+00 -0.40388179034E+03  0.23337279401E+04  0.22985137802E+04 0.  0.
        2    1    3    3  502    0  0.20004310954E+03 -0.11000697905E+04 -0.47175760709E+03  0.12135592402E+04  0.25500000920E-02 0.  1.
       -2    1    3    3    0  502 -0.20004310954E+03  0.11000697905E+04  0.67875816750E+02  0.11201686999E+04  0.25500000920E-02 0. -1.
</event>
<event>
 5   0  0.4095451E-05  0.2299455E+04  0.7818609E-02  0.8478136E-01
        1   -1    0    0  501    0  0.00000000000E+00  0.00000000000E+00  0.24621892280E+04  0.24621892280E+04  0.50400001928E-02 0.  1.
       -1   -1    0    0    0  501  0.00000000000E+00  0.00000000000E+00 -0.53686902080E+03  0.53686902082E+03  0.50400001928E-02 0. -1.
    10030    2    1    2    0    0  0.00000000000E+00  0.00000000000E+00  0.19253202072E+04  0.29990582488E+04  0.22994548223E+04 0.  0.
        3    1    3    3  502    0  0.32660842359E+03  0.52084043213E+02  0.23988061886E+04  0.24214989058E+04  0.10100000352E+00 0.  1.
       -3    1    3    3    0  502 -0.32660842359E+03 -0.52084043213E+02 -0.47348598143E+03  0.57755934304E+03  0.10100000352E+00 0. -1.
</event>
<event>
 5   0  0.9313463E-05  0.2285700E+04  0.7818609E-02  0.8483581E-01
       -2   -1    0    0    0  501  0.00000000000E+00  0.00000000000E+00  0.11246491812E+04  0.11246491812E+04  0.25500000920E-02 0. -1.
        2   -1    0    0  501    0  0.00000000000E+00  0.00000000000E+00 -0.11613450137E+04  0.11613450137E+04  0.25500000920E-02 0.  1.
    10030    2    1    2    0    0  0.00000000000E+00  0.00000000000E+00 -0.36695832524E+02  0.22859941948E+04  0.22856996467E+04 0.  0.
        1    1    3    3  502    0  0.41503772656E+03  0.16129316696E+03  0.10343246161E+04  0.11260991127E+04  0.50400001928E-02 0. -1.
       -1    1    3    3    0  502 -0.41503772656E+03 -0.16129316696E+03 -0.10710204486E+04  0.11598950821E+04  0.50400001928E-02 0.  1.
</event>
<event>
 5   0  0.9312074E-05  0.2315986E+04  0.7818609E-02  0.8471645E-01
        2   -1    0    0  501    0  0.00000000000E+00  0.00000000000E+00  0.14602515082E+04  0.14602515082E+04  0.25500000920E-02 0. -1.
       -2   -1    0    0    0  501  0.00000000000E+00  0.00000000000E+00 -0.91829919282E+03  0.91829919282E+03  0.25500000920E-02 0.  1.
    10030    2    1    2    0    0  0.00000000000E+00  0.00000000000E+00  0.54195231538E+03  0.23785507010E+04  0.23159859942E+04 0.  0.
        4    1    3    3  502    0 -0.10523332207E+04  0.44077540351E+03  0.67487318112E+02  0.11429104579E+04  0.12699999809E+01 0.  1.
       -4    1    3    3    0  502  0.10523332207E+04 -0.44077540351E+03  0.47446499726E+03  0.12356402431E+04  0.12699999809E+01 0. -1.
</event>
<event>
 5   0  0.4139830E-05  0.2290876E+04  0.7818609E-02  0.8481527E-01
       -1   -1    0    0    0  501  0.00000000000E+00  0.00000000000E+00  0.78891356956E+03  0.78891356958E+03  0.50400001928E-02 0.  1.
        1   -1    0    0  501    0  0.00000000000E+00  0.00000000000E+00 -0.16630821658E+04  0.16630821658E+04  0.50400001928E-02 0. -1.
    10030    2    1    2    0    0  0.00000000000E+00  0.00000000000E+00 -0.87416859623E+03  0.24519957354E+04  0.22908758918E+04 0.  0.
        1    1    3    3  502    0  0.14317925522E+03  0.47904587004E+03  0.66595038142E+03  0.83275155674E+03  0.50400001928E-02 0.  1.
       -1    1    3    3    0  502 -0.14317925522E+03 -0.47904587004E+03 -0.15401189776E+04  0.16192441786E+04  0.50400001928E-02 0. -1.
</event>
<event>
 5   0  0.9313463E-05  0.2307341E+04  0.7818609E-02  0.8475032E-01
        2   -1    0    0  501    0  0.00000000000E+00  0.00000000000E+00  0.20254450684E+04  0.20254450684E+04  0.25500000920E-02 0. -1.
       -2   -1    0    0    0  501  0.00000000000E+00  0.00000000000E+00 -0.65711784453E+03  0.65711784454E+03  0.25500000920E-02 0.  1.
    10030    2    1    2    0    0  0.00000000000E+00  0.00000000000E+00  0.13683272238E+04  0.26825629129E+04  0.23073414117E+04 0.  0.
        1    1    3    3  502    0 -0.48924486192E+03 -0.85195010512E+03  0.13873104098E+04  0.16999440255E+04  0.50400001928E-02 0. -1.
       -1    1    3    3    0  502  0.48924486192E+03  0.85195010512E+03 -0.18983186003E+02  0.98261888741E+03  0.50400001928E-02 0.  1.
</event>
<event>
 5   0  0.9312074E-05  0.2035319E+04  0.7818609E-02  0.8590284E-01
        2   -1    0    0  501    0  0.00000000000E+00  0.00000000000E+00  0.10301354183E+04  0.10301354183E+04  0.25500000920E-02 0. -1.
       -2   -1    0    0    0  501  0.00000000000E+00  0.00000000000E+00 -0.10053343883E+04  0.10053343883E+04  0.25500000920E-02 0.  1.
    10030    2    1    2    0    0  0.00000000000E+00  0.00000000000E+00  0.24801030011E+02  0.20354698066E+04  0.20353187078E+04 0.  0.
        4    1    3    3  502    0  0.33060933694E+03 -0.61148634664E+03  0.75569916635E+03  0.10267915702E+04  0.12699999809E+01 0. -1.
       -4    1    3    3    0  502 -0.33060933694E+03  0.61148634664E+03 -0.73089813634E+03  0.10086782363E+04  0.12699999809E+01 0.  1.
</event>
<event>
 5   0  0.9483073E-05  0.2265592E+04  0.7818609E-02  0.8491613E-01
       -2   -1    0    0    0  501  0.00000000000E+00  0.00000000000E+00  0.12017721882E+04  0.12017721882E+04  0.25500000920E-02 0. -1.
        2   -1    0    0  501    0  0.00000000000E+00  0.00000000000E+00 -0.10677787149E+04  0.10677787149E+04  0.25500000920E-02 0.  1.
    10030    2    1    2    0    0  0.00000000000E+00  0.00000000000E+00  0.13399347322E+03  0.22695509031E+04  0.22655919869E+04 0.  0.
        5    1    3    3  502    0 -0.29371691338E+03 -0.28785174791E+03  0.11243393089E+04  0.11972005787E+04  0.46999998093E+01 0. -1.
       -5    1    3    3    0  502  0.29371691338E+03  0.28785174791E+03 -0.99034583572E+03  0.10723503244E+04  0.46999998093E+01 0.  1.
</event>
<event>
 5   0  0.9313463E-05  0.2317461E+04  0.7818609E-02  0.8471068E-01
       -2   -1    0    0    0  501  0.00000000000E+00  0.00000000000E+00  0.81868006088E+03  0.81868006088E+03  0.25500000920E-02 0. -1.
        2   -1    0    0  501    0  0.00000000000E+00  0.00000000000E+00 -0.16400258606E+04  0.16400258606E+04  0.25500000920E-02 0.  1.
    10030    2    1    2    0    0  0.00000000000E+00  0.00000000000E+00 -0.82134579974E+03  0.24587059215E+04  0.23174610861E+04 0.  0.
        1    1    3    3  502    0 -0.49630056962E+03 -0.10424530847E+04 -0.51480689895E+03  0.12641395621E+04  0.50400001928E-02 0.  1.
       -1    1    3    3    0  502  0.49630056962E+03  0.10424530847E+04 -0.30653890079E+03  0.11945663594E+04  0.50400001928E-02 0. -1.
</event>
<event>
 5   0  0.9483073E-05  0.2298315E+04  0.7818609E-02  0.8478586E-01
        2   -1    0    0  501    0  0.00000000000E+00  0.00000000000E+00  0.12869145432E+04  0.12869145432E+04  0.25500000920E-02 0. -1.
       -2   -1    0    0    0  501  0.00000000000E+00  0.00000000000E+00 -0.10261464860E+04  0.10261464860E+04  0.25500000920E-02 0.  1.
    10030    2    1    2    0    0  0.00000000000E+00  0.00000000000E+00  0.26076805715E+03  0.23130610292E+04  0.22983148925E+04 0.  0.
        5    1    3    3  502    0  0.15093275450E+02  0.96921513815E+03 -0.49077524513E+03  0.10865027484E+04  0.46999998093E+01 0.  1.
       -5    1    3    3    0  502 -0.15093275450E+02 -0.96921513815E+03  0.75154330228E+03  0.12265582808E+04  0.46999998093E+01 0. -1.
</event>
<event>
 5   0  0.9313463E-05  0.2281656E+04  0.7818609E-02  0.8485189E-01
       -2   -1    0    0    0  501  0.00000000000E+00  0.00000000000E+00  0.65454108607E+03  0.65454108607E+03  0.25500000920E-02 0. -1.
        2   -1    0    0  501    0  0.00000000000E+00  0.00000000000E+00 -0.19883978826E+04  0.19883978826E+04  0.25500000920E-02 0.  1.
    10030    2    1    2    0    0  0.00000000000E+00  0.00000000000E+00 -0.13338567965E+04  0.26429389687E+04  0.22816556354E+04 0.  0.
        1    1    3    3  502    0 -0.60190298023E+03 -0.58464160627E+03  0.22837012045E+03  0.86962400918E+03  0.50400001928E-02 0. -1.
       -1    1    3    3    0  502  0.60190298023E+03  0.58464160627E+03 -0.15622269170E+04  0.17733149595E+04  0.50400001928E-02 0.  1.
</event>
<event>
 5   0  0.4005462E-05  0.2521906E+04  0.7818609E-02  0.8395223E-01
       -1   -1    0    0    0  501  0.00000000000E+00  0.00000000000E+00  0.20652812733E+04  0.20652812733E+04  0.50400001928E-02 0.  1.
        1   -1    0    0  501    0  0.00000000000E+00  0.00000000000E+00 -0.76987207033E+03  0.76987207035E+03  0.50400001928E-02 0. -1.
    10030    2    1    2    0    0  0.00000000000E+00  0.00000000000E+00  0.12954092030E+04  0.28351533437E+04  0.25219059219E+04 0.  0.
        4    1    3    3  502    0  0.34060355063E+03  0.11084243591E+03 -0.71147666355E+03  0.79655350101E+03  0.12699999809E+01 0. -1.
       -4    1    3    3    0  502 -0.34060355063E+03 -0.11084243591E+03  0.20068858665E+04  0.20385998427E+04  0.12699999809E+01 0.  1.
</event>
<event>
 5   0  0.4095451E-05  0.1653689E+04  0.7818609E-02  0.8788227E-01
        1   -1    0    0  501    0  0.00000000000E+00  0.00000000000E+00  0.14654894851E+04  0.14654894851E+04  0.50400001928E-02 0.  1.
       -1   -1    0    0    0  501  0.00000000000E+00  0.00000000000E+00 -0.46651434531E+03  0.46651434534E+03  0.50400001928E-02 0. -1.
    10030    2    1    2    0    0  0.00000000000E+00  0.00000000000E+00  0.99897513974E+03  0.19320038304E+04  0.16536890490E+04 0.  0.
        3    1    3    3  502    0  0.20916866318E+03  0.39301833188E+03  0.13134970825E+04  0.13868992519E+04  0.10100000352E+00 0.  1.
       -3    1    3    3    0  502 -0.20916866318E+03 -0.39301833188E+03 -0.31452194277E+03  0.54510457853E+03  0.10100000352E+00 0. -1.
</event>
<event>
 5   0  0.9313463E-05  0.2356482E+04  0.7818609E-02  0.8455978E-01
       -2   -1    0    0    0  501  0.00000000000E+00  0.00000000000E+00  0.70726092282E+03  0.70726092282E+03  0.25500000920E-02 0.  1.
        2   -1    0    0  501    0  0.00000000000E+00  0.00000000000E+00 -0.19628560861E+04  0.19628560861E+04  0.25500000920E-02 0. -1.
    10030    2    1    2    0    0  0.00000000000E+00  0.00000000000E+00 -0.12555951633E+04  0.26701170089E+04  0.23564816204E+04 0.  0.
        1    1    3    3  502    0  0.17322319094E+03 -0.10662469233E+02 -0.19482937299E+04  0.19560082873E+04  0.50400001928E-02 0. -1.
       -1    1    3    3    0  502 -0.17322319094E+03  0.10662469233E+02  0.69269856658E+03  0.71410872162E+03  0.50400001928E-02 0.  1.
</event>
<event>
 5   0  0.3885219E-05  0.2042235E+04  0.7818609E-02  0.8587125E-01
        1   -1    0    0  501    0  0.00000000000E+00  0.00000000000E+00  0.79665042546E+03  0.79665042548E+03  0.50400001928E-02 0.  1.
       -1   -1    0    0    0  501  0.00000000000E+00  0.00000000000E+00 -0.13088308335E+04  0.13088308335E+04  0.50400001928E-02 0. -1.
    10030    2    1    2    0    0  0.00000000000E+00  0.00000000000E+00 -0.51218040804E+03  0.21054812590E+04  0.20422346980E+04 0.  0.
        2    1    3    3  502    0  0.69603252919E+03 -0.50764168546E+02 -0.10245893730E+04  0.12396861158E+04  0.25500000920E-02 0. -1.
       -2    1    3    3    0  502 -0.69603252919E+03  0.50764168546E+02  0.51240896498E+03  0.86579514315E+03  0.25500000920E-02 0.  1.
</event>
<event>
 5   0  0.9535394E-05  0.2291907E+04  0.7818609E-02  0.8481119E-01
        2   -1    0    0  501    0  0.00000000000E+00  0.00000000000E+00  0.65855215724E+03  0.65855215724E+03  0.25500000920E-02 0.  1.
       -2   -1    0    0    0  501  0.00000000000E+00  0.00000000000E+00 -0.19940855538E+04  0.19940855538E+04  0.25500000920E-02 0. -1.
    10030    2    1    2    0    0  0.00000000000E+00  0.00000000000E+00 -0.13355333966E+04  0.26526377111E+04  0.22919069293E+04 0.  0.
        2    1    3    3  502    0 -0.10830702815E+04  0.18711037746E+03 -0.29244667109E+03  0.11373550824E+04  0.25500000920E-02 0.  1.
       -2    1    3    3    0  502  0.10830702815E+04 -0.18711037746E+03 -0.10430867255E+04  0.15152826287E+04  0.25500000920E-02 0. -1.
</event>
<event>
 5   0  0.4005462E-05  0.2301133E+04  0.7818609E-02  0.8477475E-01
        1   -1    0    0  501    0  0.00000000000E+00  0.00000000000E+00  0.16501899184E+04  0.16501899184E+04  0.50400001928E-02 0.  1.
       -1   -1    0    0    0  501  0.00000000000E+00  0.00000000000E+00 -0.80221235772E+03  0.80221235773E+03  0.50400001928E-02 0. -1.
    10030    2    1    2    0    0  0.00000000000E+00  0.00000000000E+00  0.84797756068E+03  0.24524022761E+04  0.23011325430E+04 0.  0.
        4    1    3    3  502    0 -0.51100035372E+03  0.63467177470E+03 -0.44173583274E+03  0.92685585823E+03  0.12699999809E+01 0. -1.
       -4    1    3    3    0  502  0.51100035372E+03 -0.63467177470E+03  0.12897133934E+04  0.15255464179E+04  0.12699999809E+01 0.  1.
</event>
<event>
 5   0  0.9483073E-05  0.2296947E+04  0.7818609E-02  0.8479126E-01
        2   -1    0    0  501    0  0.00000000000E+00  0.00000000000E+00  0.16449216196E+04  0.16449216196E+04  0.25500000920E-02 0.  1.
       -2   -1    0    0    0  501  0.00000000000E+00  0.00000000000E+00 -0.80185697627E+03  0.80185697628E+03  0.25500000920E-02 0. -1.
    10030    2    1    2    0    0  0.00000000000E+00  0.00000000000E+00  0.84306464328E+03  0.24467785958E+04  0.22969474318E+04 0.  0.
        5    1    3    3  502    0  0.37522146416E+03 -0.19463070879E+03  0.15590357329E+04  0.16153286868E+04  0.46999998093E+01 0.  1.
       -5    1    3    3    0  502 -0.37522146416E+03  0.19463070879E+03 -0.71597108964E+03  0.83144990900E+03  0.46999998093E+01 0. -1.
</event>
<event>
 5   0  0.4005462E-05  0.2307385E+04  0.7818609E-02  0.8475015E-01
       -1   -1    0    0    0  501  0.00000000000E+00  0.00000000000E+00  0.98177103422E+03  0.98177103424E+03  0.50400001928E-02 0.  1.
        1   -1    0    0  501    0  0.00000000000E+00  0.00000000000E+00 -0.13557198727E+04  0.13557198728E+04  0.50400001928E-02 0. -1.
    10030    2    1    2    0    0  0.00000000000E+00  0.00000000000E+00 -0.37394883852E+03  0.23374909070E+04  0.23073851015E+04 0.  0.
        4    1    3    3  502    0  0.93707049611E+03 -0.44558390417E+03 -0.69789476121E+03  0.12504818435E+04  0.12699999809E+01 0. -1.
       -4    1    3    3    0  502 -0.93707049611E+03  0.44558390417E+03  0.32394592269E+03  0.10870090635E+04  0.12699999809E+01 0.  1.
</event>
<event>
 5   0  0.9313463E-05  0.2231457E+04  0.7818609E-02  0.8505448E-01
        2   -1    0    0  501    0  0.00000000000E+00  0.00000000000E+00  0.27302647740E+04  0.27302647740E+04  0.25500000920E-02 0. -1.
       -2   -1    0    0    0  501  0.00000000000E+00  0.00000000000E+00 -0.45594478681E+03  0.45594478682E+03  0.25500000920E-02 0.  1.
    10030    2    1    2    0    0  0.00000000000E+00  0.00000000000E+00  0.22743199872E+04  0.31862095608E+04  0.22314569145E+04 0.  0.
        1    1    3    3  502    0 -0.25726299343E+03 -0.10096593032E+04  0.56734905892E+03  0.11863730909E+04  0.50400001928E-02 0.  1.
       -1    1    3    3    0  502  0.25726299343E+03  0.10096593032E+04  0.17069709283E+04  0.19998364699E+04  0.50400001928E-02 0. -1.
</event>
<event>
 5   0  0.3885219E-05  0.1674986E+04  0.7818609E-02  0.8775761E-01
       -1   -1    0    0    0  501  0.00000000000E+00  0.00000000000E+00  0.56771032593E+03  0.56771032595E+03  0.50400001928E-02 0.  1.
        1   -1    0    0  501    0  0.00000000000E+00  0.00000000000E+00 -0.12354789286E+04  0.12354789286E+04  0.50400001928E-02 0. -1.
    10030    2    1    2    0    0  0.00000000000E+00  0.00000000000E+00 -0.66776860268E+03  0.18031892546E+04  0.16749855465E+04 0.  0.
        2    1    3    3  502    0 -0.13480151649E+03  0.69596363607E+03  0.14618178957E+03  0.72381347541E+03  0.25500000920E-02 0.  1.
       -2    1    3    3    0  502  0.13480151649E+03 -0.69596363607E+03 -0.81395039226E+03  0.10793757792E+04  0.25500000920E-02 0. -1.
</event>
<event>
 5   0  0.3885219E-05  0.2359223E+04  0.7818609E-02  0.8454930E-01
       -1   -1    0    0    0  501  0.00000000000E+00  0.00000000000E+00  0.10347369920E+04  0.10347369921E+04  0.50400001928E-02 0.  1.
        1   -1    0    0  501    0  0.00000000000E+00  0.00000000000E+00 -0.13447700714E+04  0.13447700714E+04  0.50400001928E-02 0. -1.
    10030    2    1    2    0    0  0.00000000000E+00  0.00000000000E+00 -0.31003307936E+03  0.23795070635E+04  0.23592230405E+04 0.  0.
        2    1    3    3  502    0 -0.89574657614E+03  0.59132030490E+03  0.33853900413E+03  0.11254467064E+04  0.25500000920E-02 0. -1.
       -2    1    3    3    0  502  0.89574657614E+03 -0.59132030490E+03 -0.64857208349E+03  0.12540603571E+04  0.25500000920E-02 0.  1.
</event>
<event>
 5   0  0.4095451E-05  0.2308695E+04  0.7818609E-02  0.8474501E-01
        1   -1    0    0  501    0  0.00000000000E+00  0.00000000000E+00  0.10613403326E+04  0.10613403326E+04  0.50400001928E-02 0. -1.
       -1   -1    0    0    0  501  0.00000000000E+00  0.00000000000E+00 -0.12555051940E+04  0.12555051940E+04  0.50400001928E-02 0.  1.
    10030    2    1    2    0    0  0.00000000000E+00  0.00000000000E+00 -0.19416486141E+03  0.23168455267E+04  0.23086951295E+04 0.  0.
        3    1    3    3  502    0 -0.68145534249E+03 -0.74570104278E+03 -0.65768401161E+03  0.12054043713E+04  0.10100000352E+00 0.  1.
       -3    1    3    3    0  502  0.68145534249E+03  0.74570104278E+03  0.46351915020E+03  0.11114411554E+04  0.10100000352E+00 0. -1.
</event>
<event>
 5   0  0.4295775E-05  0.2284041E+04  0.7818609E-02  0.8484240E-01
       -1   -1    0    0    0  501  0.00000000000E+00  0.00000000000E+00  0.14160305620E+04  0.14160305620E+04  0.50400001928E-02 0.  1.
        1   -1    0    0  501    0  0.00000000000E+00  0.00000000000E+00 -0.92103305325E+03  0.92103305326E+03  0.50400001928E-02 0. -1.
    10030    2    1    2    0    0  0.00000000000E+00  0.00000000000E+00  0.49499750874E+03  0.23370636153E+04  0.22840411135E+04 0.  0.
        5    1    3    3  502    0 -0.59370466023E+03  0.97437744173E+03  0.29648753302E+03  0.11789077868E+04  0.46999998093E+01 0. -1.
       -5    1    3    3    0  502  0.59370466023E+03 -0.97437744173E+03  0.19850997571E+03  0.11581558285E+04  0.46999998093E+01 0.  1.
</event>
<event>
 5   0  0.4005462E-05  0.2324559E+04  0.7818609E-02  0.8468300E-01
       -1   -1    0    0    0  501  0.00000000000E+00  0.00000000000E+00  0.96647298499E+03  0.96647298500E+03  0.50400001928E-02 0. -1.
        1   -1    0    0  501    0  0.00000000000E+00  0.00000000000E+00 -0.13977566863E+04  0.13977566863E+04  0.50400001928E-02 0.  1.
    10030    2    1    2    0    0  0.00000000000E+00  0.00000000000E+00 -0.43128370135E+03  0.23642296713E+04  0.23245593793E+04 0.  0.
        4    1    3    3  502    0 -0.22013753220E+03 -0.77539494202E+03 -0.10673058804E+04  0.13374757211E+04  0.12699999809E+01 0.  1.
       -4    1    3    3    0  502  0.22013753220E+03  0.77539494202E+03  0.63602217908E+03  0.10267539503E+04  0.12699999809E+01 0. -1.
</event>
<event>
 5   0  0.9312074E-05  0.2306544E+04  0.7818609E-02  0.8475345E-01
        2   -1    0    0  501    0  0.00000000000E+00  0.00000000000E+00  0.97367483496E+03  0.97367483496E+03  0.25500000920E-02 0.  1.
       -2   -1    0    0    0  501  0.00000000000E+00  0.00000000000E+00 -0.13659964504E+04  0.13659964504E+04  0.25500000920E-02 0. -1.
    10030    2    1    2    0    0  0.00000000000E+00  0.00000000000E+00 -0.39232161542E+03  0.23396712853E+04  0.23065440541E+04 0.  0.
        4    1    3    3  502    0  0.71623963215E+03 -0.81492552833E+02  0.71698753639E+03  0.10167167684E+04  0.12699999809E+01 0.  1.
       -4    1    3    3    0  502 -0.71623963215E+03  0.81492552833E+02 -0.11093091518E+04  0.13229545170E+04  0.12699999809E+01 0. -1.
</event>
<event>
 5   0  0.9313463E-05  0.2359747E+04  0.7818609E-02  0.8454729E-01
       -2   -1    0    0    0  501  0.00000000000E+00  0.00000000000E+00  0.19047277759E+04  0.19047277759E+04  0.25500000920E-02 0. -1.
        2   -1    0    0  501    0  0.00000000000E+00  0.00000000000E+00 -0.73086607633E+03  0.73086607633E+03  0.25500000920E-02 0.  1.
    10030    2    1    2    0    0  0.00000000000E+00  0.00000000000E+00  0.11738616996E+04  0.26355938522E+04  0.23597465254E+04 0.  0.
        1    1    3    3  502    0  0.10648496738E+04 -0.57165763051E+02  0.11508567473E+04  0.15689627163E+04  0.50400001928E-02 0. -1.
       -1    1    3    3    0  502 -0.10648496738E+04  0.57165763051E+02  0.23004952309E+02  0.10666311360E+04  0.50400001928E-02 0.  1.
</event>
<event>
 5   0  0.9483073E-05  0.2287842E+04  0.7818609E-02  0.8482730E-01
        2   -1    0    0  501    0  0.00000000000E+00  0.00000000000E+00  0.23515673463E+04  0.23515673463E+04  0.25500000920E-02 0.  1.
       -2   -1    0    0    0  501  0.00000000000E+00  0.00000000000E+00 -0.55646112417E+03  0.55646112417E+03  0.25500000920E-02 0. -1.
    10030    2    1    2    0    0  0.00000000000E+00  0.00000000000E+00  0.17951062222E+04  0.29080284705E+04  0.22878424851E+04 0.  0.
        5    1    3    3  502    0  0.11246080043E+04 -0.75750269156E+02  0.11455029664E+04  0.16070719967E+04  0.46999998093E+01 0.  1.
       -5    1    3    3    0  502 -0.11246080043E+04  0.75750269156E+02  0.64960325578E+03  0.13009564738E+04  0.46999998093E+01 0. -1.
</event>
<event>
 5   0  0.9535394E-05  0.2281891E+04  0.7818609E-02  0.8485096E-01
        2   -1    0    0  501    0  0.00000000000E+00  0.00000000000E+00  0.14219869441E+04  0.14219869441E+04  0.25500000920E-02 0.  1.
       -2   -1    0    0    0  501  0.00000000000E+00  0.00000000000E+00 -0.91544872686E+03  0.91544872686E+03  0.25500000920E-02 0. -1.
    10030    2    1    2    0    0  0.00000000000E+00  0.00000000000E+00  0.50653821722E+03  0.23374356709E+04  0.22818905649E+04 0.  0.
        2    1    3    3  502    0 -0.48010160444E+03  0.28989368274E+03  0.12710443455E+04  0.13892766557E+04  0.25500000920E-02 0.  1.
       -2    1    3    3    0  502  0.48010160444E+03 -0.28989368274E+03 -0.76450612831E+03  0.94815901520E+03  0.25500000920E-02 0. -1.
</event>
<event>
 5   0  0.3885219E-05  0.2231000E+04  0.7818609E-02  0.8505635E-01
        1   -1    0    0  501    0  0.00000000000E+00  0.00000000000E+00  0.25740706908E+04  0.25740706908E+04  0.50400001928E-02 0. -1.
       -1   -1    0    0    0  501  0.00000000000E+00  0.00000000000E+00 -0.48341322808E+03  0.48341322811E+03  0.50400001928E-02 0.  1.
    10030    2    1    2    0    0  0.00000000000E+00  0.00000000000E+00  0.20906574628E+04  0.30574839189E+04  0.22309996163E+04 0.  0.
        2    1    3    3  502    0  0.17820661684E+03 -0.10861376173E+04  0.79679874521E+03  0.13588012226E+04  0.25500000920E-02 0.  1.
       -2    1    3    3    0  502 -0.17820661684E+03  0.10861376173E+04  0.12938587176E+04  0.16986826964E+04  0.25500000920E-02 0. -1.
</event>
<event>
 5   0  0.4139830E-05  0.2286846E+04  0.7818609E-02  0.8483126E-01
       -1   -1    0    0    0  501  0.00000000000E+00  0.00000000000E+00  0.11049598087E+04  0.11049598087E+04  0.50400001928E-02 0. -1.
        1   -1    0    0  501    0  0.00000000000E+00  0.00000000000E+00 -0.11832247646E+04  0.11832247646E+04  0.50400001928E-02 0.  1.
    10030    2    1    2    0    0  0.00000000000E+00  0.00000000000E+00 -0.78264955909E+02  0.22881845734E+04  0.22868456962E+04 0.  0.
        1    1    3    3  502    0  0.51010238642E+03 -0.15340724434E+03  0.97322941192E+03  0.11094655089E+04  0.50400001928E-02 0. -1.
       -1    1    3    3    0  502 -0.51010238642E+03  0.15340724434E+03 -0.10514943678E+04  0.11787190644E+04  0.50400001928E-02 0.  1.
</event>
<event>
 5   0  0.9483073E-05  0.2102544E+04  0.7818609E-02  0.8560123E-01
       -2   -1    0    0    0  501  0.00000000000E+00  0.00000000000E+00  0.93898165530E+03  0.93898165530E+03  0.25500000920E-02 0.  1.
        2   -1    0    0  501    0  0.00000000000E+00  0.00000000000E+00 -0.11769909857E+04  0.11769909857E+04  0.25500000920E-02 0. -1.
    10030    2    1    2    0    0  0.00000000000E+00  0.00000000000E+00 -0.23800933040E+03  0.21159726410E+04  0.21025441199E+04 0.  0.
        5    1    3    3  502    0 -0.85238251580E+03 -0.15392159961E+03  0.48053758167E+03  0.99054846901E+03  0.46999998093E+01 0.  1.
       -5    1    3    3    0  502  0.85238251580E+03  0.15392159961E+03 -0.71854691207E+03  0.11254241720E+04  0.46999998093E+01 0. -1.
</event>
<event>
 5   0  0.9313463E-05  0.2267858E+04  0.7818609E-02  0.8490703E-01
       -2   -1    0    0    0  501  0.00000000000E+00  0.00000000000E+00  0.95224740187E+03  0.95224740187E+03  0.25500000920E-02 0. -1.
        2   -1    0    0  501    0  0.00000000000E+00  0.00000000000E+00 -0.13502738392E+04  0.13502738392E+04  0.25500000920E-02 0.  1.
    10030    2    1    2    0    0  0.00000000000E+00  0.00000000000E+00 -0.39802643734E+03  0.23025212411E+04  0.22678578044E+04 0.  0.
        1    1    3    3  502    0 -0.33767698385E+03  0.10722229792E+04 -0.48056768457E+02  0.11251654615E+04  0.50400001928E-02 0. -1.
       -1    1    3    3    0  502  0.33767698385E+03 -0.10722229792E+04 -0.34996966888E+03  0.11773557796E+04  0.50400001928E-02 0.  1.
</event>
<event>
 5   0  0.4295775E-05  0.2352186E+04  0.7818609E-02  0.8457624E-01
       -1   -1    0    0    0  501  0.00000000000E+00  0.00000000000E+00  0.92845243806E+03  0.92845243808E+03  0.50400001928E-02 0. -1.
        1   -1    0    0  501    0  0.00000000000E+00  0.00000000000E+00 -0.14897856114E+04  0.14897856114E+04  0.50400001928E-02 0.  1.
    10030    2    1    2    0    0  0.00000000000E+00  0.00000000000E+00 -0.56133317335E+03  0.24182380495E+04  0.23521862878E+04 0.  0.
        5    1    3    3  502    0  0.52945673235E+03 -0.69637114403E+03  0.52748342481E+03  0.10215273149E+04  0.46999998093E+01 0. -1.
       -5    1    3    3    0  502 -0.52945673235E+03  0.69637114403E+03 -0.10888165982E+04  0.13967107346E+04  0.46999998093E+01 0.  1.
</event>
<event>
 5   0  0.4095451E-05  0.2263932E+04  0.7818609E-02  0.8492280E-01
       -1   -1    0    0    0  501  0.00000000000E+00  0.00000000000E+00  0.54462053006E+03  0.54462053008E+03  0.50400001928E-02 0. -1.
        1   -1    0    0  501    0  0.00000000000E+00  0.00000000000E+00 -0.23527329669E+04  0.23527329669E+04  0.50400001928E-02 0.  1.
    10030    2    1    2    0    0  0.00000000000E+00  0.00000000000E+00 -0.18081124368E+04  0.28973534970E+04  0.22639316911E+04 0.  0.
        3    1    3    3  502    0  0.47328139146E+03 -0.96549379218E+03 -0.13568429767E+04  0.17312412922E+04  0.10100000352E+00 0.  1.
       -3    1    3    3    0  502 -0.47328139146E+03  0.96549379218E+03 -0.45126946012E+03  0.11661122048E+04  0.10100000352E+00 0. -1.
</event>
<event>
 5   0  0.9483073E-05  0.2293169E+04  0.7818609E-02  0.8480620E-01
        2   -1    0    0  501    0  0.00000000000E+00  0.00000000000E+00  0.15438723599E+04  0.15438723599E+04  0.25500000920E-02 0. -1.
       -2   -1    0    0    0  501  0.00000000000E+00  0.00000000000E+00 -0.85153117558E+03  0.85153117559E+03  0.25500000920E-02 0.  1.
    10030    2    1    2    0    0  0.00000000000E+00  0.00000000000E+00  0.69234118430E+03  0.23954035355E+04  0.22931685028E+04 0.  0.
        5    1    3    3  502    0  0.89136060669E+03  0.67824501600E+03  0.60223889734E+03  0.12717129442E+04  0.46999998093E+01 0. -1.
       -5    1    3    3    0  502 -0.89136060669E+03 -0.67824501600E+03  0.90102286965E+02  0.11236905913E+04  0.46999998093E+01 0.  1.
</event>
<event>
 5   0  0.4095451E-05  0.2160321E+04  0.7818609E-02  0.8535127E-01
        1   -1    0    0  501    0  0.00000000000E+00  0.00000000000E+00  0.11356027659E+04  0.11356027659E+04  0.50400001928E-02 0.  1.
       -1   -1    0    0    0  501  0.00000000000E+00  0.00000000000E+00 -0.10274248800E+04  0.10274248800E+04  0.50400001928E-02 0. -1.
    10030    2    1    2    0    0  0.00000000000E+00  0.00000000000E+00  0.10817788592E+03  0.21630276459E+04  0.21603208423E+04 0.  0.
        3    1    3    3  502    0  0.58560184735E+03 -0.89765276108E+03  0.18855733577E+03  0.10882388902E+04  0.10100000352E+00 0. -1.
       -3    1    3    3    0  502 -0.58560184735E+03  0.89765276108E+03 -0.80379449849E+02  0.10747887556E+04  0.10100000352E+00 0.  1.
</event>
<event>
 5   0  0.9483073E-05  0.2318876E+04  0.7818609E-02  0.8470516E-01
       -2   -1    0    0    0  501  0.00000000000E+00  0.00000000000E+00  0.89040631484E+03  0.89040631484E+03  0.25500000920E-02 0.  1.
        2   -1    0    0  501    0  0.00000000000E+00  0.00000000000E+00 -0.15097560166E+04  0.15097560166E+04  0.25500000920E-02 0. -1.
    10030    2    1    2    0    0  0.00000000000E+00  0.00000000000E+00 -0.61934970178E+03  0.24001623315E+04  0.23188758406E+04 0.  0.
        5    1    3    3  502    0  0.43307404125E+03 -0.48950147990E+03 -0.13009031368E+04  0.14558625915E+04  0.46999998093E+01 0. -1.
       -5    1    3    3    0  502 -0.43307404125E+03  0.48950147990E+03  0.68155343504E+03  0.94429973993E+03  0.46999998093E+01 0.  1.
</event>
<event>
 5   0  0.3885219E-05  0.2363880E+04  0.7818609E-02  0.8453152E-01
       -1   -1    0    0    0  501  0.00000000000E+00  0.00000000000E+00  0.92109178064E+03  0.92109178065E+03  0.50400001928E-02 0. -1.
        1   -1    0    0  501    0  0.00000000000E+00  0.00000000000E+00 -0.15166588473E+04  0.15166588473E+04  0.50400001928E-02 0.  1.
    10030    2    1    2    0    0  0.00000000000E+00  0.00000000000E+00 -0.59556706670E+03  0.24377506280E+04  0.23638798602E+04 0.  0.
        2    1    3    3  502    0 -0.24832664011E+03 -0.55247007525E+03  0.74886779729E+03  0.96316783692E+03  0.25500000920E-02 0. -1.
       -2    1    3    3    0  502  0.24832664011E+03  0.55247007525E+03 -0.13444348640E+04  0.14745827911E+04  0.25500000920E-02 0.  1.
</event>
<event>
 5   0  0.9313463E-05  0.2153030E+04  0.7818609E-02  0.8538236E-01
        2   -1    0    0  501    0  0.00000000000E+00  0.00000000000E+00  0.11147025394E+04  0.11147025394E+04  0.25500000920E-02 0.  1.
       -2   -1    0    0    0  501  0.00000000000E+00  0.00000000000E+00 -0.10396359233E+04  0.10396359233E+04  0.25500000920E-02 0. -1.
    10030    2    1    2    0    0  0.00000000000E+00  0.00000000000E+00  0.75066616102E+02  0.21543384628E+04  0.21530302402E+04 0.  0.
        1    1    3    3  502    0 -0.41004086109E+03  0.69856140455E+03 -0.67195553821E+03  0.10524475232E+04  0.50400001928E-02 0. -1.
       -1    1    3    3    0  502  0.41004086109E+03 -0.69856140455E+03  0.74702215432E+03  0.11018909396E+04  0.50400001928E-02 0.  1.
</event>
<event>
 5   0  0.3885219E-05  0.2295838E+04  0.7818609E-02  0.8479564E-01
        1   -1    0    0  501    0  0.00000000000E+00  0.00000000000E+00  0.23795354746E+04  0.23795354746E+04  0.50400001928E-02 0.  1.
       -1   -1    0    0    0  501  0.00000000000E+00  0.00000000000E+00 -0.55377124621E+03  0.55377124623E+03  0.50400001928E-02 0. -1.
    10030    2    1    2    0    0  0.00000000000E+00  0.00000000000E+00  0.18257642284E+04  0.29333067208E+04  0.22958382567E+04 0.  0.
        2    1    3    3  502    0 -0.40819744959E+03 -0.59735729744E+03  0.20515493673E+04  0.21753886331E+04  0.25500000920E-02 0.  1.
       -2    1    3    3    0  502  0.40819744959E+03  0.59735729744E+03 -0.22578513894E+03  0.75791808768E+03  0.25500000920E-02 0. -1.
</event>
<event>
 5   0  0.9312074E-05  0.2578485E+04  0.7818609E-02  0.8375546E-01
        2   -1    0    0  501    0  0.00000000000E+00  0.00000000000E+00  0.23012702938E+04  0.23012702938E+04  0.25500000920E-02 0.  1.
       -2   -1    0    0    0  501  0.00000000000E+00  0.00000000000E+00 -0.72227362795E+03  0.72227362796E+03  0.25500000920E-02 0. -1.
    10030    2    1    2    0    0  0.00000000000E+00  0.00000000000E+00  0.15789966658E+04  0.30235439217E+04  0.25784854810E+04 0.  0.
        4    1    3    3  502    0 -0.12115315122E+04  0.39045872138E+03  0.10294632407E+04  0.16370897333E+04  0.12699999809E+01 0.  1.
       -4    1    3    3    0  502  0.12115315122E+04 -0.39045872138E+03  0.54953342513E+03  0.13864541884E+04  0.12699999809E+01 0. -1.
</event>
<event>
 5   0  0.4005462E-05  0.2345307E+04  0.7818609E-02  0.8460269E-01
        1   -1    0    0  501    0  0.00000000000E+00  0.00000000000E+00  0.97872556105E+03  0.97872556106E+03  0.50400001928E-02 0.  1.
       -1   -1    0    0    0  501  0.00000000000E+00  0.00000000000E+00 -0.14050063787E+04  0.14050063787E+04  0.50400001928E-02 0. -1.
    10030    2    1    2    0    0  0.00000000000E+00  0.00000000000E+00 -0.42628081769E+03  0.23837319398E+04  0.23453065099E+04 0.  0.
        4    1    3    3  502    0  0.67725086461E+02  0.11587381053E+04 -0.43512777174E+02  0.11615316004E+04  0.12699999809E+01 0. -1.
       -4    1    3    3    0  502 -0.67725086461E+02 -0.11587381053E+04 -0.38276804051E+03  0.12222003394E+04  0.12699999809E+01 0.  1.
</event>
<event>
 5   0  0.3885219E-05  0.2355980E+04  0.7818609E-02  0.8456170E-01
       -1   -1    0    0    0  501  0.00000000000E+00  0.00000000000E+00  0.12602471217E+04  0.12602471217E+04  0.50400001928E-02 0.  1.
        1   -1    0    0  501    0  0.00000000000E+00  0.00000000000E+00 -0.11011023044E+04  0.11011023044E+04  0.50400001928E-02 0. -1.
    10030    2    1    2    0    0  0.00000000000E+00  0.00000000000E+00  0.15914481729E+03  0.23613494260E+04  0.23559804836E+04 0.  0.
        2    1    3    3  502    0  0.55630247165E+03  0.56123321382E+03 -0.79603497303E+03  0.11216625333E+04  0.25500000920E-02 0. -1.
       -2    1    3    3    0  502 -0.55630247165E+03 -0.56123321382E+03  0.95517979032E+03  0.12396868928E+04  0.25500000920E-02 0.  1.
</event>
<event>
 5   0  0.4295775E-05  0.2222070E+04  0.7818609E-02  0.8509298E-01
       -1   -1    0    0    0  501  0.00000000000E+00  0.00000000000E+00  0.13054817626E+04  0.13054817626E+04  0.50400001928E-02 0.  1.
        1   -1    0    0  501    0  0.00000000000E+00  0.00000000000E+00 -0.94555055749E+03  0.94555055750E+03  0.50400001928E-02 0. -1.
    10030    2    1    2    0    0  0.00000000000E+00  0.00000000000E+00  0.35993120514E+03  0.22510323201E+04  0.22220702135E+04 0.  0.
        5    1    3    3  502    0  0.47705147850E+03  0.72934219014E+03  0.87804719568E+03  0.12371366583E+04  0.46999998093E+01 0.  1.
       -5    1    3    3    0  502 -0.47705147850E+03 -0.72934219014E+03 -0.51811599055E+03  0.10138956618E+04  0.46999998093E+01 0. -1.
</event>
<event>
 5   0  0.3885219E-05  0.2298936E+04  0.7818609E-02  0.8478341E-01
        1   -1    0    0  501    0  0.00000000000E+00  0.00000000000E+00  0.14886243849E+04  0.14886243849E+04  0.50400001928E-02 0.  1.
       -1   -1    0    0    0  501  0.00000000000E+00  0.00000000000E+00 -0.88758226118E+03  0.88758226119E+03  0.50400001928E-02 0. -1.
    10030    2    1    2    0    0  0.00000000000E+00  0.00000000000E+00  0.60104212370E+03  0.23762066461E+04  0.22989359257E+04 0.  0.
        2    1    3    3  502    0 -0.35142175868E+03 -0.52320167959E+02  0.14304442301E+04  0.14739081885E+04  0.25500000920E-02 0.  1.
       -2    1    3    3    0  502  0.35142175868E+03  0.52320167959E+02 -0.82940210644E+03  0.90229845762E+03  0.25500000920E-02 0. -1.
</event>
<event>
 5   0  0.4095451E-05  0.2329379E+04  0.7818609E-02  0.8466427E-01
       -1   -1    0    0    0  501  0.00000000000E+00  0.00000000000E+00  0.10531818117E+04  0.10531818117E+04  0.50400001928E-02 0.  1.
        1   -1    0    0  501    0  0.00000000000E+00  0.00000000000E+00 -0.12880030921E+04  0.12880030921E+04  0.50400001928E-02 0. -1.
    10030    2    1    2    0    0  0.00000000000E+00  0.00000000000E+00 -0.23482128040E+03  0.23411849037E+04  0.23293788270E+04 0.  0.
        3    1    3    3  502    0 -0.60069438894E+03 -0.85091458104E+03 -0.64121620197E+03  0.12231302469E+04  0.10100000352E+00 0. -1.
       -3    1    3    3    0  502  0.60069438894E+03  0.85091458104E+03  0.40639492157E+03  0.11180546568E+04  0.10100000352E+00 0.  1.
</event>
<event>
 5   0  0.4295775E-05  0.2253338E+04  0.7818609E-02  0.8496550E-01
        1   -1    0    0  501    0  0.00000000000E+00  0.00000000000E+00  0.13166199621E+04  0.13166199621E+04  0.50400001928E-02 0. -1.
       -1   -1    0    0    0  501  0.00000000000E+00  0.00000000000E+00 -0.96412232619E+03  0.96412232620E+03  0.50400001928E-02 0.  1.
    10030    2    1    2    0    0  0.00000000000E+00  0.00000000000E+00  0.35249763595E+03  0.22807422884E+04  0.22533377027E+04 0.  0.
        5    1    3    3  502    0  0.95609098581E+02  0.34134329492E+03  0.12586962196E+04  0.13076676213E+04  0.46999998093E+01 0. -1.
       -5    1    3    3    0  502 -0.95609098581E+02 -0.34134329492E+03 -0.90619858360E+03  0.97307466704E+03  0.46999998093E+01 0.  1.
</event>
<event>
 5   0  0.4295775E-05  0.2286168E+04  0.7818609E-02  0.8483395E-01
       -1   -1    0    0    0  501  0.00000000000E+00  0.00000000000E+00  0.11594852512E+04  0.11594852512E+04  0.50400001928E-02 0. -1.
        1   -1    0    0  501    0  0.00000000000E+00  0.00000000000E+00 -0.11269150104E+04  0.11269150104E+04  0.50400001928E-02 0.  1.
    10030    2    1    2    0    0  0.00000000000E+00  0.00000000000E+00  0.32570240775E+02  0.22864002617E+04  0.22861682650E+04 0.  0.
        5    1    3    3  502    0  0.89159798623E+03  0.22099760743E+03  0.69667197517E+03  0.11528923812E+04  0.46999998093E+01 0. -1.
       -5    1    3    3    0  502 -0.89159798623E+03 -0.22099760743E+03 -0.66410173440E+03  0.11335078805E+04  0.46999998093E+01 0.  1.
</event>
<event>
 5   0  0.4295775E-05  0.2293096E+04  0.7818609E-02  0.8480648E-01
       -1   -1    0    0    0  501  0.00000000000E+00  0.00000000000E+00  0.14162426134E+04  0.14162426134E+04  0.50400001928E-02 0.  1.
        1   -1    0    0  501    0  0.00000000000E+00  0.00000000000E+00 -0.92821102819E+03  0.92821102821E+03  0.50400001928E-02 0. -1.
    10030    2    1    2    0    0  0.00000000000E+00  0.00000000000E+00  0.48803158522E+03  0.23444536416E+04  0.22930957349E+04 0.  0.
        5    1    3    3  502    0  0.49193898610E+02  0.85590086555E+03  0.10223569761E+04  0.13342496797E+04  0.46999998093E+01 0.  1.
       -5    1    3    3    0  502 -0.49193898610E+02 -0.85590086555E+03 -0.53432539087E+03  0.10102039619E+04  0.46999998093E+01 0. -1.
</event>
<event>
 5   0  0.9312074E-05  0.2303162E+04  0.7818609E-02  0.8476675E-01
        2   -1    0    0  501    0  0.00000000000E+00  0.00000000000E+00  0.24403194269E+04  0.24403194269E+04  0.25500000920E-02 0. -1.
       -2   -1    0    0    0  501  0.00000000000E+00  0.00000000000E+00 -0.54342859197E+03  0.54342859198E+03  0.25500000920E-02 0.  1.
    10030    2    1    2    0    0  0.00000000000E+00  0.00000000000E+00  0.18968908350E+04  0.29837480189E+04  0.23031624781E+04 0.  0.
        4    1    3    3  502    0 -0.98257740388E+03  0.60014073460E+03  0.97771573847E+03  0.15104823515E+04  0.12699999809E+01 0. -1.
       -4    1    3    3    0  502  0.98257740388E+03 -0.60014073460E+03  0.91917509648E+03  0.14732656674E+04  0.12699999809E+01 0.  1.
</event>
<event>
 5   0  0.4005462E-05  0.2297813E+04  0.7818609E-02  0.8478784E-01
        1   -1    0    0  501    0  0.00000000000E+00  0.00000000000E+00  0.22503047727E+04  0.22503047727E+04  0.50400001928E-02 0. -1.
       -1   -1    0    0    0  501  0.00000000000E+00  0.00000000000E+00 -0.58658101746E+03  0.58658101748E+03  0.50400001928E-02 0.  1.
    10030    2    1    2    0    0  0.00000000000E+00  0.00000000000E+00  0.16637237552E+04  0.28368857901E+04  0.22978129281E+04 0.  0.
        4    1    3    3  502    0  0.49044488666E+03 -0.73005602895E+03  0.17445217132E+04  0.19536825773E+04  0.12699999809E+01 0. -1.
       -4    1    3    3    0  502 -0.49044488666E+03  0.73005602895E+03 -0.80797957977E+02  0.88320321284E+03  0.12699999809E+01 0.  1.
</event>
<event>
 5   0  0.9641157E-05  0.2385818E+04  0.7818609E-02  0.8444832E-01
        2   -1    0    0  501    0  0.00000000000E+00  0.00000000000E+00  0.12273866859E+04  0.12273866859E+04  0.25500000920E-02 0. -1.
       -2   -1    0    0    0  501  0.00000000000E+00  0.00000000000E+00 -0.11594002524E+04  0.11594002524E+04  0.25500000920E-02 0.  1.
    10030    2    1    2    0    0  0.00000000000E+00  0.00000000000E+00  0.67986433511E+02  0.23867869383E+04  0.23858184620E+04 0.  0.
        3    1    3    3  502    0  0.11483629103E+04  0.30390304276E+03  0.14329867845E+03  0.11965069806E+04  0.10100000352E+00 0.  1.
       -3    1    3    3    0  502 -0.11483629103E+04 -0.30390304276E+03 -0.75312244940E+02  0.11902799577E+04  0.10100000352E+00 0. -1.
</event>
<event>
 5   0  0.9313463E-05  0.2232919E+04  0.7818609E-02  0.8504850E-01
        2   -1    0    0  501    0  0.00000000000E+00  0.00000000000E+00  0.21438141296E+04  0.21438141296E+04  0.25500000920E-02 0. -1.
       -2   -1    0    0    0  501  0.00000000000E+00  0.00000000000E+00 -0.58143187927E+03  0.58143187928E+03  0.25500000920E-02 0.  1.
    10030    2    1    2    0    0  0.00000000000E+00  0.00000000000E+00  0.15623822503E+04  0.27252460089E+04  0.22329190565E+04 0.  0.
        1    1    3    3  502    0 -0.85447506191E+03 -0.68625664613E+03  0.52112148736E+03  0.12135252039E+04  0.50400001928E-02 0.  1.
       -1    1    3    3    0  502  0.85447506191E+03  0.68625664613E+03  0.10412607630E+04  0.15117208050E+04  0.50400001928E-02 0. -1.
</event>
<event>
 5   0  0.4005462E-05  0.2317847E+04  0.7818609E-02  0.8470917E-01
        1   -1    0    0  501    0  0.00000000000E+00  0.00000000000E+00  0.94531800943E+03  0.94531800944E+03  0.50400001928E-02 0.  1.
       -1   -1    0    0    0  501  0.00000000000E+00  0.00000000000E+00 -0.14207956107E+04  0.14207956108E+04  0.50400001928E-02 0. -1.
    10030    2    1    2    0    0  0.00000000000E+00  0.00000000000E+00 -0.47547760132E+03  0.23661136202E+04  0.23178469998E+04 0.  0.
        4    1    3    3  502    0  0.15272670842E+02 -0.84371590556E+03 -0.10486433497E+04  0.13460105020E+04  0.12699999809E+01 0. -1.
       -4    1    3    3    0  502 -0.15272670842E+02  0.84371590556E+03  0.57316574836E+03  0.10201031182E+04  0.12699999809E+01 0.  1.
</event>
<event>
 5   0  0.9313463E-05  0.1631212E+04  0.7818609E-02  0.8801600E-01
        2   -1    0    0  501    0  0.00000000000E+00  0.00000000000E+00  0.13108479641E+04  0.13108479641E+04  0.25500000920E-02 0. -1.
       -2   -1    0    0    0  501  0.00000000000E+00  0.00000000000E+00 -0.50746754544E+03  0.50746754545E+03  0.25500000920E-02 0.  1.
    10030    2    1    2    0    0  0.00000000000E+00  0.00000000000E+00  0.80338041863E+03  0.18183155095E+04  0.16312115728E+04 0.  0.
        1    1    3    3  502    0 -0.79091758003E+03 -0.15681807147E+03  0.26484817987E+03  0.84869728664E+03  0.50400001928E-02 0. -1.
       -1    1    3    3    0  502  0.79091758003E+03  0.15681807147E+03  0.53853223876E+03  0.96961822288E+03  0.50400001928E-02 0.  1.
</event>
<event>
 5   0  0.9641157E-05  0.2372231E+04  0.7818609E-02  0.8449974E-01
        2   -1    0    0  501    0  0.00000000000E+00  0.00000000000E+00  0.11233078650E+04  0.11233078650E+04  0.25500000920E-02 0. -1.
       -2   -1    0    0    0  501  0.00000000000E+00  0.00000000000E+00 -0.12524344492E+04  0.12524344492E+04  0.25500000920E-02 0.  1.
    10030    2    1    2    0    0  0.00000000000E+00  0.00000000000E+00 -0.12912658417E+03  0.23757423142E+04  0.23722305682E+04 0.  0.
        3    1    3    3  502    0 -0.60240696290E+03  0.84894723376E+03 -0.63396798304E+03  0.12188194979E+04  0.10100000352E+00 0.  1.
       -3    1    3    3    0  502  0.60240696290E+03 -0.84894723376E+03  0.50484139887E+03  0.11569228163E+04  0.10100000352E+00 0. -1.
</event>
<event>
 5   0  0.3885219E-05  0.2512665E+04  0.7818609E-02  0.8398487E-01
        1   -1    0    0  501    0  0.00000000000E+00  0.00000000000E+00  0.11556279031E+04  0.11556279031E+04  0.50400001928E-02 0.  1.
       -1   -1    0    0    0  501  0.00000000000E+00  0.00000000000E+00 -0.13658130276E+04  0.13658130276E+04  0.50400001928E-02 0. -1.
    10030    2    1    2    0    0  0.00000000000E+00  0.00000000000E+00 -0.21018512456E+03  0.25214409307E+04  0.25126652344E+04 0.  0.
        2    1    3    3  502    0 -0.48104826428E+03 -0.26238298265E+03 -0.12395804882E+04  0.13552903929E+04  0.25500000920E-02 0. -1.
       -2    1    3    3    0  502  0.48104826428E+03  0.26238298265E+03  0.10293953637E+04  0.11661505378E+04  0.25500000920E-02 0.  1.
</event>
<event>
 5   0  0.9641157E-05  0.2306466E+04  0.7818609E-02  0.8475376E-01
        2   -1    0    0  501    0  0.00000000000E+00  0.00000000000E+00  0.10945565777E+04  0.10945565777E+04  0.25500000920E-02 0. -1.
       -2   -1    0    0    0  501  0.00000000000E+00  0.00000000000E+00 -0.12150545398E+04  0.12150545398E+04  0.25500000920E-02 0.  1.
    10030    2    1    2    0    0  0.00000000000E+00  0.00000000000E+00 -0.12049796213E+03  0.23096111175E+04  0.23064656415E+04 0.  0.
        3    1    3    3  502    0 -0.71874807524E+03 -0.74156737781E+03 -0.57419834268E+03  0.11816195320E+04  0.10100000352E+00 0.  1.
       -3    1    3    3    0  502  0.71874807524E+03  0.74156737781E+03  0.45370038055E+03  0.11279915855E+04  0.10100000352E+00 0. -1.
</event>
<event>
 5   0  0.4005462E-05  0.2274142E+04  0.7818609E-02  0.8488187E-01
       -1   -1    0    0    0  501  0.00000000000E+00  0.00000000000E+00  0.65432136012E+03  0.65432136014E+03  0.50400001928E-02 0. -1.
        1   -1    0    0  501    0  0.00000000000E+00  0.00000000000E+00 -0.19759870761E+04  0.19759870761E+04  0.50400001928E-02 0.  1.
    10030    2    1    2    0    0  0.00000000000E+00  0.00000000000E+00 -0.13216657160E+04  0.26303084362E+04  0.22741420811E+04 0.  0.
        4    1    3    3  502    0  0.74588302417E+03  0.10415848435E+03 -0.16461570675E+04  0.18102555564E+04  0.12699999809E+01 0.  1.
       -4    1    3    3    0  502 -0.74588302417E+03 -0.10415848435E+03  0.32449135155E+03  0.82005287984E+03  0.12699999809E+01 0. -1.
</event>
<event>
 5   0  0.3885219E-05  0.2081128E+04  0.7818609E-02  0.8569603E-01
       -1   -1    0    0    0  501  0.00000000000E+00  0.00000000000E+00  0.91656652774E+03  0.91656652775E+03  0.50400001928E-02 0.  1.
        1   -1    0    0  501    0  0.00000000000E+00  0.00000000000E+00 -0.11813360895E+04  0.11813360895E+04  0.50400001928E-02 0. -1.
    10030    2    1    2    0    0  0.00000000000E+00  0.00000000000E+00 -0.26476956173E+03  0.20979026172E+04  0.20811276920E+04 0.  0.
        2    1    3    3  502    0  0.54633470914E+03  0.73215558970E+03 -0.63463740184E+03  0.11123390013E+04  0.25500000920E-02 0. -1.
       -2    1    3    3    0  502 -0.54633470914E+03 -0.73215558970E+03  0.36986784011E+03  0.98556361595E+03  0.25500000920E-02 0.  1.
</event>
<event>
 5   0  0.4139830E-05  0.2243487E+04  0.7818609E-02  0.8500543E-01
        1   -1    0    0  501    0  0.00000000000E+00  0.00000000000E+00  0.14145567374E+04  0.14145567374E+04  0.50400001928E-02 0.  1.
       -1   -1    0    0    0  501  0.00000000000E+00  0.00000000000E+00 -0.88954287887E+03  0.88954287888E+03  0.50400001928E-02 0. -1.
    10030    2    1    2    0    0  0.00000000000E+00  0.00000000000E+00  0.52501385850E+03  0.23040996163E+04  0.22434873501E+04 0.  0.
        1    1    3    3  502    0 -0.21711581536E+03 -0.89072690244E+03  0.92632480657E+03  0.13033078452E+04  0.50400001928E-02 0.  1.
       -1    1    3    3    0  502  0.21711581536E+03  0.89072690244E+03 -0.40131094807E+03  0.10007917711E+04  0.50400001928E-02 0. -1.
</event>
<event>
 5   0  0.9313463E-05  0.2288234E+04  0.7818609E-02  0.8482575E-01
        2   -1    0    0  501    0  0.00000000000E+00  0.00000000000E+00  0.82733209248E+03  0.82733209248E+03  0.25500000920E-02 0.  1.
       -2   -1    0    0    0  501  0.00000000000E+00  0.00000000000E+00 -0.15821981116E+04  0.15821981116E+04  0.25500000920E-02 0. -1.
    10030    2    1    2    0    0  0.00000000000E+00  0.00000000000E+00 -0.75486601908E+03  0.24095302040E+04  0.22882336195E+04 0.  0.
        1    1    3    3  502    0  0.26987398028E+02 -0.63508692996E+03 -0.13791425181E+04  0.15185841476E+04  0.50400001928E-02 0. -1.
       -1    1    3    3    0  502 -0.26987398028E+02  0.63508692996E+03  0.62427649898E+03  0.89094605643E+03  0.50400001928E-02 0.  1.
</event>
<event>
 5   0  0.4139830E-05  0.1687338E+04  0.7818609E-02  0.8768619E-01
        1   -1    0    0  501    0  0.00000000000E+00  0.00000000000E+00  0.17472744883E+04  0.17472744883E+04  0.50400001928E-02 0.  1.
       -1   -1    0    0    0  501  0.00000000000E+00  0.00000000000E+00 -0.40736451419E+03  0.40736451422E+03  0.50400001928E-02 0. -1.
    10030    2    1    2    0    0  0.00000000000E+00  0.00000000000E+00  0.13399099741E+04  0.21546390025E+04  0.16873382863E+04 0.  0.
        1    1    3    3  502    0 -0.40627902338E+03 -0.26941374665E+03  0.15492237178E+04  0.16241122312E+04  0.50400001928E-02 0.  1.
       -1    1    3    3    0  502  0.40627902338E+03  0.26941374665E+03 -0.20931374372E+03  0.53052677130E+03  0.50400001928E-02 0. -1.
</event>
<event>
 5   0  0.4005462E-05  0.2297484E+04  0.7818609E-02  0.8478914E-01
        1   -1    0    0  501    0  0.00000000000E+00  0.00000000000E+00  0.13091461524E+04  0.13091461524E+04  0.50400001928E-02 0.  1.
       -1   -1    0    0    0  501  0.00000000000E+00  0.00000000000E+00 -0.10079916167E+04  0.10079916167E+04  0.50400001928E-02 0. -1.
    10030    2    1    2    0    0  0.00000000000E+00  0.00000000000E+00  0.30115453570E+03  0.23171377691E+04  0.22974841428E+04 0.  0.
        4    1    3    3  502    0  0.10903585381E+04 -0.36077183502E+03  0.17462817697E+03  0.11616947411E+04  0.12699999809E+01 0.  1.
       -4    1    3    3    0  502 -0.10903585381E+04  0.36077183502E+03  0.12652635873E+03  0.11554430279E+04  0.12699999809E+01 0. -1.
</event>
<event>
 5   0  0.9535394E-05  0.2196142E+04  0.7818609E-02  0.8520036E-01
        2   -1    0    0  501    0  0.00000000000E+00  0.00000000000E+00  0.19537856602E+04  0.19537856602E+04  0.25500000920E-02 0. -1.
       -2   -1    0    0    0  501  0.00000000000E+00  0.00000000000E+00 -0.61714042776E+03  0.61714042776E+03  0.25500000920E-02 0.  1.
    10030    2    1    2    0    0  0.00000000000E+00  0.00000000000E+00  0.13366452324E+04  0.25709260880E+04  0.21961421795E+04 0.  0.
        2    1    3    3  502    0  0.89009805351E+03  0.20860816977E+03 -0.43728774729E+02  0.91526177627E+03  0.25500000920E-02 0.  1.
       -2    1    3    3    0  502 -0.89009805351E+03 -0.20860816977E+03  0.13803740072E+04  0.16556643117E+04  0.25500000920E-02 0. -1.
</event>
<event>
 5   0  0.9535394E-05  0.2190541E+04  0.7818609E-02  0.8522375E-01
       -2   -1    0    0    0  501  0.00000000000E+00  0.00000000000E+00  0.17215909258E+04  0.17215909258E+04  0.25500000920E-02 0. -1.
        2   -1    0    0  501    0  0.00000000000E+00  0.00000000000E+00 -0.69680753178E+03  0.69680753179E+03  0.25500000920E-02 0.  1.
    10030    2    1    2    0    0  0.00000000000E+00  0.00000000000E+00  0.10247833940E+04  0.24183984576E+04  0.21905410507E+04 0.  0.
        2    1    3    3  502    0  0.72801856651E+03 -0.23696291027E+03  0.13770964395E+04  0.15756132322E+04  0.25500000920E-02 0. -1.
       -2    1    3    3    0  502 -0.72801856651E+03  0.23696291027E+03 -0.35231304546E+03  0.84278522533E+03  0.25500000920E-02 0.  1.
</event>
<event>
 5   0  0.3261500E-05  0.2387887E+04  0.7818609E-02  0.8444052E-01
        4   -1    0    0  501    0  0.00000000000E+00  0.00000000000E+00  0.16361471806E+04  0.16361476735E+04  0.12699999809E+01 0. -1.
       -4   -1    0    0    0  501  0.00000000000E+00  0.00000000000E+00 -0.87125390987E+03  0.87125483548E+03  0.12699999809E+01 0.  1.
    10030    2    1    2    0    0  0.00000000000E+00  0.00000000000E+00  0.76489327069E+03  0.25074025089E+04  0.23878872725E+04 0.  0.
        3    1    3    3  502    0  0.54348489794E+03  0.95203262425E+03 -0.11426109939E+03  0.11021785522E+04  0.10100000352E+00 0. -1.
       -3    1    3    3    0  502 -0.54348489794E+03 -0.95203262425E+03  0.87915437008E+03  0.14052239567E+04  0.10100000352E+00 0.  1.
</event>
<event>
 5   0  0.9313463E-05  0.2189644E+04  0.7818609E-02  0.8522751E-01
        2   -1    0    0  501    0  0.00000000000E+00  0.00000000000E+00  0.17867198220E+04  0.17867198220E+04  0.25500000920E-02 0. -1.
       -2   -1    0    0    0  501  0.00000000000E+00  0.00000000000E+00 -0.67085816147E+03  0.67085816148E+03  0.25500000920E-02 0.  1.
    10030    2    1    2    0    0  0.00000000000E+00  0.00000000000E+00  0.11158616606E+04  0.24575779835E+04  0.21896443317E+04 0.  0.
        1    1    3    3  502    0 -0.31437591335E+03 -0.50799818368E+03 -0.47179836022E+03  0.76124113279E+03  0.50400001928E-02 0.  1.
       -1    1    3    3    0  502  0.31437591335E+03  0.50799818368E+03  0.15876600208E+04  0.16963368507E+04  0.50400001928E-02 0. -1.
</event>
<event>
 5   0  0.4095451E-05  0.2309230E+04  0.7818609E-02  0.8474291E-01
        1   -1    0    0  501    0  0.00000000000E+00  0.00000000000E+00  0.15569952334E+04  0.15569952334E+04  0.50400001928E-02 0.  1.
       -1   -1    0    0    0  501  0.00000000000E+00  0.00000000000E+00 -0.85622326879E+03  0.85622326880E+03  0.50400001928E-02 0. -1.
    10030    2    1    2    0    0  0.00000000000E+00  0.00000000000E+00  0.70077196462E+03  0.24132185022E+04  0.23092297835E+04 0.  0.
        3    1    3    3  502    0 -0.51518911617E+03 -0.75722409214E+03  0.10851313086E+04  0.14199711681E+04  0.10100000352E+00 0.  1.
       -3    1    3    3    0  502  0.51518911617E+03  0.75722409214E+03 -0.38435934403E+03  0.99324733409E+03  0.10100000352E+00 0. -1.
</event>
<event>
 5   0  0.9312074E-05  0.2305968E+04  0.7818609E-02  0.8475572E-01
       -2   -1    0    0    0  501  0.00000000000E+00  0.00000000000E+00  0.11844155679E+04  0.11844155679E+04  0.25500000920E-02 0. -1.
        2   -1    0    0  501    0  0.00000000000E+00  0.00000000000E+00 -0.11223865497E+04  0.11223865497E+04  0.25500000920E-02 0.  1.
    10030    2    1    2    0    0  0.00000000000E+00  0.00000000000E+00  0.62029018204E+02  0.23068021175E+04  0.23059679986E+04 0.  0.
        4    1    3    3  502    0  0.61203172414E+02  0.87376447065E+03  0.78105922516E+03  0.11735694716E+04  0.12699999809E+01 0. -1.
       -4    1    3    3    0  502 -0.61203172414E+02 -0.87376447065E+03 -0.71903020696E+03  0.11332326460E+04  0.12699999809E+01 0.  1.
</event>
<event>
 5   0  0.9483073E-05  0.2330572E+04  0.7818609E-02  0.8465964E-01
       -2   -1    0    0    0  501  0.00000000000E+00  0.00000000000E+00  0.68568158399E+03  0.68568158400E+03  0.25500000920E-02 0.  1.
        2   -1    0    0  501    0  0.00000000000E+00  0.00000000000E+00 -0.19803524912E+04  0.19803524912E+04  0.25500000920E-02 0. -1.
    10030    2    1    2    0    0  0.00000000000E+00  0.00000000000E+00 -0.12946709072E+04  0.26660340752E+04  0.23305718037E+04 0.  0.
        5    1    3    3  502    0  0.11583063699E+04 -0.28041496400E+01 -0.50179125949E+03  0.12623383334E+04  0.46999998093E+01 0.  1.
       -5    1    3    3    0  502 -0.11583063699E+04  0.28041496400E+01 -0.79287964774E+03  0.14036957418E+04  0.46999998093E+01 0. -1.
</event>
<event>
 5   0  0.9641157E-05  0.2370454E+04  0.7818609E-02  0.8450649E-01
       -2   -1    0    0    0  501  0.00000000000E+00  0.00000000000E+00  0.79802200444E+03  0.79802200444E+03  0.25500000920E-02 0.  1.
        2   -1    0    0  501    0  0.00000000000E+00  0.00000000000E+00 -0.17603059874E+04  0.17603059874E+04  0.25500000920E-02 0. -1.
    10030    2    1    2    0    0  0.00000000000E+00  0.00000000000E+00 -0.96228398298E+03  0.25583279919E+04  0.23704538912E+04 0.  0.
        3    1    3    3  502    0 -0.10644248335E+04  0.23371457220E+03  0.21773255425E+02  0.10899985377E+04  0.10100000352E+00 0.  1.
       -3    1    3    3    0  502  0.10644248335E+04 -0.23371457220E+03 -0.98405723841E+03  0.14683294542E+04  0.10100000352E+00 0. -1.
</event>
<event>
 5   0  0.4139830E-05  0.2292512E+04  0.7818609E-02  0.8480879E-01
       -1   -1    0    0    0  501  0.00000000000E+00  0.00000000000E+00  0.77161114265E+03  0.77161114266E+03  0.50400001928E-02 0.  1.
        1   -1    0    0  501    0  0.00000000000E+00  0.00000000000E+00 -0.17028050259E+04  0.17028050259E+04  0.50400001928E-02 0. -1.
    10030    2    1    2    0    0  0.00000000000E+00  0.00000000000E+00 -0.93119388323E+03  0.24744161685E+04  0.22925124486E+04 0.  0.
        1    1    3    3  502    0  0.98100960787E+03  0.57998690555E+03 -0.59839903130E+03  0.12871853254E+04  0.50400001928E-02 0. -1.
       -1    1    3    3    0  502 -0.98100960787E+03 -0.57998690555E+03 -0.33279485194E+03  0.11872308431E+04  0.50400001928E-02 0.  1.
</event>
<event>
 5   0  0.3885219E-05  0.2289291E+04  0.7818609E-02  0.8482156E-01
        1   -1    0    0  501    0  0.00000000000E+00  0.00000000000E+00  0.15101160660E+04  0.15101160660E+04  0.50400001928E-02 0.  1.
       -1   -1    0    0    0  501  0.00000000000E+00  0.00000000000E+00 -0.86762393011E+03  0.86762393013E+03  0.50400001928E-02 0. -1.
    10030    2    1    2    0    0  0.00000000000E+00  0.00000000000E+00  0.64249213592E+03  0.23777399962E+04  0.22892905767E+04 0.  0.
        2    1    3    3  502    0 -0.36213101735E+03 -0.82910875799E+03  0.10495164127E+04  0.13856568503E+04  0.25500000920E-02 0.  1.
       -2    1    3    3    0  502  0.36213101735E+03  0.82910875799E+03 -0.40702427681E+03  0.99208314582E+03  0.25500000920E-02 0. -1.
</event>
<event>
 5   0  0.3885219E-05  0.2207281E+04  0.7818609E-02  0.8515404E-01
       -1   -1    0    0    0  501  0.00000000000E+00  0.00000000000E+00  0.52832116656E+03  0.52832116659E+03  0.50400001928E-02 0. -1.
        1   -1    0    0  501    0  0.00000000000E+00  0.00000000000E+00 -0.23054573307E+04  0.23054573307E+04  0.50400001928E-02 0.  1.
    10030    2    1    2    0    0  0.00000000000E+00  0.00000000000E+00 -0.17771361641E+04  0.28337784972E+04  0.22072805952E+04 0.  0.
        2    1    3    3  502    0 -0.46973855856E+03  0.63994964346E+02 -0.21680746033E+04  0.22193010509E+04  0.25500000920E-02 0.  1.
       -2    1    3    3    0  502  0.46973855856E+03 -0.63994964346E+02  0.39093843921E+03  0.61447744639E+03  0.25500000920E-02 0. -1.
</event>
<event>
 5   0  0.9535394E-05  0.2317910E+04  0.7818609E-02  0.8470893E-01
        2   -1    0    0  501    0  0.00000000000E+00  0.00000000000E+00  0.18113043054E+04  0.18113043054E+04  0.25500000920E-02 0. -1.
       -2   -1    0    0    0  501  0.00000000000E+00  0.00000000000E+00 -0.74155240399E+03  0.74155240399E+03  0.25500000920E-02 0.  1.
    10030    2    1    2    0    0  0.00000000000E+00  0.00000000000E+00  0.10697519014E+04  0.25528567094E+04  0.23179103192E+04 0.  0.
        2    1    3    3  502    0 -0.55758037454E+03  0.98834563318E+03  0.27551975341E+03  0.11677474467E+04  0.25500000920E-02 0.  1.
       -2    1    3    3    0  502  0.55758037454E+03 -0.98834563318E+03  0.79423214800E+03  0.13851092627E+04  0.25500000920E-02 0. -1.
</event>
<event>
 5   0  0.9312074E-05  0.2285272E+04  0.7818609E-02  0.8483751E-01
        2   -1    0    0  501    0  0.00000000000E+00  0.00000000000E+00  0.21567822208E+04  0.21567822208E+04  0.25500000920E-02 0.  1.
       -2   -1    0    0    0  501  0.00000000000E+00  0.00000000000E+00 -0.60535424090E+03  0.60535424090E+03  0.25500000920E-02 0. -1.
    10030    2    1    2    0    0  0.00000000000E+00  0.00000000000E+00  0.15514279799E+04  0.27621364617E+04  0.22852722062E+04 0.  0.
        4    1    3    3  502    0 -0.61146365799E+03  0.33054615209E+03  0.18718550775E+04  0.19967452536E+04  0.12699999809E+01 0.  1.
       -4    1    3    3    0  502  0.61146365799E+03 -0.33054615209E+03 -0.32042709758E+03  0.76539120812E+03  0.12699999809E+01 0. -1.
</event>
<event>
 5   0  0.9483073E-05  0.1846133E+04  0.7818609E-02  0.8682144E-01
       -2   -1    0    0    0  501  0.00000000000E+00  0.00000000000E+00  0.54122436890E+03  0.54122436890E+03  0.25500000920E-02 0. -1.
        2   -1    0    0  501    0  0.00000000000E+00  0.00000000000E+00 -0.15743038255E+04  0.15743038255E+04  0.25500000920E-02 0.  1.
    10030    2    1    2    0    0  0.00000000000E+00  0.00000000000E+00 -0.10330794566E+04  0.21155281944E+04  0.18461328169E+04 0.  0.
        5    1    3    3  502    0 -0.88959519525E+03 -0.19279462743E+03 -0.34094718297E+03  0.97201669294E+03  0.46999998093E+01 0.  1.
       -5    1    3    3    0  502  0.88959519525E+03  0.19279462743E+03 -0.69213227361E+03  0.11435115014E+04  0.46999998093E+01 0. -1.
</event>
<event>
 5   0  0.4139830E-05  0.2285030E+04  0.7818609E-02  0.8483847E-01
        1   -1    0    0  501    0  0.00000000000E+00  0.00000000000E+00  0.18979283588E+04  0.18979283588E+04  0.50400001928E-02 0.  1.
       -1   -1    0    0    0  501  0.00000000000E+00  0.00000000000E+00 -0.68777146009E+03  0.68777146011E+03  0.50400001928E-02 0. -1.
    10030    2    1    2    0    0  0.00000000000E+00  0.00000000000E+00  0.12101568987E+04  0.25856998189E+04  0.22850303792E+04 0.  0.
        1    1    3    3  502    0  0.78466840195E+03 -0.24420654769E+03 -0.29308684626E+03  0.87249139734E+03  0.50400001928E-02 0. -1.
       -1    1    3    3    0  502 -0.78466840195E+03  0.24420654769E+03  0.15032437450E+04  0.17132084216E+04  0.50400001928E-02 0.  1.
</event>
<event>
 5   0  0.4005462E-05  0.2314522E+04  0.7818609E-02  0.8472217E-01
        1   -1    0    0  501    0  0.00000000000E+00  0.00000000000E+00  0.15890081614E+04  0.15890081614E+04  0.50400001928E-02 0. -1.
       -1   -1    0    0    0  501  0.00000000000E+00  0.00000000000E+00 -0.84282342909E+03  0.84282342910E+03  0.50400001928E-02 0.  1.
    10030    2    1    2    0    0  0.00000000000E+00  0.00000000000E+00  0.74618473233E+03  0.24318315905E+04  0.23145222466E+04 0.  0.
        4    1    3    3  502    0  0.10355160765E+04  0.12276658093E+03  0.90041279501E+03  0.13777191268E+04  0.12699999809E+01 0.  1.
       -4    1    3    3    0  502 -0.10355160765E+04 -0.12276658093E+03 -0.15422806268E+03  0.10541124637E+04  0.12699999809E+01 0. -1.
</event>
<event>
 5   0  0.9535394E-05  0.2385038E+04  0.7818609E-02  0.8445126E-01
       -2   -1    0    0    0  501  0.00000000000E+00  0.00000000000E+00  0.19575457432E+04  0.19575457432E+04  0.25500000920E-02 0. -1.
        2   -1    0    0  501    0  0.00000000000E+00  0.00000000000E+00 -0.72647161941E+03  0.72647161942E+03  0.25500000920E-02 0.  1.
    10030    2    1    2    0    0  0.00000000000E+00  0.00000000000E+00  0.12310741238E+04  0.26840173626E+04  0.23850378833E+04 0.  0.
        2    1    3    3  502    0 -0.15111208615E+03  0.30195580778E+03  0.19026265050E+04  0.19323560205E+04  0.25500000920E-02 0. -1.
       -2    1    3    3    0  502  0.15111208615E+03 -0.30195580778E+03 -0.67155238124E+03  0.75166134209E+03  0.25500000920E-02 0.  1.
</event>
<event>
 5   0  0.9313463E-05  0.2303776E+04  0.7818609E-02  0.8476434E-01
       -2   -1    0    0    0  501  0.00000000000E+00  0.00000000000E+00  0.66913627165E+03  0.66913627165E+03  0.25500000920E-02 0.  1.
        2   -1    0    0  501    0  0.00000000000E+00  0.00000000000E+00 -0.19829240267E+04  0.19829240267E+04  0.25500000920E-02 0. -1.
    10030    2    1    2    0    0  0.00000000000E+00  0.00000000000E+00 -0.13137877551E+04  0.26520602984E+04  0.23037763695E+04 0.  0.
        1    1    3    3  502    0 -0.42505468902E+03 -0.31440742791E+03 -0.18349971670E+04  0.19096434542E+04  0.50400001928E-02 0. -1.
       -1    1    3    3    0  502  0.42505468902E+03  0.31440742791E+03  0.52120941192E+03  0.74241684415E+03  0.50400001928E-02 0.  1.
</event>
<event>
 5   0  0.9313463E-05  0.2330491E+04  0.7818609E-02  0.8465995E-01
        2   -1    0    0  501    0  0.00000000000E+00  0.00000000000E+00  0.13549194837E+04  0.13549194837E+04  0.25500000920E-02 0. -1.
       -2   -1    0    0    0  501  0.00000000000E+00  0.00000000000E+00 -0.10021234780E+04  0.10021234780E+04  0.25500000920E-02 0.  1.
    10030    2    1    2    0    0  0.00000000000E+00  0.00000000000E+00  0.35279600566E+03  0.23570429617E+04  0.23304906139E+04 0.  0.
        1    1    3    3  502    0 -0.30653119148E+03 -0.48894088728E+03  0.12002419778E+04  0.13317677605E+04  0.50400001928E-02 0. -1.
       -1    1    3    3    0  502  0.30653119148E+03  0.48894088728E+03 -0.84744597209E+03  0.10252752012E+04  0.50400001928E-02 0.  1.
</event>
<event>
 5   0  0.3885219E-05  0.2293746E+04  0.7818609E-02  0.8480391E-01
       -1   -1    0    0    0  501  0.00000000000E+00  0.00000000000E+00  0.97463655927E+03  0.97463655928E+03  0.50400001928E-02 0.  1.
        1   -1    0    0  501    0  0.00000000000E+00  0.00000000000E+00 -0.13495473920E+04  0.13495473920E+04  0.50400001928E-02 0. -1.
    10030    2    1    2    0    0  0.00000000000E+00  0.00000000000E+00 -0.37491083276E+03  0.23241839513E+04  0.22937464784E+04 0.  0.
        2    1    3    3  502    0 -0.10050015171E+04  0.39025908628E+03  0.20887171103E+03  0.10981610061E+04  0.25500000920E-02 0.  1.
       -2    1    3    3    0  502  0.10050015171E+04 -0.39025908628E+03 -0.58378254379E+03  0.12260229452E+04  0.25500000920E-02 0. -1.
</event>
<event>
 5   0  0.9483073E-05  0.2294916E+04  0.7818609E-02  0.8479928E-01
       -2   -1    0    0    0  501  0.00000000000E+00  0.00000000000E+00  0.15824644891E+04  0.15824644891E+04  0.25500000920E-02 0. -1.
        2   -1    0    0  501    0  0.00000000000E+00  0.00000000000E+00 -0.83203131511E+03  0.83203131511E+03  0.25500000920E-02 0.  1.
    10030    2    1    2    0    0  0.00000000000E+00  0.00000000000E+00  0.75043317398E+03  0.24144958042E+04  0.22949161292E+04 0.  0.
        5    1    3    3  502    0  0.65656048008E+03 -0.65553751678E+03  0.10855534253E+04  0.14280229091E+04  0.46999998093E+01 0. -1.
       -5    1    3    3    0  502 -0.65656048008E+03  0.65553751678E+03 -0.33512025127E+03  0.98647289508E+03  0.46999998093E+01 0.  1.
</event>
<event>
 5   0  0.4005462E-05  0.1612813E+04  0.7818609E-02  0.8812715E-01
       -1   -1    0    0    0  501  0.00000000000E+00  0.00000000000E+00  0.74224666926E+03  0.74224666928E+03  0.50400001928E-02 0.  1.
        1   -1    0    0  501    0  0.00000000000E+00  0.00000000000E+00 -0.87611180015E+03  0.87611180017E+03  0.50400001928E-02 0. -1.
    10030    2    1    2    0    0  0.00000000000E+00  0.00000000000E+00 -0.13386513089E+03  0.16183584694E+04  0.16128125317E+04 0.  0.
        4    1    3    3  502    0 -0.36914496054E+03 -0.92259743392E+02 -0.78036941205E+03  0.86819231412E+03  0.12699999809E+01 0. -1.
       -4    1    3    3    0  502  0.36914496054E+03  0.92259743392E+02  0.64650428116E+03  0.75016615532E+03  0.12699999809E+01 0.  1.
</event>
<event>
 5   0  0.4139830E-05  0.2390132E+04  0.7818609E-02  0.8443207E-01
        1   -1    0    0  501    0  0.00000000000E+00  0.00000000000E+00  0.20208476958E+04  0.20208476958E+04  0.50400001928E-02 0. -1.
       -1   -1    0    0    0  501  0.00000000000E+00  0.00000000000E+00 -0.70672454208E+03  0.70672454210E+03  0.50400001928E-02 0.  1.
    10030    2    1    2    0    0  0.00000000000E+00  0.00000000000E+00  0.13141231538E+04  0.27275722379E+04  0.23901319315E+04 0.  0.
        1    1    3    3  502    0  0.35516515118E+03 -0.31968326575E+02 -0.64459407203E+03  0.73665852079E+03  0.50400001928E-02 0.  1.
       -1    1    3    3    0  502 -0.35516515118E+03  0.31968326575E+02  0.19587172258E+04  0.19909137171E+04  0.50400001928E-02 0. -1.
</event>
<event>
 5   0  0.4139830E-05  0.2291883E+04  0.7818609E-02  0.8481128E-01
        1   -1    0    0  501    0  0.00000000000E+00  0.00000000000E+00  0.81877719855E+03  0.81877719857E+03  0.50400001928E-02 0. -1.
       -1   -1    0    0    0  501  0.00000000000E+00  0.00000000000E+00 -0.16038336136E+04  0.16038336136E+04  0.50400001928E-02 0.  1.
    10030    2    1    2    0    0  0.00000000000E+00  0.00000000000E+00 -0.78505641508E+03  0.24226108122E+04  0.22918834116E+04 0.  0.
        1    1    3    3  502    0 -0.75903861852E+03 -0.61931937346E+03  0.23593146150E+03  0.10076506167E+04  0.50400001928E-02 0. -1.
       -1    1    3    3    0  502  0.75903861852E+03  0.61931937346E+03 -0.10209878766E+04  0.14149601955E+04  0.50400001928E-02 0.  1.
</event>
<event>
 5   0  0.3885219E-05  0.1496596E+04  0.7818609E-02  0.8886720E-01
        1   -1    0    0  501    0  0.00000000000E+00  0.00000000000E+00  0.10720088667E+04  0.10720088667E+04  0.50400001928E-02 0.  1.
       -1   -1    0    0    0  501  0.00000000000E+00  0.00000000000E+00 -0.52233709081E+03  0.52233709083E+03  0.50400001928E-02 0. -1.
    10030    2    1    2    0    0  0.00000000000E+00  0.00000000000E+00  0.54967177591E+03  0.15943459576E+04  0.14965961283E+04 0.  0.
        2    1    3    3  502    0  0.20847378267E+02 -0.19114876490E+03 -0.49556976726E+03  0.53156547831E+03  0.25500000920E-02 0. -1.
       -2    1    3    3    0  502 -0.20847378267E+02  0.19114876490E+03  0.10452415432E+04  0.10627804792E+04  0.25500000920E-02 0.  1.
</event>
<event>
 5   0  0.4139830E-05  0.2320751E+04  0.7818609E-02  0.8469784E-01
       -1   -1    0    0    0  501  0.00000000000E+00  0.00000000000E+00  0.13765700923E+04  0.13765700923E+04  0.50400001928E-02 0.  1.
        1   -1    0    0  501    0  0.00000000000E+00  0.00000000000E+00 -0.97813452722E+03  0.97813452723E+03  0.50400001928E-02 0. -1.
    10030    2    1    2    0    0  0.00000000000E+00  0.00000000000E+00  0.39843556506E+03  0.23547046195E+04  0.23207505134E+04 0.  0.
        1    1    3    3  502    0 -0.96459644165E+03  0.38613450138E+03  0.72342412484E+03  0.12660523737E+04  0.50400001928E-02 0. -1.
       -1    1    3    3    0  502  0.96459644165E+03 -0.38613450138E+03 -0.32498855978E+03  0.10886522459E+04  0.50400001928E-02 0.  1.
</event>
<event>
 5   0  0.9641157E-05  0.2296952E+04  0.7818609E-02  0.8479124E-01
       -2   -1    0    0    0  501  0.00000000000E+00  0.00000000000E+00  0.10178526226E+04  0.10178526226E+04  0.25500000920E-02 0.  1.
        2   -1    0    0  501    0  0.00000000000E+00  0.00000000000E+00 -0.12958620491E+04  0.12958620491E+04  0.25500000920E-02 0. -1.
    10030    2    1    2    0    0  0.00000000000E+00  0.00000000000E+00 -0.27800942646E+03  0.23137146717E+04  0.22969515321E+04 0.  0.
        3    1    3    3  502    0  0.76596230938E+03 -0.61899741054E+03 -0.73419810030E+03  0.12283740938E+04  0.10100000352E+00 0. -1.
       -3    1    3    3    0  502 -0.76596230938E+03  0.61899741054E+03  0.45618867384E+03  0.10853405779E+04  0.10100000352E+00 0.  1.
</event>
<event>
 5   0  0.4095451E-05  0.2297994E+04  0.7818609E-02  0.8478713E-01
        1   -1    0    0  501    0  0.00000000000E+00  0.00000000000E+00  0.10684083197E+04  0.10684083197E+04  0.50400001928E-02 0. -1.
       -1   -1    0    0    0  501  0.00000000000E+00  0.00000000000E+00 -0.12356640284E+04  0.12356640284E+04  0.50400001928E-02 0.  1.
    10030    2    1    2    0    0  0.00000000000E+00  0.00000000000E+00 -0.16725570871E+03  0.23040723481E+04  0.22979936713E+04 0.  0.
        3    1    3    3  502    0  0.67787773745E+03 -0.21310218891E+03 -0.98893539154E+03  0.12177536650E+04  0.10100000352E+00 0.  1.
       -3    1    3    3    0  502 -0.67787773745E+03  0.21310218891E+03  0.82167968283E+03  0.10863186831E+04  0.10100000352E+00 0. -1.
</event>
<event>
 5   0  0.9312074E-05  0.2370742E+04  0.7818609E-02  0.8450539E-01
       -2   -1    0    0    0  501  0.00000000000E+00  0.00000000000E+00  0.10460455816E+04  0.10460455816E+04  0.25500000920E-02 0. -1.
        2   -1    0    0  501    0  0.00000000000E+00  0.00000000000E+00 -0.13432529879E+04  0.13432529879E+04  0.25500000920E-02 0.  1.
    10030    2    1    2    0    0  0.00000000000E+00  0.00000000000E+00 -0.29720740630E+03  0.23892985695E+04  0.23707415321E+04 0.  0.
        4    1    3    3  502    0  0.10095553567E+04  0.65189540585E+02 -0.77121810022E+03  0.12720969560E+04  0.12699999809E+01 0.  1.
       -4    1    3    3    0  502 -0.10095553567E+04 -0.65189540585E+02  0.47401069393E+03  0.11172016135E+04  0.12699999809E+01 0. -1.
</event>
<event>
 5   0  0.9641157E-05  0.2339621E+04  0.7818609E-02  0.8462461E-01
       -2   -1    0    0    0  501  0.00000000000E+00  0.00000000000E+00  0.61017307846E+03  0.61017307847E+03  0.25500000920E-02 0. -1.
        2   -1    0    0  501    0  0.00000000000E+00  0.00000000000E+00 -0.22427352396E+04  0.22427352396E+04  0.25500000920E-02 0.  1.
    10030    2    1    2    0    0  0.00000000000E+00  0.00000000000E+00 -0.16325621611E+04  0.28529083181E+04  0.23396210508E+04 0.  0.
        3    1    3    3  502    0 -0.73040709457E+03 -0.78375547875E+03 -0.13891207844E+04  0.17542587432E+04  0.10100000352E+00 0.  1.
       -3    1    3    3    0  502  0.73040709457E+03  0.78375547875E+03 -0.24344137678E+03  0.10986495749E+04  0.10100000352E+00 0. -1.
</event>
<event>
 5   0  0.9535394E-05  0.2296920E+04  0.7818609E-02  0.8479137E-01
        2   -1    0    0  501    0  0.00000000000E+00  0.00000000000E+00  0.13623817701E+04  0.13623817701E+04  0.25500000920E-02 0. -1.
       -2   -1    0    0    0  501  0.00000000000E+00  0.00000000000E+00 -0.96812816104E+03  0.96812816104E+03  0.25500000920E-02 0.  1.
    10030    2    1    2    0    0  0.00000000000E+00  0.00000000000E+00  0.39425360903E+03  0.23305099311E+04  0.22969198137E+04 0.  0.
        2    1    3    3  502    0  0.28765634664E+03  0.29445012777E+02 -0.93058883119E+03  0.97447870951E+03  0.25500000920E-02 0.  1.
       -2    1    3    3    0  502 -0.28765634664E+03 -0.29445012777E+02  0.13248424402E+04  0.13560312216E+04  0.25500000920E-02 0. -1.
</event>
<event>
 5   0  0.4295775E-05  0.2333536E+04  0.7818609E-02  0.8464814E-01
        1   -1    0    0  501    0  0.00000000000E+00  0.00000000000E+00  0.23871525477E+04  0.23871525477E+04  0.50400001928E-02 0. -1.
       -1   -1    0    0    0  501  0.00000000000E+00  0.00000000000E+00 -0.57028101156E+03  0.57028101158E+03  0.50400001928E-02 0.  1.
    10030    2    1    2    0    0  0.00000000000E+00  0.00000000000E+00  0.18168715362E+04  0.29574335593E+04  0.23335361747E+04 0.  0.
        5    1    3    3  502    0 -0.35268775416E+03  0.96117566617E+03  0.19930392328E+03  0.10430682897E+04  0.46999998093E+01 0.  1.
       -5    1    3    3    0  502  0.35268775416E+03 -0.96117566617E+03  0.16175676129E+04  0.19143652696E+04  0.46999998093E+01 0. -1.
</event>
<event>
 5   0  0.4139830E-05  0.2246276E+04  0.7818609E-02  0.8499410E-01
        1   -1    0    0  501    0  0.00000000000E+00  0.00000000000E+00  0.18571615619E+04  0.18571615619E+04  0.50400001928E-02 0.  1.
       -1   -1    0    0    0  501  0.00000000000E+00  0.00000000000E+00 -0.67922933026E+03  0.67922933028E+03  0.50400001928E-02 0. -1.
    10030    2    1    2    0    0  0.00000000000E+00  0.00000000000E+00  0.11779322317E+04  0.25363908922E+04  0.22462756767E+04 0.  0.
        1    1    3    3  502    0  0.10956751149E+04  0.24389547347E+03  0.63195774374E+03  0.12881613056E+04  0.50400001928E-02 0. -1.
       -1    1    3    3    0  502 -0.10956751149E+04 -0.24389547347E+03  0.54597448791E+03  0.12482295866E+04  0.50400001928E-02 0.  1.
</event>
<event>
 5   0  0.9313463E-05  0.2284243E+04  0.7818609E-02  0.8484160E-01
       -2   -1    0    0    0  501  0.00000000000E+00  0.00000000000E+00  0.11859190298E+04  0.11859190298E+04  0.25500000920E-02 0. -1.
        2   -1    0    0  501    0  0.00000000000E+00  0.00000000000E+00 -0.10999414595E+04  0.10999414595E+04  0.25500000920E-02 0.  1.
    10030    2    1    2    0    0  0.00000000000E+00  0.00000000000E+00  0.85977570246E+02  0.22858604893E+04  0.22842429893E+04 0.  0.
        1    1    3    3  502    0 -0.31481822834E+03 -0.40157819763E+01  0.11416345267E+04  0.11842533665E+04  0.50400001928E-02 0. -1.
       -1    1    3    3    0  502  0.31481822834E+03  0.40157819763E+01 -0.10556569565E+04  0.11016071229E+04  0.50400001928E-02 0.  1.
</event>
<event>
 5   0  0.9312074E-05  0.2291243E+04  0.7818609E-02  0.8481382E-01
       -2   -1    0    0    0  501  0.00000000000E+00  0.00000000000E+00  0.10245385273E+04  0.10245385273E+04  0.25500000920E-02 0.  1.
        2   -1    0    0  501    0  0.00000000000E+00  0.00000000000E+00 -0.12810148135E+04  0.12810148135E+04  0.25500000920E-02 0. -1.
    10030    2    1    2    0    0  0.00000000000E+00  0.00000000000E+00 -0.25647628614E+03  0.23055533408E+04  0.22912433572E+04 0.  0.
        4    1    3    3  502    0  0.10004323570E+04 -0.55245810437E+03 -0.20856502423E+03  0.11617124602E+04  0.12699999809E+01 0.  1.
       -4    1    3    3    0  502 -0.10004323570E+04  0.55245810437E+03 -0.47911261905E+02  0.11438408805E+04  0.12699999809E+01 0. -1.
</event>
<event>
 5   0  0.3261500E-05  0.2156910E+04  0.7818609E-02  0.8536580E-01
       -4   -1    0    0    0  501  0.00000000000E+00  0.00000000000E+00  0.83890362224E+03  0.83890458355E+03  0.12699999809E+01 0. -1.
        4   -1    0    0  501    0  0.00000000000E+00  0.00000000000E+00 -0.13864092276E+04  0.13864098092E+04  0.12699999809E+01 0.  1.
    10030    2    1    2    0    0  0.00000000000E+00  0.00000000000E+00 -0.54750560533E+03  0.22253143928E+04  0.21569102343E+04 0.  0.
        2    1    3    3  502    0 -0.64540064137E+03  0.51005576918E+03 -0.99326997144E+03  0.12896837255E+04  0.25500000920E-02 0.  1.
       -2    1    3    3    0  502  0.64540064137E+03 -0.51005576918E+03  0.44576436612E+03  0.93563066733E+03  0.25500000920E-02 0. -1.
</event>
<event>
 5   0  0.9641157E-05  0.1841291E+04  0.7818609E-02  0.8684644E-01
       -2   -1    0    0    0  501  0.00000000000E+00  0.00000000000E+00  0.10431649089E+04  0.10431649089E+04  0.25500000920E-02 0.  1.
        2   -1    0    0  501    0  0.00000000000E+00  0.00000000000E+00 -0.81251638190E+03  0.81251638190E+03  0.25500000920E-02 0. -1.
    10030    2    1    2    0    0  0.00000000000E+00  0.00000000000E+00  0.23064852697E+03  0.18556812908E+04  0.18412914788E+04 0.  0.
        3    1    3    3  502    0 -0.77890421437E+03 -0.43030524351E+03 -0.12260162012E+03  0.89826808093E+03  0.10100000352E+00 0. -1.
       -3    1    3    3    0  502  0.77890421437E+03  0.43030524351E+03  0.35325014709E+03  0.95741320984E+03  0.10100000352E+00 0.  1.
</event>
<event>
 5   0  0.9312074E-05  0.2043250E+04  0.7818609E-02  0.8586663E-01
       -2   -1    0    0    0  501  0.00000000000E+00  0.00000000000E+00  0.85265607237E+03  0.85265607237E+03  0.25500000920E-02 0.  1.
        2   -1    0    0  501    0  0.00000000000E+00  0.00000000000E+00 -0.12240780757E+04  0.12240780757E+04  0.25500000920E-02 0. -1.
    10030    2    1    2    0    0  0.00000000000E+00  0.00000000000E+00 -0.37142200337E+03  0.20767341481E+04  0.20432499645E+04 0.  0.
        4    1    3    3  502    0  0.75949029329E+03  0.52080251481E+03 -0.63528908431E+03  0.11187737030E+04  0.12699999809E+01 0. -1.
       -4    1    3    3    0  502 -0.75949029329E+03 -0.52080251481E+03  0.26386708094E+03  0.95796044508E+03  0.12699999809E+01 0.  1.
</event>
<event>
 5   0  0.4295775E-05  0.2278877E+04  0.7818609E-02  0.8486296E-01
        1   -1    0    0  501    0  0.00000000000E+00  0.00000000000E+00  0.17583173504E+04  0.17583173504E+04  0.50400001928E-02 0.  1.
       -1   -1    0    0    0  501  0.00000000000E+00  0.00000000000E+00 -0.73838789333E+03  0.73838789335E+03  0.50400001928E-02 0. -1.
    10030    2    1    2    0    0  0.00000000000E+00  0.00000000000E+00  0.10199294571E+04  0.24967052438E+04  0.22788771307E+04 0.  0.
        5    1    3    3  502    0  0.29818089689E+03  0.19307479834E+03  0.16960891774E+04  0.17328965095E+04  0.46999998093E+01 0.  1.
       -5    1    3    3    0  502 -0.29818089689E+03 -0.19307479834E+03 -0.67615972036E+03  0.76380873421E+03  0.46999998093E+01 0. -1.
</event>
<event>
 5   0  0.3885219E-05  0.2315089E+04  0.7818609E-02  0.8471995E-01
       -1   -1    0    0    0  501  0.00000000000E+00  0.00000000000E+00  0.60340056972E+03  0.60340056974E+03  0.50400001928E-02 0.  1.
        1   -1    0    0  501    0  0.00000000000E+00  0.00000000000E+00 -0.22205975233E+04  0.22205975233E+04  0.50400001928E-02 0. -1.
    10030    2    1    2    0    0  0.00000000000E+00  0.00000000000E+00 -0.16171969536E+04  0.28239980931E+04  0.23150894676E+04 0.  0.
        2    1    3    3  502    0  0.19470719894E+03  0.62920251843E+03  0.35254377907E+03  0.74705677072E+03  0.25500000920E-02 0.  1.
       -2    1    3    3    0  502 -0.19470719894E+03 -0.62920251843E+03 -0.19697407327E+04  0.20769413223E+04  0.25500000920E-02 0. -1.
</event>
<event>
 5   0  0.9312074E-05  0.2332643E+04  0.7818609E-02  0.8465160E-01
        2   -1    0    0  501    0  0.00000000000E+00  0.00000000000E+00  0.16950290973E+04  0.16950290973E+04  0.25500000920E-02 0. -1.
       -2   -1    0    0    0  501  0.00000000000E+00  0.00000000000E+00 -0.80252683247E+03  0.80252683247E+03  0.25500000920E-02 0.  1.
    10030    2    1    2    0    0  0.00000000000E+00  0.00000000000E+00  0.89250226482E+03  0.24975559298E+04  0.23326434210E+04 0.  0.
        4    1    3    3  502    0  0.74844918570E+03 -0.18260180555E+03 -0.49131887131E+03  0.91373707880E+03  0.12699999809E+01 0.  1.
       -4    1    3    3    0  502 -0.74844918570E+03  0.18260180555E+03  0.13838211361E+04  0.15838188510E+04  0.12699999809E+01 0. -1.
</event>
<event>
 5   0  0.9641157E-05  0.2251133E+04  0.7818609E-02  0.8497442E-01
       -2   -1    0    0    0  501  0.00000000000E+00  0.00000000000E+00  0.15180499215E+04  0.15180499215E+04  0.25500000920E-02 0.  1.
        2   -1    0    0  501    0  0.00000000000E+00  0.00000000000E+00 -0.83455717573E+03  0.83455717574E+03  0.25500000920E-02 0. -1.
    10030    2    1    2    0    0  0.00000000000E+00  0.00000000000E+00  0.68349274572E+03  0.23526070972E+04  0.22511325639E+04 0.  0.
        3    1    3    3  502    0 -0.57336038309E+03 -0.96852765213E+03  0.35278186403E+03  0.11795096420E+04  0.10100000352E+00 0.  1.
       -3    1    3    3    0  502  0.57336038309E+03  0.96852765213E+03  0.33071088169E+03  0.11730974552E+04  0.10100000352E+00 0. -1.
</event>
<event>
 5   0  0.3261500E-05  0.2294509E+04  0.7818609E-02  0.8480089E-01
        3   -1    0    0  501    0  0.00000000000E+00  0.00000000000E+00  0.84878704706E+03  0.84878705307E+03  0.10100000352E+00 0. -1.
       -3   -1    0    0    0  501  0.00000000000E+00  0.00000000000E+00 -0.15506747073E+04  0.15506747106E+04  0.10100000352E+00 0.  1.
    10030    2    1    2    0    0  0.00000000000E+00  0.00000000000E+00 -0.70188766023E+03  0.23994617637E+04  0.22945087639E+04 0.  0.
        4    1    3    3  502    0 -0.70879897174E+03  0.87145102984E+03 -0.10710869339E+03  0.11284045218E+04  0.12699999809E+01 0. -1.
       -4    1    3    3    0  502  0.70879897174E+03 -0.87145102984E+03 -0.59477896684E+03  0.12710572418E+04  0.12699999809E+01 0.  1.
</event>
<event>
 5   0  0.9535394E-05  0.2286597E+04  0.7818609E-02  0.8483224E-01
       -2   -1    0    0    0  501  0.00000000000E+00  0.00000000000E+00  0.95952669179E+03  0.95952669179E+03  0.25500000920E-02 0.  1.
        2   -1    0    0  501    0  0.00000000000E+00  0.00000000000E+00 -0.13622673585E+04  0.13622673585E+04  0.25500000920E-02 0. -1.
    10030    2    1    2    0    0  0.00000000000E+00  0.00000000000E+00 -0.40274066670E+03  0.23217940503E+04  0.22865973776E+04 0.  0.
        2    1    3    3  502    0  0.45069706780E+01  0.32796037416E+03 -0.13134702726E+04  0.13538029682E+04  0.25500000920E-02 0. -1.
       -2    1    3    3    0  502 -0.45069706780E+01 -0.32796037416E+03  0.91072960591E+03  0.96799108203E+03  0.25500000920E-02 0.  1.
</event>
<event>
 5   0  0.9312074E-05  0.2303634E+04  0.7818609E-02  0.8476489E-01
       -2   -1    0    0    0  501  0.00000000000E+00  0.00000000000E+00  0.12918386295E+04  0.12918386295E+04  0.25500000920E-02 0.  1.
        2   -1    0    0  501    0  0.00000000000E+00  0.00000000000E+00 -0.10269726660E+04  0.10269726660E+04  0.25500000920E-02 0. -1.
    10030    2    1    2    0    0  0.00000000000E+00  0.00000000000E+00  0.26486596345E+03  0.23188112955E+04  0.23036344861E+04 0.  0.
        4    1    3    3  502    0  0.13264562424E+03  0.21099170697E+03  0.12643721790E+04  0.12887012772E+04  0.12699999809E+01 0.  1.
       -4    1    3    3    0  502 -0.13264562424E+03 -0.21099170697E+03 -0.99950621552E+03  0.10301100183E+04  0.12699999809E+01 0. -1.
</event>
<event>
 5   0  0.4139830E-05  0.2268581E+04  0.7818609E-02  0.8490413E-01
       -1   -1    0    0    0  501  0.00000000000E+00  0.00000000000E+00  0.14713752391E+04  0.14713752391E+04  0.50400001928E-02 0. -1.
        1   -1    0    0  501    0  0.00000000000E+00  0.00000000000E+00 -0.87443024191E+03  0.87443024193E+03  0.50400001928E-02 0.  1.
    10030    2    1    2    0    0  0.00000000000E+00  0.00000000000E+00  0.59694499719E+03  0.23458054810E+04  0.22685810599E+04 0.  0.
        1    1    3    3  502    0 -0.53774767999E+03  0.68536255621E+03  0.10496450688E+04  0.13640561466E+04  0.50400001928E-02 0. -1.
       -1    1    3    3    0  502  0.53774767999E+03 -0.68536255621E+03 -0.45270007156E+03  0.98174933441E+03  0.50400001928E-02 0.  1.
</event>
<event>
 5   0  0.9535394E-05  0.2282711E+04  0.7818609E-02  0.8484769E-01
        2   -1    0    0  501    0  0.00000000000E+00  0.00000000000E+00  0.92584034928E+03  0.92584034928E+03  0.25500000920E-02 0. -1.
       -2   -1    0    0    0  501  0.00000000000E+00  0.00000000000E+00 -0.14070378299E+04  0.14070378299E+04  0.25500000920E-02 0.  1.
    10030    2    1    2    0    0  0.00000000000E+00  0.00000000000E+00 -0.48119748057E+03  0.23328781791E+04  0.22827110162E+04 0.  0.
        2    1    3    3  502    0 -0.15320170787E+03  0.21755672683E+03 -0.13748968676E+04  0.14004081866E+04  0.25500000920E-02 0.  1.
       -2    1    3    3    0  502  0.15320170787E+03 -0.21755672683E+03  0.89369938698E+03  0.93246999254E+03  0.25500000920E-02 0. -1.
</event>
<event>
 5   0  0.4295775E-05  0.2305184E+04  0.7818609E-02  0.8475880E-01
        1   -1    0    0  501    0  0.00000000000E+00  0.00000000000E+00  0.25169082727E+04  0.25169082727E+04  0.50400001928E-02 0.  1.
       -1   -1    0    0    0  501  0.00000000000E+00  0.00000000000E+00 -0.52781763385E+03  0.52781763387E+03  0.50400001928E-02 0. -1.
    10030    2    1    2    0    0  0.00000000000E+00  0.00000000000E+00  0.19890906388E+04  0.30447259065E+04  0.23051842175E+04 0.  0.
        5    1    3    3  502    0  0.41360036376E+03  0.90866730831E+03  0.23383635281E+03  0.10253989799E+04  0.46999998093E+01 0. -1.
       -5    1    3    3    0  502 -0.41360036376E+03 -0.90866730831E+03  0.17552542860E+04  0.20193269266E+04  0.46999998093E+01 0.  1.
</event>
<event>
 5   0  0.4095451E-05  0.1677199E+04  0.7818609E-02  0.8774476E-01
        1   -1    0    0  501    0  0.00000000000E+00  0.00000000000E+00  0.58758550226E+03  0.58758550228E+03  0.50400001928E-02 0.  1.
       -1   -1    0    0    0  501  0.00000000000E+00  0.00000000000E+00 -0.11968461003E+04  0.11968461003E+04  0.50400001928E-02 0. -1.
    10030    2    1    2    0    0  0.00000000000E+00  0.00000000000E+00 -0.60926059803E+03  0.17844316026E+04  0.16771993525E+04 0.  0.
        3    1    3    3  502    0  0.42026074797E+03 -0.15392109041E+03 -0.10591536900E+04  0.11498336174E+04  0.10100000352E+00 0. -1.
       -3    1    3    3    0  502 -0.42026074797E+03  0.15392109041E+03  0.44989309202E+03  0.63459798518E+03  0.10100000352E+00 0.  1.
</event>
<event>
 5   0  0.9483073E-05  0.2268055E+04  0.7818609E-02  0.8490624E-01
        2   -1    0    0  501    0  0.00000000000E+00  0.00000000000E+00  0.14155510000E+04  0.14155510000E+04  0.25500000920E-02 0. -1.
       -2   -1    0    0    0  501  0.00000000000E+00  0.00000000000E+00 -0.90849339530E+03  0.90849339530E+03  0.25500000920E-02 0.  1.
    10030    2    1    2    0    0  0.00000000000E+00  0.00000000000E+00  0.50705760470E+03  0.23240443953E+04  0.22680553205E+04 0.  0.
        5    1    3    3  502    0 -0.16067632181E+03  0.23399424596E+03 -0.87149351106E+03  0.91656599181E+03  0.46999998093E+01 0.  1.
       -5    1    3    3    0  502  0.16067632181E+03 -0.23399424596E+03  0.13785511158E+04  0.14074784035E+04  0.46999998093E+01 0. -1.
</event>
<event>
 5   0  0.4295775E-05  0.2287932E+04  0.7818609E-02  0.8482695E-01
       -1   -1    0    0    0  501  0.00000000000E+00  0.00000000000E+00  0.63790360733E+03  0.63790360735E+03  0.50400001928E-02 0.  1.
        1   -1    0    0  501    0  0.00000000000E+00  0.00000000000E+00 -0.20514979179E+04  0.20514979179E+04  0.50400001928E-02 0. -1.
    10030    2    1    2    0    0  0.00000000000E+00  0.00000000000E+00 -0.14135943106E+04  0.26894015253E+04  0.22879317493E+04 0.  0.
        5    1    3    3  502    0  0.37047198457E+01 -0.10409996301E+04 -0.14929347358E+03  0.10516675264E+04  0.46999998093E+01 0. -1.
       -5    1    3    3    0  502 -0.37047198457E+01  0.10409996301E+04 -0.12643008370E+04  0.16377339989E+04  0.46999998093E+01 0.  1.
</event>
<event>
 5   0  0.9641157E-05  0.2372001E+04  0.7818609E-02  0.8450061E-01
       -2   -1    0    0    0  501  0.00000000000E+00  0.00000000000E+00  0.62085488794E+03  0.62085488795E+03  0.25500000920E-02 0. -1.
        2   -1    0    0  501    0  0.00000000000E+00  0.00000000000E+00 -0.22655814778E+04  0.22655814778E+04  0.25500000920E-02 0.  1.
    10030    2    1    2    0    0  0.00000000000E+00  0.00000000000E+00 -0.16447265899E+04  0.28864363657E+04  0.23720011252E+04 0.  0.
        3    1    3    3  502    0  0.29045931189E+03 -0.83371612529E+02 -0.22179479521E+04  0.22384393148E+04  0.10100000352E+00 0.  1.
       -3    1    3    3    0  502 -0.29045931189E+03  0.83371612529E+02  0.57322136227E+03  0.64799705092E+03  0.10100000352E+00 0. -1.
</event>
<event>
 5   0  0.4139830E-05  0.2315714E+04  0.7818609E-02  0.8471751E-01
        1   -1    0    0  501    0  0.00000000000E+00  0.00000000000E+00  0.23933638055E+04  0.23933638055E+04  0.50400001928E-02 0.  1.
       -1   -1    0    0    0  501  0.00000000000E+00  0.00000000000E+00 -0.56014563992E+03  0.56014563995E+03  0.50400001928E-02 0. -1.
    10030    2    1    2    0    0  0.00000000000E+00  0.00000000000E+00  0.18332181655E+04  0.29535094454E+04  0.23157135405E+04 0.  0.
        1    1    3    3  502    0 -0.55589614735E+03 -0.15296438469E+03 -0.36403904806E+03  0.68186733179E+03  0.50400001928E-02 0. -1.
       -1    1    3    3    0  502  0.55589614735E+03  0.15296438469E+03  0.21972572136E+04  0.22716421136E+04  0.50400001928E-02 0.  1.
</event>
<event>
 5   0  0.4295775E-05  0.2295052E+04  0.7818609E-02  0.8479875E-01
       -1   -1    0    0    0  501  0.00000000000E+00  0.00000000000E+00  0.64029616185E+03  0.64029616187E+03  0.50400001928E-02 0. -1.
        1   -1    0    0  501    0  0.00000000000E+00  0.00000000000E+00 -0.20565725178E+04  0.20565725179E+04  0.50400001928E-02 0.  1.
    10030    2    1    2    0    0  0.00000000000E+00  0.00000000000E+00 -0.14162763560E+04  0.26968686797E+04  0.22950516245E+04 0.  0.
        5    1    3    3  502    0  0.54323767516E+03  0.34515113741E+03 -0.18244991392E+04  0.19346978261E+04  0.46999998093E+01 0.  1.
       -5    1    3    3    0  502 -0.54323767516E+03 -0.34515113741E+03  0.40822278322E+03  0.76217085362E+03  0.46999998093E+01 0. -1.
</event>
<event>
 5   0  0.9641157E-05  0.2288650E+04  0.7818609E-02  0.8482410E-01
       -2   -1    0    0    0  501  0.00000000000E+00  0.00000000000E+00  0.63501199479E+03  0.63501199480E+03  0.25500000920E-02 0. -1.
        2   -1    0    0  501    0  0.00000000000E+00  0.00000000000E+00 -0.20621345158E+04  0.20621345158E+04  0.25500000920E-02 0.  1.
    10030    2    1    2    0    0  0.00000000000E+00  0.00000000000E+00 -0.14271225210E+04  0.26971465106E+04  0.22886503905E+04 0.  0.
        3    1    3    3  502    0  0.34761569607E+03  0.56154893826E+03  0.38774566193E+03  0.76584632320E+03  0.10100000352E+00 0. -1.
       -3    1    3    3    0  502 -0.34761569607E+03 -0.56154893826E+03 -0.18148681830E+04  0.19313001874E+04  0.10100000352E+00 0.  1.
</event>
<event>
 5   0  0.9483073E-05  0.2305544E+04  0.7818609E-02  0.8475739E-01
       -2   -1    0    0    0  501  0.00000000000E+00  0.00000000000E+00  0.78868347159E+03  0.78868347159E+03  0.25500000920E-02 0. -1.
        2   -1    0    0  501    0  0.00000000000E+00  0.00000000000E+00 -0.16849382148E+04  0.16849382148E+04  0.25500000920E-02 0.  1.
    10030    2    1    2    0    0  0.00000000000E+00  0.00000000000E+00 -0.89625474321E+03  0.24736216864E+04  0.23055436848E+04 0.  0.
        5    1    3    3  502    0 -0.10992777891E+03  0.25022786082E+03  0.75340885621E+03  0.80146434326E+03  0.46999998093E+01 0. -1.
       -5    1    3    3    0  502  0.10992777891E+03 -0.25022786082E+03 -0.16496635994E+04  0.16721573431E+04  0.46999998093E+01 0.  1.
</event>
<event>
 5   0  0.9483073E-05  0.2316254E+04  0.7818609E-02  0.8471540E-01
       -2   -1    0    0    0  501  0.00000000000E+00  0.00000000000E+00  0.88945788526E+03  0.88945788527E+03  0.25500000920E-02 0.  1.
        2   -1    0    0  501    0  0.00000000000E+00  0.00000000000E+00 -0.15079497086E+04  0.15079497086E+04  0.25500000920E-02 0. -1.
    10030    2    1    2    0    0  0.00000000000E+00  0.00000000000E+00 -0.61849182335E+03  0.23974075939E+04  0.23162536639E+04 0.  0.
        5    1    3    3  502    0  0.27798350174E+03  0.11056305587E+04 -0.52020536170E+03  0.12531278737E+04  0.46999998093E+01 0.  1.
       -5    1    3    3    0  502 -0.27798350174E+03 -0.11056305587E+04 -0.98286461650E+02  0.11442797202E+04  0.46999998093E+01 0. -1.
</event>
<event>
 5   0  0.4005462E-05  0.2250928E+04  0.7818609E-02  0.8497525E-01
       -1   -1    0    0    0  501  0.00000000000E+00  0.00000000000E+00  0.13763735963E+04  0.13763735964E+04  0.50400001928E-02 0.  1.
        1   -1    0    0  501    0  0.00000000000E+00  0.00000000000E+00 -0.92029459724E+03  0.92029459725E+03  0.50400001928E-02 0. -1.
    10030    2    1    2    0    0  0.00000000000E+00  0.00000000000E+00  0.45607899911E+03  0.22966681936E+04  0.22509279727E+04 0.  0.
        4    1    3    3  502    0  0.62283352389E+03  0.16079419657E+03  0.11703270956E+04  0.13354562875E+04  0.12699999809E+01 0.  1.
       -4    1    3    3    0  502 -0.62283352389E+03 -0.16079419657E+03 -0.71424809654E+03  0.96121190610E+03  0.12699999809E+01 0. -1.
</event>
<event>
 5   0  0.4295775E-05  0.2268822E+04  0.7818609E-02  0.8490317E-01
       -1   -1    0    0    0  501  0.00000000000E+00  0.00000000000E+00  0.79134568925E+03  0.79134568927E+03  0.50400001928E-02 0.  1.
        1   -1    0    0  501    0  0.00000000000E+00  0.00000000000E+00 -0.16262020537E+04  0.16262020537E+04  0.50400001928E-02 0. -1.
    10030    2    1    2    0    0  0.00000000000E+00  0.00000000000E+00 -0.83485636446E+03  0.24175477430E+04  0.22688217075E+04 0.  0.
        5    1    3    3  502    0 -0.13954996366E+03 -0.86470351631E+03  0.35071555964E+03  0.94350933077E+03  0.46999998093E+01 0.  1.
       -5    1    3    3    0  502  0.13954996366E+03  0.86470351631E+03 -0.11855719241E+04  0.14740384122E+04  0.46999998093E+01 0. -1.
</event>
<event>
 5   0  0.4005462E-05  0.2299312E+04  0.7818609E-02  0.8478193E-01
       -1   -1    0    0    0  501  0.00000000000E+00  0.00000000000E+00  0.66015638837E+03  0.66015638839E+03  0.50400001928E-02 0. -1.
        1   -1    0    0  501    0  0.00000000000E+00  0.00000000000E+00 -0.20021141477E+04  0.20021141477E+04  0.50400001928E-02 0.  1.
    10030    2    1    2    0    0  0.00000000000E+00  0.00000000000E+00 -0.13419577593E+04  0.26622705361E+04  0.22993115882E+04 0.  0.
        4    1    3    3  502    0  0.89517263910E+03  0.24488690807E+03 -0.14566187498E+04  0.17271489359E+04  0.12699999809E+01 0.  1.
       -4    1    3    3    0  502 -0.89517263910E+03 -0.24488690807E+03  0.11466099049E+03  0.93512160021E+03  0.12699999809E+01 0. -1.
</event>
<event>
 5   0  0.4095451E-05  0.2227981E+04  0.7818609E-02  0.8506871E-01
       -1   -1    0    0    0  501  0.00000000000E+00  0.00000000000E+00  0.63940989053E+03  0.63940989055E+03  0.50400001928E-02 0.  1.
        1   -1    0    0  501    0  0.00000000000E+00  0.00000000000E+00 -0.19408128391E+04  0.19408128391E+04  0.50400001928E-02 0. -1.
    10030    2    1    2    0    0  0.00000000000E+00  0.00000000000E+00 -0.13014029486E+04  0.25802227297E+04  0.22279810816E+04 0.  0.
        3    1    3    3  502    0 -0.49603238606E+03 -0.52169851512E+02  0.50287508860E+03  0.70827479580E+03  0.10100000352E+00 0.  1.
       -3    1    3    3    0  502  0.49603238606E+03  0.52169851512E+02 -0.18042780372E+04  0.18719479339E+04  0.10100000352E+00 0. -1.
</event>
<event>
 5   0  0.4005462E-05  0.2278330E+04  0.7818609E-02  0.8486514E-01
        1   -1    0    0  501    0  0.00000000000E+00  0.00000000000E+00  0.24404044704E+04  0.24404044704E+04  0.50400001928E-02 0. -1.
       -1   -1    0    0    0  501  0.00000000000E+00  0.00000000000E+00 -0.53175505025E+03  0.53175505028E+03  0.50400001928E-02 0.  1.
    10030    2    1    2    0    0  0.00000000000E+00  0.00000000000E+00  0.19086494201E+04  0.29721595207E+04  0.22783304430E+04 0.  0.
        4    1    3    3  502    0  0.50120526126E+03 -0.15676980797E+03  0.22730739293E+04  0.23329488180E+04  0.12699999809E+01 0. -1.
       -4    1    3    3    0  502 -0.50120526126E+03  0.15676980797E+03 -0.36442450915E+03  0.63921070265E+03  0.12699999809E+01 0.  1.
</event>
<event>
 5   0  0.9641157E-05  0.2332975E+04  0.7818609E-02  0.8465032E-01
       -2   -1    0    0    0  501  0.00000000000E+00  0.00000000000E+00  0.96176283666E+03  0.96176283666E+03  0.25500000920E-02 0.  1.
        2   -1    0    0  501    0  0.00000000000E+00  0.00000000000E+00 -0.14147912395E+04  0.14147912395E+04  0.25500000920E-02 0. -1.
    10030    2    1    2    0    0  0.00000000000E+00  0.00000000000E+00 -0.45302840286E+03  0.23765540762E+04  0.23329754699E+04 0.  0.
        3    1    3    3  502    0  0.87695960211E+02  0.11059007612E+04  0.14075688344E+03  0.11182663303E+04  0.10100000352E+00 0.  1.
       -3    1    3    3    0  502 -0.87695960211E+02 -0.11059007612E+04 -0.59378528629E+03  0.12582877459E+04  0.10100000352E+00 0. -1.
</event>
<event>
 5   0  0.9483073E-05  0.2327498E+04  0.7818609E-02  0.8467157E-01
       -2   -1    0    0    0  501  0.00000000000E+00  0.00000000000E+00  0.98123432573E+03  0.98123432573E+03  0.25500000920E-02 0.  1.
        2   -1    0    0  501    0  0.00000000000E+00  0.00000000000E+00 -0.13802118854E+04  0.13802118854E+04  0.25500000920E-02 0. -1.
    10030    2    1    2    0    0  0.00000000000E+00  0.00000000000E+00 -0.39897755965E+03  0.23614462111E+04  0.23274976079E+04 0.  0.
        5    1    3    3  502    0  0.62344302386E+02 -0.11261841887E+04 -0.49021950987E+03  0.12298434440E+04  0.46999998093E+01 0. -1.
       -5    1    3    3    0  502 -0.62344302386E+02  0.11261841887E+04  0.91241950214E+02  0.11316027671E+04  0.46999998093E+01 0.  1.
</event>
<event>
 5   0  0.9483073E-05  0.2243740E+04  0.7818609E-02  0.8500440E-01
       -2   -1    0    0    0  501  0.00000000000E+00  0.00000000000E+00  0.90241996874E+03  0.90241996875E+03  0.25500000920E-02 0. -1.
        2   -1    0    0  501    0  0.00000000000E+00  0.00000000000E+00 -0.13946851610E+04  0.13946851610E+04  0.25500000920E-02 0.  1.
    10030    2    1    2    0    0  0.00000000000E+00  0.00000000000E+00 -0.49226519224E+03  0.22971051297E+04  0.22437395030E+04 0.  0.
        5    1    3    3  502    0  0.17506163901E+03 -0.21663386967E+03 -0.13587146989E+04  0.13869767604E+04  0.46999998093E+01 0.  1.
       -5    1    3    3    0  502 -0.17506163901E+03  0.21663386967E+03  0.86644950669E+03  0.91012836928E+03  0.46999998093E+01 0. -1.
</event>
<event>
 5   0  0.4139830E-05  0.2336864E+04  0.7818609E-02  0.8463526E-01
        1   -1    0    0  501    0  0.00000000000E+00  0.00000000000E+00  0.17998758270E+04  0.17998758270E+04  0.50400001928E-02 0. -1.
       -1   -1    0    0    0  501  0.00000000000E+00  0.00000000000E+00 -0.75851514346E+03  0.75851514348E+03  0.50400001928E-02 0.  1.
    10030    2    1    2    0    0  0.00000000000E+00  0.00000000000E+00  0.10413606835E+04  0.25583909705E+04  0.23368637711E+04 0.  0.
        1    1    3    3  502    0 -0.39580416840E+03  0.95521778566E+03  0.11164460990E+04  0.15216944009E+04  0.50400001928E-02 0. -1.
       -1    1    3    3    0  502  0.39580416840E+03 -0.95521778566E+03 -0.75085415448E+02  0.10366965696E+04  0.50400001928E-02 0.  1.
</event>
<event>
 5   0  0.9313463E-05  0.2217019E+04  0.7818609E-02  0.8511378E-01
       -2   -1    0    0    0  501  0.00000000000E+00  0.00000000000E+00  0.14991805688E+04  0.14991805688E+04  0.25500000920E-02 0.  1.
        2   -1    0    0  501    0  0.00000000000E+00  0.00000000000E+00 -0.81964335807E+03  0.81964335807E+03  0.25500000920E-02 0. -1.
    10030    2    1    2    0    0  0.00000000000E+00  0.00000000000E+00  0.67953721072E+03  0.23188239269E+04  0.22170190759E+04 0.  0.
        1    1    3    3  502    0  0.48441678669E+03 -0.69648582346E+03  0.10860022746E+04  0.13780976257E+04  0.50400001928E-02 0.  1.
       -1    1    3    3    0  502 -0.48441678669E+03  0.69648582346E+03 -0.40646506388E+03  0.94072630116E+03  0.50400001928E-02 0. -1.
</event>
<event>
 5   0  0.9313463E-05  0.2298168E+04  0.7818609E-02  0.8478644E-01
       -2   -1    0    0    0  501  0.00000000000E+00  0.00000000000E+00  0.57384497452E+03  0.57384497453E+03  0.25500000920E-02 0.  1.
        2   -1    0    0  501    0  0.00000000000E+00  0.00000000000E+00 -0.23009591332E+04  0.23009591332E+04  0.25500000920E-02 0. -1.
    10030    2    1    2    0    0  0.00000000000E+00  0.00000000000E+00 -0.17271141587E+04  0.28748041077E+04  0.22981678226E+04 0.  0.
        1    1    3    3  502    0  0.79479340530E+02 -0.50819791021E+03  0.42178807103E+03  0.66519715754E+03  0.50400001928E-02 0.  1.
       -1    1    3    3    0  502 -0.79479340530E+02  0.50819791021E+03 -0.21489022297E+04  0.22096069502E+04  0.50400001928E-02 0. -1.
</event>
<event>
 5   0  0.4095451E-05  0.2316941E+04  0.7818609E-02  0.8471271E-01
        1   -1    0    0  501    0  0.00000000000E+00  0.00000000000E+00  0.17776977011E+04  0.17776977011E+04  0.50400001928E-02 0. -1.
       -1   -1    0    0    0  501  0.00000000000E+00  0.00000000000E+00 -0.75493920118E+03  0.75493920119E+03  0.50400001928E-02 0.  1.
    10030    2    1    2    0    0  0.00000000000E+00  0.00000000000E+00  0.10227584999E+04  0.25326369023E+04  0.23169408127E+04 0.  0.
        3    1    3    3  502    0 -0.26362198091E+03 -0.49196378440E+03  0.16210344400E+04  0.17144321450E+04  0.10100000352E+00 0. -1.
       -3    1    3    3    0  502  0.26362198091E+03  0.49196378440E+03 -0.59827594015E+03  0.81820475722E+03  0.10100000352E+00 0.  1.
</event>
<event>
 5   0  0.9312074E-05  0.2297101E+04  0.7818609E-02  0.8479065E-01
       -2   -1    0    0    0  501  0.00000000000E+00  0.00000000000E+00  0.81605778919E+03  0.81605778919E+03  0.25500000920E-02 0.  1.
        2   -1    0    0  501    0  0.00000000000E+00  0.00000000000E+00 -0.16165128501E+04  0.16165128501E+04  0.25500000920E-02 0. -1.
    10030    2    1    2    0    0  0.00000000000E+00  0.00000000000E+00 -0.80045506091E+03  0.24325706393E+04  0.22971006967E+04 0.  0.
        4    1    3    3  502    0  0.78580542398E+03  0.83308696652E+03 -0.30765214592E+03  0.11858227161E+04  0.12699999809E+01 0.  1.
       -4    1    3    3    0  502 -0.78580542398E+03 -0.83308696652E+03 -0.49280291499E+03  0.12467479232E+04  0.12699999809E+01 0. -1.
</event>
<event>
 5   0  0.3885219E-05  0.2278062E+04  0.7818609E-02  0.8486622E-01
        1   -1    0    0  501    0  0.00000000000E+00  0.00000000000E+00  0.40842210055E+03  0.40842210058E+03  0.50400001928E-02 0.  1.
       -1   -1    0    0    0  501  0.00000000000E+00  0.00000000000E+00 -0.31765939512E+04  0.31765939512E+04  0.50400001928E-02 0. -1.
    10030    2    1    2    0    0  0.00000000000E+00  0.00000000000E+00 -0.27681718507E+04  0.35850160518E+04  0.22780616095E+04 0.  0.
        2    1    3    3  502    0  0.50190680560E+03 -0.86700730877E+02 -0.29873930607E+04  0.30305023936E+04  0.25500000920E-02 0. -1.
       -2    1    3    3    0  502 -0.50190680560E+03  0.86700730877E+02  0.21922121004E+03  0.55451365824E+03  0.25500000920E-02 0.  1.
</event>
<event>
 5   0  0.9535394E-05  0.2319295E+04  0.7818609E-02  0.8470352E-01
        2   -1    0    0  501    0  0.00000000000E+00  0.00000000000E+00  0.16572980452E+04  0.16572980452E+04  0.25500000920E-02 0. -1.
       -2   -1    0    0    0  501  0.00000000000E+00  0.00000000000E+00 -0.81143071483E+03  0.81143071484E+03  0.25500000920E-02 0.  1.
    10030    2    1    2    0    0  0.00000000000E+00  0.00000000000E+00  0.84586733032E+03  0.24687287600E+04  0.23192951839E+04 0.  0.
        2    1    3    3  502    0  0.93661425320E+03  0.54071134290E+03 -0.22562677750E+02  0.10817227418E+04  0.25500000920E-02 0.  1.
       -2    1    3    3    0  502 -0.93661425320E+03 -0.54071134290E+03  0.86843000807E+03  0.13870060182E+04  0.25500000920E-02 0. -1.
</event>
<event>
 5   0  0.4139830E-05  0.2327079E+04  0.7818609E-02  0.8467320E-01
        1   -1    0    0  501    0  0.00000000000E+00  0.00000000000E+00  0.12525967551E+04  0.12525967551E+04  0.50400001928E-02 0.  1.
       -1   -1    0    0    0  501  0.00000000000E+00  0.00000000000E+00 -0.10808136917E+04  0.10808136917E+04  0.50400001928E-02 0. -1.
    10030    2    1    2    0    0  0.00000000000E+00  0.00000000000E+00  0.17178306339E+03  0.23334104468E+04  0.23270786175E+04 0.  0.
        1    1    3    3  502    0  0.49016644744E+03  0.36980609575E+03 -0.90513162662E+03  0.10937472085E+04  0.50400001928E-02 0. -1.
       -1    1    3    3    0  502 -0.49016644744E+03 -0.36980609575E+03  0.10769146900E+04  0.12396632382E+04  0.50400001928E-02 0.  1.
</event>
<event>
 5   0  0.9535394E-05  0.2123070E+04  0.7818609E-02  0.8551148E-01
        2   -1    0    0  501    0  0.00000000000E+00  0.00000000000E+00  0.72457062110E+03  0.72457062110E+03  0.25500000920E-02 0. -1.
       -2   -1    0    0    0  501  0.00000000000E+00  0.00000000000E+00 -0.15552062942E+04  0.15552062943E+04  0.25500000920E-02 0.  1.
    10030    2    1    2    0    0  0.00000000000E+00  0.00000000000E+00 -0.83063567315E+03  0.22797769154E+04  0.21230702208E+04 0.  0.
        2    1    3    3  502    0  0.13310917382E+03 -0.70748183876E+03  0.42239831288E+03  0.83466696296E+03  0.25500000920E-02 0. -1.
       -2    1    3    3    0  502 -0.13310917382E+03  0.70748183876E+03 -0.12530339860E+04  0.14451099524E+04  0.25500000920E-02 0.  1.
</event>
<event>
 5   0  0.9483073E-05  0.2169223E+04  0.7818609E-02  0.8531349E-01
       -2   -1    0    0    0  501  0.00000000000E+00  0.00000000000E+00  0.11986819957E+04  0.11986819957E+04  0.25500000920E-02 0. -1.
        2   -1    0    0  501    0  0.00000000000E+00  0.00000000000E+00 -0.98139616270E+03  0.98139616270E+03  0.25500000920E-02 0.  1.
    10030    2    1    2    0    0  0.00000000000E+00  0.00000000000E+00  0.21728583297E+03  0.21800781584E+04  0.21692228201E+04 0.  0.
        5    1    3    3  502    0  0.10472181401E+04  0.10154327920E+03  0.37336750446E+03  0.11164238684E+04  0.46999998093E+01 0. -1.
       -5    1    3    3    0  502 -0.10472181401E+04 -0.10154327920E+03 -0.15608167149E+03  0.10636542900E+04  0.46999998093E+01 0.  1.
</event>
<event>
 5   0  0.9483073E-05  0.2234477E+04  0.7818609E-02  0.8504214E-01
       -2   -1    0    0    0  501  0.00000000000E+00  0.00000000000E+00  0.97394193905E+03  0.97394193906E+03  0.25500000920E-02 0. -1.
        2   -1    0    0  501    0  0.00000000000E+00  0.00000000000E+00 -0.12816178253E+04  0.12816178253E+04  0.25500000920E-02 0.  1.
    10030    2    1    2    0    0  0.00000000000E+00  0.00000000000E+00 -0.30767588623E+03  0.22555597643E+04  0.22344765382E+04 0.  0.
        5    1    3    3  502    0  0.12889132926E+02  0.74039644305E+03 -0.99829944605E+03  0.12429709959E+04  0.46999998093E+01 0.  1.
       -5    1    3    3    0  502 -0.12889132926E+02 -0.74039644305E+03  0.69062355982E+03  0.10125887685E+04  0.46999998093E+01 0. -1.
</event>
<event>
 5   0  0.3261500E-05  0.2313045E+04  0.7818609E-02  0.8472796E-01
        4   -1    0    0  501    0  0.00000000000E+00  0.00000000000E+00  0.11733504748E+04  0.11733511621E+04  0.12699999809E+01 0. -1.
       -4   -1    0    0    0  501  0.00000000000E+00  0.00000000000E+00 -0.11399340580E+04  0.11399347654E+04  0.12699999809E+01 0.  1.
    10030    2    1    2    0    0  0.00000000000E+00  0.00000000000E+00  0.33416416803E+02  0.23132859275E+04  0.23130445576E+04 0.  0.
        1    1    3    3  502    0  0.10035521204E+04  0.10092124913E+03  0.58266639012E+03  0.11648184747E+04  0.50400001928E-02 0. -1.
       -1    1    3    3    0  502 -0.10035521204E+04 -0.10092124913E+03 -0.54924997332E+03  0.11484674528E+04  0.50400001928E-02 0.  1.
</event>
<event>
 5   0  0.4139830E-05  0.2284417E+04  0.7818609E-02  0.8484091E-01
        1   -1    0    0  501    0  0.00000000000E+00  0.00000000000E+00  0.14747977893E+04  0.14747977893E+04  0.50400001928E-02 0.  1.
       -1   -1    0    0    0  501  0.00000000000E+00  0.00000000000E+00 -0.88462283591E+03  0.88462283593E+03  0.50400001928E-02 0. -1.
    10030    2    1    2    0    0  0.00000000000E+00  0.00000000000E+00  0.59017495336E+03  0.23594206252E+04  0.22844166019E+04 0.  0.
        1    1    3    3  502    0  0.13588421919E+03 -0.75162935350E+03  0.11722226626E+04  0.13991129964E+04  0.50400001928E-02 0.  1.
       -1    1    3    3    0  502 -0.13588421919E+03  0.75162935350E+03 -0.58204770922E+03  0.96030762878E+03  0.50400001928E-02 0. -1.
</event>
<event>
 5   0  0.4095451E-05  0.2223839E+04  0.7818609E-02  0.8508571E-01
        1   -1    0    0  501    0  0.00000000000E+00  0.00000000000E+00  0.85663398288E+03  0.85663398289E+03  0.50400001928E-02 0.  1.
       -1   -1    0    0    0  501  0.00000000000E+00  0.00000000000E+00 -0.14432821387E+04  0.14432821387E+04  0.50400001928E-02 0. -1.
    10030    2    1    2    0    0  0.00000000000E+00  0.00000000000E+00 -0.58664815580E+03  0.22999161216E+04  0.22238385975E+04 0.  0.
        3    1    3    3  502    0  0.39736437808E+03  0.17455012225E+03 -0.13520633617E+04  0.14200146261E+04  0.10100000352E+00 0. -1.
       -3    1    3    3    0  502 -0.39736437808E+03 -0.17455012225E+03  0.76541520588E+03  0.87990149548E+03  0.10100000352E+00 0.  1.
</event>
<event>
 5   0  0.4095451E-05  0.2251543E+04  0.7818609E-02  0.8497276E-01
       -1   -1    0    0    0  501  0.00000000000E+00  0.00000000000E+00  0.11009078740E+04  0.11009078740E+04  0.50400001928E-02 0.  1.
        1   -1    0    0  501    0  0.00000000000E+00  0.00000000000E+00 -0.11511970726E+04  0.11511970726E+04  0.50400001928E-02 0. -1.
    10030    2    1    2    0    0  0.00000000000E+00  0.00000000000E+00 -0.50289198555E+02  0.22521049466E+04  0.22515434011E+04 0.  0.
        3    1    3    3  502    0  0.36007864695E+03 -0.53504126280E+03  0.89781850071E+03  0.11054428322E+04  0.10100000352E+00 0.  1.
       -3    1    3    3    0  502 -0.36007864695E+03  0.53504126280E+03 -0.94810769926E+03  0.11466621144E+04  0.10100000352E+00 0. -1.
</event>
<event>
 5   0  0.9313463E-05  0.2247234E+04  0.7818609E-02  0.8499022E-01
       -2   -1    0    0    0  501  0.00000000000E+00  0.00000000000E+00  0.58494542172E+03  0.58494542172E+03  0.25500000920E-02 0.  1.
        2   -1    0    0  501    0  0.00000000000E+00  0.00000000000E+00 -0.21583466574E+04  0.21583466574E+04  0.25500000920E-02 0. -1.
    10030    2    1    2    0    0  0.00000000000E+00  0.00000000000E+00 -0.15734012357E+04  0.27432920791E+04  0.22472338514E+04 0.  0.
        1    1    3    3  502    0 -0.39195169066E+03  0.10268666486E+04 -0.10715123821E+04  0.15349983801E+04  0.50400001928E-02 0. -1.
       -1    1    3    3    0  502  0.39195169066E+03 -0.10268666486E+04 -0.50188885360E+03  0.12082936991E+04  0.50400001928E-02 0.  1.
</event>
<event>
 5   0  0.4295775E-05  0.2294242E+04  0.7818609E-02  0.8480195E-01
       -1   -1    0    0    0  501  0.00000000000E+00  0.00000000000E+00  0.74331543132E+03  0.74331543134E+03  0.50400001928E-02 0.  1.
        1   -1    0    0  501    0  0.00000000000E+00  0.00000000000E+00 -0.17702929256E+04  0.17702929256E+04  0.50400001928E-02 0. -1.
    10030    2    1    2    0    0  0.00000000000E+00  0.00000000000E+00 -0.10269774943E+04  0.25136083570E+04  0.22942415301E+04 0.  0.
        5    1    3    3  502    0  0.17682999348E+03  0.87321896708E+03  0.27815276899E+03  0.93336555752E+03  0.46999998093E+01 0.  1.
       -5    1    3    3    0  502 -0.17682999348E+03 -0.87321896708E+03 -0.13051302633E+04  0.15802427995E+04  0.46999998093E+01 0. -1.
</event>
<event>
 5   0  0.9313463E-05  0.2301894E+04  0.7818609E-02  0.8477175E-01
        2   -1    0    0  501    0  0.00000000000E+00  0.00000000000E+00  0.21707259702E+04  0.21707259702E+04  0.25500000920E-02 0. -1.
       -2   -1    0    0    0  501  0.00000000000E+00  0.00000000000E+00 -0.61024712347E+03  0.61024712348E+03  0.25500000920E-02 0.  1.
    10030    2    1    2    0    0  0.00000000000E+00  0.00000000000E+00  0.15604788467E+04  0.27809730937E+04  0.23018942453E+04 0.  0.
        1    1    3    3  502    0 -0.60552767900E+03  0.70922088405E+03  0.15951824687E+04  0.18477730220E+04  0.50400001928E-02 0. -1.
       -1    1    3    3    0  502  0.60552767900E+03 -0.70922088405E+03 -0.34703621935E+02  0.93320007170E+03  0.50400001928E-02 0.  1.
</event>
<event>
 5   0  0.9641157E-05  0.2254680E+04  0.7818609E-02  0.8496007E-01
        2   -1    0    0  501    0  0.00000000000E+00  0.00000000000E+00  0.15960876756E+04  0.15960876756E+04  0.25500000920E-02 0.  1.
       -2   -1    0    0    0  501  0.00000000000E+00  0.00000000000E+00 -0.79625686666E+03  0.79625686667E+03  0.25500000920E-02 0. -1.
    10030    2    1    2    0    0  0.00000000000E+00  0.00000000000E+00  0.79983080889E+03  0.23923445422E+04  0.22546802624E+04 0.  0.
        3    1    3    3  502    0  0.15038753775E+03 -0.18128331476E+03  0.15696873082E+04  0.15872612599E+04  0.10100000352E+00 0.  1.
       -3    1    3    3    0  502 -0.15038753775E+03  0.18128331476E+03 -0.76985649927E+03  0.80508328227E+03  0.10100000352E+00 0. -1.
</event>
<event>
 5   0  0.9535394E-05  0.2330853E+04  0.7818609E-02  0.8465855E-01
        2   -1    0    0  501    0  0.00000000000E+00  0.00000000000E+00  0.51447945232E+03  0.51447945233E+03  0.25500000920E-02 0. -1.
       -2   -1    0    0    0  501  0.00000000000E+00  0.00000000000E+00 -0.26399870872E+04  0.26399870872E+04  0.25500000920E-02 0.  1.
    10030    2    1    2    0    0  0.00000000000E+00  0.00000000000E+00 -0.21255076349E+04  0.31544665395E+04  0.23308531578E+04 0.  0.
        2    1    3    3  502    0 -0.24063088195E+03 -0.25323546696E+03 -0.25674652401E+04  0.25911212210E+04  0.25500000920E-02 0.  1.
       -2    1    3    3    0  502  0.24063088195E+03  0.25323546696E+03  0.44195760520E+03  0.56334531849E+03  0.25500000920E-02 0. -1.
</event>
<event>
 5   0  0.3885219E-05  0.2341187E+04  0.7818609E-02  0.8461856E-01
        1   -1    0    0  501    0  0.00000000000E+00  0.00000000000E+00  0.99226271904E+03  0.99226271906E+03  0.50400001928E-02 0. -1.
       -1   -1    0    0    0  501  0.00000000000E+00  0.00000000000E+00 -0.13809744874E+04  0.13809744875E+04  0.50400001928E-02 0.  1.
    10030    2    1    2    0    0  0.00000000000E+00  0.00000000000E+00 -0.38871176840E+03  0.23732372065E+04  0.23411873055E+04 0.  0.
        2    1    3    3  502    0  0.26895564090E+03 -0.95979442864E+03 -0.81655573044E+03  0.12885285185E+04  0.25500000920E-02 0.  1.
       -2    1    3    3    0  502 -0.26895564090E+03  0.95979442864E+03  0.42784396204E+03  0.10847086880E+04  0.25500000920E-02 0. -1.
</event>
<event>
 5   0  0.9483073E-05  0.2334356E+04  0.7818609E-02  0.8464497E-01
       -2   -1    0    0    0  501  0.00000000000E+00  0.00000000000E+00  0.96954649171E+03  0.96954649171E+03  0.25500000920E-02 0.  1.
        2   -1    0    0  501    0  0.00000000000E+00  0.00000000000E+00 -0.14050945879E+04  0.14050945879E+04  0.25500000920E-02 0. -1.
    10030    2    1    2    0    0  0.00000000000E+00  0.00000000000E+00 -0.43554809621E+03  0.23746410796E+04  0.23343560382E+04 0.  0.
        5    1    3    3  502    0  0.76340738648E+03 -0.50040565566E+03 -0.95770965292E+03  0.13230368579E+04  0.46999998093E+01 0. -1.
       -5    1    3    3    0  502 -0.76340738648E+03  0.50040565566E+03  0.52216155671E+03  0.10516042218E+04  0.46999998093E+01 0.  1.
</event>
<event>
 5   0  0.3261500E-05  0.2243046E+04  0.7818609E-02  0.8500722E-01
       -3   -1    0    0    0  501  0.00000000000E+00  0.00000000000E+00  0.11521323478E+04  0.11521323523E+04  0.10100000352E+00 0.  1.
        3   -1    0    0  501    0  0.00000000000E+00  0.00000000000E+00 -0.10917268415E+04  0.10917268462E+04  0.10100000352E+00 0. -1.
    10030    2    1    2    0    0  0.00000000000E+00  0.00000000000E+00  0.60405506307E+02  0.22438591985E+04  0.22430459820E+04 0.  0.
        3    1    3    3  502    0  0.10674249288E+04 -0.34033387935E+03  0.81119940023E+02  0.11233003084E+04  0.10100000352E+00 0.  1.
       -3    1    3    3    0  502 -0.10674249288E+04  0.34033387935E+03 -0.20714433716E+02  0.11205588900E+04  0.10100000352E+00 0. -1.
</event>
<event>
 5   0  0.9483073E-05  0.2272076E+04  0.7818609E-02  0.8489013E-01
        2   -1    0    0  501    0  0.00000000000E+00  0.00000000000E+00  0.12311170640E+04  0.12311170640E+04  0.25500000920E-02 0.  1.
       -2   -1    0    0    0  501  0.00000000000E+00  0.00000000000E+00 -0.10483020666E+04  0.10483020666E+04  0.25500000920E-02 0. -1.
    10030    2    1    2    0    0  0.00000000000E+00  0.00000000000E+00  0.18281499740E+03  0.22794191306E+04  0.22720761981E+04 0.  0.
        5    1    3    3  502    0 -0.10073668915E+04 -0.52499976472E+03  0.10359853809E+03  0.11406873165E+04  0.46999998093E+01 0.  1.
       -5    1    3    3    0  502  0.10073668915E+04  0.52499976472E+03  0.79216459315E+02  0.11387318141E+04  0.46999998093E+01 0. -1.
</event>
<event>
 5   0  0.9313463E-05  0.2322771E+04  0.7818609E-02  0.8468996E-01
        2   -1    0    0  501    0  0.00000000000E+00  0.00000000000E+00  0.17946559201E+04  0.17946559201E+04  0.25500000920E-02 0.  1.
       -2   -1    0    0    0  501  0.00000000000E+00  0.00000000000E+00 -0.75157401670E+03  0.75157401671E+03  0.25500000920E-02 0. -1.
    10030    2    1    2    0    0  0.00000000000E+00  0.00000000000E+00  0.10430819033E+04  0.25462299368E+04  0.23227714123E+04 0.  0.
        1    1    3    3  502    0  0.43464166700E+03 -0.32238659070E+02  0.17016099270E+04  0.17565389416E+04  0.50400001928E-02 0.  1.
       -1    1    3    3    0  502 -0.43464166700E+03  0.32238659070E+02 -0.65852802364E+03  0.78969099512E+03  0.50400001928E-02 0. -1.
</event>
<event>
 5   0  0.9312074E-05  0.2293372E+04  0.7818609E-02  0.8480539E-01
       -2   -1    0    0    0  501  0.00000000000E+00  0.00000000000E+00  0.73018913296E+03  0.73018913296E+03  0.25500000920E-02 0.  1.
        2   -1    0    0  501    0  0.00000000000E+00  0.00000000000E+00 -0.18007504573E+04  0.18007504573E+04  0.25500000920E-02 0. -1.
    10030    2    1    2    0    0  0.00000000000E+00  0.00000000000E+00 -0.10705613244E+04  0.25309395903E+04  0.22933716795E+04 0.  0.
        4    1    3    3  502    0  0.22007615612E+03 -0.55258136724E+03  0.54663456073E+03  0.80783082251E+03  0.12699999809E+01 0.  1.
       -4    1    3    3    0  502 -0.22007615612E+03  0.55258136724E+03 -0.16171958851E+04  0.17231087678E+04  0.12699999809E+01 0. -1.
</event>
<event>
 5   0  0.3885219E-05  0.2220147E+04  0.7818609E-02  0.8510089E-01
       -1   -1    0    0    0  501  0.00000000000E+00  0.00000000000E+00  0.49185836587E+03  0.49185836590E+03  0.50400001928E-02 0.  1.
        1   -1    0    0  501    0  0.00000000000E+00  0.00000000000E+00 -0.25053217804E+04  0.25053217804E+04  0.50400001928E-02 0. -1.
    10030    2    1    2    0    0  0.00000000000E+00  0.00000000000E+00 -0.20134634146E+04  0.29971801463E+04  0.22201472717E+04 0.  0.
        2    1    3    3  502    0  0.16789179273E+03  0.97318838140E+03 -0.32237757783E+03  0.10388506064E+04  0.25500000920E-02 0.  1.
       -2    1    3    3    0  502 -0.16789179273E+03 -0.97318838140E+03 -0.16910858367E+04  0.19583295399E+04  0.25500000920E-02 0. -1.
</event>
<event>
 5   0  0.3885219E-05  0.2292671E+04  0.7818609E-02  0.8480816E-01
       -1   -1    0    0    0  501  0.00000000000E+00  0.00000000000E+00  0.82105058270E+03  0.82105058271E+03  0.50400001928E-02 0.  1.
        1   -1    0    0  501    0  0.00000000000E+00  0.00000000000E+00 -0.16004923110E+04  0.16004923110E+04  0.50400001928E-02 0. -1.
    10030    2    1    2    0    0  0.00000000000E+00  0.00000000000E+00 -0.77944172831E+03  0.24215428937E+04  0.22926710576E+04 0.  0.
        2    1    3    3  502    0  0.80057069743E+03 -0.52058679345E+02  0.47512232841E+03  0.93239732660E+03  0.25500000920E-02 0.  1.
       -2    1    3    3    0  502 -0.80057069743E+03  0.52058679345E+02 -0.12545640567E+04  0.14891455671E+04  0.25500000920E-02 0. -1.
</event>
<event>
 5   0  0.9483073E-05  0.2295523E+04  0.7818609E-02  0.8479689E-01
        2   -1    0    0  501    0  0.00000000000E+00  0.00000000000E+00  0.13486655088E+04  0.13486655088E+04  0.25500000920E-02 0.  1.
       -2   -1    0    0    0  501  0.00000000000E+00  0.00000000000E+00 -0.97678485187E+03  0.97678485188E+03  0.25500000920E-02 0. -1.
    10030    2    1    2    0    0  0.00000000000E+00  0.00000000000E+00  0.37188065690E+03  0.23254503607E+04  0.22955226326E+04 0.  0.
        5    1    3    3  502    0 -0.75240005688E+03  0.37693477661E+03  0.97659529762E+03  0.12891648990E+04  0.46999998093E+01 0.  1.
       -5    1    3    3    0  502  0.75240005688E+03 -0.37693477661E+03 -0.60471464072E+03  0.10362854617E+04  0.46999998093E+01 0. -1.
</event>
<event>
 5   0  0.9641157E-05  0.2171897E+04  0.7818609E-02  0.8530217E-01
        2   -1    0    0  501    0  0.00000000000E+00  0.00000000000E+00  0.97916165458E+03  0.97916165459E+03  0.25500000920E-02 0.  1.
       -2   -1    0    0    0  501  0.00000000000E+00  0.00000000000E+00 -0.12043815666E+04  0.12043815666E+04  0.25500000920E-02 0. -1.
    10030    2    1    2    0    0  0.00000000000E+00  0.00000000000E+00 -0.22521991206E+03  0.21835432212E+04  0.21718970948E+04 0.  0.
        3    1    3    3  502    0 -0.94310880854E+02  0.92603946882E+03 -0.67493069576E+03  0.11497717575E+04  0.10100000352E+00 0. -1.
       -3    1    3    3    0  502  0.94310880854E+02 -0.92603946882E+03  0.44971078370E+03  0.10337714637E+04  0.10100000352E+00 0.  1.
</event>
<event>
 5   0  0.3885219E-05  0.2304730E+04  0.7818609E-02  0.8476059E-01
       -1   -1    0    0    0  501  0.00000000000E+00  0.00000000000E+00  0.10448057363E+04  0.10448057363E+04  0.50400001928E-02 0. -1.
        1   -1    0    0  501    0  0.00000000000E+00  0.00000000000E+00 -0.12709966723E+04  0.12709966723E+04  0.50400001928E-02 0.  1.
    10030    2    1    2    0    0  0.00000000000E+00  0.00000000000E+00 -0.22619093598E+03  0.23158024087E+04  0.23047295842E+04 0.  0.
        2    1    3    3  502    0 -0.13907024587E+03 -0.29802960790E+01 -0.12625298561E+04  0.12701696946E+04  0.25500000920E-02 0.  1.
       -2    1    3    3    0  502  0.13907024587E+03  0.29802960790E+01  0.10363389201E+04  0.10456327141E+04  0.25500000920E-02 0. -1.
</event>
<event>
 5   0  0.9312074E-05  0.2288873E+04  0.7818609E-02  0.8482321E-01
        2   -1    0    0  501    0  0.00000000000E+00  0.00000000000E+00  0.22689682337E+04  0.22689682337E+04  0.25500000920E-02 0. -1.
       -2   -1    0    0    0  501  0.00000000000E+00  0.00000000000E+00 -0.57723820347E+03  0.57723820348E+03  0.25500000920E-02 0.  1.
    10030    2    1    2    0    0  0.00000000000E+00  0.00000000000E+00  0.16917300303E+04  0.28462064372E+04  0.22888732136E+04 0.  0.
        4    1    3    3  502    0 -0.81055315358E+03 -0.55624878479E+03  0.15744781570E+04  0.18561767710E+04  0.12699999809E+01 0. -1.
       -4    1    3    3    0  502  0.81055315358E+03  0.55624878479E+03  0.11725187327E+03  0.99002966624E+03  0.12699999809E+01 0.  1.
</event>
<event>
 5   0  0.4005462E-05  0.2292052E+04  0.7818609E-02  0.8481061E-01
       -1   -1    0    0    0  501  0.00000000000E+00  0.00000000000E+00  0.17793408000E+04  0.17793408000E+04  0.50400001928E-02 0.  1.
        1   -1    0    0  501    0  0.00000000000E+00  0.00000000000E+00 -0.73812488477E+03  0.73812488479E+03  0.50400001928E-02 0. -1.
    10030    2    1    2    0    0  0.00000000000E+00  0.00000000000E+00  0.10412159152E+04  0.25174656848E+04  0.22920521137E+04 0.  0.
        4    1    3    3  502    0  0.84522465985E+03  0.66517226031E+03  0.95513559007E+03  0.14384521090E+04  0.12699999809E+01 0.  1.
       -4    1    3    3    0  502 -0.84522465985E+03 -0.66517226031E+03  0.86080325165E+02  0.10790135758E+04  0.12699999809E+01 0. -1.
</event>
<event>
 5   0  0.4095451E-05  0.2438139E+04  0.7818609E-02  0.8425361E-01
        1   -1    0    0  501    0  0.00000000000E+00  0.00000000000E+00  0.15446060076E+04  0.15446060076E+04  0.50400001928E-02 0. -1.
       -1   -1    0    0    0  501  0.00000000000E+00  0.00000000000E+00 -0.96214206227E+03  0.96214206228E+03  0.50400001928E-02 0.  1.
    10030    2    1    2    0    0  0.00000000000E+00  0.00000000000E+00  0.58246394534E+03  0.25067480699E+04  0.24381389703E+04 0.  0.
        3    1    3    3  502    0  0.37955282123E+03 -0.61058003809E+03  0.13034471446E+04  0.14885707225E+04  0.10100000352E+00 0. -1.
       -3    1    3    3    0  502 -0.37955282123E+03  0.61058003809E+03 -0.72098319921E+03  0.10181773474E+04  0.10100000352E+00 0.  1.
</event>
<event>
 5   0  0.9313463E-05  0.2428318E+04  0.7818609E-02  0.8428977E-01
        2   -1    0    0  501    0  0.00000000000E+00  0.00000000000E+00  0.19897045462E+04  0.19897045462E+04  0.25500000920E-02 0. -1.
       -2   -1    0    0    0  501  0.00000000000E+00  0.00000000000E+00 -0.74090530494E+03  0.74090530494E+03  0.25500000920E-02 0.  1.
    10030    2    1    2    0    0  0.00000000000E+00  0.00000000000E+00  0.12487992413E+04  0.27306098512E+04  0.24283184746E+04 0.  0.
        1    1    3    3  502    0  0.87850751078E+03 -0.64094073139E+03  0.12316242749E+04  0.16430090755E+04  0.50400001928E-02 0. -1.
       -1    1    3    3    0  502 -0.87850751078E+03  0.64094073139E+03  0.17174966351E+02  0.10876007756E+04  0.50400001928E-02 0.  1.
</event>
<event>
 5   0  0.3885219E-05  0.2076706E+04  0.7818609E-02  0.8571575E-01
       -1   -1    0    0    0  501  0.00000000000E+00  0.00000000000E+00  0.11780409213E+04  0.11780409214E+04  0.50400001928E-02 0.  1.
        1   -1    0    0  501    0  0.00000000000E+00  0.00000000000E+00 -0.91522876305E+03  0.91522876306E+03  0.50400001928E-02 0. -1.
    10030    2    1    2    0    0  0.00000000000E+00  0.00000000000E+00  0.26281215829E+03  0.20932696844E+04  0.20767059833E+04 0.  0.
        2    1    3    3  502    0  0.30831716757E+03 -0.47895321831E+03  0.10065017926E+04  0.11565040076E+04  0.25500000920E-02 0.  1.
       -2    1    3    3    0  502 -0.30831716757E+03  0.47895321831E+03 -0.74368963427E+03  0.93676567682E+03  0.25500000920E-02 0. -1.
</event>
<event>
 5   0  0.9313463E-05  0.2293353E+04  0.7818609E-02  0.8480547E-01
       -2   -1    0    0    0  501  0.00000000000E+00  0.00000000000E+00  0.12849785920E+04  0.12849785920E+04  0.25500000920E-02 0.  1.
        2   -1    0    0  501    0  0.00000000000E+00  0.00000000000E+00 -0.10232597474E+04  0.10232597474E+04  0.25500000920E-02 0. -1.
    10030    2    1    2    0    0  0.00000000000E+00  0.00000000000E+00  0.26171884456E+03  0.23082383394E+04  0.22933528899E+04 0.  0.
        1    1    3    3  502    0 -0.63382239127E+03  0.86037188135E+03 -0.28764743395E+03  0.11066669075E+04  0.50400001928E-02 0.  1.
       -1    1    3    3    0  502  0.63382239127E+03 -0.86037188135E+03  0.54936627850E+03  0.12015714319E+04  0.50400001928E-02 0. -1.
</event>
<event>
 5   0  0.9641157E-05  0.2155427E+04  0.7818609E-02  0.8537213E-01
        2   -1    0    0  501    0  0.00000000000E+00  0.00000000000E+00  0.23501500542E+04  0.23501500542E+04  0.25500000920E-02 0. -1.
       -2   -1    0    0    0  501  0.00000000000E+00  0.00000000000E+00 -0.49420923892E+03  0.49420923892E+03  0.25500000920E-02 0.  1.
    10030    2    1    2    0    0  0.00000000000E+00  0.00000000000E+00  0.18559408153E+04  0.28443592932E+04  0.21554265190E+04 0.  0.
        3    1    3    3  502    0 -0.10266153635E+04 -0.18900002570E+03  0.12815855300E+04  0.16529130634E+04  0.10100000352E+00 0. -1.
       -3    1    3    3    0  502  0.10266153635E+04  0.18900002570E+03  0.57435528531E+03  0.11914462297E+04  0.10100000352E+00 0.  1.
</event>
<event>
 5   0  0.4139830E-05  0.2377264E+04  0.7818609E-02  0.8448065E-01
        1   -1    0    0  501    0  0.00000000000E+00  0.00000000000E+00  0.88361343739E+03  0.88361343740E+03  0.50400001928E-02 0.  1.
       -1   -1    0    0    0  501  0.00000000000E+00  0.00000000000E+00 -0.15989419178E+04  0.15989419178E+04  0.50400001928E-02 0. -1.
    10030    2    1    2    0    0  0.00000000000E+00  0.00000000000E+00 -0.71532848045E+03  0.24825553552E+04  0.23772644483E+04 0.  0.
        1    1    3    3  502    0 -0.25545107024E+03 -0.47022757602E+03  0.75070043465E+03  0.92191125665E+03  0.50400001928E-02 0.  1.
       -1    1    3    3    0  502  0.25545107024E+03  0.47022757602E+03 -0.14660289151E+04  0.15606440986E+04  0.50400001928E-02 0. -1.
</event>
<event>
 5   0  0.4139830E-05  0.2269080E+04  0.7818609E-02  0.8490213E-01
       -1   -1    0    0    0  501  0.00000000000E+00  0.00000000000E+00  0.78942468505E+03  0.78942468506E+03  0.50400001928E-02 0.  1.
        1   -1    0    0  501    0  0.00000000000E+00  0.00000000000E+00 -0.16305298414E+04  0.16305298414E+04  0.50400001928E-02 0. -1.
    10030    2    1    2    0    0  0.00000000000E+00  0.00000000000E+00 -0.84110515636E+03  0.24199545265E+04  0.22690795548E+04 0.  0.
        1    1    3    3  502    0  0.62945370947E+03 -0.40462825489E+02 -0.14263007917E+04  0.15595458188E+04  0.50400001928E-02 0. -1.
       -1    1    3    3    0  502 -0.62945370947E+03  0.40462825489E+02  0.58519563531E+03  0.86040870767E+03  0.50400001928E-02 0.  1.
</event>
<event>
 5   0  0.9313463E-05  0.2265670E+04  0.7818609E-02  0.8491581E-01
       -2   -1    0    0    0  501  0.00000000000E+00  0.00000000000E+00  0.14657659300E+04  0.14657659300E+04  0.25500000920E-02 0.  1.
        2   -1    0    0  501    0  0.00000000000E+00  0.00000000000E+00 -0.87552509176E+03  0.87552509176E+03  0.25500000920E-02 0. -1.
    10030    2    1    2    0    0  0.00000000000E+00  0.00000000000E+00  0.59024083826E+03  0.23412910218E+04  0.22656697468E+04 0.  0.
        1    1    3    3  502    0 -0.57536721520E+03  0.60455309726E+03  0.10867053987E+04  0.13702045480E+04  0.50400001928E-02 0.  1.
       -1    1    3    3    0  502  0.57536721520E+03 -0.60455309726E+03 -0.49646456047E+03  0.97108647378E+03  0.50400001928E-02 0. -1.
</event>
<event>
 5   0  0.3885219E-05  0.1738811E+04  0.7818609E-02  0.8739533E-01
        1   -1    0    0  501    0  0.00000000000E+00  0.00000000000E+00  0.14268623791E+04  0.14268623791E+04  0.50400001928E-02 0. -1.
       -1   -1    0    0    0  501  0.00000000000E+00  0.00000000000E+00 -0.52974003234E+03  0.52974003236E+03  0.50400001928E-02 0.  1.
    10030    2    1    2    0    0  0.00000000000E+00  0.00000000000E+00  0.89712234677E+03  0.19566024115E+04  0.17388112294E+04 0.  0.
        2    1    3    3  502    0  0.26873726991E+03  0.80883578873E+03  0.25551856804E+03  0.88978918402E+03  0.25500000920E-02 0.  1.
       -2    1    3    3    0  502 -0.26873726991E+03 -0.80883578873E+03  0.64160377873E+03  0.10668132275E+04  0.25500000920E-02 0. -1.
</event>
<event>
 5   0  0.4139830E-05  0.2336740E+04  0.7818609E-02  0.8463574E-01
       -1   -1    0    0    0  501  0.00000000000E+00  0.00000000000E+00  0.94607952696E+03  0.94607952697E+03  0.50400001928E-02 0. -1.
        1   -1    0    0  501    0  0.00000000000E+00  0.00000000000E+00 -0.14428898829E+04  0.14428898829E+04  0.50400001928E-02 0.  1.
    10030    2    1    2    0    0  0.00000000000E+00  0.00000000000E+00 -0.49681035597E+03  0.23889694099E+04  0.23367401036E+04 0.  0.
        1    1    3    3  502    0  0.38476058184E+03 -0.96956878591E+03  0.28965110579E+03  0.10825904577E+04  0.50400001928E-02 0. -1.
       -1    1    3    3    0  502 -0.38476058184E+03  0.96956878591E+03 -0.78646146176E+03  0.13063789522E+04  0.50400001928E-02 0.  1.
</event>
<event>
 5   0  0.9641157E-05  0.2304059E+04  0.7818609E-02  0.8476322E-01
       -2   -1    0    0    0  501  0.00000000000E+00  0.00000000000E+00  0.96335384392E+03  0.96335384393E+03  0.25500000920E-02 0.  1.
        2   -1    0    0  501    0  0.00000000000E+00  0.00000000000E+00 -0.13776583821E+04  0.13776583821E+04  0.25500000920E-02 0. -1.
    10030    2    1    2    0    0  0.00000000000E+00  0.00000000000E+00 -0.41430453816E+03  0.23410122260E+04  0.23040594593E+04 0.  0.
        3    1    3    3  502    0 -0.11396223598E+04 -0.12014607860E+03 -0.32736415512E+03  0.11917808118E+04  0.10100000352E+00 0. -1.
       -3    1    3    3    0  502  0.11396223598E+04  0.12014607860E+03 -0.86940383039E+02  0.11492314142E+04  0.10100000352E+00 0.  1.
</event>
<event>
 5   0  0.4005462E-05  0.1661407E+04  0.7818609E-02  0.8783687E-01
       -1   -1    0    0    0  501  0.00000000000E+00  0.00000000000E+00  0.57054178305E+03  0.57054178307E+03  0.50400001928E-02 0.  1.
        1   -1    0    0  501    0  0.00000000000E+00  0.00000000000E+00 -0.12094967452E+04  0.12094967452E+04  0.50400001928E-02 0. -1.
    10030    2    1    2    0    0  0.00000000000E+00  0.00000000000E+00 -0.63895496219E+03  0.17800385283E+04  0.16614071502E+04 0.  0.
        4    1    3    3  502    0  0.12208249765E+03  0.58466095414E+03  0.29909884758E+03  0.66797776988E+03  0.12699999809E+01 0.  1.
       -4    1    3    3    0  502 -0.12208249765E+03 -0.58466095414E+03 -0.93805380977E+03  0.11120607584E+04  0.12699999809E+01 0. -1.
</event>
<event>
 5   0  0.4139830E-05  0.2240713E+04  0.7818609E-02  0.8501671E-01
       -1   -1    0    0    0  501  0.00000000000E+00  0.00000000000E+00  0.74479681343E+03  0.74479681345E+03  0.50400001928E-02 0. -1.
        1   -1    0    0  501    0  0.00000000000E+00  0.00000000000E+00 -0.16852907142E+04  0.16852907142E+04  0.50400001928E-02 0.  1.
    10030    2    1    2    0    0  0.00000000000E+00  0.00000000000E+00 -0.94049390077E+03  0.24300875277E+04  0.22407134165E+04 0.  0.
        1    1    3    3  502    0 -0.38574517177E+03 -0.98787921417E+03 -0.78476511615E+02  0.10634205388E+04  0.50400001928E-02 0. -1.
       -1    1    3    3    0  502  0.38574517177E+03  0.98787921417E+03 -0.86201738915E+03  0.13666669889E+04  0.50400001928E-02 0.  1.
</event>
<event>
 5   0  0.4005462E-05  0.2299648E+04  0.7818609E-02  0.8478060E-01
        1   -1    0    0  501    0  0.00000000000E+00  0.00000000000E+00  0.96687980587E+03  0.96687980588E+03  0.50400001928E-02 0. -1.
       -1   -1    0    0    0  501  0.00000000000E+00  0.00000000000E+00 -0.13673834999E+04  0.13673834999E+04  0.50400001928E-02 0.  1.
    10030    2    1    2    0    0  0.00000000000E+00  0.00000000000E+00 -0.40050369405E+03  0.23342633058E+04  0.22996482279E+04 0.  0.
        4    1    3    3  502    0 -0.61773235522E+03  0.36440543635E+03 -0.11125062654E+04  0.13236526690E+04  0.12699999809E+01 0.  1.
       -4    1    3    3    0  502  0.61773235522E+03 -0.36440543635E+03  0.71200257134E+03  0.10106106368E+04  0.12699999809E+01 0. -1.
</event>
<event>
 5   0  0.9535394E-05  0.2296689E+04  0.7818609E-02  0.8479228E-01
       -2   -1    0    0    0  501  0.00000000000E+00  0.00000000000E+00  0.11278966080E+04  0.11278966080E+04  0.25500000920E-02 0.  1.
        2   -1    0    0  501    0  0.00000000000E+00  0.00000000000E+00 -0.11691631377E+04  0.11691631377E+04  0.25500000920E-02 0. -1.
    10030    2    1    2    0    0  0.00000000000E+00  0.00000000000E+00 -0.41266529637E+02  0.22970597457E+04  0.22966890405E+04 0.  0.
        2    1    3    3  502    0 -0.73928839784E+03 -0.74042100971E+02 -0.89636900235E+03  0.11642624087E+04  0.25500000920E-02 0. -1.
       -2    1    3    3    0  502  0.73928839784E+03  0.74042100971E+02  0.85510247272E+03  0.11327973370E+04  0.25500000920E-02 0.  1.
</event>
<event>
 5   0  0.9312074E-05  0.2152950E+04  0.7818609E-02  0.8538271E-01
       -2   -1    0    0    0  501  0.00000000000E+00  0.00000000000E+00  0.43248129301E+03  0.43248129302E+03  0.25500000920E-02 0.  1.
        2   -1    0    0  501    0  0.00000000000E+00  0.00000000000E+00 -0.26794181832E+04  0.26794181833E+04  0.25500000920E-02 0. -1.
    10030    2    1    2    0    0  0.00000000000E+00  0.00000000000E+00 -0.22469368902E+04  0.31118994763E+04  0.21529498280E+04 0.  0.
        4    1    3    3  502    0 -0.65431998808E+01 -0.43772971768E+02 -0.26781014183E+04  0.26784674174E+04  0.12699999809E+01 0. -1.
       -4    1    3    3    0  502  0.65431998808E+01  0.43772971768E+02  0.43116452804E+03  0.43343205888E+03  0.12699999809E+01 0.  1.
</event>
<event>
 5   0  0.9641157E-05  0.2307221E+04  0.7818609E-02  0.8475079E-01
       -2   -1    0    0    0  501  0.00000000000E+00  0.00000000000E+00  0.12137097197E+04  0.12137097197E+04  0.25500000920E-02 0. -1.
        2   -1    0    0  501    0  0.00000000000E+00  0.00000000000E+00 -0.10964875577E+04  0.10964875577E+04  0.25500000920E-02 0.  1.
    10030    2    1    2    0    0  0.00000000000E+00  0.00000000000E+00  0.11722216199E+03  0.23101972774E+04  0.23072213646E+04 0.  0.
        3    1    3    3  502    0  0.34137864929E+03  0.60571700276E+03 -0.86311148793E+03  0.11083293375E+04  0.10100000352E+00 0.  1.
       -3    1    3    3    0  502 -0.34137864929E+03 -0.60571700276E+03  0.98033364991E+03  0.12018679399E+04  0.10100000352E+00 0. -1.
</event>
<event>
 5   0  0.4095451E-05  0.2275505E+04  0.7818609E-02  0.8487642E-01
       -1   -1    0    0    0  501  0.00000000000E+00  0.00000000000E+00  0.11448956820E+04  0.11448956820E+04  0.50400001928E-02 0.  1.
        1   -1    0    0  501    0  0.00000000000E+00  0.00000000000E+00 -0.11306538979E+04  0.11306538979E+04  0.50400001928E-02 0. -1.
    10030    2    1    2    0    0  0.00000000000E+00  0.00000000000E+00  0.14241784088E+02  0.22755495799E+04  0.22755050126E+04 0.  0.
        3    1    3    3  502    0 -0.72434310351E+03 -0.83238030407E+03  0.28452649298E+03  0.11395109642E+04  0.10100000352E+00 0. -1.
       -3    1    3    3    0  502  0.72434310351E+03  0.83238030407E+03 -0.27028470890E+03  0.11360386157E+04  0.10100000352E+00 0.  1.
</event>
<event>
 5   0  0.9483073E-05  0.2311753E+04  0.7818609E-02  0.8473301E-01
        2   -1    0    0  501    0  0.00000000000E+00  0.00000000000E+00  0.10444434160E+04  0.10444434160E+04  0.25500000920E-02 0. -1.
       -2   -1    0    0    0  501  0.00000000000E+00  0.00000000000E+00 -0.12791985473E+04  0.12791985473E+04  0.25500000920E-02 0.  1.
    10030    2    1    2    0    0  0.00000000000E+00  0.00000000000E+00 -0.23475513131E+03  0.23236419632E+04  0.23117530148E+04 0.  0.
        5    1    3    3  502    0 -0.81166655856E+02 -0.12221976521E+03  0.10350364239E+04  0.10453937946E+04  0.46999998093E+01 0. -1.
       -5    1    3    3    0  502  0.81166655856E+02  0.12221976521E+03 -0.12697915552E+04  0.12782481686E+04  0.46999998093E+01 0.  1.
</event>
<event>
 5   0  0.9535394E-05  0.2303658E+04  0.7818609E-02  0.8476480E-01
        2   -1    0    0  501    0  0.00000000000E+00  0.00000000000E+00  0.11316148500E+04  0.11316148500E+04  0.25500000920E-02 0.  1.
       -2   -1    0    0    0  501  0.00000000000E+00  0.00000000000E+00 -0.11724044634E+04  0.11724044634E+04  0.25500000920E-02 0. -1.
    10030    2    1    2    0    0  0.00000000000E+00  0.00000000000E+00 -0.40789613442E+02  0.23040193134E+04  0.23036582220E+04 0.  0.
        2    1    3    3  502    0  0.10141491978E+02  0.50994882533E+03  0.10125108195E+04  0.11337234292E+04  0.25500000920E-02 0.  1.
       -2    1    3    3    0  502 -0.10141491978E+02 -0.50994882533E+03 -0.10533004330E+04  0.11702958841E+04  0.25500000920E-02 0. -1.
</event>
<event>
 5   0  0.4095451E-05  0.2305085E+04  0.7818609E-02  0.8475919E-01
       -1   -1    0    0    0  501  0.00000000000E+00  0.00000000000E+00  0.14195459452E+04  0.14195459452E+04  0.50400001928E-02 0. -1.
        1   -1    0    0  501    0  0.00000000000E+00  0.00000000000E+00 -0.93576009516E+03  0.93576009517E+03  0.50400001928E-02 0.  1.
    10030    2    1    2    0    0  0.00000000000E+00  0.00000000000E+00  0.48378585005E+03  0.23553060404E+04  0.23050852035E+04 0.  0.
        3    1    3    3  502    0  0.88489003851E+03  0.25385576723E+03 -0.46667144626E+03  0.10321120965E+04  0.10100000352E+00 0.  1.
       -3    1    3    3    0  502 -0.88489003851E+03 -0.25385576723E+03  0.95045729631E+03  0.13231939439E+04  0.10100000352E+00 0. -1.
</event>
<event>
 5   0  0.9483073E-05  0.2384120E+04  0.7818609E-02  0.8445473E-01
       -2   -1    0    0    0  501  0.00000000000E+00  0.00000000000E+00  0.82614118344E+03  0.82614118344E+03  0.25500000920E-02 0. -1.
        2   -1    0    0  501    0  0.00000000000E+00  0.00000000000E+00 -0.17200534703E+04  0.17200534703E+04  0.25500000920E-02 0.  1.
    10030    2    1    2    0    0  0.00000000000E+00  0.00000000000E+00 -0.89391228687E+03  0.25461946537E+04  0.23841199714E+04 0.  0.
        5    1    3    3  502    0  0.23238488318E+03  0.76764458200E+03  0.49486981730E+03  0.94244318888E+03  0.46999998093E+01 0. -1.
       -5    1    3    3    0  502 -0.23238488318E+03 -0.76764458200E+03 -0.13887821042E+04  0.16037514649E+04  0.46999998093E+01 0.  1.
</event>
<event>
 5   0  0.3261500E-05  0.2657202E+04  0.7818609E-02  0.8349026E-01
       -3   -1    0    0    0  501  0.00000000000E+00  0.00000000000E+00  0.12683795376E+04  0.12683795416E+04  0.10100000352E+00 0.  1.
        3   -1    0    0  501    0  0.00000000000E+00  0.00000000000E+00 -0.13916817324E+04  0.13916817361E+04  0.10100000352E+00 0. -1.
    10030    2    1    2    0    0  0.00000000000E+00  0.00000000000E+00 -0.12330219482E+03  0.26600612777E+04  0.26572020190E+04 0.  0.
        2    1    3    3  502    0  0.12289243242E+04  0.42128364779E+03 -0.34024128983E+03  0.13429441692E+04  0.25500000920E-02 0. -1.
       -2    1    3    3    0  502 -0.12289243242E+04 -0.42128364779E+03  0.21693909502E+03  0.13171171084E+04  0.25500000920E-02 0.  1.
</event>
<event>
 5   0  0.9483073E-05  0.2317909E+04  0.7818609E-02  0.8470893E-01
       -2   -1    0    0    0  501  0.00000000000E+00  0.00000000000E+00  0.97331139408E+03  0.97331139408E+03  0.25500000920E-02 0.  1.
        2   -1    0    0  501    0  0.00000000000E+00  0.00000000000E+00 -0.13800065351E+04  0.13800065351E+04  0.25500000920E-02 0. -1.
    10030    2    1    2    0    0  0.00000000000E+00  0.00000000000E+00 -0.40669514098E+03  0.23533179291E+04  0.23179094758E+04 0.  0.
        5    1    3    3  502    0 -0.33633325761E+03  0.60038627176E+03 -0.11501000942E+04  0.13402746182E+04  0.46999998093E+01 0. -1.
       -5    1    3    3    0  502  0.33633325761E+03 -0.60038627176E+03  0.74340495318E+03  0.10130433110E+04  0.46999998093E+01 0.  1.
</event>
<event>
 5   0  0.9313463E-05  0.2233897E+04  0.7818609E-02  0.8504451E-01
       -2   -1    0    0    0  501  0.00000000000E+00  0.00000000000E+00  0.79614629042E+03  0.79614629042E+03  0.25500000920E-02 0.  1.
        2   -1    0    0  501    0  0.00000000000E+00  0.00000000000E+00 -0.15670153313E+04  0.15670153313E+04  0.25500000920E-02 0. -1.
    10030    2    1    2    0    0  0.00000000000E+00  0.00000000000E+00 -0.77086904089E+03  0.23631616217E+04  0.22338965447E+04 0.  0.
        1    1    3    3  502    0 -0.56889347327E+03 -0.41006092454E+03  0.53422935669E+03  0.88158422816E+03  0.50400001928E-02 0.  1.
       -1    1    3    3    0  502  0.56889347327E+03  0.41006092454E+03 -0.13050983976E+04  0.14815773936E+04  0.50400001928E-02 0. -1.
</event>
<event>
 5   0  0.9312074E-05  0.2294084E+04  0.7818609E-02  0.8480257E-01
        2   -1    0    0  501    0  0.00000000000E+00  0.00000000000E+00  0.29530003289E+04  0.29530003289E+04  0.25500000920E-02 0.  1.
       -2   -1    0    0    0  501  0.00000000000E+00  0.00000000000E+00 -0.44554884858E+03  0.44554884858E+03  0.25500000920E-02 0. -1.
    10030    2    1    2    0    0  0.00000000000E+00  0.00000000000E+00  0.25074514803E+04  0.33985491775E+04  0.22940844766E+04 0.  0.
        4    1    3    3  502    0 -0.89004685208E+02  0.67273114351E+03  0.26237298587E+04  0.27100643922E+04  0.12699999809E+01 0.  1.
       -4    1    3    3    0  502  0.89004685208E+02 -0.67273114351E+03 -0.11627837837E+03  0.68848478531E+03  0.12699999809E+01 0. -1.
</event>
<event>
 5   0  0.4095451E-05  0.2435183E+04  0.7818609E-02  0.8426448E-01
       -1   -1    0    0    0  501  0.00000000000E+00  0.00000000000E+00  0.99996276100E+03  0.99996276101E+03  0.50400001928E-02 0. -1.
        1   -1    0    0  501    0  0.00000000000E+00  0.00000000000E+00 -0.14825841761E+04  0.14825841761E+04  0.50400001928E-02 0.  1.
    10030    2    1    2    0    0  0.00000000000E+00  0.00000000000E+00 -0.48262141506E+03  0.24825469371E+04  0.24351829222E+04 0.  0.
        3    1    3    3  502    0 -0.11928166168E+04  0.30743281503E+02 -0.48845598485E+03  0.12893199331E+04  0.10100000352E+00 0. -1.
       -3    1    3    3    0  502  0.11928166168E+04 -0.30743281503E+02  0.58345697995E+01  0.11932270040E+04  0.10100000352E+00 0.  1.
</event>
<event>
 5   0  0.4005462E-05  0.2278153E+04  0.7818609E-02  0.8486585E-01
       -1   -1    0    0    0  501  0.00000000000E+00  0.00000000000E+00  0.66702627488E+03  0.66702627490E+03  0.50400001928E-02 0.  1.
        1   -1    0    0  501    0  0.00000000000E+00  0.00000000000E+00 -0.19451932429E+04  0.19451932429E+04  0.50400001928E-02 0. -1.
    10030    2    1    2    0    0  0.00000000000E+00  0.00000000000E+00 -0.12781669680E+04  0.26122195178E+04  0.22781527629E+04 0.  0.
        4    1    3    3  502    0  0.81698352654E+03  0.74325330643E+02  0.26705693127E+03  0.86273249322E+03  0.12699999809E+01 0.  1.
       -4    1    3    3    0  502 -0.81698352654E+03 -0.74325330643E+02 -0.15452238993E+04  0.17494870246E+04  0.12699999809E+01 0. -1.
</event>
<event>
 5   0  0.9313463E-05  0.2284473E+04  0.7818609E-02  0.8484068E-01
       -2   -1    0    0    0  501  0.00000000000E+00  0.00000000000E+00  0.66264897130E+03  0.66264897130E+03  0.25500000920E-02 0.  1.
        2   -1    0    0  501    0  0.00000000000E+00  0.00000000000E+00 -0.19689219005E+04  0.19689219005E+04  0.25500000920E-02 0. -1.
    10030    2    1    2    0    0  0.00000000000E+00  0.00000000000E+00 -0.13062729292E+04  0.26315708718E+04  0.22844728687E+04 0.  0.
        1    1    3    3  502    0  0.46489160674E+03 -0.12793019925E+02 -0.18549208738E+04  0.19123334739E+04  0.50400001928E-02 0. -1.
       -1    1    3    3    0  502 -0.46489160674E+03  0.12793019925E+02  0.54864794460E+03  0.71923739788E+03  0.50400001928E-02 0.  1.
</event>
<event>
 5   0  0.4139830E-05  0.2263738E+04  0.7818609E-02  0.8492358E-01
        1   -1    0    0  501    0  0.00000000000E+00  0.00000000000E+00  0.20859535682E+04  0.20859535682E+04  0.50400001928E-02 0. -1.
       -1   -1    0    0    0  501  0.00000000000E+00  0.00000000000E+00 -0.61416853279E+03  0.61416853281E+03  0.50400001928E-02 0.  1.
    10030    2    1    2    0    0  0.00000000000E+00  0.00000000000E+00  0.14717850354E+04  0.27001221010E+04  0.22637376548E+04 0.  0.
        1    1    3    3  502    0  0.83913860607E+03  0.74997341226E+03  0.87958721497E+03  0.14283862881E+04  0.50400001928E-02 0. -1.
       -1    1    3    3    0  502 -0.83913860607E+03 -0.74997341226E+03  0.59219782046E+03  0.12717358129E+04  0.50400001928E-02 0.  1.
</event>
<event>
 5   0  0.9312074E-05  0.2295675E+04  0.7818609E-02  0.8479628E-01
       -2   -1    0    0    0  501  0.00000000000E+00  0.00000000000E+00  0.11971155798E+04  0.11971155798E+04  0.25500000920E-02 0. -1.
        2   -1    0    0  501    0  0.00000000000E+00  0.00000000000E+00 -0.11005879867E+04  0.11005879867E+04  0.25500000920E-02 0.  1.
    10030    2    1    2    0    0  0.00000000000E+00  0.00000000000E+00  0.96527593127E+02  0.22977035666E+04  0.22956750867E+04 0.  0.
        4    1    3    3  502    0 -0.93855126128E+03  0.14208981920E+03 -0.59764465653E+03  0.11217168694E+04  0.12699999809E+01 0.  1.
       -4    1    3    3    0  502  0.93855126128E+03 -0.14208981920E+03  0.69417224966E+03  0.11759866971E+04  0.12699999809E+01 0. -1.
</event>
<event>
 5   0  0.9483073E-05  0.2314045E+04  0.7818609E-02  0.8472404E-01
       -2   -1    0    0    0  501  0.00000000000E+00  0.00000000000E+00  0.12006226410E+04  0.12006226410E+04  0.25500000920E-02 0.  1.
        2   -1    0    0  501    0  0.00000000000E+00  0.00000000000E+00 -0.11150054098E+04  0.11150054098E+04  0.25500000920E-02 0. -1.
    10030    2    1    2    0    0  0.00000000000E+00  0.00000000000E+00  0.85617231242E+02  0.23156280508E+04  0.23140447185E+04 0.  0.
        5    1    3    3  502    0  0.10493005327E+04  0.41668496645E+03  0.29600482402E+03  0.11671756145E+04  0.46999998093E+01 0.  1.
       -5    1    3    3    0  502 -0.10493005327E+04 -0.41668496645E+03 -0.21038759278E+03  0.11484524363E+04  0.46999998093E+01 0. -1.
</event>
<event>
 5   0  0.9483073E-05  0.1590144E+04  0.7818609E-02  0.8826626E-01
       -2   -1    0    0    0  501  0.00000000000E+00  0.00000000000E+00  0.53819127306E+03  0.53819127306E+03  0.25500000920E-02 0. -1.
        2   -1    0    0  501    0  0.00000000000E+00  0.00000000000E+00 -0.11745625045E+04  0.11745625045E+04  0.25500000920E-02 0.  1.
    10030    2    1    2    0    0  0.00000000000E+00  0.00000000000E+00 -0.63637123146E+03  0.17127537776E+04  0.15901437540E+04 0.  0.
        5    1    3    3  502    0  0.71098899806E+03  0.18483870511E+03 -0.64567993935E+03  0.97805693921E+03  0.46999998093E+01 0.  1.
       -5    1    3    3    0  502 -0.71098899806E+03 -0.18483870511E+03  0.93087078872E+01  0.73469683837E+03  0.46999998093E+01 0. -1.
</event>
<event>
 5   0  0.4005462E-05  0.2252502E+04  0.7818609E-02  0.8496888E-01
        1   -1    0    0  501    0  0.00000000000E+00  0.00000000000E+00  0.15187641005E+04  0.15187641005E+04  0.50400001928E-02 0.  1.
       -1   -1    0    0    0  501  0.00000000000E+00  0.00000000000E+00 -0.83518027860E+03  0.83518027862E+03  0.50400001928E-02 0. -1.
    10030    2    1    2    0    0  0.00000000000E+00  0.00000000000E+00  0.68358382188E+03  0.23539443791E+04  0.22525024525E+04 0.  0.
        4    1    3    3  502    0 -0.93688566900E+03  0.41666377209E+03  0.82868945691E+03  0.13183669006E+04  0.12699999809E+01 0. -1.
       -4    1    3    3    0  502  0.93688566900E+03 -0.41666377209E+03 -0.14510563502E+03  0.10355774785E+04  0.12699999809E+01 0.  1.
</event>
<event>
 5   0  0.4005462E-05  0.2228423E+04  0.7818609E-02  0.8506690E-01
        1   -1    0    0  501    0  0.00000000000E+00  0.00000000000E+00  0.49616535972E+03  0.49616535974E+03  0.50400001928E-02 0. -1.
       -1   -1    0    0    0  501  0.00000000000E+00  0.00000000000E+00 -0.25021242767E+04  0.25021242767E+04  0.50400001928E-02 0.  1.
    10030    2    1    2    0    0  0.00000000000E+00  0.00000000000E+00 -0.20059589170E+04  0.29982896364E+04  0.22284231123E+04 0.  0.
        4    1    3    3  502    0  0.13193761657E+03 -0.67738472343E+03  0.17399145888E+03  0.71171078316E+03  0.12699999809E+01 0. -1.
       -4    1    3    3    0  502 -0.13193761657E+03  0.67738472343E+03 -0.21799503758E+04  0.22865788533E+04  0.12699999809E+01 0.  1.
</event>
<event>
 5   0  0.4139830E-05  0.2296842E+04  0.7818609E-02  0.8479167E-01
        1   -1    0    0  501    0  0.00000000000E+00  0.00000000000E+00  0.16343099346E+04  0.16343099346E+04  0.50400001928E-02 0. -1.
       -1   -1    0    0    0  501  0.00000000000E+00  0.00000000000E+00 -0.80698972778E+03  0.80698972780E+03  0.50400001928E-02 0.  1.
    10030    2    1    2    0    0  0.00000000000E+00  0.00000000000E+00  0.82732020686E+03  0.24412996624E+04  0.22968424668E+04 0.  0.
        1    1    3    3  502    0 -0.47922372455E+03  0.29988344527E+02  0.15224966167E+04  0.15964180614E+04  0.50400001928E-02 0. -1.
       -1    1    3    3    0  502  0.47922372455E+03 -0.29988344527E+02 -0.69517640981E+03  0.84488160104E+03  0.50400001928E-02 0.  1.
</event>
<event>
 5   0  0.9483073E-05  0.2303066E+04  0.7818609E-02  0.8476713E-01
        2   -1    0    0  501    0  0.00000000000E+00  0.00000000000E+00  0.13756497724E+04  0.13756497724E+04  0.25500000920E-02 0. -1.
       -2   -1    0    0    0  501  0.00000000000E+00  0.00000000000E+00 -0.96392828810E+03  0.96392828811E+03  0.25500000920E-02 0.  1.
    10030    2    1    2    0    0  0.00000000000E+00  0.00000000000E+00  0.41172148431E+03  0.23395780605E+04  0.23030655485E+04 0.  0.
        5    1    3    3  502    0  0.79900370122E+03  0.76528810073E+03 -0.11847015366E+03  0.11127129275E+04  0.46999998093E+01 0.  1.
       -5    1    3    3    0  502 -0.79900370122E+03 -0.76528810073E+03  0.53019163796E+03  0.12268651330E+04  0.46999998093E+01 0. -1.
</event>
<event>
 5   0  0.9313463E-05  0.2267753E+04  0.7818609E-02  0.8490745E-01
       -2   -1    0    0    0  501  0.00000000000E+00  0.00000000000E+00  0.10041963205E+04  0.10041963205E+04  0.25500000920E-02 0.  1.
        2   -1    0    0  501    0  0.00000000000E+00  0.00000000000E+00 -0.12803029014E+04  0.12803029014E+04  0.25500000920E-02 0. -1.
    10030    2    1    2    0    0  0.00000000000E+00  0.00000000000E+00 -0.27610658096E+03  0.22844992219E+04  0.22677525991E+04 0.  0.
        1    1    3    3  502    0 -0.67665137603E+03 -0.60578567471E+03  0.54581333878E+03  0.10595968899E+04  0.50400001928E-02 0.  1.
       -1    1    3    3    0  502  0.67665137603E+03  0.60578567471E+03 -0.82191991974E+03  0.12249023320E+04  0.50400001928E-02 0. -1.
</event>
<event>
 5   0  0.9313463E-05  0.2340784E+04  0.7818609E-02  0.8462012E-01
        2   -1    0    0  501    0  0.00000000000E+00  0.00000000000E+00  0.27369460977E+04  0.27369460977E+04  0.25500000920E-02 0.  1.
       -2   -1    0    0    0  501  0.00000000000E+00  0.00000000000E+00 -0.50049111773E+03  0.50049111773E+03  0.25500000920E-02 0. -1.
    10030    2    1    2    0    0  0.00000000000E+00  0.00000000000E+00  0.22364549800E+04  0.32374372155E+04  0.23407838103E+04 0.  0.
        1    1    3    3  502    0 -0.75926994840E+02 -0.69162336168E+03  0.24198518974E+04  0.25178941575E+04  0.50400001928E-02 0.  1.
       -1    1    3    3    0  502  0.75926994840E+02  0.69162336168E+03 -0.18339691739E+03  0.71954305798E+03  0.50400001928E-02 0. -1.
</event>
<event>
 5   0  0.9313463E-05  0.1911689E+04  0.7818609E-02  0.8649060E-01
        2   -1    0    0  501    0  0.00000000000E+00  0.00000000000E+00  0.57925521187E+03  0.57925521188E+03  0.25500000920E-02 0. -1.
       -2   -1    0    0    0  501  0.00000000000E+00  0.00000000000E+00 -0.15772646439E+04  0.15772646439E+04  0.25500000920E-02 0.  1.
    10030    2    1    2    0    0  0.00000000000E+00  0.00000000000E+00 -0.99800943205E+03  0.21565198558E+04  0.19116890600E+04 0.  0.
        1    1    3    3  502    0 -0.43523745659E+03  0.12312312814E+03 -0.14488961441E+04  0.15178573664E+04  0.50400001928E-02 0.  1.
       -1    1    3    3    0  502  0.43523745659E+03 -0.12312312814E+03  0.45088671202E+03  0.63866248943E+03  0.50400001928E-02 0. -1.
</event>
<event>
 5   0  0.3885219E-05  0.2306362E+04  0.7818609E-02  0.8475417E-01
       -1   -1    0    0    0  501  0.00000000000E+00  0.00000000000E+00  0.22388530595E+04  0.22388530595E+04  0.50400001928E-02 0.  1.
        1   -1    0    0  501    0  0.00000000000E+00  0.00000000000E+00 -0.59397679604E+03  0.59397679606E+03  0.50400001928E-02 0. -1.
    10030    2    1    2    0    0  0.00000000000E+00  0.00000000000E+00  0.16448762635E+04  0.28328298556E+04  0.23063623021E+04 0.  0.
        2    1    3    3  502    0 -0.72706202230E+03 -0.57045639165E+03  0.16696641531E+04  0.19083548053E+04  0.25500000920E-02 0.  1.
       -2    1    3    3    0  502  0.72706202230E+03  0.57045639165E+03 -0.24787889591E+02  0.92447505024E+03  0.25500000920E-02 0. -1.
</event>
<event>
 5   0  0.4295775E-05  0.2373620E+04  0.7818609E-02  0.8449446E-01
       -1   -1    0    0    0  501  0.00000000000E+00  0.00000000000E+00  0.14147963992E+04  0.14147963992E+04  0.50400001928E-02 0.  1.
        1   -1    0    0  501    0  0.00000000000E+00  0.00000000000E+00 -0.99556221434E+03  0.99556221435E+03  0.50400001928E-02 0. -1.
    10030    2    1    2    0    0  0.00000000000E+00  0.00000000000E+00  0.41923418489E+03  0.24103586136E+04  0.23736198820E+04 0.  0.
        5    1    3    3  502    0  0.16487019349E+03  0.36419615277E+03 -0.92511973959E+03  0.10078142889E+04  0.46999998093E+01 0. -1.
       -5    1    3    3    0  502 -0.16487019349E+03 -0.36419615277E+03  0.13443539245E+04  0.14025443247E+04  0.46999998093E+01 0.  1.
</event>
<event>
 5   0  0.9483073E-05  0.2301033E+04  0.7818609E-02  0.8477514E-01
       -2   -1    0    0    0  501  0.00000000000E+00  0.00000000000E+00  0.58948674045E+03  0.58948674046E+03  0.25500000920E-02 0.  1.
        2   -1    0    0  501    0  0.00000000000E+00  0.00000000000E+00 -0.22454928692E+04  0.22454928692E+04  0.25500000920E-02 0. -1.
    10030    2    1    2    0    0  0.00000000000E+00  0.00000000000E+00 -0.16560061288E+04  0.28349796097E+04  0.23010330482E+04 0.  0.
        5    1    3    3  502    0  0.34354095758E+03  0.25235947681E+03  0.48859321061E+03  0.64842201576E+03  0.46999998093E+01 0.  1.
       -5    1    3    3    0  502 -0.34354095758E+03 -0.25235947681E+03 -0.21445993394E+04  0.21865575939E+04  0.46999998093E+01 0. -1.
</event>
<event>
 5   0  0.4005462E-05  0.2276407E+04  0.7818609E-02  0.8487282E-01
       -1   -1    0    0    0  501  0.00000000000E+00  0.00000000000E+00  0.58393691590E+03  0.58393691592E+03  0.50400001928E-02 0. -1.
        1   -1    0    0  501    0  0.00000000000E+00  0.00000000000E+00 -0.22185734436E+04  0.22185734436E+04  0.50400001928E-02 0.  1.
    10030    2    1    2    0    0  0.00000000000E+00  0.00000000000E+00 -0.16346365277E+04  0.28025103595E+04  0.22764067601E+04 0.  0.
        4    1    3    3  502    0 -0.64338477741E+03 -0.92985918804E+03 -0.65716377415E+03  0.13078409385E+04  0.12699999809E+01 0.  1.
       -4    1    3    3    0  502  0.64338477741E+03  0.92985918804E+03 -0.97747275356E+03  0.14946694211E+04  0.12699999809E+01 0. -1.
</event>
<event>
 5   0  0.9535394E-05  0.2308152E+04  0.7818609E-02  0.8474714E-01
       -2   -1    0    0    0  501  0.00000000000E+00  0.00000000000E+00  0.17785489558E+04  0.17785489558E+04  0.25500000920E-02 0. -1.
        2   -1    0    0  501    0  0.00000000000E+00  0.00000000000E+00 -0.74886424422E+03  0.74886424422E+03  0.25500000920E-02 0.  1.
    10030    2    1    2    0    0  0.00000000000E+00  0.00000000000E+00  0.10296847116E+04  0.25274132000E+04  0.23081522650E+04 0.  0.
        2    1    3    3  502    0 -0.64486637490E+03 -0.31283833013E+03 -0.47561071656E+03  0.86018952329E+03  0.25500000920E-02 0.  1.
       -2    1    3    3    0  502  0.64486637490E+03  0.31283833013E+03  0.15052954281E+04  0.16672236767E+04  0.25500000920E-02 0. -1.
</event>
<event>
 5   0  0.4139830E-05  0.2334365E+04  0.7818609E-02  0.8464494E-01
       -1   -1    0    0    0  501  0.00000000000E+00  0.00000000000E+00  0.74694009466E+03  0.74694009468E+03  0.50400001928E-02 0.  1.
        1   -1    0    0  501    0  0.00000000000E+00  0.00000000000E+00 -0.18238605319E+04  0.18238605319E+04  0.50400001928E-02 0. -1.
    10030    2    1    2    0    0  0.00000000000E+00  0.00000000000E+00 -0.10769204372E+04  0.25708006266E+04  0.23343646317E+04 0.  0.
        1    1    3    3  502    0 -0.29479135676E+03  0.51084207302E+03 -0.16476750450E+04  0.17500556053E+04  0.50400001928E-02 0. -1.
       -1    1    3    3    0  502  0.29479135676E+03 -0.51084207302E+03  0.57075460781E+03  0.82074502128E+03  0.50400001928E-02 0.  1.
</event>
<event>
 5   0  0.9641157E-05  0.2338494E+04  0.7818609E-02  0.8462896E-01
        2   -1    0    0  501    0  0.00000000000E+00  0.00000000000E+00  0.16443969801E+04  0.16443969802E+04  0.25500000920E-02 0.  1.
       -2   -1    0    0    0  501  0.00000000000E+00  0.00000000000E+00 -0.83139223333E+03  0.83139223333E+03  0.25500000920E-02 0. -1.
    10030    2    1    2    0    0  0.00000000000E+00  0.00000000000E+00  0.81300474682E+03  0.24757892135E+04  0.23384942829E+04 0.  0.
        3    1    3    3  502    0  0.55506473818E+03 -0.46984746825E+03 -0.56283128908E+03  0.91958282779E+03  0.10100000352E+00 0. -1.
       -3    1    3    3    0  502 -0.55506473818E+03  0.46984746825E+03  0.13758360359E+04  0.15562063857E+04  0.10100000352E+00 0.  1.
</event>
<event>
 5   0  0.9483073E-05  0.2293035E+04  0.7818609E-02  0.8480672E-01
        2   -1    0    0  501    0  0.00000000000E+00  0.00000000000E+00  0.20645611358E+04  0.20645611358E+04  0.25500000920E-02 0. -1.
       -2   -1    0    0    0  501  0.00000000000E+00  0.00000000000E+00 -0.63669839298E+03  0.63669839298E+03  0.25500000920E-02 0.  1.
    10030    2    1    2    0    0  0.00000000000E+00  0.00000000000E+00  0.14278627429E+04  0.27012595288E+04  0.22930353311E+04 0.  0.
        5    1    3    3  502    0 -0.93875710017E+03  0.34484405523E+03  0.53501638370E+02  0.10015322415E+04  0.46999998093E+01 0.  1.
       -5    1    3    3    0  502  0.93875710017E+03 -0.34484405523E+03  0.13743611045E+04  0.16997272873E+04  0.46999998093E+01 0. -1.
</event>
<event>
 5   0  0.4139830E-05  0.2310429E+04  0.7818609E-02  0.8473820E-01
        1   -1    0    0  501    0  0.00000000000E+00  0.00000000000E+00  0.74098070605E+03  0.74098070607E+03  0.50400001928E-02 0. -1.
       -1   -1    0    0    0  501  0.00000000000E+00  0.00000000000E+00 -0.18010194035E+04  0.18010194035E+04  0.50400001928E-02 0.  1.
    10030    2    1    2    0    0  0.00000000000E+00  0.00000000000E+00 -0.10600386974E+04  0.25420001095E+04  0.23104290764E+04 0.  0.
        1    1    3    3  502    0  0.55906474479E+03 -0.92494016436E+03 -0.81141009242E+02  0.10838134341E+04  0.50400001928E-02 0. -1.
       -1    1    3    3    0  502 -0.55906474479E+03  0.92494016436E+03 -0.97889768818E+03  0.14581866755E+04  0.50400001928E-02 0.  1.
</event>
<event>
 5   0  0.4005462E-05  0.2300214E+04  0.7818609E-02  0.8477837E-01
        1   -1    0    0  501    0  0.00000000000E+00  0.00000000000E+00  0.91861645946E+03  0.91861645947E+03  0.50400001928E-02 0. -1.
       -1   -1    0    0    0  501  0.00000000000E+00  0.00000000000E+00 -0.14399333695E+04  0.14399333695E+04  0.50400001928E-02 0.  1.
    10030    2    1    2    0    0  0.00000000000E+00  0.00000000000E+00 -0.52131691006E+03  0.23585498290E+04  0.23002143324E+04 0.  0.
        4    1    3    3  502    0  0.71469067615E+03 -0.57853728085E+03  0.44769951195E+03  0.10227045584E+04  0.12699999809E+01 0. -1.
       -4    1    3    3    0  502 -0.71469067615E+03  0.57853728085E+03 -0.96901642201E+03  0.13358452706E+04  0.12699999809E+01 0.  1.
</event>
<event>
 5   0  0.4295775E-05  0.2168673E+04  0.7818609E-02  0.8531581E-01
       -1   -1    0    0    0  501  0.00000000000E+00  0.00000000000E+00  0.90029361993E+03  0.90029361995E+03  0.50400001928E-02 0. -1.
        1   -1    0    0  501    0  0.00000000000E+00  0.00000000000E+00 -0.13060025200E+04  0.13060025200E+04  0.50400001928E-02 0.  1.
    10030    2    1    2    0    0  0.00000000000E+00  0.00000000000E+00 -0.40570890010E+03  0.22062961400E+04  0.21686730841E+04 0.  0.
        5    1    3    3  502    0  0.25847732512E+03 -0.58779484976E+03  0.68606029530E+03  0.93968831630E+03  0.46999998093E+01 0. -1.
       -5    1    3    3    0  502 -0.25847732512E+03  0.58779484976E+03 -0.10917691954E+04  0.12666078237E+04  0.46999998093E+01 0.  1.
</event>
<event>
 5   0  0.4295775E-05  0.2239469E+04  0.7818609E-02  0.8502178E-01
        1   -1    0    0  501    0  0.00000000000E+00  0.00000000000E+00  0.15021541882E+04  0.15021541883E+04  0.50400001928E-02 0. -1.
       -1   -1    0    0    0  501  0.00000000000E+00  0.00000000000E+00 -0.83467127573E+03  0.83467127574E+03  0.50400001928E-02 0.  1.
    10030    2    1    2    0    0  0.00000000000E+00  0.00000000000E+00  0.66748291252E+03  0.23368254640E+04  0.22394686447E+04 0.  0.
        5    1    3    3  502    0  0.18779122137E+03  0.10884596462E+04  0.14197811605E+03  0.11136381009E+04  0.46999998093E+01 0.  1.
       -5    1    3    3    0  502 -0.18779122137E+03 -0.10884596462E+04  0.52550479647E+03  0.12231873631E+04  0.46999998093E+01 0. -1.
</event>
<event>
 5   0  0.9483073E-05  0.2385388E+04  0.7818609E-02  0.8444994E-01
       -2   -1    0    0    0  501  0.00000000000E+00  0.00000000000E+00  0.13147471521E+04  0.13147471521E+04  0.25500000920E-02 0.  1.
        2   -1    0    0  501    0  0.00000000000E+00  0.00000000000E+00 -0.10819718125E+04  0.10819718125E+04  0.25500000920E-02 0. -1.
    10030    2    1    2    0    0  0.00000000000E+00  0.00000000000E+00  0.23277533959E+03  0.23967189646E+04  0.23853883199E+04 0.  0.
        5    1    3    3  502    0  0.34037826186E+03 -0.31365316162E+03  0.12208184734E+04  0.13056245639E+04  0.46999998093E+01 0.  1.
       -5    1    3    3    0  502 -0.34037826186E+03  0.31365316162E+03 -0.98804313380E+03  0.10910944007E+04  0.46999998093E+01 0. -1.
</event>
<event>
 5   0  0.9483073E-05  0.2323944E+04  0.7818609E-02  0.8468540E-01
       -2   -1    0    0    0  501  0.00000000000E+00  0.00000000000E+00  0.14242826304E+04  0.14242826304E+04  0.25500000920E-02 0.  1.
        2   -1    0    0  501    0  0.00000000000E+00  0.00000000000E+00 -0.94797130517E+03  0.94797130518E+03  0.25500000920E-02 0. -1.
    10030    2    1    2    0    0  0.00000000000E+00  0.00000000000E+00  0.47631132525E+03  0.23722539356E+04  0.23239441165E+04 0.  0.
        5    1    3    3  502    0 -0.74772063690E+03 -0.49494870554E+03  0.99250103863E+03  0.13375876695E+04  0.46999998093E+01 0.  1.
       -5    1    3    3    0  502  0.74772063690E+03  0.49494870554E+03 -0.51618971339E+03  0.10346662661E+04  0.46999998093E+01 0. -1.
</event>
<event>
 5   0  0.9641157E-05  0.2287067E+04  0.7818609E-02  0.8483038E-01
        2   -1    0    0  501    0  0.00000000000E+00  0.00000000000E+00  0.21063512011E+04  0.21063512011E+04  0.25500000920E-02 0. -1.
       -2   -1    0    0    0  501  0.00000000000E+00  0.00000000000E+00 -0.62082189271E+03  0.62082189271E+03  0.25500000920E-02 0.  1.
    10030    2    1    2    0    0  0.00000000000E+00  0.00000000000E+00  0.14855293084E+04  0.27271730938E+04  0.22870670645E+04 0.  0.
        3    1    3    3  502    0  0.11264961399E+04  0.49594980038E+02  0.51583966212E+03  0.12399773315E+04  0.10100000352E+00 0.  1.
       -3    1    3    3    0  502 -0.11264961399E+04 -0.49594980038E+02  0.96968964624E+03  0.14871957623E+04  0.10100000352E+00 0. -1.
</event>
<event>
 5   0  0.9483073E-05  0.2284956E+04  0.7818609E-02  0.8483877E-01
       -2   -1    0    0    0  501  0.00000000000E+00  0.00000000000E+00  0.12582333103E+04  0.12582333103E+04  0.25500000920E-02 0.  1.
        2   -1    0    0  501    0  0.00000000000E+00  0.00000000000E+00 -0.10373716983E+04  0.10373716983E+04  0.25500000920E-02 0. -1.
    10030    2    1    2    0    0  0.00000000000E+00  0.00000000000E+00  0.22086161202E+03  0.22956050087E+04  0.22849556897E+04 0.  0.
        5    1    3    3  502    0  0.40245001867E+03  0.62984212302E+03 -0.75763691342E+03  0.10642851592E+04  0.46999998093E+01 0. -1.
       -5    1    3    3    0  502 -0.40245001867E+03 -0.62984212302E+03  0.97849852544E+03  0.12313198495E+04  0.46999998093E+01 0.  1.
</event>
<event>
 5   0  0.3885219E-05  0.2298169E+04  0.7818609E-02  0.8478643E-01
        1   -1    0    0  501    0  0.00000000000E+00  0.00000000000E+00  0.51509609949E+03  0.51509609952E+03  0.50400001928E-02 0.  1.
       -1   -1    0    0    0  501  0.00000000000E+00  0.00000000000E+00 -0.25633963115E+04  0.25633963115E+04  0.50400001928E-02 0. -1.
    10030    2    1    2    0    0  0.00000000000E+00  0.00000000000E+00 -0.20483002120E+04  0.30784924110E+04  0.22981692205E+04 0.  0.
        2    1    3    3  502    0  0.23433646330E+03  0.67625307458E+03  0.18006962232E+03  0.73800871797E+03  0.25500000920E-02 0.  1.
       -2    1    3    3    0  502 -0.23433646330E+03 -0.67625307458E+03 -0.22283698343E+04  0.23404836930E+04  0.25500000920E-02 0. -1.
</event>
<event>
 5   0  0.9641157E-05  0.2287028E+04  0.7818609E-02  0.8483054E-01
       -2   -1    0    0    0  501  0.00000000000E+00  0.00000000000E+00  0.84145777510E+03  0.84145777510E+03  0.25500000920E-02 0. -1.
        2   -1    0    0  501    0  0.00000000000E+00  0.00000000000E+00 -0.15539983052E+04  0.15539983052E+04  0.25500000920E-02 0.  1.
    10030    2    1    2    0    0  0.00000000000E+00  0.00000000000E+00 -0.71254053013E+03  0.23954560803E+04  0.22870277274E+04 0.  0.
        3    1    3    3  502    0  0.73356624715E+03 -0.60933213059E+03  0.30469356793E+03  0.10011210041E+04  0.10100000352E+00 0. -1.
       -3    1    3    3    0  502 -0.73356624715E+03  0.60933213059E+03 -0.10172340981E+04  0.13943350762E+04  0.10100000352E+00 0.  1.
</event>
<event>
 5   0  0.9312074E-05  0.2357808E+04  0.7818609E-02  0.8455471E-01
        2   -1    0    0  501    0  0.00000000000E+00  0.00000000000E+00  0.14756792543E+04  0.14756792543E+04  0.25500000920E-02 0.  1.
       -2   -1    0    0    0  501  0.00000000000E+00  0.00000000000E+00 -0.94181313637E+03  0.94181313637E+03  0.25500000920E-02 0. -1.
    10030    2    1    2    0    0  0.00000000000E+00  0.00000000000E+00  0.53386611795E+03  0.24174923907E+04  0.23578075467E+04 0.  0.
        4    1    3    3  502    0  0.31265833679E+03 -0.12804957888E+03 -0.89110898507E+03  0.95301037055E+03  0.12699999809E+01 0. -1.
       -4    1    3    3    0  502 -0.31265833679E+03  0.12804957888E+03  0.14249751030E+04  0.14644820201E+04  0.12699999809E+01 0.  1.
</event>
<event>
 5   0  0.9641157E-05  0.2332012E+04  0.7818609E-02  0.8465405E-01
       -2   -1    0    0    0  501  0.00000000000E+00  0.00000000000E+00  0.12488473522E+04  0.12488473522E+04  0.25500000920E-02 0.  1.
        2   -1    0    0  501    0  0.00000000000E+00  0.00000000000E+00 -0.10886594815E+04  0.10886594815E+04  0.25500000920E-02 0. -1.
    10030    2    1    2    0    0  0.00000000000E+00  0.00000000000E+00  0.16018787062E+03  0.23375068337E+04  0.23320115874E+04 0.  0.
        3    1    3    3  502    0  0.73483988282E+03  0.59552504557E+03  0.76355827796E+03  0.12155907976E+04  0.10100000352E+00 0.  1.
       -3    1    3    3    0  502 -0.73483988282E+03 -0.59552504557E+03 -0.60337040733E+03  0.11219160360E+04  0.10100000352E+00 0. -1.
</event>
<event>
 5   0  0.3885219E-05  0.2259507E+04  0.7818609E-02  0.8494060E-01
       -1   -1    0    0    0  501  0.00000000000E+00  0.00000000000E+00  0.15167236142E+04  0.15167236142E+04  0.50400001928E-02 0.  1.
        1   -1    0    0  501    0  0.00000000000E+00  0.00000000000E+00 -0.84151347160E+03  0.84151347161E+03  0.50400001928E-02 0. -1.
    10030    2    1    2    0    0  0.00000000000E+00  0.00000000000E+00  0.67521014264E+03  0.23582370859E+04  0.22595073393E+04 0.  0.
        2    1    3    3  502    0  0.46711230672E+03  0.46959604975E+03 -0.61760646781E+03  0.90562249647E+03  0.25500000920E-02 0. -1.
       -2    1    3    3    0  502 -0.46711230672E+03 -0.46959604975E+03  0.12928166105E+04  0.14526145894E+04  0.25500000920E-02 0.  1.
</event>
<event>
 5   0  0.9535394E-05  0.2330688E+04  0.7818609E-02  0.8465919E-01
       -2   -1    0    0    0  501  0.00000000000E+00  0.00000000000E+00  0.56238285318E+03  0.56238285319E+03  0.25500000920E-02 0. -1.
        2   -1    0    0  501    0  0.00000000000E+00  0.00000000000E+00 -0.24147721345E+04  0.24147721345E+04  0.25500000920E-02 0.  1.
    10030    2    1    2    0    0  0.00000000000E+00  0.00000000000E+00 -0.18523892813E+04  0.29771549877E+04  0.23306878322E+04 0.  0.
        2    1    3    3  502    0  0.65670350091E+03  0.92937962744E+03 -0.60552479020E+03  0.12890563415E+04  0.25500000920E-02 0. -1.
       -2    1    3    3    0  502 -0.65670350091E+03 -0.92937962744E+03 -0.12468644911E+04  0.16880986462E+04  0.25500000920E-02 0.  1.
</event>
<event>
 5   0  0.4005462E-05  0.2259222E+04  0.7818609E-02  0.8494175E-01
        1   -1    0    0  501    0  0.00000000000E+00  0.00000000000E+00  0.10493185026E+04  0.10493185026E+04  0.50400001928E-02 0.  1.
       -1   -1    0    0    0  501  0.00000000000E+00  0.00000000000E+00 -0.12160469050E+04  0.12160469050E+04  0.50400001928E-02 0. -1.
    10030    2    1    2    0    0  0.00000000000E+00  0.00000000000E+00 -0.16672840235E+03  0.22653654076E+04  0.22592215628E+04 0.  0.
        4    1    3    3  502    0 -0.10980078473E+04  0.25171246999E+03 -0.16748814636E+03  0.11388741337E+04  0.12699999809E+01 0.  1.
       -4    1    3    3    0  502  0.10980078473E+04 -0.25171246999E+03  0.75974401007E+00  0.11264912740E+04  0.12699999809E+01 0. -1.
</event>
<event>
 5   0  0.4005462E-05  0.2315096E+04  0.7818609E-02  0.8471993E-01
       -1   -1    0    0    0  501  0.00000000000E+00  0.00000000000E+00  0.14152465800E+04  0.14152465800E+04  0.50400001928E-02 0.  1.
        1   -1    0    0  501    0  0.00000000000E+00  0.00000000000E+00 -0.94677277446E+03  0.94677277447E+03  0.50400001928E-02 0. -1.
    10030    2    1    2    0    0  0.00000000000E+00  0.00000000000E+00  0.46847380555E+03  0.23620193545E+04  0.23150956189E+04 0.  0.
        4    1    3    3  502    0  0.19378310053E+02 -0.66621592332E+03  0.11998315972E+04  0.13725220035E+04  0.12699999809E+01 0.  1.
       -4    1    3    3    0  502 -0.19378310053E+02  0.66621592332E+03 -0.73135779166E+03  0.98949735104E+03  0.12699999809E+01 0. -1.
</event>
<event>
 5   0  0.9312074E-05  0.2283748E+04  0.7818609E-02  0.8484357E-01
        2   -1    0    0  501    0  0.00000000000E+00  0.00000000000E+00  0.15245033070E+04  0.15245033071E+04  0.25500000920E-02 0. -1.
       -2   -1    0    0    0  501  0.00000000000E+00  0.00000000000E+00 -0.85527942998E+03  0.85527942998E+03  0.25500000920E-02 0.  1.
    10030    2    1    2    0    0  0.00000000000E+00  0.00000000000E+00  0.66922387707E+03  0.23797827370E+04  0.22837480767E+04 0.  0.
        4    1    3    3  502    0  0.94953698102E+03  0.22708644755E+03  0.95170166056E+03  0.13634245108E+04  0.12699999809E+01 0. -1.
       -4    1    3    3    0  502 -0.94953698102E+03 -0.22708644755E+03 -0.28247778349E+03  0.10163582262E+04  0.12699999809E+01 0.  1.
</event>
<event>
 5   0  0.4095451E-05  0.2509126E+04  0.7818609E-02  0.8399741E-01
       -1   -1    0    0    0  501  0.00000000000E+00  0.00000000000E+00  0.12873023934E+04  0.12873023935E+04  0.50400001928E-02 0. -1.
        1   -1    0    0  501    0  0.00000000000E+00  0.00000000000E+00 -0.12226567055E+04  0.12226567055E+04  0.50400001928E-02 0.  1.
    10030    2    1    2    0    0  0.00000000000E+00  0.00000000000E+00  0.64645687980E+02  0.25099590989E+04  0.25091264642E+04 0.  0.
        3    1    3    3  502    0 -0.96478229169E+03 -0.78691674846E+03 -0.12227957901E+03  0.12509976599E+04  0.10100000352E+00 0.  1.
       -3    1    3    3    0  502  0.96478229169E+03  0.78691674846E+03  0.18692526699E+03  0.12589614390E+04  0.10100000352E+00 0. -1.
</event>
<event>
 5   0  0.3885219E-05  0.2336574E+04  0.7818609E-02  0.8463639E-01
       -1   -1    0    0    0  501  0.00000000000E+00  0.00000000000E+00  0.76297489915E+03  0.76297489916E+03  0.50400001928E-02 0. -1.
        1   -1    0    0  501    0  0.00000000000E+00  0.00000000000E+00 -0.17889109254E+04  0.17889109254E+04  0.50400001928E-02 0.  1.
    10030    2    1    2    0    0  0.00000000000E+00  0.00000000000E+00 -0.10259360262E+04  0.25518858245E+04  0.23365736735E+04 0.  0.
        2    1    3    3  502    0  0.57627694539E+03  0.79633334066E+03  0.17660277727E+03  0.99871439770E+03  0.25500000920E-02 0. -1.
       -2    1    3    3    0  502 -0.57627694539E+03 -0.79633334066E+03 -0.12025388035E+04  0.15531714268E+04  0.25500000920E-02 0.  1.
</event>
<event>
 5   0  0.9641157E-05  0.2261509E+04  0.7818609E-02  0.8493254E-01
       -2   -1    0    0    0  501  0.00000000000E+00  0.00000000000E+00  0.66937097520E+03  0.66937097521E+03  0.25500000920E-02 0. -1.
        2   -1    0    0  501    0  0.00000000000E+00  0.00000000000E+00 -0.19101597212E+04  0.19101597212E+04  0.25500000920E-02 0.  1.
    10030    2    1    2    0    0  0.00000000000E+00  0.00000000000E+00 -0.12407887460E+04  0.25795306964E+04  0.22615087666E+04 0.  0.
        3    1    3    3  502    0 -0.10070618394E+04  0.35392812428E+03 -0.10459048372E+04  0.14944415693E+04  0.10100000352E+00 0. -1.
       -3    1    3    3    0  502  0.10070618394E+04 -0.35392812428E+03 -0.19488390882E+03  0.10850891271E+04  0.10100000352E+00 0.  1.
</event>
<event>
 5   0  0.9641157E-05  0.2401484E+04  0.7818609E-02  0.8438948E-01
        2   -1    0    0  501    0  0.00000000000E+00  0.00000000000E+00  0.13619442256E+04  0.13619442256E+04  0.25500000920E-02 0. -1.
       -2   -1    0    0    0  501  0.00000000000E+00  0.00000000000E+00 -0.10586195992E+04  0.10586195992E+04  0.25500000920E-02 0.  1.
    10030    2    1    2    0    0  0.00000000000E+00  0.00000000000E+00  0.30332462642E+03  0.24205638248E+04  0.24014835833E+04 0.  0.
        3    1    3    3  502    0  0.10637567340E+04 -0.51493106089E+03 -0.62270232653E+02  0.11834736915E+04  0.10100000352E+00 0. -1.
       -3    1    3    3    0  502 -0.10637567340E+04  0.51493106089E+03  0.36559485907E+03  0.12370901332E+04  0.10100000352E+00 0.  1.
</event>
<event>
 5   0  0.9312074E-05  0.2229763E+04  0.7818609E-02  0.8506141E-01
        2   -1    0    0  501    0  0.00000000000E+00  0.00000000000E+00  0.16201032402E+04  0.16201032402E+04  0.25500000920E-02 0.  1.
       -2   -1    0    0    0  501  0.00000000000E+00  0.00000000000E+00 -0.76721084916E+03  0.76721084916E+03  0.25500000920E-02 0. -1.
    10030    2    1    2    0    0  0.00000000000E+00  0.00000000000E+00  0.85289239100E+03  0.23873140893E+04  0.22297630211E+04 0.  0.
        4    1    3    3  502    0  0.22616929331E+02  0.10339970251E+04 -0.19258667420E+02  0.10344244209E+04  0.12699999809E+01 0.  1.
       -4    1    3    3    0  502 -0.22616929331E+02 -0.10339970251E+04  0.87215105842E+03  0.13528896684E+04  0.12699999809E+01 0. -1.
</event>
<event>
 5   0  0.4139830E-05  0.2330389E+04  0.7818609E-02  0.8466035E-01
       -1   -1    0    0    0  501  0.00000000000E+00  0.00000000000E+00  0.95249537380E+03  0.95249537381E+03  0.50400001928E-02 0. -1.
        1   -1    0    0  501    0  0.00000000000E+00  0.00000000000E+00 -0.14253904967E+04  0.14253904967E+04  0.50400001928E-02 0.  1.
    10030    2    1    2    0    0  0.00000000000E+00  0.00000000000E+00 -0.47289512294E+03  0.23778858706E+04  0.23303886835E+04 0.  0.
        1    1    3    3  502    0 -0.56013450656E+02  0.10506974692E+04  0.27432982939E+03  0.10873635702E+04  0.50400001928E-02 0. -1.
       -1    1    3    3    0  502  0.56013450656E+02 -0.10506974692E+04 -0.74722495233E+03  0.12905223004E+04  0.50400001928E-02 0.  1.
</event>
<event>
 5   0  0.9312074E-05  0.2327486E+04  0.7818609E-02  0.8467162E-01
       -2   -1    0    0    0  501  0.00000000000E+00  0.00000000000E+00  0.83249773461E+03  0.83249773461E+03  0.25500000920E-02 0.  1.
        2   -1    0    0  501    0  0.00000000000E+00  0.00000000000E+00 -0.16267886393E+04  0.16267886393E+04  0.25500000920E-02 0. -1.
    10030    2    1    2    0    0  0.00000000000E+00  0.00000000000E+00 -0.79429090467E+03  0.24592863739E+04  0.23274860746E+04 0.  0.
        4    1    3    3  502    0  0.93096897860E+03  0.34682985968E+03  0.24322854711E+03  0.10228176425E+04  0.12699999809E+01 0.  1.
       -4    1    3    3    0  502 -0.93096897860E+03 -0.34682985968E+03 -0.10375194518E+04  0.14364687314E+04  0.12699999809E+01 0. -1.
</event>
<event>
 5   0  0.4095451E-05  0.2357292E+04  0.7818609E-02  0.8455668E-01
        1   -1    0    0  501    0  0.00000000000E+00  0.00000000000E+00  0.19393592228E+04  0.19393592228E+04  0.50400001928E-02 0. -1.
       -1   -1    0    0    0  501  0.00000000000E+00  0.00000000000E+00 -0.71632229694E+03  0.71632229696E+03  0.50400001928E-02 0.  1.
    10030    2    1    2    0    0  0.00000000000E+00  0.00000000000E+00  0.12230369259E+04  0.26556815198E+04  0.23572918810E+04 0.  0.
        3    1    3    3  502    0  0.11041837716E+04 -0.39667011020E+03  0.73816379308E+03  0.13861654928E+04  0.10100000352E+00 0. -1.
       -3    1    3    3    0  502 -0.11041837716E+04  0.39667011020E+03  0.48487313280E+03  0.12695160270E+04  0.10100000352E+00 0.  1.
</event>
<event>
 5   0  0.9641157E-05  0.2257244E+04  0.7818609E-02  0.8494973E-01
        2   -1    0    0  501    0  0.00000000000E+00  0.00000000000E+00  0.12792966110E+04  0.12792966110E+04  0.25500000920E-02 0.  1.
       -2   -1    0    0    0  501  0.00000000000E+00  0.00000000000E+00 -0.99569347112E+03  0.99569347113E+03  0.25500000920E-02 0. -1.
    10030    2    1    2    0    0  0.00000000000E+00  0.00000000000E+00  0.28360313986E+03  0.22749900821E+04  0.22572437026E+04 0.  0.
        3    1    3    3  502    0 -0.39572471494E+03 -0.27113836129E+02  0.12067326125E+04  0.12702506912E+04  0.10100000352E+00 0.  1.
       -3    1    3    3    0  502  0.39572471494E+03  0.27113836129E+02 -0.92312947268E+03  0.10047393909E+04  0.10100000352E+00 0. -1.
</event>
<event>
 5   0  0.9641157E-05  0.2235877E+04  0.7818609E-02  0.8503642E-01
       -2   -1    0    0    0  501  0.00000000000E+00  0.00000000000E+00  0.73299069930E+03  0.73299069930E+03  0.25500000920E-02 0.  1.
        2   -1    0    0  501    0  0.00000000000E+00  0.00000000000E+00 -0.17050511490E+04  0.17050511490E+04  0.25500000920E-02 0. -1.
    10030    2    1    2    0    0  0.00000000000E+00  0.00000000000E+00 -0.97206044973E+03  0.24380418483E+04  0.22358771291E+04 0.  0.
        3    1    3    3  502    0  0.58057469942E+03  0.23863387615E+03  0.52269444720E+03  0.81683695056E+03  0.10100000352E+00 0.  1.
       -3    1    3    3    0  502 -0.58057469942E+03 -0.23863387615E+03 -0.14947548969E+04  0.16212048978E+04  0.10100000352E+00 0. -1.
</event>
<event>
 5   0  0.4005462E-05  0.2290492E+04  0.7818609E-02  0.8481679E-01
       -1   -1    0    0    0  501  0.00000000000E+00  0.00000000000E+00  0.94165242800E+03  0.94165242802E+03  0.50400001928E-02 0. -1.
        1   -1    0    0  501    0  0.00000000000E+00  0.00000000000E+00 -0.13928585373E+04  0.13928585373E+04  0.50400001928E-02 0.  1.
    10030    2    1    2    0    0  0.00000000000E+00  0.00000000000E+00 -0.45120610927E+03  0.23345109653E+04  0.22904921947E+04 0.  0.
        4    1    3    3  502    0 -0.79075012403E+03 -0.82201891762E+03 -0.12073670634E+03  0.11469872819E+04  0.12699999809E+01 0.  1.
       -4    1    3    3    0  502  0.79075012403E+03  0.82201891762E+03 -0.33046940292E+03  0.11875236834E+04  0.12699999809E+01 0. -1.
</event>
<event>
 5   0  0.4139830E-05  0.2309231E+04  0.7818609E-02  0.8474290E-01
       -1   -1    0    0    0  501  0.00000000000E+00  0.00000000000E+00  0.14388532613E+04  0.14388532613E+04  0.50400001928E-02 0.  1.
        1   -1    0    0  501    0  0.00000000000E+00  0.00000000000E+00 -0.92652743670E+03  0.92652743671E+03  0.50400001928E-02 0. -1.
    10030    2    1    2    0    0  0.00000000000E+00  0.00000000000E+00  0.51232582457E+03  0.23653806980E+04  0.23092310616E+04 0.  0.
        1    1    3    3  502    0 -0.85876358575E+03 -0.73209906866E+03  0.59004823665E+01  0.11284851609E+04  0.50400001928E-02 0.  1.
       -1    1    3    3    0  502  0.85876358575E+03  0.73209906866E+03  0.50642534221E+03  0.12368955371E+04  0.50400001928E-02 0. -1.
</event>
<event>
 5   0  0.9313463E-05  0.2271587E+04  0.7818609E-02  0.8489209E-01
       -2   -1    0    0    0  501  0.00000000000E+00  0.00000000000E+00  0.75615761995E+03  0.75615761996E+03  0.25500000920E-02 0. -1.
        2   -1    0    0  501    0  0.00000000000E+00  0.00000000000E+00 -0.17060284442E+04  0.17060284442E+04  0.25500000920E-02 0.  1.
    10030    2    1    2    0    0  0.00000000000E+00  0.00000000000E+00 -0.94987082422E+03  0.24621860641E+04  0.22715865891E+04 0.  0.
        1    1    3    3  502    0  0.39606390937E+03  0.48846299347E+02 -0.16275376186E+04  0.16757479766E+04  0.50400001928E-02 0.  1.
       -1    1    3    3    0  502 -0.39606390937E+03 -0.48846299347E+02  0.67766679436E+03  0.78643808750E+03  0.50400001928E-02 0. -1.
</event>
<event>
 5   0  0.4005462E-05  0.2295001E+04  0.7818609E-02  0.8479895E-01
       -1   -1    0    0    0  501  0.00000000000E+00  0.00000000000E+00  0.94463330559E+03  0.94463330560E+03  0.50400001928E-02 0.  1.
        1   -1    0    0  501    0  0.00000000000E+00  0.00000000000E+00 -0.13939349200E+04  0.13939349200E+04  0.50400001928E-02 0. -1.
    10030    2    1    2    0    0  0.00000000000E+00  0.00000000000E+00 -0.44930161438E+03  0.23385682256E+04  0.22950009597E+04 0.  0.
        4    1    3    3  502    0 -0.85249657255E+03  0.81539070828E+02 -0.10029279443E+04  0.13188120035E+04  0.12699999809E+01 0. -1.
       -4    1    3    3    0  502  0.85249657255E+03 -0.81539070828E+02  0.55362632994E+03  0.10197562220E+04  0.12699999809E+01 0.  1.
</event>
<event>
 5   0  0.9483073E-05  0.2325466E+04  0.7818609E-02  0.8467947E-01
        2   -1    0    0  501    0  0.00000000000E+00  0.00000000000E+00  0.16192100116E+04  0.16192100116E+04  0.25500000920E-02 0.  1.
       -2   -1    0    0    0  501  0.00000000000E+00  0.00000000000E+00 -0.83494280409E+03  0.83494280410E+03  0.25500000920E-02 0. -1.
    10030    2    1    2    0    0  0.00000000000E+00  0.00000000000E+00  0.78426720747E+03  0.24541528157E+04  0.23254657576E+04 0.  0.
        5    1    3    3  502    0  0.34017780453E+03 -0.10873577550E+04  0.63704899821E+03  0.13053433810E+04  0.46999998093E+01 0.  1.
       -5    1    3    3    0  502 -0.34017780453E+03  0.10873577550E+04  0.14721820926E+03  0.11488094347E+04  0.46999998093E+01 0. -1.
</event>
<event>
 5   0  0.3885219E-05  0.1685953E+04  0.7818609E-02  0.8769417E-01
       -1   -1    0    0    0  501  0.00000000000E+00  0.00000000000E+00  0.60732690090E+03  0.60732690092E+03  0.50400001928E-02 0. -1.
        1   -1    0    0  501    0  0.00000000000E+00  0.00000000000E+00 -0.11700603495E+04  0.11700603495E+04  0.50400001928E-02 0.  1.
    10030    2    1    2    0    0  0.00000000000E+00  0.00000000000E+00 -0.56273344855E+03  0.17773872504E+04  0.16859526991E+04 0.  0.
        2    1    3    3  502    0 -0.13472110660E+03  0.62330536513E+03  0.29984930745E+03  0.70467649453E+03  0.25500000920E-02 0.  1.
       -2    1    3    3    0  502  0.13472110660E+03 -0.62330536513E+03 -0.86258275600E+03  0.10727107559E+04  0.25500000920E-02 0. -1.
</event>
<event>
 5   0  0.4295775E-05  0.2427869E+04  0.7818609E-02  0.8429143E-01
        1   -1    0    0  501    0  0.00000000000E+00  0.00000000000E+00  0.10406903987E+04  0.10406903987E+04  0.50400001928E-02 0. -1.
       -1   -1    0    0    0  501  0.00000000000E+00  0.00000000000E+00 -0.14160184256E+04  0.14160184256E+04  0.50400001928E-02 0.  1.
    10030    2    1    2    0    0  0.00000000000E+00  0.00000000000E+00 -0.37532802691E+03  0.24567088243E+04  0.24278688431E+04 0.  0.
        5    1    3    3  502    0 -0.49401214595E+02  0.94564502802E+03 -0.95624548199E+03  0.13457758026E+04  0.46999998093E+01 0.  1.
       -5    1    3    3    0  502  0.49401214595E+02 -0.94564502802E+03  0.58091745507E+03  0.11109330217E+04  0.46999998093E+01 0. -1.
</event>
<event>
 5   0  0.4139830E-05  0.2308340E+04  0.7818609E-02  0.8474640E-01
        1   -1    0    0  501    0  0.00000000000E+00  0.00000000000E+00  0.13764266117E+04  0.13764266117E+04  0.50400001928E-02 0.  1.
       -1   -1    0    0    0  501  0.00000000000E+00  0.00000000000E+00 -0.96780236706E+03  0.96780236707E+03  0.50400001928E-02 0. -1.
    10030    2    1    2    0    0  0.00000000000E+00  0.00000000000E+00  0.40862424461E+03  0.23442289788E+04  0.23083404713E+04 0.  0.
        1    1    3    3  502    0  0.98094079146E+03  0.57132915337E+02  0.81920059454E+03  0.12792961426E+04  0.50400001928E-02 0.  1.
       -1    1    3    3    0  502 -0.98094079146E+03 -0.57132915337E+02 -0.41057634992E+03  0.10649328362E+04  0.50400001928E-02 0. -1.
</event>
<event>
 5   0  0.9483073E-05  0.2291225E+04  0.7818609E-02  0.8481389E-01
        2   -1    0    0  501    0  0.00000000000E+00  0.00000000000E+00  0.11352159090E+04  0.11352159090E+04  0.25500000920E-02 0. -1.
       -2   -1    0    0    0  501  0.00000000000E+00  0.00000000000E+00 -0.11561041317E+04  0.11561041317E+04  0.25500000920E-02 0.  1.
    10030    2    1    2    0    0  0.00000000000E+00  0.00000000000E+00 -0.20888222614E+02  0.22913200407E+04  0.22912248277E+04 0.  0.
        5    1    3    3  502    0  0.27054495540E+03 -0.11124261665E+04 -0.51908636124E+02  0.11460380209E+04  0.46999998093E+01 0.  1.
       -5    1    3    3    0  502 -0.27054495540E+03  0.11124261665E+04  0.31020413510E+02  0.11452820198E+04  0.46999998093E+01 0. -1.
</event>
<event>
 5   0  0.3885219E-05  0.2307516E+04  0.7818609E-02  0.8474964E-01
        1   -1    0    0  501    0  0.00000000000E+00  0.00000000000E+00  0.13822515189E+04  0.13822515189E+04  0.50400001928E-02 0.  1.
       -1   -1    0    0    0  501  0.00000000000E+00  0.00000000000E+00 -0.96303559917E+03  0.96303559918E+03  0.50400001928E-02 0. -1.
    10030    2    1    2    0    0  0.00000000000E+00  0.00000000000E+00  0.41921591975E+03  0.23452871181E+04  0.23075159109E+04 0.  0.
        2    1    3    3  502    0  0.65818110310E+03 -0.52396260626E+03  0.10121006167E+04  0.13160877005E+04  0.25500000920E-02 0. -1.
       -2    1    3    3    0  502 -0.65818110310E+03  0.52396260626E+03 -0.59288469693E+03  0.10291994176E+04  0.25500000920E-02 0.  1.
</event>
<event>
 5   0  0.4095451E-05  0.1870621E+04  0.7818609E-02  0.8669620E-01
        1   -1    0    0  501    0  0.00000000000E+00  0.00000000000E+00  0.95403868900E+03  0.95403868902E+03  0.50400001928E-02 0.  1.
       -1   -1    0    0    0  501  0.00000000000E+00  0.00000000000E+00 -0.91695028949E+03  0.91695028950E+03  0.50400001928E-02 0. -1.
    10030    2    1    2    0    0  0.00000000000E+00  0.00000000000E+00  0.37088399515E+02  0.18709889785E+04  0.18706213429E+04 0.  0.
        3    1    3    3  502    0 -0.16159175589E+03 -0.56913421196E+03 -0.70601545059E+03  0.92113162658E+03  0.10100000352E+00 0. -1.
       -3    1    3    3    0  502  0.16159175589E+03  0.56913421196E+03  0.74310385011E+03  0.94985735195E+03  0.10100000352E+00 0.  1.
</event>
<event>
 5   0  0.9641157E-05  0.2204598E+04  0.7818609E-02  0.8516517E-01
       -2   -1    0    0    0  501  0.00000000000E+00  0.00000000000E+00  0.10301922647E+04  0.10301922647E+04  0.25500000920E-02 0.  1.
        2   -1    0    0  501    0  0.00000000000E+00  0.00000000000E+00 -0.11794529642E+04  0.11794529642E+04  0.25500000920E-02 0. -1.
    10030    2    1    2    0    0  0.00000000000E+00  0.00000000000E+00 -0.14926069951E+03  0.22096452289E+04  0.22045982131E+04 0.  0.
        3    1    3    3  502    0  0.88022079192E+02 -0.58516700206E+03 -0.10067567185E+04  0.11677873981E+04  0.10100000352E+00 0. -1.
       -3    1    3    3    0  502 -0.88022079192E+02  0.58516700206E+03  0.85749601904E+03  0.10418578308E+04  0.10100000352E+00 0.  1.
</event>
<event>
 5   0  0.9483073E-05  0.2284818E+04  0.7818609E-02  0.8483931E-01
        2   -1    0    0  501    0  0.00000000000E+00  0.00000000000E+00  0.11025928369E+04  0.11025928369E+04  0.25500000920E-02 0.  1.
       -2   -1    0    0    0  501  0.00000000000E+00  0.00000000000E+00 -0.11836633473E+04  0.11836633473E+04  0.25500000920E-02 0. -1.
    10030    2    1    2    0    0  0.00000000000E+00  0.00000000000E+00 -0.81070510403E+02  0.22862561842E+04  0.22848183543E+04 0.  0.
        5    1    3    3  502    0 -0.80455340789E+03  0.64964486993E+03 -0.52636318693E+03  0.11603555221E+04  0.46999998093E+01 0.  1.
       -5    1    3    3    0  502  0.80455340789E+03 -0.64964486993E+03  0.44529267653E+03  0.11259006621E+04  0.46999998093E+01 0. -1.
</event>
<event>
 5   0  0.9313463E-05  0.2220192E+04  0.7818609E-02  0.8510071E-01
       -2   -1    0    0    0  501  0.00000000000E+00  0.00000000000E+00  0.72877323881E+03  0.72877323882E+03  0.25500000920E-02 0.  1.
        2   -1    0    0  501    0  0.00000000000E+00  0.00000000000E+00 -0.16909411445E+04  0.16909411445E+04  0.25500000920E-02 0. -1.
    10030    2    1    2    0    0  0.00000000000E+00  0.00000000000E+00 -0.96216790569E+03  0.24197143833E+04  0.22201915724E+04 0.  0.
        1    1    3    3  502    0  0.60154593355E+01 -0.70865782060E+03  0.45015052993E+03  0.83956392971E+03  0.50400001928E-02 0.  1.
       -1    1    3    3    0  502 -0.60154593355E+01  0.70865782060E+03 -0.14123184356E+04  0.15801504536E+04  0.50400001928E-02 0. -1.
</event>
<event>
 5   0  0.4005462E-05  0.2276669E+04  0.7818609E-02  0.8487177E-01
       -1   -1    0    0    0  501  0.00000000000E+00  0.00000000000E+00  0.10124562190E+04  0.10124562191E+04  0.50400001928E-02 0. -1.
        1   -1    0    0  501    0  0.00000000000E+00  0.00000000000E+00 -0.12798633482E+04  0.12798633482E+04  0.50400001928E-02 0.  1.
    10030    2    1    2    0    0  0.00000000000E+00  0.00000000000E+00 -0.26740712915E+03  0.22923195673E+04  0.22766691516E+04 0.  0.
        4    1    3    3  502    0  0.28114149865E+03  0.71505732413E+03  0.71198479031E+03  0.10475072666E+04  0.12699999809E+01 0. -1.
       -4    1    3    3    0  502 -0.28114149865E+03 -0.71505732413E+03 -0.97939191946E+03  0.12448123007E+04  0.12699999809E+01 0.  1.
</event>
<event>
 5   0  0.4095451E-05  0.2261832E+04  0.7818609E-02  0.8493124E-01
        1   -1    0    0  501    0  0.00000000000E+00  0.00000000000E+00  0.15834274719E+04  0.15834274719E+04  0.50400001928E-02 0.  1.
       -1   -1    0    0    0  501  0.00000000000E+00  0.00000000000E+00 -0.80772293551E+03  0.80772293552E+03  0.50400001928E-02 0. -1.
    10030    2    1    2    0    0  0.00000000000E+00  0.00000000000E+00  0.77570453634E+03  0.23911504074E+04  0.22618317230E+04 0.  0.
        3    1    3    3  502    0  0.93736699359E+03 -0.25518674837E+03  0.99991284881E+03  0.13941315837E+04  0.10100000352E+00 0.  1.
       -3    1    3    3    0  502 -0.93736699359E+03  0.25518674837E+03 -0.22420831247E+03  0.99701882369E+03  0.10100000352E+00 0. -1.
</event>
<event>
 5   0  0.4139830E-05  0.2329156E+04  0.7818609E-02  0.8466513E-01
        1   -1    0    0  501    0  0.00000000000E+00  0.00000000000E+00  0.86196223062E+03  0.86196223063E+03  0.50400001928E-02 0. -1.
       -1   -1    0    0    0  501  0.00000000000E+00  0.00000000000E+00 -0.15734359356E+04  0.15734359356E+04  0.50400001928E-02 0.  1.
    10030    2    1    2    0    0  0.00000000000E+00  0.00000000000E+00 -0.71147370502E+03  0.24353981663E+04  0.23291563699E+04 0.  0.
        1    1    3    3  502    0  0.65547172880E+03 -0.22317892135E+02  0.65050070270E+03  0.92373829617E+03  0.50400001928E-02 0. -1.
       -1    1    3    3    0  502 -0.65547172880E+03  0.22317892135E+02 -0.13619744077E+04  0.15116598701E+04  0.50400001928E-02 0.  1.
</event>
<event>
 5   0  0.9535394E-05  0.2240844E+04  0.7818609E-02  0.8501618E-01
        2   -1    0    0  501    0  0.00000000000E+00  0.00000000000E+00  0.13318264370E+04  0.13318264370E+04  0.25500000920E-02 0. -1.
       -2   -1    0    0    0  501  0.00000000000E+00  0.00000000000E+00 -0.94257448278E+03  0.94257448279E+03  0.25500000920E-02 0.  1.
    10030    2    1    2    0    0  0.00000000000E+00  0.00000000000E+00  0.38925195419E+03  0.22744009198E+04  0.22408441400E+04 0.  0.
        2    1    3    3  502    0  0.88766020970E+03 -0.44451579669E+03  0.72183754980E+03  0.12274299938E+04  0.25500000920E-02 0. -1.
       -2    1    3    3    0  502 -0.88766020970E+03  0.44451579669E+03 -0.33258559561E+03  0.10469709260E+04  0.25500000920E-02 0.  1.
</event>
<event>
 5   0  0.4139830E-05  0.2309027E+04  0.7818609E-02  0.8474370E-01
        1   -1    0    0  501    0  0.00000000000E+00  0.00000000000E+00  0.13744098073E+04  0.13744098073E+04  0.50400001928E-02 0. -1.
       -1   -1    0    0    0  501  0.00000000000E+00  0.00000000000E+00 -0.96979909026E+03  0.96979909027E+03  0.50400001928E-02 0.  1.
    10030    2    1    2    0    0  0.00000000000E+00  0.00000000000E+00  0.40461071700E+03  0.23442088975E+04  0.23090269645E+04 0.  0.
        1    1    3    3  502    0 -0.41398134937E+03 -0.86367560582E+03 -0.45217614743E+03  0.10591408679E+04  0.50400001928E-02 0.  1.
       -1    1    3    3    0  502  0.41398134937E+03  0.86367560582E+03  0.85678686443E+03  0.12850680296E+04  0.50400001928E-02 0. -1.
</event>
<event>
 5   0  0.3885219E-05  0.2247611E+04  0.7818609E-02  0.8498868E-01
       -1   -1    0    0    0  501  0.00000000000E+00  0.00000000000E+00  0.26838024785E+04  0.26838024785E+04  0.50400001928E-02 0.  1.
        1   -1    0    0  501    0  0.00000000000E+00  0.00000000000E+00 -0.47057829426E+03  0.47057829429E+03  0.50400001928E-02 0. -1.
    10030    2    1    2    0    0  0.00000000000E+00  0.00000000000E+00  0.22132241843E+04  0.31543807728E+04  0.22476113477E+04 0.  0.
        2    1    3    3  502    0 -0.65870791546E+01 -0.10672079605E+04  0.16007394397E+04  0.19238874641E+04  0.25500000920E-02 0.  1.
       -2    1    3    3    0  502  0.65870791546E+01  0.10672079605E+04  0.61248474455E+03  0.12304933087E+04  0.25500000920E-02 0. -1.
</event>
<event>
 5   0  0.4005462E-05  0.2032212E+04  0.7818609E-02  0.8591707E-01
        1   -1    0    0  501    0  0.00000000000E+00  0.00000000000E+00  0.17031107438E+04  0.17031107439E+04  0.50400001928E-02 0.  1.
       -1   -1    0    0    0  501  0.00000000000E+00  0.00000000000E+00 -0.60622701670E+03  0.60622701672E+03  0.50400001928E-02 0. -1.
    10030    2    1    2    0    0  0.00000000000E+00  0.00000000000E+00  0.10968837271E+04  0.23093377606E+04  0.20322123367E+04 0.  0.
        4    1    3    3  502    0  0.11997318710E+03 -0.69955628995E+03  0.13747119460E+04  0.15471286682E+04  0.12699999809E+01 0.  1.
       -4    1    3    3    0  502 -0.11997318710E+03  0.69955628995E+03 -0.27782821888E+03  0.76220909240E+03  0.12699999809E+01 0. -1.
</event>
<event>
 5   0  0.9641157E-05  0.2274752E+04  0.7818609E-02  0.8487943E-01
       -2   -1    0    0    0  501  0.00000000000E+00  0.00000000000E+00  0.88888003554E+03  0.88888003554E+03  0.25500000920E-02 0.  1.
        2   -1    0    0  501    0  0.00000000000E+00  0.00000000000E+00 -0.14553417258E+04  0.14553417258E+04  0.25500000920E-02 0. -1.
    10030    2    1    2    0    0  0.00000000000E+00  0.00000000000E+00 -0.56646169031E+03  0.23442217614E+04  0.22747520348E+04 0.  0.
        3    1    3    3  502    0 -0.10428147564E+04 -0.78452132449E+02 -0.74410999043E+03  0.12834784927E+04  0.10100000352E+00 0. -1.
       -3    1    3    3    0  502  0.10428147564E+04  0.78452132449E+02  0.17764830012E+03  0.10607432687E+04  0.10100000352E+00 0.  1.
</event>
<event>
 5   0  0.9641157E-05  0.2224977E+04  0.7818609E-02  0.8508104E-01
        2   -1    0    0  501    0  0.00000000000E+00  0.00000000000E+00  0.10844859525E+04  0.10844859525E+04  0.25500000920E-02 0.  1.
       -2   -1    0    0    0  501  0.00000000000E+00  0.00000000000E+00 -0.11412138954E+04  0.11412138954E+04  0.25500000920E-02 0. -1.
    10030    2    1    2    0    0  0.00000000000E+00  0.00000000000E+00 -0.56727942923E+02  0.22256998479E+04  0.22249767984E+04 0.  0.
        3    1    3    3  502    0 -0.56325234659E+03  0.87972044673E+03 -0.41120123364E+03  0.11226075606E+04  0.10100000352E+00 0. -1.
       -3    1    3    3    0  502  0.56325234659E+03 -0.87972044673E+03  0.35447329072E+03  0.11030922873E+04  0.10100000352E+00 0.  1.
</event>
<event>
 5   0  0.3885219E-05  0.2301222E+04  0.7818609E-02  0.8477439E-01
       -1   -1    0    0    0  501  0.00000000000E+00  0.00000000000E+00  0.81067807274E+03  0.81067807275E+03  0.50400001928E-02 0.  1.
        1   -1    0    0  501    0  0.00000000000E+00  0.00000000000E+00 -0.16330843839E+04  0.16330843839E+04  0.50400001928E-02 0. -1.
    10030    2    1    2    0    0  0.00000000000E+00  0.00000000000E+00 -0.82240631119E+03  0.24437624567E+04  0.23012220241E+04 0.  0.
        2    1    3    3  502    0  0.33129013278E+03  0.39697705554E+02  0.75817523899E+03  0.82834700032E+03  0.25500000920E-02 0.  1.
       -2    1    3    3    0  502 -0.33129013278E+03 -0.39697705554E+02 -0.15805815502E+04  0.16154154564E+04  0.25500000920E-02 0. -1.
</event>
<event>
 5   0  0.4295775E-05  0.2220952E+04  0.7818609E-02  0.8509758E-01
        1   -1    0    0  501    0  0.00000000000E+00  0.00000000000E+00  0.13235531980E+04  0.13235531980E+04  0.50400001928E-02 0.  1.
       -1   -1    0    0    0  501  0.00000000000E+00  0.00000000000E+00 -0.93170175455E+03  0.93170175456E+03  0.50400001928E-02 0. -1.
    10030    2    1    2    0    0  0.00000000000E+00  0.00000000000E+00  0.39185144349E+03  0.22552549526E+04  0.22209519012E+04 0.  0.
        5    1    3    3  502    0  0.45978471821E+03 -0.81060200997E+03 -0.41726962915E+03  0.10210845406E+04  0.46999998093E+01 0. -1.
       -5    1    3    3    0  502 -0.45978471821E+03  0.81060200997E+03  0.80912107264E+03  0.12341704120E+04  0.46999998093E+01 0.  1.
</event>
<event>
 5   0  0.9483073E-05  0.2253800E+04  0.7818609E-02  0.8496363E-01
       -2   -1    0    0    0  501  0.00000000000E+00  0.00000000000E+00  0.49887329536E+03  0.49887329536E+03  0.25500000920E-02 0. -1.
        2   -1    0    0  501    0  0.00000000000E+00  0.00000000000E+00 -0.25455433765E+04  0.25455433765E+04  0.25500000920E-02 0.  1.
    10030    2    1    2    0    0  0.00000000000E+00  0.00000000000E+00 -0.20466700812E+04  0.30444166719E+04  0.22538000024E+04 0.  0.
        5    1    3    3  502    0 -0.87499469492E+03 -0.70050502547E+03 -0.11806227522E+04  0.16279481502E+04  0.46999998093E+01 0.  1.
       -5    1    3    3    0  502  0.87499469492E+03  0.70050502547E+03 -0.86604732899E+03  0.14164685217E+04  0.46999998093E+01 0. -1.
</event>
<event>
 5   0  0.9313463E-05  0.2340856E+04  0.7818609E-02  0.8461984E-01
        2   -1    0    0  501    0  0.00000000000E+00  0.00000000000E+00  0.10961927009E+04  0.10961927009E+04  0.25500000920E-02 0.  1.
       -2   -1    0    0    0  501  0.00000000000E+00  0.00000000000E+00 -0.12496900884E+04  0.12496900884E+04  0.25500000920E-02 0. -1.
    10030    2    1    2    0    0  0.00000000000E+00  0.00000000000E+00 -0.15349738750E+03  0.23458827894E+04  0.23408555303E+04 0.  0.
        1    1    3    3  502    0 -0.52226485931E+03  0.91335157493E+03 -0.59061640680E+03  0.12065651341E+04  0.50400001928E-02 0. -1.
       -1    1    3    3    0  502  0.52226485931E+03 -0.91335157493E+03  0.43711901930E+03  0.11393176553E+04  0.50400001928E-02 0.  1.
</event>
<event>
 5   0  0.3261500E-05  0.2274039E+04  0.7818609E-02  0.8488228E-01
       -3   -1    0    0    0  501  0.00000000000E+00  0.00000000000E+00  0.90541406854E+03  0.90541407418E+03  0.10100000352E+00 0.  1.
        3   -1    0    0  501    0  0.00000000000E+00  0.00000000000E+00 -0.14278692563E+04  0.14278692598E+04  0.10100000352E+00 0. -1.
    10030    2    1    2    0    0  0.00000000000E+00  0.00000000000E+00 -0.52245518772E+03  0.23332833340E+04  0.22740386306E+04 0.  0.
        2    1    3    3  502    0  0.48285987041E+03  0.63496040560E+03  0.57011856885E+03  0.98049148577E+03  0.25500000920E-02 0.  1.
       -2    1    3    3    0  502 -0.48285987041E+03 -0.63496040560E+03 -0.10925737566E+04  0.13527918482E+04  0.25500000920E-02 0. -1.
</event>
<event>
 5   0  0.4005462E-05  0.1986198E+04  0.7818609E-02  0.8613101E-01
       -1   -1    0    0    0  501  0.00000000000E+00  0.00000000000E+00  0.49209744600E+03  0.49209744602E+03  0.50400001928E-02 0. -1.
        1   -1    0    0  501    0  0.00000000000E+00  0.00000000000E+00 -0.20041664802E+04  0.20041664802E+04  0.50400001928E-02 0.  1.
    10030    2    1    2    0    0  0.00000000000E+00  0.00000000000E+00 -0.15120690342E+04  0.24962639262E+04  0.19861975796E+04 0.  0.
        4    1    3    3  502    0  0.14942790142E+03  0.95278453474E+03 -0.45831079404E+03  0.10677909272E+04  0.12699999809E+01 0. -1.
       -4    1    3    3    0  502 -0.14942790142E+03 -0.95278453474E+03 -0.10537582401E+04  0.14284729990E+04  0.12699999809E+01 0.  1.
</event>
<event>
 5   0  0.9312074E-05  0.2279580E+04  0.7818609E-02  0.8486016E-01
        2   -1    0    0  501    0  0.00000000000E+00  0.00000000000E+00  0.17826644464E+04  0.17826644464E+04  0.25500000920E-02 0.  1.
       -2   -1    0    0    0  501  0.00000000000E+00  0.00000000000E+00 -0.72875263047E+03  0.72875263048E+03  0.25500000920E-02 0. -1.
    10030    2    1    2    0    0  0.00000000000E+00  0.00000000000E+00  0.10539118159E+04  0.25114170769E+04  0.22795801408E+04 0.  0.
        4    1    3    3  502    0 -0.89234703525E+03  0.27696725170E+03  0.12461280281E+04  0.15575078700E+04  0.12699999809E+01 0.  1.
       -4    1    3    3    0  502  0.89234703525E+03 -0.27696725170E+03 -0.19221621216E+03  0.95390920687E+03  0.12699999809E+01 0. -1.
</event>
<event>
 5   0  0.9641157E-05  0.1571337E+04  0.7818609E-02  0.8838353E-01
       -2   -1    0    0    0  501  0.00000000000E+00  0.00000000000E+00  0.38775448293E+03  0.38775448294E+03  0.25500000920E-02 0.  1.
        2   -1    0    0  501    0  0.00000000000E+00  0.00000000000E+00 -0.15919227890E+04  0.15919227890E+04  0.25500000920E-02 0. -1.
    10030    2    1    2    0    0  0.00000000000E+00  0.00000000000E+00 -0.12041683061E+04  0.19796772720E+04  0.15713372623E+04 0.  0.
        3    1    3    3  502    0  0.22618822771E+03  0.78582088539E+02  0.34066319367E+03  0.41639846387E+03  0.10100000352E+00 0.  1.
       -3    1    3    3    0  502 -0.22618822771E+03 -0.78582088539E+02 -0.15448314998E+04  0.15632788081E+04  0.10100000352E+00 0. -1.
</event>
<event>
 5   0  0.9483073E-05  0.2344762E+04  0.7818609E-02  0.8460478E-01
       -2   -1    0    0    0  501  0.00000000000E+00  0.00000000000E+00  0.99611804568E+03  0.99611804568E+03  0.25500000920E-02 0.  1.
        2   -1    0    0  501    0  0.00000000000E+00  0.00000000000E+00 -0.13798333574E+04  0.13798333574E+04  0.25500000920E-02 0. -1.
    10030    2    1    2    0    0  0.00000000000E+00  0.00000000000E+00 -0.38371531176E+03  0.23759514031E+04  0.23447617426E+04 0.  0.
        5    1    3    3  502    0 -0.53439826835E+03  0.10311154772E+04 -0.29494631891E+02  0.11617541306E+04  0.46999998093E+01 0.  1.
       -5    1    3    3    0  502  0.53439826835E+03 -0.10311154772E+04 -0.35422067987E+03  0.12141972725E+04  0.46999998093E+01 0. -1.
</event>
<event>
 5   0  0.9483073E-05  0.2191227E+04  0.7818609E-02  0.8522088E-01
       -2   -1    0    0    0  501  0.00000000000E+00  0.00000000000E+00  0.11762199108E+04  0.11762199108E+04  0.25500000920E-02 0. -1.
        2   -1    0    0  501    0  0.00000000000E+00  0.00000000000E+00 -0.10205311417E+04  0.10205311417E+04  0.25500000920E-02 0.  1.
    10030    2    1    2    0    0  0.00000000000E+00  0.00000000000E+00  0.15568876904E+03  0.21967510525E+04  0.21912270978E+04 0.  0.
        5    1    3    3  502    0  0.26653565837E+03  0.10473927802E+04  0.25794711187E+03  0.11111398183E+04  0.46999998093E+01 0. -1.
       -5    1    3    3    0  502 -0.26653565837E+03 -0.10473927802E+04 -0.10225834283E+03  0.10856112342E+04  0.46999998093E+01 0.  1.
</event>
<event>
 5   0  0.9483073E-05  0.2320018E+04  0.7818609E-02  0.8470070E-01
        2   -1    0    0  501    0  0.00000000000E+00  0.00000000000E+00  0.13331168249E+04  0.13331168249E+04  0.25500000920E-02 0.  1.
       -2   -1    0    0    0  501  0.00000000000E+00  0.00000000000E+00 -0.10093793948E+04  0.10093793948E+04  0.25500000920E-02 0. -1.
    10030    2    1    2    0    0  0.00000000000E+00  0.00000000000E+00  0.32373743012E+03  0.23424962197E+04  0.23200178050E+04 0.  0.
        5    1    3    3  502    0  0.26527029668E+03 -0.13292926322E+02 -0.97825450325E+03  0.10136809140E+04  0.46999998093E+01 0. -1.
       -5    1    3    3    0  502 -0.26527029668E+03  0.13292926322E+02  0.13019919334E+04  0.13288153057E+04  0.46999998093E+01 0.  1.
</event>
<event>
 5   0  0.4295775E-05  0.2306555E+04  0.7818609E-02  0.8475341E-01
       -1   -1    0    0    0  501  0.00000000000E+00  0.00000000000E+00  0.18113539387E+04  0.18113539387E+04  0.50400001928E-02 0.  1.
        1   -1    0    0  501    0  0.00000000000E+00  0.00000000000E+00 -0.73428445071E+03  0.73428445073E+03  0.50400001928E-02 0. -1.
    10030    2    1    2    0    0  0.00000000000E+00  0.00000000000E+00  0.10770694880E+04  0.25456383894E+04  0.23065550346E+04 0.  0.
        5    1    3    3  502    0 -0.82540475527E+03  0.73313569884E+03  0.90664257069E+03  0.14285670457E+04  0.46999998093E+01 0.  1.
       -5    1    3    3    0  502  0.82540475527E+03 -0.73313569884E+03  0.17042691729E+03  0.11170713438E+04  0.46999998093E+01 0. -1.
</event>
<event>
 5   0  0.9313463E-05  0.2225721E+04  0.7818609E-02  0.8507798E-01
        2   -1    0    0  501    0  0.00000000000E+00  0.00000000000E+00  0.95305914551E+03  0.95305914552E+03  0.25500000920E-02 0.  1.
       -2   -1    0    0    0  501  0.00000000000E+00  0.00000000000E+00 -0.12994557317E+04  0.12994557317E+04  0.25500000920E-02 0. -1.
    10030    2    1    2    0    0  0.00000000000E+00  0.00000000000E+00 -0.34639658620E+03  0.22525148772E+04  0.22257207096E+04 0.  0.
        1    1    3    3  502    0  0.67909287290E+03  0.88158586672E+03 -0.18318618738E+03  0.11277933985E+04  0.50400001928E-02 0.  1.
       -1    1    3    3    0  502 -0.67909287290E+03 -0.88158586672E+03 -0.16321039883E+03  0.11247214787E+04  0.50400001928E-02 0. -1.
</event>
<event>
 5   0  0.3885219E-05  0.2341650E+04  0.7818609E-02  0.8461678E-01
        1   -1    0    0  501    0  0.00000000000E+00  0.00000000000E+00  0.14176711814E+04  0.14176711814E+04  0.50400001928E-02 0.  1.
       -1   -1    0    0    0  501  0.00000000000E+00  0.00000000000E+00 -0.96695998477E+03  0.96695998478E+03  0.50400001928E-02 0. -1.
    10030    2    1    2    0    0  0.00000000000E+00  0.00000000000E+00  0.45071119664E+03  0.23846311662E+04  0.23416501054E+04 0.  0.
        2    1    3    3  502    0 -0.68591105988E+03 -0.16869451407E+03  0.11762502910E+04  0.13720410228E+04  0.25500000920E-02 0.  1.
       -2    1    3    3    0  502  0.68591105988E+03  0.16869451407E+03 -0.72553909433E+03  0.10125901434E+04  0.25500000920E-02 0. -1.
</event>
<event>
 5   0  0.3885219E-05  0.2309526E+04  0.7818609E-02  0.8474175E-01
       -1   -1    0    0    0  501  0.00000000000E+00  0.00000000000E+00  0.12010781787E+04  0.12010781787E+04  0.50400001928E-02 0. -1.
        1   -1    0    0  501    0  0.00000000000E+00  0.00000000000E+00 -0.11102339280E+04  0.11102339280E+04  0.50400001928E-02 0.  1.
    10030    2    1    2    0    0  0.00000000000E+00  0.00000000000E+00  0.90844250710E+02  0.23113121066E+04  0.23095261368E+04 0.  0.
        2    1    3    3  502    0  0.64447792439E+03  0.91500197903E+03 -0.23922237673E+03  0.11444683317E+04  0.25500000920E-02 0.  1.
       -2    1    3    3    0  502 -0.64447792439E+03 -0.91500197903E+03  0.33006662744E+03  0.11668437750E+04  0.25500000920E-02 0. -1.
</event>
<event>
 5   0  0.4095451E-05  0.2312778E+04  0.7818609E-02  0.8472900E-01
       -1   -1    0    0    0  501  0.00000000000E+00  0.00000000000E+00  0.20308153977E+04  0.20308153977E+04  0.50400001928E-02 0. -1.
        1   -1    0    0  501    0  0.00000000000E+00  0.00000000000E+00 -0.65847231009E+03  0.65847231011E+03  0.50400001928E-02 0.  1.
    10030    2    1    2    0    0  0.00000000000E+00  0.00000000000E+00  0.13723430877E+04  0.26892877079E+04  0.23127781617E+04 0.  0.
        3    1    3    3  502    0 -0.49180085097E+03  0.98273939575E+03  0.11047631743E+04  0.15582510961E+04  0.10100000352E+00 0.  1.
       -3    1    3    3    0  502  0.49180085097E+03 -0.98273939575E+03  0.26757991340E+03  0.11310366118E+04  0.10100000352E+00 0. -1.
</event>
<event>
 5   0  0.9313463E-05  0.2278352E+04  0.7818609E-02  0.8486506E-01
        2   -1    0    0  501    0  0.00000000000E+00  0.00000000000E+00  0.15239444576E+04  0.15239444576E+04  0.25500000920E-02 0. -1.
       -2   -1    0    0    0  501  0.00000000000E+00  0.00000000000E+00 -0.85155454089E+03  0.85155454089E+03  0.25500000920E-02 0.  1.
    10030    2    1    2    0    0  0.00000000000E+00  0.00000000000E+00  0.67238991666E+03  0.23754989984E+04  0.22783518805E+04 0.  0.
        1    1    3    3  502    0 -0.55107770835E+03  0.69954677425E+03  0.10768868292E+04  0.13974038690E+04  0.50400001928E-02 0. -1.
       -1    1    3    3    0  502  0.55107770835E+03 -0.69954677425E+03 -0.40449691257E+03  0.97809512948E+03  0.50400001928E-02 0.  1.
</event>
<event>
 5   0  0.4005462E-05  0.2297416E+04  0.7818609E-02  0.8478941E-01
       -1   -1    0    0    0  501  0.00000000000E+00  0.00000000000E+00  0.14470651960E+04  0.14470651960E+04  0.50400001928E-02 0. -1.
        1   -1    0    0  501    0  0.00000000000E+00  0.00000000000E+00 -0.91186650545E+03  0.91186650546E+03  0.50400001928E-02 0.  1.
    10030    2    1    2    0    0  0.00000000000E+00  0.00000000000E+00  0.53519869055E+03  0.23589317015E+04  0.22974161865E+04 0.  0.
        4    1    3    3  502    0 -0.11076608383E+04  0.29282405278E+03  0.35270545892E+03  0.11987748797E+04  0.12699999809E+01 0.  1.
       -4    1    3    3    0  502  0.11076608383E+04 -0.29282405278E+03  0.18249323164E+03  0.11601568218E+04  0.12699999809E+01 0. -1.
</event>
<event>
 5   0  0.4005462E-05  0.2254679E+04  0.7818609E-02  0.8496008E-01
        1   -1    0    0  501    0  0.00000000000E+00  0.00000000000E+00  0.21177956387E+04  0.21177956387E+04  0.50400001928E-02 0. -1.
       -1   -1    0    0    0  501  0.00000000000E+00  0.00000000000E+00 -0.60010269229E+03  0.60010269231E+03  0.50400001928E-02 0.  1.
    10030    2    1    2    0    0  0.00000000000E+00  0.00000000000E+00  0.15176929464E+04  0.27178983311E+04  0.22546794580E+04 0.  0.
        4    1    3    3  502    0 -0.53801600572E+03 -0.15943471904E+03  0.19374838436E+04  0.20171083038E+04  0.12699999809E+01 0. -1.
       -4    1    3    3    0  502  0.53801600572E+03  0.15943471904E+03 -0.41979089718E+03  0.70079002726E+03  0.12699999809E+01 0.  1.
</event>
<event>
 5   0  0.4295775E-05  0.2301027E+04  0.7818609E-02  0.8477516E-01
        1   -1    0    0  501    0  0.00000000000E+00  0.00000000000E+00  0.14491404503E+04  0.14491404503E+04  0.50400001928E-02 0. -1.
       -1   -1    0    0    0  501  0.00000000000E+00  0.00000000000E+00 -0.91342532116E+03  0.91342532117E+03  0.50400001928E-02 0.  1.
    10030    2    1    2    0    0  0.00000000000E+00  0.00000000000E+00  0.53571512915E+03  0.23625657715E+04  0.23010272326E+04 0.  0.
        5    1    3    3  502    0 -0.97322358784E+03  0.11260456188E+03 -0.35144485824E+03  0.10408551857E+04  0.46999998093E+01 0.  1.
       -5    1    3    3    0  502  0.97322358784E+03 -0.11260456188E+03  0.88715998739E+03  0.13217105858E+04  0.46999998093E+01 0. -1.
</event>
<event>
 5   0  0.9535394E-05  0.2255293E+04  0.7818609E-02  0.8495760E-01
       -2   -1    0    0    0  501  0.00000000000E+00  0.00000000000E+00  0.50638423745E+03  0.50638423746E+03  0.25500000920E-02 0.  1.
        2   -1    0    0  501    0  0.00000000000E+00  0.00000000000E+00 -0.25111106021E+04  0.25111106021E+04  0.25500000920E-02 0. -1.
    10030    2    1    2    0    0  0.00000000000E+00  0.00000000000E+00 -0.20047263646E+04  0.30174948395E+04  0.22552931760E+04 0.  0.
        2    1    3    3  502    0  0.34916026085E+03  0.34818261801E+03 -0.23592186909E+04  0.24101985094E+04  0.25500000920E-02 0. -1.
       -2    1    3    3    0  502 -0.34916026085E+03 -0.34818261801E+03  0.35449232625E+03  0.60729633016E+03  0.25500000920E-02 0.  1.
</event>
<event>
 5   0  0.9312074E-05  0.2287861E+04  0.7818609E-02  0.8482723E-01
       -2   -1    0    0    0  501  0.00000000000E+00  0.00000000000E+00  0.96631191979E+03  0.96631191979E+03  0.25500000920E-02 0. -1.
        2   -1    0    0  501    0  0.00000000000E+00  0.00000000000E+00 -0.13541971159E+04  0.13541971159E+04  0.25500000920E-02 0.  1.
    10030    2    1    2    0    0  0.00000000000E+00  0.00000000000E+00 -0.38788519608E+03  0.23205090357E+04  0.22878608479E+04 0.  0.
        4    1    3    3  502    0 -0.72890323624E+03 -0.86160529835E+03 -0.44298478086E+01  0.11285764726E+04  0.12699999809E+01 0.  1.
       -4    1    3    3    0  502  0.72890323624E+03  0.86160529835E+03 -0.38345534827E+03  0.11919325631E+04  0.12699999809E+01 0. -1.
</event>
<event>
 5   0  0.9483073E-05  0.2334145E+04  0.7818609E-02  0.8464578E-01
        2   -1    0    0  501    0  0.00000000000E+00  0.00000000000E+00  0.16978608424E+04  0.16978608424E+04  0.25500000920E-02 0. -1.
       -2   -1    0    0    0  501  0.00000000000E+00  0.00000000000E+00 -0.80222045108E+03  0.80222045108E+03  0.25500000920E-02 0.  1.
    10030    2    1    2    0    0  0.00000000000E+00  0.00000000000E+00  0.89564039133E+03  0.25000812935E+04  0.23341454032E+04 0.  0.
        5    1    3    3  502    0  0.21260844268E+03 -0.69324748185E+03  0.14272927221E+04  0.16009312994E+04  0.46999998093E+01 0. -1.
       -5    1    3    3    0  502 -0.21260844268E+03  0.69324748185E+03 -0.53165233076E+03  0.89914999405E+03  0.46999998093E+01 0.  1.
</event>
<event>
 5   0  0.9641157E-05  0.1986238E+04  0.7818609E-02  0.8613082E-01
       -2   -1    0    0    0  501  0.00000000000E+00  0.00000000000E+00  0.11422895156E+04  0.11422895156E+04  0.25500000920E-02 0.  1.
        2   -1    0    0  501    0  0.00000000000E+00  0.00000000000E+00 -0.86342892826E+03  0.86342892827E+03  0.25500000920E-02 0. -1.
    10030    2    1    2    0    0  0.00000000000E+00  0.00000000000E+00  0.27886058729E+03  0.20057184438E+04  0.19862384672E+04 0.  0.
        3    1    3    3  502    0 -0.75349715320E+03 -0.54919232438E+03  0.48471303583E+03  0.10508648373E+04  0.10100000352E+00 0.  1.
       -3    1    3    3    0  502  0.75349715320E+03  0.54919232438E+03 -0.20585244855E+03  0.95485360648E+03  0.10100000352E+00 0. -1.
</event>
<event>
 5   0  0.9483073E-05  0.2188686E+04  0.7818609E-02  0.8523152E-01
       -2   -1    0    0    0  501  0.00000000000E+00  0.00000000000E+00  0.96477279817E+03  0.96477279817E+03  0.25500000920E-02 0.  1.
        2   -1    0    0  501    0  0.00000000000E+00  0.00000000000E+00 -0.12413142077E+04  0.12413142077E+04  0.25500000920E-02 0. -1.
    10030    2    1    2    0    0  0.00000000000E+00  0.00000000000E+00 -0.27654140955E+03  0.22060870059E+04  0.21886856161E+04 0.  0.
        5    1    3    3  502    0 -0.18410741602E+03  0.10676404129E+04  0.17269170896E+02  0.10835459870E+04  0.46999998093E+01 0.  1.
       -5    1    3    3    0  502  0.18410741602E+03 -0.10676404129E+04 -0.29381058044E+03  0.11225410188E+04  0.46999998093E+01 0. -1.
</event>
<event>
 5   0  0.9535394E-05  0.2363143E+04  0.7818609E-02  0.8453433E-01
        2   -1    0    0  501    0  0.00000000000E+00  0.00000000000E+00  0.22641882836E+04  0.22641882836E+04  0.25500000920E-02 0.  1.
       -2   -1    0    0    0  501  0.00000000000E+00  0.00000000000E+00 -0.61660568694E+03  0.61660568694E+03  0.25500000920E-02 0. -1.
    10030    2    1    2    0    0  0.00000000000E+00  0.00000000000E+00  0.16475825967E+04  0.28807939706E+04  0.23631431374E+04 0.  0.
        2    1    3    3  502    0  0.48625427016E+03  0.59628299301E+03 -0.26936229171E+03  0.81520099804E+03  0.25500000920E-02 0. -1.
       -2    1    3    3    0  502 -0.48625427016E+03 -0.59628299301E+03  0.19169448884E+04  0.20655929725E+04  0.25500000920E-02 0.  1.
</event>
<event>
 5   0  0.4139830E-05  0.2248862E+04  0.7818609E-02  0.8498362E-01
       -1   -1    0    0    0  501  0.00000000000E+00  0.00000000000E+00  0.94288794070E+03  0.94288794071E+03  0.50400001928E-02 0. -1.
        1   -1    0    0  501    0  0.00000000000E+00  0.00000000000E+00 -0.13409277202E+04  0.13409277202E+04  0.50400001928E-02 0.  1.
    10030    2    1    2    0    0  0.00000000000E+00  0.00000000000E+00 -0.39803977947E+03  0.22838156609E+04  0.22488615580E+04 0.  0.
        1    1    3    3  502    0 -0.10649597365E+04 -0.61850329384E+02  0.16200511600E+03  0.10789858021E+04  0.50400001928E-02 0.  1.
       -1    1    3    3    0  502  0.10649597365E+04  0.61850329384E+02 -0.56004489547E+03  0.12048298588E+04  0.50400001928E-02 0. -1.
</event>
<event>
 5   0  0.4005462E-05  0.2302635E+04  0.7818609E-02  0.8476883E-01
        1   -1    0    0  501    0  0.00000000000E+00  0.00000000000E+00  0.12011853834E+04  0.12011853834E+04  0.50400001928E-02 0.  1.
       -1   -1    0    0    0  501  0.00000000000E+00  0.00000000000E+00 -0.11035197212E+04  0.11035197212E+04  0.50400001928E-02 0. -1.
    10030    2    1    2    0    0  0.00000000000E+00  0.00000000000E+00  0.97665662136E+02  0.23047051046E+04  0.23026348034E+04 0.  0.
        4    1    3    3  502    0 -0.18666182230E+03 -0.88900470041E+03 -0.65916314546E+03  0.11223500606E+04  0.12699999809E+01 0. -1.
       -4    1    3    3    0  502  0.18666182230E+03  0.88900470041E+03  0.75682880760E+03  0.11823550440E+04  0.12699999809E+01 0.  1.
</event>
<event>
 5   0  0.9312074E-05  0.2314647E+04  0.7818609E-02  0.8472168E-01
       -2   -1    0    0    0  501  0.00000000000E+00  0.00000000000E+00  0.97603224280E+03  0.97603224281E+03  0.25500000920E-02 0. -1.
        2   -1    0    0  501    0  0.00000000000E+00  0.00000000000E+00 -0.13722885254E+04  0.13722885254E+04  0.25500000920E-02 0.  1.
    10030    2    1    2    0    0  0.00000000000E+00  0.00000000000E+00 -0.39625628257E+03  0.23483207682E+04  0.23146471413E+04 0.  0.
        4    1    3    3  502    0 -0.80214888974E+03  0.64385780713E+03 -0.73631745561E+03  0.12649745948E+04  0.12699999809E+01 0.  1.
       -4    1    3    3    0  502  0.80214888974E+03 -0.64385780713E+03  0.34006117304E+03  0.10833461734E+04  0.12699999809E+01 0. -1.
</event>
<event>
 5   0  0.9312074E-05  0.2096053E+04  0.7818609E-02  0.8562984E-01
        2   -1    0    0  501    0  0.00000000000E+00  0.00000000000E+00  0.17578696559E+04  0.17578696559E+04  0.25500000920E-02 0. -1.
       -2   -1    0    0    0  501  0.00000000000E+00  0.00000000000E+00 -0.62482395779E+03  0.62482395779E+03  0.25500000920E-02 0.  1.
    10030    2    1    2    0    0  0.00000000000E+00  0.00000000000E+00  0.11330456981E+04  0.23826936137E+04  0.20960525525E+04 0.  0.
        4    1    3    3  502    0 -0.52323621732E+03 -0.65166919972E+03  0.12853862836E+04  0.15331889629E+04  0.12699999809E+01 0. -1.
       -4    1    3    3    0  502  0.52323621732E+03  0.65166919972E+03 -0.15234058542E+03  0.84950465086E+03  0.12699999809E+01 0.  1.
</event>
<event>
 5   0  0.3885219E-05  0.2294311E+04  0.7818609E-02  0.8480168E-01
       -1   -1    0    0    0  501  0.00000000000E+00  0.00000000000E+00  0.13725282100E+04  0.13725282100E+04  0.50400001928E-02 0.  1.
        1   -1    0    0  501    0  0.00000000000E+00  0.00000000000E+00 -0.95878921439E+03  0.95878921440E+03  0.50400001928E-02 0. -1.
    10030    2    1    2    0    0  0.00000000000E+00  0.00000000000E+00  0.41373899559E+03  0.23313174244E+04  0.22943105668E+04 0.  0.
        2    1    3    3  502    0  0.72287217617E+03 -0.62601218414E+03  0.85075418818E+03  0.12799289537E+04  0.25500000920E-02 0.  1.
       -2    1    3    3    0  502 -0.72287217617E+03  0.62601218414E+03 -0.43701519259E+03  0.10513884707E+04  0.25500000920E-02 0. -1.
</event>
<event>
 5   0  0.3885219E-05  0.2175525E+04  0.7818609E-02  0.8528685E-01
       -1   -1    0    0    0  501  0.00000000000E+00  0.00000000000E+00  0.89720228776E+03  0.89720228777E+03  0.50400001928E-02 0.  1.
        1   -1    0    0  501    0  0.00000000000E+00  0.00000000000E+00 -0.13187966384E+04  0.13187966384E+04  0.50400001928E-02 0. -1.
    10030    2    1    2    0    0  0.00000000000E+00  0.00000000000E+00 -0.42159435063E+03  0.22159989262E+04  0.21755250962E+04 0.  0.
        2    1    3    3  502    0  0.55697862641E+03 -0.38243798457E+03 -0.10791495252E+04  0.12732037151E+04  0.25500000920E-02 0. -1.
       -2    1    3    3    0  502 -0.55697862641E+03  0.38243798457E+03  0.65755517462E+03  0.94279521106E+03  0.25500000920E-02 0.  1.
</event>
<event>
 5   0  0.9535394E-05  0.2262748E+04  0.7818609E-02  0.8492755E-01
       -2   -1    0    0    0  501  0.00000000000E+00  0.00000000000E+00  0.91773433403E+03  0.91773433403E+03  0.25500000920E-02 0.  1.
        2   -1    0    0  501    0  0.00000000000E+00  0.00000000000E+00 -0.13947474528E+04  0.13947474528E+04  0.25500000920E-02 0. -1.
    10030    2    1    2    0    0  0.00000000000E+00  0.00000000000E+00 -0.47701311882E+03  0.23124817869E+04  0.22627484392E+04 0.  0.
        2    1    3    3  502    0 -0.50472879607E+03 -0.17709472123E+03 -0.12573608187E+04  0.13664076721E+04  0.25500000920E-02 0. -1.
       -2    1    3    3    0  502  0.50472879607E+03  0.17709472123E+03  0.78034769992E+03  0.94607411478E+03  0.25500000920E-02 0.  1.
</event>
<event>
 5   0  0.9641157E-05  0.2277616E+04  0.7818609E-02  0.8486799E-01
        2   -1    0    0  501    0  0.00000000000E+00  0.00000000000E+00  0.77452162940E+03  0.77452162941E+03  0.25500000920E-02 0.  1.
       -2   -1    0    0    0  501  0.00000000000E+00  0.00000000000E+00 -0.16744316897E+04  0.16744316897E+04  0.25500000920E-02 0. -1.
    10030    2    1    2    0    0  0.00000000000E+00  0.00000000000E+00 -0.89991006032E+03  0.24489533191E+04  0.22776159120E+04 0.  0.
        3    1    3    3  502    0  0.52868669982E+03 -0.93523936732E+02  0.62989975197E+03  0.82766542820E+03  0.10100000352E+00 0.  1.
       -3    1    3    3    0  502 -0.52868669982E+03  0.93523936732E+02 -0.15298098123E+04  0.16212878909E+04  0.10100000352E+00 0. -1.
</event>
<event>
 5   0  0.9535394E-05  0.2318634E+04  0.7818609E-02  0.8470610E-01
       -2   -1    0    0    0  501  0.00000000000E+00  0.00000000000E+00  0.50528361350E+03  0.50528361351E+03  0.25500000920E-02 0. -1.
        2   -1    0    0  501    0  0.00000000000E+00  0.00000000000E+00 -0.26599228698E+04  0.26599228698E+04  0.25500000920E-02 0.  1.
    10030    2    1    2    0    0  0.00000000000E+00  0.00000000000E+00 -0.21546392563E+04  0.31652064833E+04  0.23186335970E+04 0.  0.
        2    1    3    3  502    0 -0.19196281150E+03  0.97200316615E+03 -0.18990879086E+04  0.21420025118E+04  0.25500000920E-02 0.  1.
       -2    1    3    3    0  502  0.19196281150E+03 -0.97200316615E+03 -0.25555134774E+03  0.10232039715E+04  0.25500000920E-02 0. -1.
</event>
<event>
 5   0  0.9313463E-05  0.2266587E+04  0.7818609E-02  0.8491213E-01
        2   -1    0    0  501    0  0.00000000000E+00  0.00000000000E+00  0.21420789875E+04  0.21420789875E+04  0.25500000920E-02 0.  1.
       -2   -1    0    0    0  501  0.00000000000E+00  0.00000000000E+00 -0.59958297105E+03  0.59958297105E+03  0.25500000920E-02 0. -1.
    10030    2    1    2    0    0  0.00000000000E+00  0.00000000000E+00  0.15424960164E+04  0.27416619585E+04  0.22665869351E+04 0.  0.
        1    1    3    3  502    0  0.10591510996E+04 -0.62589085851E+02  0.12530203957E+04  0.16418826260E+04  0.50400001928E-02 0.  1.
       -1    1    3    3    0  502 -0.10591510996E+04  0.62589085851E+02  0.28947562073E+03  0.10997793326E+04  0.50400001928E-02 0. -1.
</event>
<event>
 5   0  0.4295775E-05  0.2210661E+04  0.7818609E-02  0.8514004E-01
        1   -1    0    0  501    0  0.00000000000E+00  0.00000000000E+00  0.66756391614E+03  0.66756391616E+03  0.50400001928E-02 0.  1.
       -1   -1    0    0    0  501  0.00000000000E+00  0.00000000000E+00 -0.18301701559E+04  0.18301701559E+04  0.50400001928E-02 0. -1.
    10030    2    1    2    0    0  0.00000000000E+00  0.00000000000E+00 -0.11626062397E+04  0.24977340720E+04  0.22106610382E+04 0.  0.
        5    1    3    3  502    0  0.34533261154E+03 -0.25785748761E+02  0.60467908920E+03  0.69683456311E+03  0.46999998093E+01 0.  1.
       -5    1    3    3    0  502 -0.34533261154E+03  0.25785748761E+02 -0.17672853289E+04  0.18008995089E+04  0.46999998093E+01 0. -1.
</event>
<event>
 5   0  0.9483073E-05  0.2243591E+04  0.7818609E-02  0.8500500E-01
        2   -1    0    0  501    0  0.00000000000E+00  0.00000000000E+00  0.12593586151E+04  0.12593586151E+04  0.25500000920E-02 0.  1.
       -2   -1    0    0    0  501  0.00000000000E+00  0.00000000000E+00 -0.99925903527E+03  0.99925903527E+03  0.25500000920E-02 0. -1.
    10030    2    1    2    0    0  0.00000000000E+00  0.00000000000E+00  0.26009957985E+03  0.22586176504E+04  0.22435912951E+04 0.  0.
        5    1    3    3  502    0  0.21135849015E+03  0.29662318549E+03 -0.93806791007E+03  0.10063057286E+04  0.46999998093E+01 0. -1.
       -5    1    3    3    0  502 -0.21135849015E+03 -0.29662318549E+03  0.11981674899E+04  0.12523119218E+04  0.46999998093E+01 0.  1.
</event>
<event>
 5   0  0.9312074E-05  0.2318207E+04  0.7818609E-02  0.8470777E-01
       -2   -1    0    0    0  501  0.00000000000E+00  0.00000000000E+00  0.15347906413E+04  0.15347906413E+04  0.25500000920E-02 0.  1.
        2   -1    0    0  501    0  0.00000000000E+00  0.00000000000E+00 -0.87537708815E+03  0.87537708815E+03  0.25500000920E-02 0. -1.
    10030    2    1    2    0    0  0.00000000000E+00  0.00000000000E+00  0.65941355312E+03  0.24101677294E+04  0.23182066883E+04 0.  0.
        4    1    3    3  502    0 -0.18680940560E+03  0.63692518218E+03 -0.65822365777E+03  0.93478951549E+03  0.12699999809E+01 0. -1.
       -4    1    3    3    0  502  0.18680940560E+03 -0.63692518218E+03  0.13176372109E+04  0.14753782139E+04  0.12699999809E+01 0.  1.
</event>
<event>
 5   0  0.9535394E-05  0.1562673E+04  0.7818609E-02  0.8843813E-01
        2   -1    0    0  501    0  0.00000000000E+00  0.00000000000E+00  0.85130899512E+03  0.85130899512E+03  0.25500000920E-02 0. -1.
       -2   -1    0    0    0  501  0.00000000000E+00  0.00000000000E+00 -0.71711560705E+03  0.71711560705E+03  0.25500000920E-02 0.  1.
    10030    2    1    2    0    0  0.00000000000E+00  0.00000000000E+00  0.13419338807E+03  0.15684246022E+04  0.15626733079E+04 0.  0.
        2    1    3    3  502    0  0.62774029777E+03 -0.44239699200E+03  0.21154993826E+03  0.79657162664E+03  0.25500000920E-02 0. -1.
       -2    1    3    3    0  502 -0.62774029777E+03  0.44239699200E+03 -0.77356550185E+02  0.77185297554E+03  0.25500000920E-02 0.  1.
</event>
<event>
 5   0  0.4095451E-05  0.2328098E+04  0.7818609E-02  0.8466924E-01
        1   -1    0    0  501    0  0.00000000000E+00  0.00000000000E+00  0.24226134764E+04  0.24226134764E+04  0.50400001928E-02 0. -1.
       -1   -1    0    0    0  501  0.00000000000E+00  0.00000000000E+00 -0.55931768475E+03  0.55931768477E+03  0.50400001928E-02 0.  1.
    10030    2    1    2    0    0  0.00000000000E+00  0.00000000000E+00  0.18632957917E+04  0.29819311612E+04  0.23280984178E+04 0.  0.
        3    1    3    3  502    0 -0.90969197153E+03 -0.22099751394E+03  0.18177765187E+04  0.20446737800E+04  0.10100000352E+00 0. -1.
       -3    1    3    3    0  502  0.90969197153E+03  0.22099751394E+03  0.45519272930E+02  0.93725738122E+03  0.10100000352E+00 0.  1.
</event>
<event>
 5   0  0.4295775E-05  0.2339779E+04  0.7818609E-02  0.8462400E-01
       -1   -1    0    0    0  501  0.00000000000E+00  0.00000000000E+00  0.12332885335E+04  0.12332885336E+04  0.50400001928E-02 0. -1.
        1   -1    0    0  501    0  0.00000000000E+00  0.00000000000E+00 -0.11097491885E+04  0.11097491885E+04  0.50400001928E-02 0.  1.
    10030    2    1    2    0    0  0.00000000000E+00  0.00000000000E+00  0.12353934507E+03  0.23430377220E+04  0.23397785787E+04 0.  0.
        5    1    3    3  502    0  0.15377666318E+03 -0.99990234460E+03 -0.52655774777E+03  0.11404986245E+04  0.46999998093E+01 0.  1.
       -5    1    3    3    0  502 -0.15377666318E+03  0.99990234460E+03  0.65009709284E+03  0.12025390975E+04  0.46999998093E+01 0. -1.
</event>
<event>
 5   0  0.9313463E-05  0.2174612E+04  0.7818609E-02  0.8529070E-01
       -2   -1    0    0    0  501  0.00000000000E+00  0.00000000000E+00  0.50123984456E+03  0.50123984457E+03  0.25500000920E-02 0.  1.
        2   -1    0    0  501    0  0.00000000000E+00  0.00000000000E+00 -0.23586202178E+04  0.23586202178E+04  0.25500000920E-02 0. -1.
    10030    2    1    2    0    0  0.00000000000E+00  0.00000000000E+00 -0.18573803733E+04  0.28598600624E+04  0.21746120862E+04 0.  0.
        1    1    3    3  502    0  0.26286157583E+03  0.37329146996E+03 -0.22264550756E+04  0.22727835210E+04  0.50400001928E-02 0. -1.
       -1    1    3    3    0  502 -0.26286157583E+03 -0.37329146996E+03  0.36907470231E+03  0.58707654143E+03  0.50400001928E-02 0.  1.
</event>
<event>
 5   0  0.9483073E-05  0.2312471E+04  0.7818609E-02  0.8473020E-01
       -2   -1    0    0    0  501  0.00000000000E+00  0.00000000000E+00  0.52473927711E+03  0.52473927712E+03  0.25500000920E-02 0. -1.
        2   -1    0    0  501    0  0.00000000000E+00  0.00000000000E+00 -0.25477052184E+04  0.25477052184E+04  0.25500000920E-02 0.  1.
    10030    2    1    2    0    0  0.00000000000E+00  0.00000000000E+00 -0.20229659413E+04  0.30724444955E+04  0.23124714005E+04 0.  0.
        5    1    3    3  502    0 -0.17863574224E+03 -0.11420493865E+04 -0.97705667958E+03  0.15135552103E+04  0.46999998093E+01 0. -1.
       -5    1    3    3    0  502  0.17863574224E+03  0.11420493865E+04 -0.10459092617E+04  0.15588892851E+04  0.46999998093E+01 0.  1.
</event>
<event>
 5   0  0.9483073E-05  0.2306063E+04  0.7818609E-02  0.8475535E-01
        2   -1    0    0  501    0  0.00000000000E+00  0.00000000000E+00  0.10662962964E+04  0.10662962964E+04  0.25500000920E-02 0.  1.
       -2   -1    0    0    0  501  0.00000000000E+00  0.00000000000E+00 -0.12468215902E+04  0.12468215902E+04  0.25500000920E-02 0. -1.
    10030    2    1    2    0    0  0.00000000000E+00  0.00000000000E+00 -0.18052529384E+03  0.23131178866E+04  0.23060626564E+04 0.  0.
        5    1    3    3  502    0 -0.41665472017E+02  0.35489016397E+03 -0.11898720571E+04  0.12423770129E+04  0.46999998093E+01 0. -1.
       -5    1    3    3    0  502  0.41665472017E+02 -0.35489016397E+03  0.10093467632E+04  0.10707408736E+04  0.46999998093E+01 0.  1.
</event>
<event>
 5   0  0.4005462E-05  0.2324947E+04  0.7818609E-02  0.8468149E-01
        1   -1    0    0  501    0  0.00000000000E+00  0.00000000000E+00  0.11347338190E+04  0.11347338191E+04  0.50400001928E-02 0.  1.
       -1   -1    0    0    0  501  0.00000000000E+00  0.00000000000E+00 -0.11908915611E+04  0.11908915611E+04  0.50400001928E-02 0. -1.
    10030    2    1    2    0    0  0.00000000000E+00  0.00000000000E+00 -0.56157742062E+02  0.23256253802E+04  0.23249472504E+04 0.  0.
        4    1    3    3  502    0 -0.89159265656E+03 -0.51878706618E+03  0.50804931535E+03  0.11498666031E+04  0.12699999809E+01 0.  1.
       -4    1    3    3    0  502  0.89159265656E+03  0.51878706618E+03 -0.56420705741E+03  0.11757587770E+04  0.12699999809E+01 0. -1.
</event>
<event>
 5   0  0.4005462E-05  0.2307482E+04  0.7818609E-02  0.8474977E-01
        1   -1    0    0  501    0  0.00000000000E+00  0.00000000000E+00  0.15543243880E+04  0.15543243880E+04  0.50400001928E-02 0. -1.
       -1   -1    0    0    0  501  0.00000000000E+00  0.00000000000E+00 -0.85639683846E+03  0.85639683848E+03  0.50400001928E-02 0.  1.
    10030    2    1    2    0    0  0.00000000000E+00  0.00000000000E+00  0.69792754951E+03  0.24107212265E+04  0.23074821705E+04 0.  0.
        4    1    3    3  502    0 -0.51085851643E+03 -0.55965174256E+03 -0.55997913585E+03  0.94221268419E+03  0.12699999809E+01 0.  1.
       -4    1    3    3    0  502  0.51085851643E+03  0.55965174256E+03  0.12579066854E+04  0.14685085423E+04  0.12699999809E+01 0. -1.
</event>
<event>
 5   0  0.3885219E-05  0.2301028E+04  0.7818609E-02  0.8477516E-01
       -1   -1    0    0    0  501  0.00000000000E+00  0.00000000000E+00  0.85295716603E+03  0.85295716605E+03  0.50400001928E-02 0. -1.
        1   -1    0    0  501    0  0.00000000000E+00  0.00000000000E+00 -0.15518747364E+04  0.15518747364E+04  0.50400001928E-02 0.  1.
    10030    2    1    2    0    0  0.00000000000E+00  0.00000000000E+00 -0.69891757039E+03  0.24048319025E+04  0.23010281852E+04 0.  0.
        2    1    3    3  502    0  0.10319817472E+04 -0.32753567511E+03  0.57218317449E+02  0.10842231694E+04  0.25500000920E-02 0. -1.
       -2    1    3    3    0  502 -0.10319817472E+04  0.32753567511E+03 -0.75613588784E+03  0.13206087331E+04  0.25500000920E-02 0.  1.
</event>
<event>
 5   0  0.9313463E-05  0.2309450E+04  0.7818609E-02  0.8474204E-01
       -2   -1    0    0    0  501  0.00000000000E+00  0.00000000000E+00  0.65188286897E+03  0.65188286897E+03  0.25500000920E-02 0. -1.
        2   -1    0    0  501    0  0.00000000000E+00  0.00000000000E+00 -0.20454446104E+04  0.20454446104E+04  0.25500000920E-02 0.  1.
    10030    2    1    2    0    0  0.00000000000E+00  0.00000000000E+00 -0.13935617414E+04  0.26973274793E+04  0.23094504116E+04 0.  0.
        1    1    3    3  502    0  0.29291606651E+03 -0.78001773275E+03 -0.16305312384E+04  0.18310815397E+04  0.50400001928E-02 0.  1.
       -1    1    3    3    0  502 -0.29291606651E+03  0.78001773275E+03  0.23696949704E+03  0.86624593966E+03  0.50400001928E-02 0. -1.
</event>
<event>
 5   0  0.9483073E-05  0.2299612E+04  0.7818609E-02  0.8478074E-01
        2   -1    0    0  501    0  0.00000000000E+00  0.00000000000E+00  0.20962280662E+04  0.20962280662E+04  0.25500000920E-02 0.  1.
       -2   -1    0    0    0  501  0.00000000000E+00  0.00000000000E+00 -0.63068200980E+03  0.63068200981E+03  0.25500000920E-02 0. -1.
    10030    2    1    2    0    0  0.00000000000E+00  0.00000000000E+00  0.14655460564E+04  0.27269100760E+04  0.22996115583E+04 0.  0.
        5    1    3    3  502    0  0.52550395758E+03  0.10122977537E+04  0.90514513424E+03  0.14560944185E+04  0.46999998093E+01 0.  1.
       -5    1    3    3    0  502 -0.52550395758E+03 -0.10122977537E+04  0.56040092213E+03  0.12708156574E+04  0.46999998093E+01 0. -1.
</event>
<event>
 5   0  0.9641157E-05  0.2301908E+04  0.7818609E-02  0.8477169E-01
       -2   -1    0    0    0  501  0.00000000000E+00  0.00000000000E+00  0.16688684791E+04  0.16688684791E+04  0.25500000920E-02 0. -1.
        2   -1    0    0  501    0  0.00000000000E+00  0.00000000000E+00 -0.79376860301E+03  0.79376860301E+03  0.25500000920E-02 0.  1.
    10030    2    1    2    0    0  0.00000000000E+00  0.00000000000E+00  0.87509987605E+03  0.24626370821E+04  0.23019082529E+04 0.  0.
        3    1    3    3  502    0  0.85811939766E+03 -0.73835479753E+03  0.21529751811E+03  0.11523409822E+04  0.10100000352E+00 0. -1.
       -3    1    3    3    0  502 -0.85811939766E+03  0.73835479753E+03  0.65980235794E+03  0.13102960999E+04  0.10100000352E+00 0.  1.
</event>
<event>
 5   0  0.4005462E-05  0.2394751E+04  0.7818609E-02  0.8441471E-01
       -1   -1    0    0    0  501  0.00000000000E+00  0.00000000000E+00  0.54505920197E+03  0.54505920199E+03  0.50400001928E-02 0.  1.
        1   -1    0    0  501    0  0.00000000000E+00  0.00000000000E+00 -0.26303715374E+04  0.26303715374E+04  0.50400001928E-02 0. -1.
    10030    2    1    2    0    0  0.00000000000E+00  0.00000000000E+00 -0.20853123355E+04  0.31754307394E+04  0.23947511028E+04 0.  0.
        4    1    3    3  502    0 -0.31824445663E+03  0.79210975798E+03  0.70698394811E+02  0.85657298510E+03  0.12699999809E+01 0.  1.
       -4    1    3    3    0  502  0.31824445663E+03 -0.79210975798E+03 -0.21560107303E+04  0.23188577543E+04  0.12699999809E+01 0. -1.
</event>
<event>
 5   0  0.9313463E-05  0.2260572E+04  0.7818609E-02  0.8493631E-01
       -2   -1    0    0    0  501  0.00000000000E+00  0.00000000000E+00  0.69510626617E+03  0.69510626617E+03  0.25500000920E-02 0.  1.
        2   -1    0    0  501    0  0.00000000000E+00  0.00000000000E+00 -0.18379153117E+04  0.18379153117E+04  0.25500000920E-02 0. -1.
    10030    2    1    2    0    0  0.00000000000E+00  0.00000000000E+00 -0.11428090456E+04  0.25330215779E+04  0.22605720072E+04 0.  0.
        1    1    3    3  502    0 -0.29450991004E+03 -0.29731232712E+03  0.60509904156E+03  0.73571431758E+03  0.50400001928E-02 0.  1.
       -1    1    3    3    0  502  0.29450991004E+03  0.29731232712E+03 -0.17479080871E+04  0.17973072603E+04  0.50400001928E-02 0. -1.
</event>
<event>
 5   0  0.4005462E-05  0.2332090E+04  0.7818609E-02  0.8465375E-01
       -1   -1    0    0    0  501  0.00000000000E+00  0.00000000000E+00  0.84073263148E+03  0.84073263149E+03  0.50400001928E-02 0.  1.
        1   -1    0    0  501    0  0.00000000000E+00  0.00000000000E+00 -0.16172336139E+04  0.16172336139E+04  0.50400001928E-02 0. -1.
    10030    2    1    2    0    0  0.00000000000E+00  0.00000000000E+00 -0.77650098245E+03  0.24579662454E+04  0.23320901115E+04 0.  0.
        4    1    3    3  502    0  0.38756028086E+03 -0.95761906900E+03  0.18169820163E+03  0.10489295029E+04  0.12699999809E+01 0.  1.
       -4    1    3    3    0  502 -0.38756028086E+03  0.95761906900E+03 -0.95819918409E+03  0.14090367426E+04  0.12699999809E+01 0. -1.
</event>
<event>
 5   0  0.9641157E-05  0.2166656E+04  0.7818609E-02  0.8532436E-01
       -2   -1    0    0    0  501  0.00000000000E+00  0.00000000000E+00  0.56784700795E+03  0.56784700796E+03  0.25500000920E-02 0.  1.
        2   -1    0    0  501    0  0.00000000000E+00  0.00000000000E+00 -0.20667530980E+04  0.20667530980E+04  0.25500000920E-02 0. -1.
    10030    2    1    2    0    0  0.00000000000E+00  0.00000000000E+00 -0.14989060901E+04  0.26346001060E+04  0.21666560067E+04 0.  0.
        3    1    3    3  502    0  0.99726941653E+03 -0.36656532038E+03 -0.10064905700E+04  0.14635367098E+04  0.10100000352E+00 0. -1.
       -3    1    3    3    0  502 -0.99726941653E+03  0.36656532038E+03 -0.49241552006E+03  0.11710633962E+04  0.10100000352E+00 0.  1.
</event>
<event>
 5   0  0.9312074E-05  0.2371436E+04  0.7818609E-02  0.8450275E-01
        2   -1    0    0  501    0  0.00000000000E+00  0.00000000000E+00  0.12561177568E+04  0.12561177568E+04  0.25500000920E-02 0.  1.
       -2   -1    0    0    0  501  0.00000000000E+00  0.00000000000E+00 -0.11192640359E+04  0.11192640359E+04  0.25500000920E-02 0. -1.
    10030    2    1    2    0    0  0.00000000000E+00  0.00000000000E+00  0.13685372088E+03  0.23753817927E+04  0.23714362147E+04 0.  0.
        4    1    3    3  502    0 -0.10492206663E+04  0.30847188038E+03 -0.39049140441E+03  0.11612510742E+04  0.12699999809E+01 0. -1.
       -4    1    3    3    0  502  0.10492206663E+04 -0.30847188038E+03  0.52734512530E+03  0.12141307185E+04  0.12699999809E+01 0.  1.
</event>
<event>
 5   0  0.4139830E-05  0.2316542E+04  0.7818609E-02  0.8471427E-01
        1   -1    0    0  501    0  0.00000000000E+00  0.00000000000E+00  0.14986682866E+04  0.14986682866E+04  0.50400001928E-02 0.  1.
       -1   -1    0    0    0  501  0.00000000000E+00  0.00000000000E+00 -0.89518934602E+03  0.89518934603E+03  0.50400001928E-02 0. -1.
    10030    2    1    2    0    0  0.00000000000E+00  0.00000000000E+00  0.60347894056E+03  0.23938576326E+04  0.23165421502E+04 0.  0.
        1    1    3    3  502    0  0.87997646751E+03 -0.65634352960E+03  0.68345450492E+03  0.12931571724E+04  0.50400001928E-02 0.  1.
       -1    1    3    3    0  502 -0.87997646751E+03  0.65634352960E+03 -0.79975564360E+02  0.11007004602E+04  0.50400001928E-02 0. -1.
</event>
<event>
 5   0  0.9313463E-05  0.2272594E+04  0.7818609E-02  0.8488806E-01
        2   -1    0    0  501    0  0.00000000000E+00  0.00000000000E+00  0.16586881409E+04  0.16586881409E+04  0.25500000920E-02 0.  1.
       -2   -1    0    0    0  501  0.00000000000E+00  0.00000000000E+00 -0.77842873162E+03  0.77842873163E+03  0.25500000920E-02 0. -1.
    10030    2    1    2    0    0  0.00000000000E+00  0.00000000000E+00  0.88025940928E+03  0.24371168725E+04  0.22725936774E+04 0.  0.
        1    1    3    3  502    0  0.76978843724E+03 -0.33111657492E+03  0.12631238675E+04  0.15158147409E+04  0.50400001928E-02 0.  1.
       -1    1    3    3    0  502 -0.76978843724E+03  0.33111657492E+03 -0.38286445818E+03  0.92130213158E+03  0.50400001928E-02 0. -1.
</event>
<event>
 5   0  0.4295775E-05  0.2305425E+04  0.7818609E-02  0.8475785E-01
        1   -1    0    0  501    0  0.00000000000E+00  0.00000000000E+00  0.24617994137E+04  0.24617994137E+04  0.50400001928E-02 0. -1.
       -1   -1    0    0    0  501  0.00000000000E+00  0.00000000000E+00 -0.53974583240E+03  0.53974583243E+03  0.50400001928E-02 0.  1.
    10030    2    1    2    0    0  0.00000000000E+00  0.00000000000E+00  0.19220535813E+04  0.30015452462E+04  0.23054248839E+04 0.  0.
        5    1    3    3  502    0 -0.41937857537E+03 -0.32955675141E+03 -0.36940811826E+03  0.64882238688E+03  0.46999998093E+01 0.  1.
       -5    1    3    3    0  502  0.41937857537E+03  0.32955675141E+03  0.22914616996E+04  0.23527228593E+04  0.46999998093E+01 0. -1.
</event>
<event>
 5   0  0.4295775E-05  0.2437228E+04  0.7818609E-02  0.8425696E-01
       -1   -1    0    0    0  501  0.00000000000E+00  0.00000000000E+00  0.66361752235E+03  0.66361752237E+03  0.50400001928E-02 0.  1.
        1   -1    0    0  501    0  0.00000000000E+00  0.00000000000E+00 -0.22377644313E+04  0.22377644313E+04  0.50400001928E-02 0. -1.
    10030    2    1    2    0    0  0.00000000000E+00  0.00000000000E+00 -0.15741469090E+04  0.29013819537E+04  0.24372276771E+04 0.  0.
        5    1    3    3  502    0 -0.56553149532E+03 -0.64981894039E+03  0.23899432432E+03  0.89399715019E+03  0.46999998093E+01 0.  1.
       -5    1    3    3    0  502  0.56553149532E+03  0.64981894039E+03 -0.18131412333E+04  0.20073848035E+04  0.46999998093E+01 0. -1.
</event>
<event>
 5   0  0.4005462E-05  0.1993740E+04  0.7818609E-02  0.8609553E-01
        1   -1    0    0  501    0  0.00000000000E+00  0.00000000000E+00  0.17817511763E+04  0.17817511763E+04  0.50400001928E-02 0. -1.
       -1   -1    0    0    0  501  0.00000000000E+00  0.00000000000E+00 -0.55773795440E+03  0.55773795442E+03  0.50400001928E-02 0.  1.
    10030    2    1    2    0    0  0.00000000000E+00  0.00000000000E+00  0.12240132219E+04  0.23394891307E+04  0.19937404609E+04 0.  0.
        4    1    3    3  502    0  0.39816564173E+03  0.81225451136E+03  0.12049277610E+03  0.91258610085E+03  0.12699999809E+01 0. -1.
       -4    1    3    3    0  502 -0.39816564173E+03 -0.81225451136E+03  0.11035204458E+04  0.14269030299E+04  0.12699999809E+01 0.  1.
</event>
<event>
 5   0  0.4095451E-05  0.2259385E+04  0.7818609E-02  0.8494109E-01
        1   -1    0    0  501    0  0.00000000000E+00  0.00000000000E+00  0.10021318705E+04  0.10021318705E+04  0.50400001928E-02 0. -1.
       -1   -1    0    0    0  501  0.00000000000E+00  0.00000000000E+00 -0.12734906083E+04  0.12734906083E+04  0.50400001928E-02 0.  1.
    10030    2    1    2    0    0  0.00000000000E+00  0.00000000000E+00 -0.27135873780E+03  0.22756224789E+04  0.22593853371E+04 0.  0.
        3    1    3    3  502    0 -0.94523769494E+03 -0.62885125184E+02  0.48419192338E+03  0.10638941055E+04  0.10100000352E+00 0. -1.
       -3    1    3    3    0  502  0.94523769494E+03  0.62885125184E+02 -0.75555066118E+03  0.12117283733E+04  0.10100000352E+00 0.  1.
</event>
<event>
 5   0  0.4095451E-05  0.2284685E+04  0.7818609E-02  0.8483984E-01
        1   -1    0    0  501    0  0.00000000000E+00  0.00000000000E+00  0.13349175661E+04  0.13349175661E+04  0.50400001928E-02 0. -1.
       -1   -1    0    0    0  501  0.00000000000E+00  0.00000000000E+00 -0.97754815059E+03  0.97754815060E+03  0.50400001928E-02 0.  1.
    10030    2    1    2    0    0  0.00000000000E+00  0.00000000000E+00  0.35736941551E+03  0.23124657167E+04  0.22846848342E+04 0.  0.
        3    1    3    3  502    0  0.62880155999E+03  0.62427204827E+03 -0.55108110641E+03  0.10434545453E+04  0.10100000352E+00 0.  1.
       -3    1    3    3    0  502 -0.62880155999E+03 -0.62427204827E+03  0.90845052193E+03  0.12690111714E+04  0.10100000352E+00 0. -1.
</event>
<event>
 5   0  0.4005462E-05  0.2335698E+04  0.7818609E-02  0.8463977E-01
        1   -1    0    0  501    0  0.00000000000E+00  0.00000000000E+00  0.88759273482E+03  0.88759273483E+03  0.50400001928E-02 0.  1.
       -1   -1    0    0    0  501  0.00000000000E+00  0.00000000000E+00 -0.15365961115E+04  0.15365961116E+04  0.50400001928E-02 0. -1.
    10030    2    1    2    0    0  0.00000000000E+00  0.00000000000E+00 -0.64900337673E+03  0.24241888464E+04  0.23356982211E+04 0.  0.
        4    1    3    3  502    0 -0.16691952710E+03 -0.10103966328E+04 -0.90711226421E+03  0.13680708157E+04  0.12699999809E+01 0. -1.
       -4    1    3    3    0  502  0.16691952710E+03  0.10103966328E+04  0.25810888749E+03  0.10561180307E+04  0.12699999809E+01 0.  1.
</event>
<event>
 5   0  0.4095451E-05  0.1907763E+04  0.7818609E-02  0.8651002E-01
        1   -1    0    0  501    0  0.00000000000E+00  0.00000000000E+00  0.12433784409E+04  0.12433784410E+04  0.50400001928E-02 0. -1.
       -1   -1    0    0    0  501  0.00000000000E+00  0.00000000000E+00 -0.73178838217E+03  0.73178838219E+03  0.50400001928E-02 0.  1.
    10030    2    1    2    0    0  0.00000000000E+00  0.00000000000E+00  0.51159005877E+03  0.19751668231E+04  0.19077629808E+04 0.  0.
        3    1    3    3  502    0 -0.90540102210E+03 -0.29383682132E+03  0.19198300370E+03  0.97105539095E+03  0.10100000352E+00 0. -1.
       -3    1    3    3    0  502  0.90540102210E+03  0.29383682132E+03  0.31960705508E+03  0.10041114322E+04  0.10100000352E+00 0.  1.
</event>
<event>
 5   0  0.4139830E-05  0.2275741E+04  0.7818609E-02  0.8487548E-01
        1   -1    0    0  501    0  0.00000000000E+00  0.00000000000E+00  0.15218393603E+04  0.15218393603E+04  0.50400001928E-02 0. -1.
       -1   -1    0    0    0  501  0.00000000000E+00  0.00000000000E+00 -0.85077886267E+03  0.85077886269E+03  0.50400001928E-02 0.  1.
    10030    2    1    2    0    0  0.00000000000E+00  0.00000000000E+00  0.67106049766E+03  0.23726182230E+04  0.22757405478E+04 0.  0.
        1    1    3    3  502    0  0.57102397983E+03  0.97091164896E+03  0.16738555161E+03  0.11387518336E+04  0.50400001928E-02 0. -1.
       -1    1    3    3    0  502 -0.57102397983E+03 -0.97091164896E+03  0.50367494605E+03  0.12338663894E+04  0.50400001928E-02 0.  1.
</event>
<event>
 5   0  0.4295775E-05  0.2240013E+04  0.7818609E-02  0.8501956E-01
       -1   -1    0    0    0  501  0.00000000000E+00  0.00000000000E+00  0.20803683620E+04  0.20803683620E+04  0.50400001928E-02 0.  1.
        1   -1    0    0  501    0  0.00000000000E+00  0.00000000000E+00 -0.60297701745E+03  0.60297701747E+03  0.50400001928E-02 0. -1.
    10030    2    1    2    0    0  0.00000000000E+00  0.00000000000E+00  0.14773913445E+04  0.26833453795E+04  0.22400127769E+04 0.  0.
        5    1    3    3  502    0 -0.72677085718E+03  0.25920220692E+03 -0.23376549017E+03  0.80625681845E+03  0.46999998093E+01 0. -1.
       -5    1    3    3    0  502  0.72677085718E+03 -0.25920220692E+03  0.17111568347E+04  0.18770885610E+04  0.46999998093E+01 0.  1.
</event>
<event>
 5   0  0.9641157E-05  0.2205313E+04  0.7818609E-02  0.8516220E-01
       -2   -1    0    0    0  501  0.00000000000E+00  0.00000000000E+00  0.11308548533E+04  0.11308548533E+04  0.25500000920E-02 0. -1.
        2   -1    0    0  501    0  0.00000000000E+00  0.00000000000E+00 -0.10751610512E+04  0.10751610512E+04  0.25500000920E-02 0.  1.
    10030    2    1    2    0    0  0.00000000000E+00  0.00000000000E+00  0.55693802111E+02  0.22060159045E+04  0.22053127604E+04 0.  0.
        3    1    3    3  502    0  0.13132353621E+03  0.10210744153E+04  0.42295669827E+03  0.11129830240E+04  0.10100000352E+00 0. -1.
       -3    1    3    3    0  502 -0.13132353621E+03 -0.10210744153E+04 -0.36726289615E+03  0.10930328805E+04  0.10100000352E+00 0.  1.
</event>
<event>
 5   0  0.9535394E-05  0.2297219E+04  0.7818609E-02  0.8479018E-01
       -2   -1    0    0    0  501  0.00000000000E+00  0.00000000000E+00  0.89984933204E+03  0.89984933204E+03  0.25500000920E-02 0.  1.
        2   -1    0    0  501    0  0.00000000000E+00  0.00000000000E+00 -0.14661384278E+04  0.14661384278E+04  0.25500000920E-02 0. -1.
    10030    2    1    2    0    0  0.00000000000E+00  0.00000000000E+00 -0.56628909577E+03  0.23659877599E+04  0.22972189142E+04 0.  0.
        2    1    3    3  502    0  0.91424565647E+03  0.60221294714E+03 -0.64110926080E+03  0.12686712097E+04  0.25500000920E-02 0. -1.
       -2    1    3    3    0  502 -0.91424565647E+03 -0.60221294714E+03  0.74820165033E+02  0.10973165501E+04  0.25500000920E-02 0.  1.
</event>
<event>
 5   0  0.4295775E-05  0.2244572E+04  0.7818609E-02  0.8500102E-01
        1   -1    0    0  501    0  0.00000000000E+00  0.00000000000E+00  0.12498150462E+04  0.12498150462E+04  0.50400001928E-02 0. -1.
       -1   -1    0    0    0  501  0.00000000000E+00  0.00000000000E+00 -0.10077701961E+04  0.10077701961E+04  0.50400001928E-02 0.  1.
    10030    2    1    2    0    0  0.00000000000E+00  0.00000000000E+00  0.24204485009E+03  0.22575852423E+04  0.22445724352E+04 0.  0.
        5    1    3    3  502    0  0.25463653581E+03  0.38446011062E+02  0.12196858835E+04  0.12465847767E+04  0.46999998093E+01 0. -1.
       -5    1    3    3    0  502 -0.25463653581E+03 -0.38446011062E+02 -0.97764103342E+03  0.10110004656E+04  0.46999998093E+01 0.  1.
</event>
<event>
 5   0  0.9641157E-05  0.2297734E+04  0.7818609E-02  0.8478815E-01
       -2   -1    0    0    0  501  0.00000000000E+00  0.00000000000E+00  0.91954628921E+03  0.91954628921E+03  0.25500000920E-02 0.  1.
        2   -1    0    0  501    0  0.00000000000E+00  0.00000000000E+00 -0.14353769343E+04  0.14353769343E+04  0.25500000920E-02 0. -1.
    10030    2    1    2    0    0  0.00000000000E+00  0.00000000000E+00 -0.51583064504E+03  0.23549232235E+04  0.22977341304E+04 0.  0.
        3    1    3    3  502    0 -0.96606536711E+03  0.47859568549E+03  0.14890171784E+03  0.10883509799E+04  0.10100000352E+00 0.  1.
       -3    1    3    3    0  502  0.96606536711E+03 -0.47859568549E+03 -0.66473236288E+03  0.12665722436E+04  0.10100000352E+00 0. -1.
</event>
<event>
 5   0  0.9313463E-05  0.2292847E+04  0.7818609E-02  0.8480747E-01
       -2   -1    0    0    0  501  0.00000000000E+00  0.00000000000E+00  0.11159419909E+04  0.11159419909E+04  0.25500000920E-02 0.  1.
        2   -1    0    0  501    0  0.00000000000E+00  0.00000000000E+00 -0.11777376767E+04  0.11777376767E+04  0.25500000920E-02 0. -1.
    10030    2    1    2    0    0  0.00000000000E+00  0.00000000000E+00 -0.61795685813E+02  0.22936796676E+04  0.22928470753E+04 0.  0.
        1    1    3    3  502    0  0.72955771368E+03  0.55232176302E+03 -0.72178104991E+03  0.11654534189E+04  0.50400001928E-02 0. -1.
       -1    1    3    3    0  502 -0.72955771368E+03 -0.55232176302E+03  0.65998536409E+03  0.11282262487E+04  0.50400001928E-02 0.  1.
</event>
<event>
 5   0  0.9312074E-05  0.2282918E+04  0.7818609E-02  0.8484687E-01
        2   -1    0    0  501    0  0.00000000000E+00  0.00000000000E+00  0.19500544872E+04  0.19500544872E+04  0.25500000920E-02 0.  1.
       -2   -1    0    0    0  501  0.00000000000E+00  0.00000000000E+00 -0.66814973700E+03  0.66814973701E+03  0.25500000920E-02 0. -1.
    10030    2    1    2    0    0  0.00000000000E+00  0.00000000000E+00  0.12819047502E+04  0.26182042242E+04  0.22829177758E+04 0.  0.
        4    1    3    3  502    0 -0.33450015389E+02  0.64568185765E+03 -0.43789755516E+03  0.78088401607E+03  0.12699999809E+01 0. -1.
       -4    1    3    3    0  502  0.33450015389E+02 -0.64568185765E+03  0.17198023053E+04  0.18373202081E+04  0.12699999809E+01 0.  1.
</event>
<event>
 5   0  0.9535394E-05  0.2172188E+04  0.7818609E-02  0.8530094E-01
        2   -1    0    0  501    0  0.00000000000E+00  0.00000000000E+00  0.20833073134E+04  0.20833073134E+04  0.25500000920E-02 0.  1.
       -2   -1    0    0    0  501  0.00000000000E+00  0.00000000000E+00 -0.56621493105E+03  0.56621493106E+03  0.25500000920E-02 0. -1.
    10030    2    1    2    0    0  0.00000000000E+00  0.00000000000E+00  0.15170923824E+04  0.26495222445E+04  0.21721875673E+04 0.  0.
        2    1    3    3  502    0  0.62911469174E+03 -0.18290208149E+03 -0.29804124604E+03  0.71976874837E+03  0.25500000920E-02 0. -1.
       -2    1    3    3    0  502 -0.62911469174E+03  0.18290208149E+03  0.18151336284E+04  0.19297534961E+04  0.25500000920E-02 0.  1.
</event>
<event>
 5   0  0.4295775E-05  0.2319451E+04  0.7818609E-02  0.8470291E-01
        1   -1    0    0  501    0  0.00000000000E+00  0.00000000000E+00  0.10548333130E+04  0.10548333131E+04  0.50400001928E-02 0.  1.
       -1   -1    0    0    0  501  0.00000000000E+00  0.00000000000E+00 -0.12750481726E+04  0.12750481726E+04  0.50400001928E-02 0. -1.
    10030    2    1    2    0    0  0.00000000000E+00  0.00000000000E+00 -0.22021485956E+03  0.23298814857E+04  0.23194510456E+04 0.  0.
        5    1    3    3  502    0  0.91412086350E+03 -0.63160461710E+03  0.22365147890E+03  0.11333946442E+04  0.46999998093E+01 0.  1.
       -5    1    3    3    0  502 -0.91412086350E+03  0.63160461710E+03 -0.44386633846E+03  0.11964868415E+04  0.46999998093E+01 0. -1.
</event>
<event>
 5   0  0.9535394E-05  0.2160366E+04  0.7818609E-02  0.8535108E-01
        2   -1    0    0  501    0  0.00000000000E+00  0.00000000000E+00  0.64756426930E+03  0.64756426931E+03  0.25500000920E-02 0.  1.
       -2   -1    0    0    0  501  0.00000000000E+00  0.00000000000E+00 -0.18018212940E+04  0.18018212940E+04  0.25500000920E-02 0. -1.
    10030    2    1    2    0    0  0.00000000000E+00  0.00000000000E+00 -0.11542570247E+04  0.24493855634E+04  0.21603657928E+04 0.  0.
        2    1    3    3  502    0 -0.34358795870E+03  0.83380376593E+03  0.96984913164E+02  0.90702121190E+03  0.25500000920E-02 0. -1.
       -2    1    3    3    0  502  0.34358795870E+03 -0.83380376593E+03 -0.12512419379E+04  0.15423643515E+04  0.25500000920E-02 0.  1.
</event>
<event>
 5   0  0.4295775E-05  0.2299226E+04  0.7818609E-02  0.8478226E-01
        1   -1    0    0  501    0  0.00000000000E+00  0.00000000000E+00  0.10178413221E+04  0.10178413222E+04  0.50400001928E-02 0. -1.
       -1   -1    0    0    0  501  0.00000000000E+00  0.00000000000E+00 -0.12984439923E+04  0.12984439923E+04  0.50400001928E-02 0.  1.
    10030    2    1    2    0    0  0.00000000000E+00  0.00000000000E+00 -0.28060267016E+03  0.23162853145E+04  0.22992259131E+04 0.  0.
        5    1    3    3  502    0  0.52492029887E+03  0.10100524965E+04 -0.30224382595E+03  0.11777609206E+04  0.46999998093E+01 0.  1.
       -5    1    3    3    0  502 -0.52492029887E+03 -0.10100524965E+04  0.21641155791E+02  0.11385243939E+04  0.46999998093E+01 0. -1.
</event>
<event>
 5   0  0.4005462E-05  0.2162863E+04  0.7818609E-02  0.8534046E-01
       -1   -1    0    0    0  501  0.00000000000E+00  0.00000000000E+00  0.49831610240E+03  0.49831610243E+03  0.50400001928E-02 0. -1.
        1   -1    0    0  501    0  0.00000000000E+00  0.00000000000E+00 -0.23468930029E+04  0.23468930029E+04  0.50400001928E-02 0.  1.
    10030    2    1    2    0    0  0.00000000000E+00  0.00000000000E+00 -0.18485769005E+04  0.28452091053E+04  0.21628634483E+04 0.  0.
        4    1    3    3  502    0  0.40608484369E+03 -0.93653506098E+03 -0.45458539159E+03  0.11174311218E+04  0.12699999809E+01 0. -1.
       -4    1    3    3    0  502 -0.40608484369E+03  0.93653506098E+03 -0.13939915089E+04  0.17277779836E+04  0.12699999809E+01 0.  1.
</event>
<event>
 5   0  0.3885219E-05  0.2291196E+04  0.7818609E-02  0.8481400E-01
       -1   -1    0    0    0  501  0.00000000000E+00  0.00000000000E+00  0.17286768490E+04  0.17286768490E+04  0.50400001928E-02 0.  1.
        1   -1    0    0  501    0  0.00000000000E+00  0.00000000000E+00 -0.75919055988E+03  0.75919055989E+03  0.50400001928E-02 0. -1.
    10030    2    1    2    0    0  0.00000000000E+00  0.00000000000E+00  0.96948628911E+03  0.24878674089E+04  0.22911963206E+04 0.  0.
        2    1    3    3  502    0 -0.65030726017E+03 -0.42911573630E+03  0.13966886637E+04  0.15993058091E+04  0.25500000920E-02 0.  1.
       -2    1    3    3    0  502  0.65030726017E+03  0.42911573630E+03 -0.42720237456E+03  0.88856159979E+03  0.25500000920E-02 0. -1.
</event>
<event>
 5   0  0.4005462E-05  0.2296469E+04  0.7818609E-02  0.8479315E-01
        1   -1    0    0  501    0  0.00000000000E+00  0.00000000000E+00  0.14498425371E+04  0.14498425371E+04  0.50400001928E-02 0.  1.
       -1   -1    0    0    0  501  0.00000000000E+00  0.00000000000E+00 -0.90936963168E+03  0.90936963170E+03  0.50400001928E-02 0. -1.
    10030    2    1    2    0    0  0.00000000000E+00  0.00000000000E+00  0.54047290546E+03  0.23592121688E+04  0.22964692674E+04 0.  0.
        4    1    3    3  502    0  0.82031886313E+03  0.14414801939E+03 -0.54176318423E+03  0.99358474696E+03  0.12699999809E+01 0. -1.
       -4    1    3    3    0  502 -0.82031886313E+03 -0.14414801939E+03  0.10822360897E+04  0.13656274219E+04  0.12699999809E+01 0.  1.
</event>
<event>
 5   0  0.9313463E-05  0.2170369E+04  0.7818609E-02  0.8530863E-01
        2   -1    0    0  501    0  0.00000000000E+00  0.00000000000E+00  0.13189583490E+04  0.13189583490E+04  0.25500000920E-02 0. -1.
       -2   -1    0    0    0  501  0.00000000000E+00  0.00000000000E+00 -0.89284509009E+03  0.89284509009E+03  0.25500000920E-02 0.  1.
    10030    2    1    2    0    0  0.00000000000E+00  0.00000000000E+00  0.42611325894E+03  0.22118034391E+04  0.21703690801E+04 0.  0.
        1    1    3    3  502    0  0.69231592501E+03  0.24806275781E+03 -0.60016836181E+03  0.94923049591E+03  0.50400001928E-02 0.  1.
       -1    1    3    3    0  502 -0.69231592501E+03 -0.24806275781E+03  0.10262816207E+04  0.12625729432E+04  0.50400001928E-02 0. -1.
</event>
<event>
 5   0  0.9312074E-05  0.2289807E+04  0.7818609E-02  0.8481951E-01
       -2   -1    0    0    0  501  0.00000000000E+00  0.00000000000E+00  0.45104591415E+03  0.45104591415E+03  0.25500000920E-02 0.  1.
        2   -1    0    0  501    0  0.00000000000E+00  0.00000000000E+00 -0.29061425516E+04  0.29061425516E+04  0.25500000920E-02 0. -1.
    10030    2    1    2    0    0  0.00000000000E+00  0.00000000000E+00 -0.24550966374E+04  0.33571884657E+04  0.22898067376E+04 0.  0.
        4    1    3    3  502    0  0.10049261508E+04  0.28269335495E+03 -0.19168079843E+04  0.21826466877E+04  0.12699999809E+01 0. -1.
       -4    1    3    3    0  502 -0.10049261508E+04 -0.28269335495E+03 -0.53828865312E+03  0.11745417781E+04  0.12699999809E+01 0.  1.
</event>
<event>
 5   0  0.4095451E-05  0.2003986E+04  0.7818609E-02  0.8604759E-01
       -1   -1    0    0    0  501  0.00000000000E+00  0.00000000000E+00  0.68224637723E+03  0.68224637725E+03  0.50400001928E-02 0. -1.
        1   -1    0    0  501    0  0.00000000000E+00  0.00000000000E+00 -0.14715951211E+04  0.14715951211E+04  0.50400001928E-02 0.  1.
    10030    2    1    2    0    0  0.00000000000E+00  0.00000000000E+00 -0.78934874389E+03  0.21538414984E+04  0.20039864672E+04 0.  0.
        3    1    3    3  502    0 -0.82293347279E+03 -0.57022159551E+03 -0.43791015071E+03  0.10927659763E+04  0.10100000352E+00 0.  1.
       -3    1    3    3    0  502  0.82293347279E+03  0.57022159551E+03 -0.35143859319E+03  0.10610755221E+04  0.10100000352E+00 0. -1.
</event>
<event>
 5   0  0.9641157E-05  0.2284598E+04  0.7818609E-02  0.8484019E-01
        2   -1    0    0  501    0  0.00000000000E+00  0.00000000000E+00  0.14881360966E+04  0.14881360966E+04  0.25500000920E-02 0. -1.
       -2   -1    0    0    0  501  0.00000000000E+00  0.00000000000E+00 -0.87683319208E+03  0.87683319208E+03  0.25500000920E-02 0.  1.
    10030    2    1    2    0    0  0.00000000000E+00  0.00000000000E+00  0.61130290456E+03  0.23649692887E+04  0.22845981037E+04 0.  0.
        3    1    3    3  502    0  0.98916759084E+03  0.51385722141E+03  0.56412595967E+03  0.12492957518E+04  0.10100000352E+00 0. -1.
       -3    1    3    3    0  502 -0.98916759084E+03 -0.51385722141E+03  0.47176944894E+02  0.11156735370E+04  0.10100000352E+00 0.  1.
</event>
<event>
 5   0  0.4095451E-05  0.2223588E+04  0.7818609E-02  0.8508674E-01
        1   -1    0    0  501    0  0.00000000000E+00  0.00000000000E+00  0.13529935890E+04  0.13529935890E+04  0.50400001928E-02 0. -1.
       -1   -1    0    0    0  501  0.00000000000E+00  0.00000000000E+00 -0.91359344544E+03  0.91359344545E+03  0.50400001928E-02 0.  1.
    10030    2    1    2    0    0  0.00000000000E+00  0.00000000000E+00  0.43940014352E+03  0.22665870344E+04  0.22235881585E+04 0.  0.
        3    1    3    3  502    0  0.70483351122E+03  0.54169444558E+02 -0.65500888138E+03  0.96372260124E+03  0.10100000352E+00 0.  1.
       -3    1    3    3    0  502 -0.70483351122E+03 -0.54169444558E+02  0.10944090249E+04  0.13028644332E+04  0.10100000352E+00 0. -1.
</event>
<event>
 5   0  0.3885219E-05  0.2261781E+04  0.7818609E-02  0.8493145E-01
       -1   -1    0    0    0  501  0.00000000000E+00  0.00000000000E+00  0.10999546764E+04  0.10999546764E+04  0.50400001928E-02 0. -1.
        1   -1    0    0  501    0  0.00000000000E+00  0.00000000000E+00 -0.11626962643E+04  0.11626962643E+04  0.50400001928E-02 0.  1.
    10030    2    1    2    0    0  0.00000000000E+00  0.00000000000E+00 -0.62741587888E+02  0.22626509407E+04  0.22617808852E+04 0.  0.
        2    1    3    3  502    0 -0.22841807492E+03  0.41358233152E+03 -0.10592328400E+04  0.11598273023E+04  0.25500000920E-02 0.  1.
       -2    1    3    3    0  502  0.22841807492E+03 -0.41358233152E+03  0.99649125210E+03  0.11028236384E+04  0.25500000920E-02 0. -1.
</event>
<event>
 5   0  0.9535394E-05  0.2318818E+04  0.7818609E-02  0.8470538E-01
       -2   -1    0    0    0  501  0.00000000000E+00  0.00000000000E+00  0.19280083213E+04  0.19280083213E+04  0.25500000920E-02 0. -1.
        2   -1    0    0  501    0  0.00000000000E+00  0.00000000000E+00 -0.69721129398E+03  0.69721129398E+03  0.25500000920E-02 0.  1.
    10030    2    1    2    0    0  0.00000000000E+00  0.00000000000E+00  0.12307970273E+04  0.26252196153E+04  0.23188179545E+04 0.  0.
        2    1    3    3  502    0 -0.16622047330E+03  0.31549600104E+03 -0.63358116974E+03  0.72704337634E+03  0.25500000920E-02 0.  1.
       -2    1    3    3    0  502  0.16622047330E+03 -0.31549600104E+03  0.18643781970E+04  0.18981762389E+04  0.25500000920E-02 0. -1.
</event>
<event>
 5   0  0.4295775E-05  0.2189444E+04  0.7818609E-02  0.8522835E-01
       -1   -1    0    0    0  501  0.00000000000E+00  0.00000000000E+00  0.57972727394E+03  0.57972727396E+03  0.50400001928E-02 0. -1.
        1   -1    0    0  501    0  0.00000000000E+00  0.00000000000E+00 -0.20672069587E+04  0.20672069587E+04  0.50400001928E-02 0.  1.
    10030    2    1    2    0    0  0.00000000000E+00  0.00000000000E+00 -0.14874796847E+04  0.26469342326E+04  0.21894439978E+04 0.  0.
        5    1    3    3  502    0 -0.82664951618E+03 -0.25290321833E+03 -0.15557068070E+04  0.17797626864E+04  0.46999998093E+01 0.  1.
       -5    1    3    3    0  502  0.82664951618E+03  0.25290321833E+03  0.68227122271E+02  0.86717154626E+03  0.46999998093E+01 0. -1.
</event>
<event>
 5   0  0.4139830E-05  0.2284700E+04  0.7818609E-02  0.8483978E-01
        1   -1    0    0  501    0  0.00000000000E+00  0.00000000000E+00  0.14527441826E+04  0.14527441826E+04  0.50400001928E-02 0. -1.
       -1   -1    0    0    0  501  0.00000000000E+00  0.00000000000E+00 -0.89827499592E+03  0.89827499593E+03  0.50400001928E-02 0.  1.
    10030    2    1    2    0    0  0.00000000000E+00  0.00000000000E+00  0.55446918667E+03  0.23510191785E+04  0.22847002208E+04 0.  0.
        1    1    3    3  502    0 -0.21042484582E+03 -0.24295734026E+03  0.14052556033E+04  0.14415443786E+04  0.50400001928E-02 0. -1.
       -1    1    3    3    0  502  0.21042484582E+03  0.24295734026E+03 -0.85078641662E+03  0.90947479990E+03  0.50400001928E-02 0.  1.
</event>
<event>
 5   0  0.9312074E-05  0.2294391E+04  0.7818609E-02  0.8480136E-01
       -2   -1    0    0    0  501  0.00000000000E+00  0.00000000000E+00  0.11774117295E+04  0.11774117295E+04  0.25500000920E-02 0.  1.
        2   -1    0    0  501    0  0.00000000000E+00  0.00000000000E+00 -0.11177549967E+04  0.11177549967E+04  0.25500000920E-02 0. -1.
    10030    2    1    2    0    0  0.00000000000E+00  0.00000000000E+00  0.59656732746E+02  0.22951667262E+04  0.22943912865E+04 0.  0.
        4    1    3    3  502    0 -0.10200977181E+04  0.21273984764E+03 -0.45012398685E+03  0.11351082828E+04  0.12699999809E+01 0. -1.
       -4    1    3    3    0  502  0.10200977181E+04 -0.21273984764E+03  0.50978071960E+03  0.11600584434E+04  0.12699999809E+01 0.  1.
</event>
<event>
 5   0  0.4139830E-05  0.2489829E+04  0.7818609E-02  0.8406618E-01
       -1   -1    0    0    0  501  0.00000000000E+00  0.00000000000E+00  0.56679787152E+03  0.56679787154E+03  0.50400001928E-02 0. -1.
        1   -1    0    0  501    0  0.00000000000E+00  0.00000000000E+00 -0.27343300306E+04  0.27343300306E+04  0.50400001928E-02 0.  1.
    10030    2    1    2    0    0  0.00000000000E+00  0.00000000000E+00 -0.21675321591E+04  0.33011279022E+04  0.24898292644E+04 0.  0.
        1    1    3    3  502    0  0.25530140164E+02 -0.66625529475E+03  0.31011557374E+03  0.73533636857E+03  0.50400001928E-02 0. -1.
       -1    1    3    3    0  502 -0.25530140164E+02  0.66625529475E+03 -0.24776477328E+04  0.25657915336E+04  0.50400001928E-02 0.  1.
</event>
<event>
 5   0  0.9312074E-05  0.2326982E+04  0.7818609E-02  0.8467358E-01
        2   -1    0    0  501    0  0.00000000000E+00  0.00000000000E+00  0.13990764591E+04  0.13990764591E+04  0.25500000920E-02 0.  1.
       -2   -1    0    0    0  501  0.00000000000E+00  0.00000000000E+00 -0.96757455066E+03  0.96757455066E+03  0.25500000920E-02 0. -1.
    10030    2    1    2    0    0  0.00000000000E+00  0.00000000000E+00  0.43150190844E+03  0.23666510098E+04  0.23269815438E+04 0.  0.
        4    1    3    3  502    0  0.67450620681E+03  0.35447882984E+03 -0.67849667720E+03  0.10202809504E+04  0.12699999809E+01 0. -1.
       -4    1    3    3    0  502 -0.67450620681E+03 -0.35447882984E+03  0.11099985856E+04  0.13463700594E+04  0.12699999809E+01 0.  1.
</event>
<event>
 5   0  0.9483073E-05  0.2283823E+04  0.7818609E-02  0.8484327E-01
       -2   -1    0    0    0  501  0.00000000000E+00  0.00000000000E+00  0.49791244229E+03  0.49791244230E+03  0.25500000920E-02 0.  1.
        2   -1    0    0  501    0  0.00000000000E+00  0.00000000000E+00 -0.26188581470E+04  0.26188581470E+04  0.25500000920E-02 0. -1.
    10030    2    1    2    0    0  0.00000000000E+00  0.00000000000E+00 -0.21209457047E+04  0.31167705893E+04  0.22838231595E+04 0.  0.
        5    1    3    3  502    0 -0.50941142441E+03  0.72518457469E+03 -0.20432081445E+04  0.22271314013E+04  0.46999998093E+01 0. -1.
       -5    1    3    3    0  502  0.50941142441E+03 -0.72518457469E+03 -0.77737560230E+02  0.88963918807E+03  0.46999998093E+01 0.  1.
</event>
<event>
 5   0  0.4005462E-05  0.2439278E+04  0.7818609E-02  0.8424943E-01
       -1   -1    0    0    0  501  0.00000000000E+00  0.00000000000E+00  0.83932262279E+03  0.83932262280E+03  0.50400001928E-02 0. -1.
        1   -1    0    0  501    0  0.00000000000E+00  0.00000000000E+00 -0.17722860255E+04  0.17722860255E+04  0.50400001928E-02 0.  1.
    10030    2    1    2    0    0  0.00000000000E+00  0.00000000000E+00 -0.93296340270E+03  0.26116086483E+04  0.24392783812E+04 0.  0.
        4    1    3    3  502    0  0.10294045354E+03  0.10988119370E+04  0.89362774851E+02  0.11072360761E+04  0.12699999809E+01 0. -1.
       -4    1    3    3    0  502 -0.10294045354E+03 -0.10988119370E+04 -0.10223261776E+04  0.15043725722E+04  0.12699999809E+01 0.  1.
</event>
<event>
 5   0  0.9483073E-05  0.2297580E+04  0.7818609E-02  0.8478876E-01
        2   -1    0    0  501    0  0.00000000000E+00  0.00000000000E+00  0.19577102554E+04  0.19577102554E+04  0.25500000920E-02 0.  1.
       -2   -1    0    0    0  501  0.00000000000E+00  0.00000000000E+00 -0.67411312283E+03  0.67411312283E+03  0.25500000920E-02 0. -1.
    10030    2    1    2    0    0  0.00000000000E+00  0.00000000000E+00  0.12835971325E+04  0.26318233782E+04  0.22975797473E+04 0.  0.
        5    1    3    3  502    0  0.50510983024E+03 -0.22602531501E+03  0.17949654802E+04  0.18783361118E+04  0.46999998093E+01 0.  1.
       -5    1    3    3    0  502 -0.50510983024E+03  0.22602531501E+03 -0.51136834769E+03  0.75348726642E+03  0.46999998093E+01 0. -1.
</event>
<event>
 5   0  0.3885219E-05  0.2268546E+04  0.7818609E-02  0.8490427E-01
       -1   -1    0    0    0  501  0.00000000000E+00  0.00000000000E+00  0.91781024537E+03  0.91781024539E+03  0.50400001928E-02 0. -1.
        1   -1    0    0  501    0  0.00000000000E+00  0.00000000000E+00 -0.14017879893E+04  0.14017879893E+04  0.50400001928E-02 0.  1.
    10030    2    1    2    0    0  0.00000000000E+00  0.00000000000E+00 -0.48397774394E+03  0.23195982347E+04  0.22685461234E+04 0.  0.
        2    1    3    3  502    0 -0.34266572740E+03  0.10749362667E+04 -0.36152833210E+03  0.11847406945E+04  0.25500000920E-02 0.  1.
       -2    1    3    3    0  502  0.34266572740E+03 -0.10749362667E+04 -0.12244941183E+03  0.11348575402E+04  0.25500000920E-02 0. -1.
</event>
<event>
 5   0  0.9535394E-05  0.2034971E+04  0.7818609E-02  0.8590443E-01
       -2   -1    0    0    0  501  0.00000000000E+00  0.00000000000E+00  0.11973880351E+04  0.11973880351E+04  0.25500000920E-02 0.  1.
        2   -1    0    0  501    0  0.00000000000E+00  0.00000000000E+00 -0.86461250139E+03  0.86461250139E+03  0.25500000920E-02 0. -1.
    10030    2    1    2    0    0  0.00000000000E+00  0.00000000000E+00  0.33277553366E+03  0.20620005364E+04  0.20349709228E+04 0.  0.
        2    1    3    3  502    0 -0.99588454657E+03 -0.28824810970E+01  0.37768166053E+03  0.10650998899E+04  0.25500000920E-02 0.  1.
       -2    1    3    3    0  502  0.99588454657E+03  0.28824810970E+01 -0.44906126873E+02  0.99690064652E+03  0.25500000920E-02 0. -1.
</event>
<event>
 5   0  0.4295775E-05  0.2339249E+04  0.7818609E-02  0.8462604E-01
        1   -1    0    0  501    0  0.00000000000E+00  0.00000000000E+00  0.16336859190E+04  0.16336859190E+04  0.50400001928E-02 0.  1.
       -1   -1    0    0    0  501  0.00000000000E+00  0.00000000000E+00 -0.83738367195E+03  0.83738367196E+03  0.50400001928E-02 0. -1.
    10030    2    1    2    0    0  0.00000000000E+00  0.00000000000E+00  0.79630224706E+03  0.24710695910E+04  0.23392493785E+04 0.  0.
        5    1    3    3  502    0 -0.85972391669E+03  0.63888089048E+03  0.89441806391E+03  0.13954568314E+04  0.46999998093E+01 0.  1.
       -5    1    3    3    0  502  0.85972391669E+03 -0.63888089048E+03 -0.98115816841E+02  0.10756127596E+04  0.46999998093E+01 0. -1.
</event>
</LesHouchesEvents>
